<event>
 7    1  0.3766050E-009  0.4614232E+02  0.7816164E-02  0.1320468E+00
        -11   -1    0    0    0    0  0.00000000000E+00  0.00000000000E+00  0.45593999997E+02  0.45594000000E+02  0.51100000000E-03 0. -1.
         11   -1    0    0    0    0 -0.00000000000E+00 -0.00000000000E+00 -0.45593999997E+02  0.45594000000E+02  0.51100000000E-03 0.  1.
    9900012    2    1    2    0    0 -0.25585397720E+02 -0.34411843709E+02 -0.13795874535E+02  0.46142315211E+02  0.99999767435E+01 0.  0.
         12    1    1    2    0    0  0.25585397720E+02  0.34411843709E+02  0.13795874535E+02  0.45045684789E+02  0.00000000000E+00 0. -1.
         11    1    3    3    0    0 -0.13831253941E+02 -0.12346973289E+02 -0.47156475838E+01  0.19130830284E+02  0.51100000000E-03 0. -1.
        -11    1    3    3    0    0 -0.96656027866E+01 -0.16518672554E+02 -0.88361911714E+01  0.21080054432E+02  0.51100000000E-03 0.  1.
         12    1    3    3    0    0 -0.20885409927E+01 -0.55461978663E+01 -0.24403577961E+00  0.59314304945E+01  0.00000000000E+00 0. -1.
</event>
<event>
 7    1  0.3766050E-009  0.4614231E+02  0.7816164E-02  0.1320468E+00
        -11   -1    0    0    0    0  0.00000000000E+00  0.00000000000E+00  0.45593999997E+02  0.45594000000E+02  0.51100000000E-03 0. -1.
         11   -1    0    0    0    0 -0.00000000000E+00 -0.00000000000E+00 -0.45593999997E+02  0.45594000000E+02  0.51100000000E-03 0.  1.
    9900012    2    1    2    0    0 -0.31239798153E+02 -0.34804641608E+01 -0.32265697880E+02  0.46142313424E+02  0.99999604537E+01 0.  0.
         12    1    1    2    0    0  0.31239798153E+02  0.34804641608E+01  0.32265697880E+02  0.45045686576E+02  0.00000000000E+00 0. -1.
         11    1    3    3    0    0 -0.10803555172E+02 -0.44972155097E+01 -0.10909156709E+02  0.15998482805E+02  0.51100000000E-03 0. -1.
        -11    1    3    3    0    0 -0.21697406563E+01  0.20347476424E+01 -0.27920945213E+01  0.40796770167E+01  0.51100000000E-03 0.  1.
        -12    1    3    3    0    0 -0.18266502324E+02 -0.10179962935E+01 -0.18564446649E+02  0.26064153602E+02  0.00000000000E+00 0.  1.
</event>
<event>
 7    1  0.3766050E-009  0.4614232E+02  0.7816164E-02  0.1320468E+00
        -11   -1    0    0    0    0  0.00000000000E+00  0.00000000000E+00  0.45593999997E+02  0.45594000000E+02  0.51100000000E-03 0. -1.
         11   -1    0    0    0    0 -0.00000000000E+00 -0.00000000000E+00 -0.45593999997E+02  0.45594000000E+02  0.51100000000E-03 0.  1.
    9900012    2    1    2    0    0 -0.28618502107E+02 -0.12483836718E+02 -0.32469194514E+02  0.46142318360E+02  0.10000005460E+02 0.  0.
         12    1    1    2    0    0  0.28618502107E+02  0.12483836718E+02  0.32469194514E+02  0.45045681640E+02  0.00000000000E+00 0. -1.
         11    1    3    3    0    0 -0.21870271953E+02 -0.69342165279E+01 -0.20115234350E+02  0.30512535250E+02  0.51100000000E-03 0.  1.
        -11    1    3    3    0    0 -0.75234101030E-01 -0.20276170169E+01 -0.26199520191E+01  0.33137651969E+01  0.51100000000E-03 0. -1.
         12    1    3    3    0    0 -0.66729960527E+01 -0.35220031728E+01 -0.97340081446E+01  0.12316017913E+02  0.00000000000E+00 0. -1.
</event>
<event>
 7    1  0.3766050E-009  0.4614232E+02  0.7816164E-02  0.1320468E+00
        -11   -1    0    0    0    0  0.00000000000E+00  0.00000000000E+00  0.45593999997E+02  0.45594000000E+02  0.51100000000E-03 0. -1.
         11   -1    0    0    0    0 -0.00000000000E+00 -0.00000000000E+00 -0.45593999997E+02  0.45594000000E+02  0.51100000000E-03 0.  1.
    9900012    2    1    2    0    0  0.28042077918E+02  0.12088324274E+02 -0.33115370309E+02  0.46142317982E+02  0.10000002015E+02 0.  0.
         12    1    1    2    0    0 -0.28042077918E+02 -0.12088324274E+02  0.33115370309E+02  0.45045682018E+02  0.00000000000E+00 0. -1.
         11    1    3    3    0    0  0.10300249239E+01  0.87123644616E+00 -0.99602211455E+00  0.16769211677E+01  0.51100000000E-03 0. -1.
        -11    1    3    3    0    0  0.55957495942E+01 -0.15254567305E+01 -0.68369892342E+01  0.89657043118E+01  0.51100000000E-03 0.  1.
        -12    1    3    3    0    0  0.21416303400E+02  0.12742544559E+02 -0.25282358961E+02  0.35499692502E+02  0.00000000000E+00 0.  1.
</event>
<event>
 7    1  0.3766050E-009  0.4614232E+02  0.7816164E-02  0.1320468E+00
        -11   -1    0    0    0    0  0.00000000000E+00  0.00000000000E+00  0.45593999997E+02  0.45594000000E+02  0.51100000000E-03 0. -1.
         11   -1    0    0    0    0 -0.00000000000E+00 -0.00000000000E+00 -0.45593999997E+02  0.45594000000E+02  0.51100000000E-03 0.  1.
    9900012    2    1    2    0    0  0.24802940635E+02 -0.70974297240E+01  0.36926333323E+02  0.46142318015E+02  0.10000002313E+02 0.  0.
        -12    1    1    2    0    0 -0.24802940635E+02  0.70974297240E+01 -0.36926333323E+02  0.45045681985E+02  0.00000000000E+00 0.  1.
         11    1    3    3    0    0  0.67834181251E+01 -0.50594607300E+01  0.16082244814E+02  0.18172823194E+02  0.51100000000E-03 0. -1.
        -11    1    3    3    0    0  0.10237240060E+02 -0.26546442011E+00  0.14611008331E+02  0.17842452750E+02  0.51100000000E-03 0.  1.
         12    1    3    3    0    0  0.77822824507E+01 -0.17725045739E+01  0.62330801773E+01  0.10127042071E+02  0.00000000000E+00 0. -1.
</event>
<event>
 7    1  0.3766050E-009  0.4614232E+02  0.7816164E-02  0.1320468E+00
        -11   -1    0    0    0    0  0.00000000000E+00  0.00000000000E+00  0.45593999997E+02  0.45594000000E+02  0.51100000000E-03 0. -1.
         11   -1    0    0    0    0 -0.00000000000E+00 -0.00000000000E+00 -0.45593999997E+02  0.45594000000E+02  0.51100000000E-03 0.  1.
    9900012    2    1    2    0    0  0.22578962437E+01  0.51053386823E+01  0.44698444689E+02  0.46142317231E+02  0.99999951670E+01 0.  0.
        -12    1    1    2    0    0 -0.22578962437E+01 -0.51053386823E+01 -0.44698444689E+02  0.45045682769E+02  0.00000000000E+00 0.  1.
         11    1    3    3    0    0  0.44118906418E+00  0.66984632403E+01  0.27676512374E+02  0.28478999193E+02  0.51100000000E-03 0. -1.
        -11    1    3    3    0    0 -0.13081942999E+01 -0.58594121887E+00  0.51596161428E+01  0.53550292661E+01  0.51100000000E-03 0.  1.
         12    1    3    3    0    0  0.31249014794E+01 -0.10071833391E+01  0.11862316172E+02  0.12308288772E+02  0.00000000000E+00 0. -1.
</event>
<event>
 7    1  0.3766050E-009  0.4614232E+02  0.7816164E-02  0.1320468E+00
        -11   -1    0    0    0    0  0.00000000000E+00  0.00000000000E+00  0.45593999997E+02  0.45594000000E+02  0.51100000000E-03 0. -1.
         11   -1    0    0    0    0 -0.00000000000E+00 -0.00000000000E+00 -0.45593999997E+02  0.45594000000E+02  0.51100000000E-03 0.  1.
    9900012    2    1    2    0    0 -0.13926686582E+02 -0.95514963920E+01  0.41760384042E+02  0.46142319211E+02  0.10000013217E+02 0.  0.
        -12    1    1    2    0    0  0.13926686582E+02  0.95514963920E+01 -0.41760384042E+02  0.45045680789E+02  0.00000000000E+00 0.  1.
         11    1    3    3    0    0 -0.33488914451E+01 -0.20123616839E+01  0.16374241579E+02  0.16833908073E+02  0.51100000000E-03 0. -1.
        -11    1    3    3    0    0 -0.67330796274E+01 -0.43244791596E+01  0.84133753552E+01  0.11611217266E+02  0.51100000000E-03 0.  1.
        -12    1    3    3    0    0 -0.38447155093E+01 -0.32146555484E+01  0.16972767107E+02  0.17697193871E+02  0.00000000000E+00 0.  1.
</event>
<event>
 7    1  0.3766050E-009  0.4614232E+02  0.7816164E-02  0.1320468E+00
        -11   -1    0    0    0    0  0.00000000000E+00  0.00000000000E+00  0.45593999997E+02  0.45594000000E+02  0.51100000000E-03 0. -1.
         11   -1    0    0    0    0 -0.00000000000E+00 -0.00000000000E+00 -0.45593999997E+02  0.45594000000E+02  0.51100000000E-03 0.  1.
    9900012    2    1    2    0    0 -0.14710658471E+02  0.28021880591E+02 -0.32054393893E+02  0.46142318383E+02  0.10000005667E+02 0.  0.
         12    1    1    2    0    0  0.14710658471E+02 -0.28021880591E+02  0.32054393893E+02  0.45045681617E+02  0.00000000000E+00 0. -1.
         11    1    3    3    0    0 -0.87006420927E+00  0.10979408966E+02 -0.10568149982E+02  0.15264017402E+02  0.51100000000E-03 0. -1.
        -11    1    3    3    0    0 -0.52213129651E+01  0.66292963770E+01 -0.61926531506E+01  0.10467025979E+02  0.51100000000E-03 0.  1.
         12    1    3    3    0    0 -0.86192812963E+01  0.10413175249E+02 -0.15293590761E+02  0.20411275001E+02  0.00000000000E+00 0. -1.
</event>
<event>
 7    1  0.3766050E-009  0.4614232E+02  0.7816164E-02  0.1320468E+00
        -11   -1    0    0    0    0  0.00000000000E+00  0.00000000000E+00  0.45593999997E+02  0.45594000000E+02  0.51100000000E-03 0. -1.
         11   -1    0    0    0    0 -0.00000000000E+00 -0.00000000000E+00 -0.45593999997E+02  0.45594000000E+02  0.51100000000E-03 0.  1.
    9900012    2    1    2    0    0  0.23258777759E+02  0.83399890030E+01  0.37664139404E+02  0.46142317005E+02  0.99999931073E+01 0.  0.
        -12    1    1    2    0    0 -0.23258777759E+02 -0.83399890030E+01 -0.37664139404E+02  0.45045682995E+02  0.00000000000E+00 0.  1.
         11    1    3    3    0    0  0.12798245833E+02  0.36631764336E+01  0.15438311942E+02  0.20385176817E+02  0.51100000000E-03 0. -1.
        -11    1    3    3    0    0  0.14906474171E+01  0.33827733011E+01  0.42995769508E+01  0.56702334295E+01  0.51100000000E-03 0.  1.
         12    1    3    3    0    0  0.89698845090E+01  0.12940392683E+01  0.17926250512E+02  0.20086906759E+02  0.00000000000E+00 0. -1.
</event>
<event>
 7    1  0.4359821E-009  0.4614232E+02  0.7816164E-02  0.1320468E+00
        -11   -1    0    0    0    0  0.00000000000E+00  0.00000000000E+00  0.45593999997E+02  0.45594000000E+02  0.51100000000E-03 0. -1.
         11   -1    0    0    0    0 -0.00000000000E+00 -0.00000000000E+00 -0.45593999997E+02  0.45594000000E+02  0.51100000000E-03 0.  1.
    9900012    2    1    2    0    0 -0.91196394986E+01  0.76645230434E+01 -0.43441924081E+02  0.46142317567E+02  0.99999982265E+01 0.  0.
         12    1    1    2    0    0  0.91196394986E+01 -0.76645230434E+01  0.43441924081E+02  0.45045682433E+02  0.00000000000E+00 0. -1.
         11    1    3    3    0    0 -0.49658161665E+01  0.46106697730E+01 -0.32027051927E+02  0.32736060565E+02  0.51100000000E-03 0. -1.
        -11    1    3    3    0    0 -0.49195466616E+01  0.15983854967E+01 -0.99018336697E+01  0.11171530147E+02  0.51100000000E-03 0.  1.
         12    1    3    3    0    0  0.76572332943E+00  0.14554677737E+01 -0.15130384843E+01  0.22347268541E+01  0.00000000000E+00 0. -1.
</event>
<event>
 7    1  0.3766050E-009  0.4614232E+02  0.7816164E-02  0.1320468E+00
        -11   -1    0    0    0    0  0.00000000000E+00  0.00000000000E+00  0.45593999997E+02  0.45594000000E+02  0.51100000000E-03 0. -1.
         11   -1    0    0    0    0 -0.00000000000E+00 -0.00000000000E+00 -0.45593999997E+02  0.45594000000E+02  0.51100000000E-03 0.  1.
    9900012    2    1    2    0    0  0.29971095680E+02  0.11038622902E+02  0.31764693335E+02  0.46142317471E+02  0.99999973581E+01 0.  0.
        -12    1    1    2    0    0 -0.29971095680E+02 -0.11038622902E+02 -0.31764693335E+02  0.45045682529E+02  0.00000000000E+00 0.  1.
         11    1    3    3    0    0  0.81003873804E+01  0.20604371301E+01  0.10918015846E+02  0.13750081715E+02  0.51100000000E-03 0.  1.
        -11    1    3    3    0    0  0.18190491535E+02  0.55875928514E+01  0.19419181415E+02  0.27188596567E+02  0.51100000000E-03 0. -1.
        -12    1    3    3    0    0  0.36802167638E+01  0.33905929205E+01  0.14274960737E+01  0.52036391902E+01  0.00000000000E+00 0.  1.
</event>
<event>
 7    1  0.3766050E-009  0.4614232E+02  0.7816164E-02  0.1320468E+00
        -11   -1    0    0    0    0  0.00000000000E+00  0.00000000000E+00  0.45593999997E+02  0.45594000000E+02  0.51100000000E-03 0. -1.
         11   -1    0    0    0    0 -0.00000000000E+00 -0.00000000000E+00 -0.45593999997E+02  0.45594000000E+02  0.51100000000E-03 0.  1.
    9900012    2    1    2    0    0 -0.76118840436E+01 -0.30778582425E+02 -0.31997683249E+02  0.46142315988E+02  0.99999838343E+01 0.  0.
         12    1    1    2    0    0  0.76118840436E+01  0.30778582425E+02  0.31997683249E+02  0.45045684012E+02  0.00000000000E+00 0. -1.
         11    1    3    3    0    0 -0.52717471103E+01 -0.12858565302E+02 -0.16951391793E+02  0.21919938486E+02  0.51100000000E-03 0.  1.
        -11    1    3    3    0    0 -0.12542626015E+01 -0.17071161277E+02 -0.12076987200E+02  0.20948779012E+02  0.51100000000E-03 0. -1.
         12    1    3    3    0    0 -0.10858743318E+01 -0.84885584562E+00 -0.29693042563E+01  0.32735984905E+01  0.00000000000E+00 0. -1.
</event>
<event>
 7    1  0.3766050E-009  0.4614232E+02  0.7816164E-02  0.1320468E+00
        -11   -1    0    0    0    0  0.00000000000E+00  0.00000000000E+00  0.45593999997E+02  0.45594000000E+02  0.51100000000E-03 0. -1.
         11   -1    0    0    0    0 -0.00000000000E+00 -0.00000000000E+00 -0.45593999997E+02  0.45594000000E+02  0.51100000000E-03 0.  1.
    9900012    2    1    2    0    0  0.11902129264E+01  0.12828958282E+01 -0.45011676599E+02  0.46142318090E+02  0.10000002995E+02 0.  0.
         12    1    1    2    0    0 -0.11902129264E+01 -0.12828958282E+01  0.45011676599E+02  0.45045681910E+02  0.00000000000E+00 0. -1.
         11    1    3    3    0    0  0.89957476816E+00 -0.15621710991E+01 -0.10279033770E+02  0.10435906708E+02  0.51100000000E-03 0. -1.
        -11    1    3    3    0    0  0.72436213693E+00  0.70308740924E+00 -0.32719469394E+02  0.32735037957E+02  0.51100000000E-03 0.  1.
        -12    1    3    3    0    0 -0.43372397865E+00  0.21419795181E+01 -0.20131734353E+01  0.29713734242E+01  0.00000000000E+00 0.  1.
</event>
<event>
 7    1  0.3766050E-009  0.4614232E+02  0.7816164E-02  0.1320468E+00
        -11   -1    0    0    0    0  0.00000000000E+00  0.00000000000E+00  0.45593999997E+02  0.45594000000E+02  0.51100000000E-03 0.  1.
         11   -1    0    0    0    0 -0.00000000000E+00 -0.00000000000E+00 -0.45593999997E+02  0.45594000000E+02  0.51100000000E-03 0. -1.
    9900012    2    1    2    0    0  0.30030382824E+02  0.29419981336E+02  0.16178823166E+02  0.46142317483E+02  0.99999974646E+01 0.  0.
        -12    1    1    2    0    0 -0.30030382824E+02 -0.29419981336E+02 -0.16178823166E+02  0.45045682517E+02  0.00000000000E+00 0.  1.
         11    1    3    3    0    0  0.12205123291E+02  0.16927083123E+02  0.55593636772E+01  0.21596242783E+02  0.51100000000E-03 0. -1.
        -11    1    3    3    0    0  0.10764290007E+02  0.51380469325E+01  0.54245690557E+01  0.13103259722E+02  0.51100000000E-03 0.  1.
        -12    1    3    3    0    0  0.70609695262E+01  0.73548512811E+01  0.51948904329E+01  0.11442814978E+02  0.00000000000E+00 0.  1.
</event>
<event>
 7    1  0.3766050E-009  0.4614232E+02  0.7816164E-02  0.1320468E+00
        -11   -1    0    0    0    0  0.00000000000E+00  0.00000000000E+00  0.45593999997E+02  0.45594000000E+02  0.51100000000E-03 0. -1.
         11   -1    0    0    0    0 -0.00000000000E+00 -0.00000000000E+00 -0.45593999997E+02  0.45594000000E+02  0.51100000000E-03 0.  1.
    9900012    2    1    2    0    0  0.16725653955E+02 -0.34941387477E+02  0.22988374907E+02  0.46142318300E+02  0.10000004911E+02 0.  0.
        -12    1    1    2    0    0 -0.16725653955E+02  0.34941387477E+02 -0.22988374907E+02  0.45045681700E+02  0.00000000000E+00 0.  1.
         11    1    3    3    0    0  0.75342029558E+01 -0.24191278609E+02  0.15704847722E+02  0.29809804044E+02  0.51100000000E-03 0.  1.
        -11    1    3    3    0    0  0.53894240438E+01 -0.87444066306E+01  0.45210380260E+01  0.11222759195E+02  0.51100000000E-03 0. -1.
         12    1    3    3    0    0  0.38020269552E+01 -0.20057022370E+01  0.27624891583E+01  0.51097550608E+01  0.00000000000E+00 0. -1.
</event>
<event>
 7    1  0.3766050E-009  0.4614232E+02  0.7816164E-02  0.1320468E+00
        -11   -1    0    0    0    0  0.00000000000E+00  0.00000000000E+00  0.45593999997E+02  0.45594000000E+02  0.51100000000E-03 0. -1.
         11   -1    0    0    0    0 -0.00000000000E+00 -0.00000000000E+00 -0.45593999997E+02  0.45594000000E+02  0.51100000000E-03 0.  1.
    9900012    2    1    2    0    0  0.18997740806E+01 -0.40786850587E+02  0.19024646968E+02  0.46142317469E+02  0.99999973403E+01 0.  0.
        -12    1    1    2    0    0 -0.18997740806E+01  0.40786850587E+02 -0.19024646968E+02  0.45045682531E+02  0.00000000000E+00 0.  1.
         11    1    3    3    0    0  0.66244945055E+00 -0.87572610869E+01  0.31762814209E+01  0.93390162728E+01  0.51100000000E-03 0. -1.
        -11    1    3    3    0    0 -0.25825052287E+01 -0.30991405793E+01  0.19912795147E+01  0.44987998348E+01  0.51100000000E-03 0.  1.
        -12    1    3    3    0    0  0.38198298588E+01 -0.28930448921E+02  0.13857086033E+02  0.32304501362E+02  0.00000000000E+00 0.  1.
</event>
<event>
 7    1  0.3766050E-009  0.4614232E+02  0.7816164E-02  0.1320468E+00
        -11   -1    0    0    0    0  0.00000000000E+00  0.00000000000E+00  0.45593999997E+02  0.45594000000E+02  0.51100000000E-03 0. -1.
         11   -1    0    0    0    0 -0.00000000000E+00 -0.00000000000E+00 -0.45593999997E+02  0.45594000000E+02  0.51100000000E-03 0.  1.
    9900012    2    1    2    0    0 -0.21455838025E+02 -0.22459403928E+02 -0.32624157916E+02  0.46142317745E+02  0.99999998503E+01 0.  0.
         12    1    1    2    0    0  0.21455838025E+02  0.22459403928E+02  0.32624157916E+02  0.45045682255E+02  0.00000000000E+00 0. -1.
         11    1    3    3    0    0 -0.21023369699E+01 -0.62458872512E+00 -0.18908804516E+01  0.28957487725E+01  0.51100000000E-03 0. -1.
        -11    1    3    3    0    0 -0.11492974866E+02 -0.18625324528E+02 -0.21014425817E+02  0.30341346010E+02  0.51100000000E-03 0.  1.
        -12    1    3    3    0    0 -0.78605261890E+01 -0.32094906751E+01 -0.97188516469E+01  0.12905222962E+02  0.00000000000E+00 0.  1.
</event>
<event>
 7    1  0.3766050E-009  0.4614232E+02  0.7816164E-02  0.1320468E+00
        -11   -1    0    0    0    0  0.00000000000E+00  0.00000000000E+00  0.45593999997E+02  0.45594000000E+02  0.51100000000E-03 0. -1.
         11   -1    0    0    0    0 -0.00000000000E+00 -0.00000000000E+00 -0.45593999997E+02  0.45594000000E+02  0.51100000000E-03 0.  1.
    9900012    2    1    2    0    0  0.21108014939E+02  0.18640833062E+02  0.35157990540E+02  0.46142320399E+02  0.10000024052E+02 0.  0.
        -12    1    1    2    0    0 -0.21108014939E+02 -0.18640833062E+02 -0.35157990540E+02  0.45045679601E+02  0.00000000000E+00 0.  1.
         11    1    3    3    0    0  0.29438708821E+01  0.59585228357E+01  0.51185853291E+01  0.83886999104E+01  0.51100000000E-03 0. -1.
        -11    1    3    3    0    0  0.16957529153E+02  0.13034276986E+02  0.29361437474E+02  0.36325530724E+02  0.51100000000E-03 0.  1.
        -12    1    3    3    0    0  0.12066149032E+01 -0.35196675914E+00  0.67796773687E+00  0.14280897648E+01  0.00000000000E+00 0.  1.
</event>
<event>
 7    1  0.3766050E-009  0.4614232E+02  0.7816164E-02  0.1320468E+00
        -11   -1    0    0    0    0  0.00000000000E+00  0.00000000000E+00  0.45593999997E+02  0.45594000000E+02  0.51100000000E-03 0. -1.
         11   -1    0    0    0    0 -0.00000000000E+00 -0.00000000000E+00 -0.45593999997E+02  0.45594000000E+02  0.51100000000E-03 0.  1.
    9900012    2    1    2    0    0 -0.18843199065E+02  0.20715232742E+02 -0.35283516707E+02  0.46142316857E+02  0.99999917591E+01 0.  0.
         12    1    1    2    0    0  0.18843199065E+02 -0.20715232742E+02  0.35283516707E+02  0.45045683143E+02  0.00000000000E+00 0. -1.
         11    1    3    3    0    0 -0.77248025329E+01  0.15532517065E+02 -0.19292855974E+02  0.25945056416E+02  0.51100000000E-03 0. -1.
        -11    1    3    3    0    0 -0.90716745046E+01  0.37127245946E+01 -0.13125021664E+02  0.16381263571E+02  0.51100000000E-03 0.  1.
         12    1    3    3    0    0 -0.20467220279E+01  0.14699910825E+01 -0.28656390693E+01  0.38159968708E+01  0.00000000000E+00 0. -1.
</event>
<event>
 7    1  0.3766050E-009  0.4614232E+02  0.7816164E-02  0.1320468E+00
        -11   -1    0    0    0    0  0.00000000000E+00  0.00000000000E+00  0.45593999997E+02  0.45594000000E+02  0.51100000000E-03 0. -1.
         11   -1    0    0    0    0 -0.00000000000E+00 -0.00000000000E+00 -0.45593999997E+02  0.45594000000E+02  0.51100000000E-03 0.  1.
    9900012    2    1    2    0    0 -0.14466639604E+02  0.18742157098E+02  0.38321813262E+02  0.46142317789E+02  0.10000000256E+02 0.  0.
        -12    1    1    2    0    0  0.14466639604E+02 -0.18742157098E+02 -0.38321813262E+02  0.45045682211E+02  0.00000000000E+00 0.  1.
         11    1    3    3    0    0 -0.60654310925E+01  0.49574208119E+01  0.16211888555E+02  0.18005299393E+02  0.51100000000E-03 0. -1.
        -11    1    3    3    0    0 -0.20215273701E+01  0.94662917256E+01  0.11659221138E+02  0.15153702179E+02  0.51100000000E-03 0.  1.
        -12    1    3    3    0    0 -0.63796811418E+01  0.43184445606E+01  0.10450703569E+02  0.12983316216E+02  0.00000000000E+00 0.  1.
</event>
<event>
 7    1  0.3766050E-009  0.4614232E+02  0.7816164E-02  0.1320468E+00
        -11   -1    0    0    0    0  0.00000000000E+00  0.00000000000E+00  0.45593999997E+02  0.45594000000E+02  0.51100000000E-03 0. -1.
         11   -1    0    0    0    0 -0.00000000000E+00 -0.00000000000E+00 -0.45593999997E+02  0.45594000000E+02  0.51100000000E-03 0.  1.
    9900012    2    1    2    0    0 -0.12965211236E+02  0.67547364521E+01  0.42607396599E+02  0.46142318610E+02  0.10000007741E+02 0.  0.
        -12    1    1    2    0    0  0.12965211236E+02 -0.67547364521E+01 -0.42607396599E+02  0.45045681390E+02  0.00000000000E+00 0.  1.
         11    1    3    3    0    0  0.40817942635E+00  0.25244823096E+00  0.54817371712E+01  0.55027069001E+01  0.51100000000E-03 0. -1.
        -11    1    3    3    0    0 -0.60721863423E+01  0.52027411841E+01  0.11827561282E+02  0.14276945365E+02  0.51100000000E-03 0.  1.
        -12    1    3    3    0    0 -0.73012043198E+01  0.12995470371E+01  0.25298098146E+02  0.26362666345E+02  0.00000000000E+00 0.  1.
</event>
<event>
 7    1  0.3766050E-009  0.4614232E+02  0.7816164E-02  0.1320468E+00
        -11   -1    0    0    0    0  0.00000000000E+00  0.00000000000E+00  0.45593999997E+02  0.45594000000E+02  0.51100000000E-03 0.  1.
         11   -1    0    0    0    0 -0.00000000000E+00 -0.00000000000E+00 -0.45593999997E+02  0.45594000000E+02  0.51100000000E-03 0. -1.
    9900012    2    1    2    0    0 -0.37518593879E+02  0.24724071554E+02  0.31920030445E+01  0.46142317806E+02  0.10000000407E+02 0.  0.
         12    1    1    2    0    0  0.37518593879E+02 -0.24724071554E+02 -0.31920030445E+01  0.45045682194E+02  0.00000000000E+00 0. -1.
         11    1    3    3    0    0 -0.14664455887E+02  0.12932124034E+02  0.46730080794E+01  0.20102813317E+02  0.51100000000E-03 0. -1.
        -11    1    3    3    0    0 -0.18345907295E+02  0.10445922152E+02 -0.14508800630E-01  0.21111366958E+02  0.51100000000E-03 0.  1.
         12    1    3    3    0    0 -0.45082306970E+01  0.13460253683E+01 -0.14664962342E+01  0.49281375300E+01  0.00000000000E+00 0. -1.
</event>
<event>
 7    1  0.3766050E-009  0.4614232E+02  0.7816164E-02  0.1320468E+00
        -11   -1    0    0    0    0  0.00000000000E+00  0.00000000000E+00  0.45593999997E+02  0.45594000000E+02  0.51100000000E-03 0. -1.
         11   -1    0    0    0    0 -0.00000000000E+00 -0.00000000000E+00 -0.45593999997E+02  0.45594000000E+02  0.51100000000E-03 0.  1.
    9900012    2    1    2    0    0  0.28670320570E+02  0.11937018537E+02  0.32628726821E+02  0.46142317553E+02  0.99999980999E+01 0.  0.
        -12    1    1    2    0    0 -0.28670320570E+02 -0.11937018537E+02 -0.32628726821E+02  0.45045682447E+02  0.00000000000E+00 0.  1.
         11    1    3    3    0    0  0.15621878598E+02  0.42784143825E+01  0.20455937818E+02  0.26092016266E+02  0.51100000000E-03 0. -1.
        -11    1    3    3    0    0  0.36910252035E+01  0.37002554696E+01  0.17928223031E+01  0.55253750701E+01  0.51100000000E-03 0.  1.
        -12    1    3    3    0    0  0.93574167686E+01  0.39583486852E+01  0.10379966700E+02  0.14524926216E+02  0.00000000000E+00 0.  1.
</event>
<event>
 7    1  0.3766050E-009  0.4614232E+02  0.7816164E-02  0.1320468E+00
        -11   -1    0    0    0    0  0.00000000000E+00  0.00000000000E+00  0.45593999997E+02  0.45594000000E+02  0.51100000000E-03 0.  1.
         11   -1    0    0    0    0 -0.00000000000E+00 -0.00000000000E+00 -0.45593999997E+02  0.45594000000E+02  0.51100000000E-03 0. -1.
    9900012    2    1    2    0    0  0.19040216041E+02 -0.29584188579E+02  0.28131110461E+02  0.46142318558E+02  0.10000007271E+02 0.  0.
        -12    1    1    2    0    0 -0.19040216041E+02  0.29584188579E+02 -0.28131110461E+02  0.45045681442E+02  0.00000000000E+00 0.  1.
         11    1    3    3    0    0  0.37554599985E+01 -0.32804087885E+01  0.40184553994E+01  0.64041038154E+01  0.51100000000E-03 0. -1.
        -11    1    3    3    0    0  0.16277560931E+02 -0.25623336640E+02  0.23487174710E+02  0.38381789257E+02  0.51100000000E-03 0.  1.
        -12    1    3    3    0    0 -0.99280488917E+00 -0.68044315036E+00  0.62548035195E+00  0.13564254862E+01  0.00000000000E+00 0.  1.
</event>
<event>
 7    1  0.3766050E-009  0.4614231E+02  0.7816164E-02  0.1320468E+00
        -11   -1    0    0    0    0  0.00000000000E+00  0.00000000000E+00  0.45593999997E+02  0.45594000000E+02  0.51100000000E-03 0. -1.
         11   -1    0    0    0    0 -0.00000000000E+00 -0.00000000000E+00 -0.45593999997E+02  0.45594000000E+02  0.51100000000E-03 0.  1.
    9900012    2    1    2    0    0  0.38049498230E+02  0.44941268167E+01  0.23688652556E+02  0.46142314843E+02  0.99999733881E+01 0.  0.
        -12    1    1    2    0    0 -0.38049498230E+02 -0.44941268167E+01 -0.23688652556E+02  0.45045685157E+02  0.00000000000E+00 0.  1.
         11    1    3    3    0    0  0.10061364277E+02  0.24804426347E+01  0.94180814897E+01  0.14002996322E+02  0.51100000000E-03 0. -1.
        -11    1    3    3    0    0  0.90066925093E+01 -0.41238366959E+00  0.15168501262E+01  0.91428335222E+01  0.51100000000E-03 0.  1.
         12    1    3    3    0    0  0.18981441444E+02  0.24260678516E+01  0.12753720940E+02  0.22996484999E+02  0.00000000000E+00 0. -1.
</event>
<event>
 7    1  0.3766050E-009  0.4614232E+02  0.7816164E-02  0.1320468E+00
        -11   -1    0    0    0    0  0.00000000000E+00  0.00000000000E+00  0.45593999997E+02  0.45594000000E+02  0.51100000000E-03 0. -1.
         11   -1    0    0    0    0 -0.00000000000E+00 -0.00000000000E+00 -0.45593999997E+02  0.45594000000E+02  0.51100000000E-03 0.  1.
    9900012    2    1    2    0    0  0.23163538922E+02 -0.46717608301E+01 -0.38350211898E+02  0.46142316108E+02  0.99999849296E+01 0.  0.
         12    1    1    2    0    0 -0.23163538922E+02  0.46717608301E+01  0.38350211898E+02  0.45045683892E+02  0.00000000000E+00 0. -1.
         11    1    3    3    0    0  0.89903634643E+01  0.14011053623E+01 -0.18781634625E+02  0.20869583870E+02  0.51100000000E-03 0. -1.
        -11    1    3    3    0    0  0.62519015057E+01 -0.48456136111E+01 -0.10879637581E+02  0.13451124780E+02  0.51100000000E-03 0.  1.
        -12    1    3    3    0    0  0.79212739520E+01 -0.12272525812E+01 -0.86889396919E+01  0.11821607458E+02  0.00000000000E+00 0.  1.
</event>
<event>
 7    1  0.3766050E-009  0.4614232E+02  0.7816164E-02  0.1320468E+00
        -11   -1    0    0    0    0  0.00000000000E+00  0.00000000000E+00  0.45593999997E+02  0.45594000000E+02  0.51100000000E-03 0. -1.
         11   -1    0    0    0    0 -0.00000000000E+00 -0.00000000000E+00 -0.45593999997E+02  0.45594000000E+02  0.51100000000E-03 0.  1.
    9900012    2    1    2    0    0  0.34958825808E+01 -0.70762168972E+01 -0.44348838605E+02  0.46142317341E+02  0.99999961721E+01 0.  0.
         12    1    1    2    0    0 -0.34958825808E+01  0.70762168972E+01  0.44348838605E+02  0.45045682659E+02  0.00000000000E+00 0. -1.
         11    1    3    3    0    0  0.13400303481E+01  0.10508712533E+01 -0.53295263796E+01  0.55949855600E+01  0.51100000000E-03 0. -1.
        -11    1    3    3    0    0  0.10696603249E+00 -0.87078449122E+01 -0.27958390868E+02  0.29283265271E+02  0.51100000000E-03 0.  1.
        -12    1    3    3    0    0  0.20488862002E+01  0.58075676172E+00 -0.11060921357E+02  0.11264066510E+02  0.00000000000E+00 0.  1.
</event>
<event>
 7    1  0.3766050E-009  0.4614232E+02  0.7816164E-02  0.1320468E+00
        -11   -1    0    0    0    0  0.00000000000E+00  0.00000000000E+00  0.45593999997E+02  0.45594000000E+02  0.51100000000E-03 0. -1.
         11   -1    0    0    0    0 -0.00000000000E+00 -0.00000000000E+00 -0.45593999997E+02  0.45594000000E+02  0.51100000000E-03 0.  1.
    9900012    2    1    2    0    0  0.41650645149E+01 -0.21522757819E+01 -0.44801041453E+02  0.46142319089E+02  0.10000012107E+02 0.  0.
         12    1    1    2    0    0 -0.41650645149E+01  0.21522757819E+01  0.44801041453E+02  0.45045680911E+02  0.00000000000E+00 0. -1.
         11    1    3    3    0    0  0.29441409581E+01  0.17395457112E+01 -0.50987322978E+01  0.61393042414E+01  0.51100000000E-03 0. -1.
        -11    1    3    3    0    0 -0.78825124849E-01 -0.26228379996E+01 -0.31127881417E+02  0.31238285714E+02  0.51100000000E-03 0.  1.
        -12    1    3    3    0    0  0.12997486816E+01 -0.12689834935E+01 -0.85744277383E+01  0.87647291334E+01  0.00000000000E+00 0.  1.
</event>
<event>
 7    1  0.3766050E-009  0.4614232E+02  0.7816164E-02  0.1320468E+00
        -11   -1    0    0    0    0  0.00000000000E+00  0.00000000000E+00  0.45593999997E+02  0.45594000000E+02  0.51100000000E-03 0. -1.
         11   -1    0    0    0    0 -0.00000000000E+00 -0.00000000000E+00 -0.45593999997E+02  0.45594000000E+02  0.51100000000E-03 0.  1.
    9900012    2    1    2    0    0  0.24385721895E+02  0.15758173043E+02  0.34440238558E+02  0.46142317833E+02  0.10000000651E+02 0.  0.
        -12    1    1    2    0    0 -0.24385721895E+02 -0.15758173043E+02 -0.34440238558E+02  0.45045682167E+02  0.00000000000E+00 0.  1.
         11    1    3    3    0    0  0.98358847318E+01  0.66923982046E+01  0.83524581757E+01  0.14536037287E+02  0.51100000000E-03 0.  1.
        -11    1    3    3    0    0  0.39600608977E+01  0.98088949731E+00  0.94379807897E+01  0.10282008956E+02  0.51100000000E-03 0. -1.
         12    1    3    3    0    0  0.10589776265E+02  0.80848853413E+01  0.16649799593E+02  0.21324271589E+02  0.00000000000E+00 0. -1.
</event>
<event>
 7    1  0.3766050E-009  0.4614232E+02  0.7816164E-02  0.1320468E+00
        -11   -1    0    0    0    0  0.00000000000E+00  0.00000000000E+00  0.45593999997E+02  0.45594000000E+02  0.51100000000E-03 0. -1.
         11   -1    0    0    0    0 -0.00000000000E+00 -0.00000000000E+00 -0.45593999997E+02  0.45594000000E+02  0.51100000000E-03 0.  1.
    9900012    2    1    2    0    0 -0.66905136586E+01  0.25486391036E+02  0.36534838321E+02  0.46142317497E+02  0.99999975895E+01 0.  0.
        -12    1    1    2    0    0  0.66905136586E+01 -0.25486391036E+02 -0.36534838321E+02  0.45045682503E+02  0.00000000000E+00 0.  1.
         11    1    3    3    0    0 -0.51774617657E+01  0.74366048125E+01  0.92878803111E+01  0.12975897750E+02  0.51100000000E-03 0. -1.
        -11    1    3    3    0    0  0.10416597066E+01  0.20206806705E+01  0.60895328229E+01  0.65000473520E+01  0.51100000000E-03 0.  1.
        -12    1    3    3    0    0 -0.25547115995E+01  0.16029105553E+02  0.21157425187E+02  0.26666372395E+02  0.00000000000E+00 0.  1.
</event>
<event>
 7    1  0.3766050E-009  0.4614232E+02  0.7816164E-02  0.1320468E+00
        -11   -1    0    0    0    0  0.00000000000E+00  0.00000000000E+00  0.45593999997E+02  0.45594000000E+02  0.51100000000E-03 0. -1.
         11   -1    0    0    0    0 -0.00000000000E+00 -0.00000000000E+00 -0.45593999997E+02  0.45594000000E+02  0.51100000000E-03 0.  1.
    9900012    2    1    2    0    0  0.15937516077E+02  0.24444997180E+02  0.34315465709E+02  0.46142317714E+02  0.99999995672E+01 0.  0.
        -12    1    1    2    0    0 -0.15937516077E+02 -0.24444997180E+02 -0.34315465709E+02  0.45045682286E+02  0.00000000000E+00 0.  1.
         11    1    3    3    0    0  0.55118199055E+01  0.54064531774E+01  0.13107467779E+02  0.15212350459E+02  0.51100000000E-03 0. -1.
        -11    1    3    3    0    0  0.81172369242E+01  0.11813926976E+02  0.10327113876E+02  0.17666569762E+02  0.51100000000E-03 0.  1.
         12    1    3    3    0    0  0.23084592469E+01  0.72246170268E+01  0.10880884053E+02  0.13263397493E+02  0.00000000000E+00 0. -1.
</event>
<event>
 7    1  0.3766050E-009  0.4614232E+02  0.7816164E-02  0.1320468E+00
        -11   -1    0    0    0    0  0.00000000000E+00  0.00000000000E+00  0.45593999997E+02  0.45594000000E+02  0.51100000000E-03 0. -1.
         11   -1    0    0    0    0 -0.00000000000E+00 -0.00000000000E+00 -0.45593999997E+02  0.45594000000E+02  0.51100000000E-03 0.  1.
    9900012    2    1    2    0    0  0.28265157554E+01  0.19005050789E+02 -0.40742267449E+02  0.46142317591E+02  0.99999984473E+01 0.  0.
         12    1    1    2    0    0 -0.28265157554E+01 -0.19005050789E+02  0.40742267449E+02  0.45045682409E+02  0.00000000000E+00 0. -1.
         11    1    3    3    0    0  0.39360840420E+01  0.18863644057E+02 -0.36261126682E+02  0.41063355114E+02  0.51100000000E-03 0. -1.
        -11    1    3    3    0    0 -0.89978532051E+00  0.85735132800E+00 -0.40062267368E+01  0.41945819637E+01  0.51100000000E-03 0.  1.
         12    1    3    3    0    0 -0.20978296612E+00 -0.71594459524E+00 -0.47491402987E+00  0.88438051319E+00  0.00000000000E+00 0. -1.
</event>
<event>
 7    1  0.3944844E-009  0.4614232E+02  0.7816164E-02  0.1320468E+00
        -11   -1    0    0    0    0  0.00000000000E+00  0.00000000000E+00  0.45593999997E+02  0.45594000000E+02  0.51100000000E-03 0. -1.
         11   -1    0    0    0    0 -0.00000000000E+00 -0.00000000000E+00 -0.45593999997E+02  0.45594000000E+02  0.51100000000E-03 0.  1.
    9900012    2    1    2    0    0 -0.35933438848E+02 -0.12621205296E+02 -0.24054243540E+02  0.46142317822E+02  0.10000000554E+02 0.  0.
         12    1    1    2    0    0  0.35933438848E+02  0.12621205296E+02  0.24054243540E+02  0.45045682178E+02  0.00000000000E+00 0. -1.
         11    1    3    3    0    0 -0.77317203724E+00  0.12345404161E+01 -0.31378076131E+00  0.14900817647E+01  0.51100000000E-03 0. -1.
        -11    1    3    3    0    0 -0.21767799596E+02 -0.91113490763E+01 -0.14262820778E+02  0.27573208700E+02  0.51100000000E-03 0.  1.
         12    1    3    3    0    0 -0.13392467215E+02 -0.47443966362E+01 -0.94776420007E+01  0.17079027357E+02  0.00000000000E+00 0. -1.
</event>
<event>
 7    1  0.3766050E-009  0.4614232E+02  0.7816164E-02  0.1320468E+00
        -11   -1    0    0    0    0  0.00000000000E+00  0.00000000000E+00  0.45593999997E+02  0.45594000000E+02  0.51100000000E-03 0. -1.
         11   -1    0    0    0    0 -0.00000000000E+00 -0.00000000000E+00 -0.45593999997E+02  0.45594000000E+02  0.51100000000E-03 0.  1.
    9900012    2    1    2    0    0 -0.15266436931E+02 -0.39490432422E+02 -0.15380344390E+02  0.46142319375E+02  0.10000014714E+02 0.  0.
         12    1    1    2    0    0  0.15266436931E+02  0.39490432422E+02  0.15380344390E+02  0.45045680625E+02  0.00000000000E+00 0. -1.
         11    1    3    3    0    0 -0.58332688323E+00 -0.11719872534E+01 -0.28468299677E+01  0.31334111605E+01  0.51100000000E-03 0. -1.
        -11    1    3    3    0    0 -0.97668379805E+01 -0.21391370492E+02 -0.71367971783E+01  0.24574696944E+02  0.51100000000E-03 0.  1.
        -12    1    3    3    0    0 -0.49162720672E+01 -0.16927074677E+02 -0.53967172436E+01  0.18434211270E+02  0.00000000000E+00 0.  1.
</event>
<event>
 7    1  0.3766050E-009  0.4614232E+02  0.7816164E-02  0.1320468E+00
        -11   -1    0    0    0    0  0.00000000000E+00  0.00000000000E+00  0.45593999997E+02  0.45594000000E+02  0.51100000000E-03 0. -1.
         11   -1    0    0    0    0 -0.00000000000E+00 -0.00000000000E+00 -0.45593999997E+02  0.45594000000E+02  0.51100000000E-03 0.  1.
    9900012    2    1    2    0    0  0.14422406630E+02  0.24339498569E+02 -0.35052767668E+02  0.46142317357E+02  0.99999963195E+01 0.  0.
         12    1    1    2    0    0 -0.14422406630E+02 -0.24339498569E+02  0.35052767668E+02  0.45045682643E+02  0.00000000000E+00 0. -1.
         11    1    3    3    0    0  0.91390049791E+01  0.11255805994E+02 -0.19351839115E+02  0.24180741469E+02  0.51100000000E-03 0.  1.
        -11    1    3    3    0    0  0.25938772323E+01  0.83019374482E+01 -0.52532929033E+01  0.10161075291E+02  0.51100000000E-03 0. -1.
         12    1    3    3    0    0  0.26895244185E+01  0.47817551266E+01 -0.10447635649E+02  0.11800500597E+02  0.00000000000E+00 0. -1.
</event>
<event>
 7    1  0.3766050E-009  0.4614232E+02  0.7816164E-02  0.1320468E+00
        -11   -1    0    0    0    0  0.00000000000E+00  0.00000000000E+00  0.45593999997E+02  0.45594000000E+02  0.51100000000E-03 0. -1.
         11   -1    0    0    0    0 -0.00000000000E+00 -0.00000000000E+00 -0.45593999997E+02  0.45594000000E+02  0.51100000000E-03 0.  1.
    9900012    2    1    2    0    0 -0.11992858743E+02  0.33118546228E+02 -0.28079294576E+02  0.46142317088E+02  0.99999938661E+01 0.  0.
         12    1    1    2    0    0  0.11992858743E+02 -0.33118546228E+02  0.28079294576E+02  0.45045682912E+02  0.00000000000E+00 0. -1.
         11    1    3    3    0    0 -0.16889969240E+01  0.18797328220E+02 -0.15987194553E+02  0.24734240412E+02  0.51100000000E-03 0. -1.
        -11    1    3    3    0    0 -0.35790463562E+01  0.45218244360E+01 -0.43567054644E+01  0.72275412012E+01  0.51100000000E-03 0.  1.
         12    1    3    3    0    0 -0.67248154630E+01  0.97993935715E+01 -0.77353945584E+01  0.14180535475E+02  0.00000000000E+00 0. -1.
</event>
<event>
 7    1  0.3766050E-009  0.4614232E+02  0.7816164E-02  0.1320468E+00
        -11   -1    0    0    0    0  0.00000000000E+00  0.00000000000E+00  0.45593999997E+02  0.45594000000E+02  0.51100000000E-03 0. -1.
         11   -1    0    0    0    0 -0.00000000000E+00 -0.00000000000E+00 -0.45593999997E+02  0.45594000000E+02  0.51100000000E-03 0.  1.
    9900012    2    1    2    0    0 -0.32468043537E+02  0.43548612109E+01 -0.30918841705E+02  0.46142318302E+02  0.10000004929E+02 0.  0.
         12    1    1    2    0    0  0.32468043537E+02 -0.43548612109E+01  0.30918841705E+02  0.45045681698E+02  0.00000000000E+00 0. -1.
         11    1    3    3    0    0 -0.71107967901E+01  0.98262950101E+00 -0.10684637294E+02  0.12872080877E+02  0.51100000000E-03 0. -1.
        -11    1    3    3    0    0 -0.82132326617E+01  0.34557503397E+01 -0.95886457219E+01  0.13089748974E+02  0.51100000000E-03 0.  1.
         12    1    3    3    0    0 -0.17144014085E+02 -0.83518629726E-01 -0.10645558689E+02  0.20180488451E+02  0.00000000000E+00 0. -1.
</event>
<event>
 7    1  0.3766050E-009  0.4614232E+02  0.7816164E-02  0.1320468E+00
        -11   -1    0    0    0    0  0.00000000000E+00  0.00000000000E+00  0.45593999997E+02  0.45594000000E+02  0.51100000000E-03 0. -1.
         11   -1    0    0    0    0 -0.00000000000E+00 -0.00000000000E+00 -0.45593999997E+02  0.45594000000E+02  0.51100000000E-03 0.  1.
    9900012    2    1    2    0    0  0.67631227298E+01 -0.37335130153E+02  0.24278833815E+02  0.46142317143E+02  0.99999943667E+01 0.  0.
        -12    1    1    2    0    0 -0.67631227298E+01  0.37335130153E+02 -0.24278833815E+02  0.45045682857E+02  0.00000000000E+00 0.  1.
         11    1    3    3    0    0  0.17894378232E+01 -0.32319071864E+01  0.60391748932E+01  0.70794735282E+01  0.51100000000E-03 0.  1.
        -11    1    3    3    0    0  0.90752403527E+00 -0.13731774756E+02  0.76808075764E+01  0.15760077510E+02  0.51100000000E-03 0. -1.
         12    1    3    3    0    0  0.40661608713E+01 -0.20371448211E+02  0.10558851346E+02  0.23302766106E+02  0.00000000000E+00 0. -1.
</event>
<event>
 7    1  0.3766050E-009  0.4614232E+02  0.7816164E-02  0.1320468E+00
        -11   -1    0    0    0    0  0.00000000000E+00  0.00000000000E+00  0.45593999997E+02  0.45594000000E+02  0.51100000000E-03 0. -1.
         11   -1    0    0    0    0 -0.00000000000E+00 -0.00000000000E+00 -0.45593999997E+02  0.45594000000E+02  0.51100000000E-03 0.  1.
    9900012    2    1    2    0    0 -0.49440025597E+01  0.13346023479E+02  0.42738202724E+02  0.46142317897E+02  0.10000001243E+02 0.  0.
        -12    1    1    2    0    0  0.49440025597E+01 -0.13346023479E+02 -0.42738202724E+02  0.45045682103E+02  0.00000000000E+00 0.  1.
         11    1    3    3    0    0 -0.31318131816E+01  0.63620727367E+00  0.15012522158E+02  0.15348903391E+02  0.51100000000E-03 0. -1.
        -11    1    3    3    0    0 -0.65804324545E+00  0.18340098983E+00  0.67262533000E+00  0.95868760899E+00  0.51100000000E-03 0.  1.
         12    1    3    3    0    0 -0.11541461326E+01  0.12526415215E+02  0.27053055236E+02  0.29834726897E+02  0.00000000000E+00 0. -1.
</event>
<event>
 7    1  0.3766050E-009  0.4614232E+02  0.7816164E-02  0.1320468E+00
        -11   -1    0    0    0    0  0.00000000000E+00  0.00000000000E+00  0.45593999997E+02  0.45594000000E+02  0.51100000000E-03 0.  1.
         11   -1    0    0    0    0 -0.00000000000E+00 -0.00000000000E+00 -0.45593999997E+02  0.45594000000E+02  0.51100000000E-03 0. -1.
    9900012    2    1    2    0    0 -0.30193192842E+02 -0.33110884331E+02 -0.45993210872E+01  0.46142319745E+02  0.10000018092E+02 0.  0.
         12    1    1    2    0    0  0.30193192842E+02  0.33110884331E+02  0.45993210872E+01  0.45045680255E+02  0.00000000000E+00 0. -1.
         11    1    3    3    0    0 -0.17595730949E+02 -0.17896600735E+02 -0.49906619135E+01  0.25589153407E+02  0.51100000000E-03 0. -1.
        -11    1    3    3    0    0 -0.11485176715E+02 -0.13325550741E+02 -0.15029664885E+01  0.17656117785E+02  0.51100000000E-03 0.  1.
         12    1    3    3    0    0 -0.11122851786E+01 -0.18887328543E+01  0.18943073148E+01  0.28970485527E+01  0.00000000000E+00 0. -1.
</event>
<event>
 7    1  0.7297719E-009  0.4614232E+02  0.7816164E-02  0.1320468E+00
        -11   -1    0    0    0    0  0.00000000000E+00  0.00000000000E+00  0.45593999997E+02  0.45594000000E+02  0.51100000000E-03 0. -1.
         11   -1    0    0    0    0 -0.00000000000E+00 -0.00000000000E+00 -0.45593999997E+02  0.45594000000E+02  0.51100000000E-03 0.  1.
    9900012    2    1    2    0    0 -0.67571357724E+01 -0.54085716100E+01 -0.44206354776E+02  0.46142319482E+02  0.10000015697E+02 0.  0.
         12    1    1    2    0    0  0.67571357724E+01  0.54085716100E+01  0.44206354776E+02  0.45045680518E+02  0.00000000000E+00 0. -1.
         11    1    3    3    0    0 -0.64242015948E+01 -0.35472421153E+00 -0.14051677984E+02  0.15454638457E+02  0.51100000000E-03 0. -1.
        -11    1    3    3    0    0 -0.12526262531E+01 -0.24091953018E+01 -0.18679706826E+02  0.18876036180E+02  0.51100000000E-03 0.  1.
         12    1    3    3    0    0  0.91969207549E+00 -0.26446520967E+01 -0.11474969966E+02  0.11811644845E+02  0.00000000000E+00 0. -1.
</event>
<event>
 7    1  0.3766050E-009  0.4614232E+02  0.7816164E-02  0.1320468E+00
        -11   -1    0    0    0    0  0.00000000000E+00  0.00000000000E+00  0.45593999997E+02  0.45594000000E+02  0.51100000000E-03 0. -1.
         11   -1    0    0    0    0 -0.00000000000E+00 -0.00000000000E+00 -0.45593999997E+02  0.45594000000E+02  0.51100000000E-03 0.  1.
    9900012    2    1    2    0    0 -0.22425317982E+02 -0.42523449729E+01 -0.38834729333E+02  0.46142317335E+02  0.99999961177E+01 0.  0.
         12    1    1    2    0    0  0.22425317982E+02  0.42523449729E+01  0.38834729333E+02  0.45045682665E+02  0.00000000000E+00 0. -1.
         11    1    3    3    0    0 -0.63410029145E+01  0.20193847721E+01 -0.10659255233E+02  0.12566063632E+02  0.51100000000E-03 0. -1.
        -11    1    3    3    0    0 -0.15170855906E+02 -0.49490291651E+01 -0.27576521560E+02  0.31860827048E+02  0.51100000000E-03 0.  1.
        -12    1    3    3    0    0 -0.91345916181E+00 -0.13227005799E+01 -0.59895254001E+00  0.17154266552E+01  0.00000000000E+00 0.  1.
</event>
<event>
 7    1  0.3766050E-009  0.4614232E+02  0.7816164E-02  0.1320468E+00
        -11   -1    0    0    0    0  0.00000000000E+00  0.00000000000E+00  0.45593999997E+02  0.45594000000E+02  0.51100000000E-03 0. -1.
         11   -1    0    0    0    0 -0.00000000000E+00 -0.00000000000E+00 -0.45593999997E+02  0.45594000000E+02  0.51100000000E-03 0.  1.
    9900012    2    1    2    0    0  0.23385266217E+02 -0.77063725092E+01  0.37720744577E+02  0.46142318468E+02  0.10000006445E+02 0.  0.
        -12    1    1    2    0    0 -0.23385266217E+02  0.77063725092E+01 -0.37720744577E+02  0.45045681532E+02  0.00000000000E+00 0.  1.
         11    1    3    3    0    0  0.14580358382E+02 -0.61400381440E+00  0.22868507285E+02  0.27128075437E+02  0.51100000000E-03 0. -1.
        -11    1    3    3    0    0  0.28651439615E+01 -0.40152725449E+01  0.82703623459E+01  0.96296602808E+01  0.51100000000E-03 0.  1.
         12    1    3    3    0    0  0.59397638733E+01 -0.30770961498E+01  0.65818749461E+01  0.93845827500E+01  0.00000000000E+00 0. -1.
</event>
<event>
 7    1  0.3766050E-009  0.4614232E+02  0.7816164E-02  0.1320468E+00
        -11   -1    0    0    0    0  0.00000000000E+00  0.00000000000E+00  0.45593999997E+02  0.45594000000E+02  0.51100000000E-03 0. -1.
         11   -1    0    0    0    0 -0.00000000000E+00 -0.00000000000E+00 -0.45593999997E+02  0.45594000000E+02  0.51100000000E-03 0.  1.
    9900012    2    1    2    0    0 -0.43424732044E+02 -0.68368437891E+01 -0.98317708369E+01  0.46142317589E+02  0.99999984342E+01 0.  0.
        -12    1    1    2    0    0  0.43424732044E+02  0.68368437891E+01  0.98317708369E+01  0.45045682411E+02  0.00000000000E+00 0.  1.
         11    1    3    3    0    0 -0.41466106195E+02 -0.43027483597E+01 -0.98180442875E+01  0.42829261029E+02  0.51100000000E-03 0. -1.
        -11    1    3    3    0    0 -0.88437398229E+00 -0.16868779042E+01  0.24606304701E+00  0.19204743394E+01  0.51100000000E-03 0.  1.
         12    1    3    3    0    0 -0.10742518664E+01 -0.84721752521E+00 -0.25978959644E+00  0.13925822209E+01  0.00000000000E+00 0. -1.
</event>
<event>
 7    1  0.3766050E-009  0.4614232E+02  0.7816164E-02  0.1320468E+00
        -11   -1    0    0    0    0  0.00000000000E+00  0.00000000000E+00  0.45593999997E+02  0.45594000000E+02  0.51100000000E-03 0. -1.
         11   -1    0    0    0    0 -0.00000000000E+00 -0.00000000000E+00 -0.45593999997E+02  0.45594000000E+02  0.51100000000E-03 0.  1.
    9900012    2    1    2    0    0 -0.66317811091E+01  0.15895248602E+02 -0.41622999339E+02  0.46142317379E+02  0.99999965158E+01 0.  0.
         12    1    1    2    0    0  0.66317811091E+01 -0.15895248602E+02  0.41622999339E+02  0.45045682621E+02  0.00000000000E+00 0. -1.
         11    1    3    3    0    0 -0.44715803105E+01  0.92406701233E+01 -0.15614431289E+02  0.18686772850E+02  0.51100000000E-03 0. -1.
        -11    1    3    3    0    0 -0.19656219951E+01  0.20589996134E+01 -0.17969637543E+02  0.18193708333E+02  0.51100000000E-03 0.  1.
        -12    1    3    3    0    0 -0.19457880352E+00  0.45955788649E+01 -0.80389305072E+01  0.92618361956E+01  0.00000000000E+00 0.  1.
</event>
<event>
 7    1  0.3766050E-009  0.4614232E+02  0.7816164E-02  0.1320468E+00
        -11   -1    0    0    0    0  0.00000000000E+00  0.00000000000E+00  0.45593999997E+02  0.45594000000E+02  0.51100000000E-03 0. -1.
         11   -1    0    0    0    0 -0.00000000000E+00 -0.00000000000E+00 -0.45593999997E+02  0.45594000000E+02  0.51100000000E-03 0.  1.
    9900012    2    1    2    0    0  0.37497204913E+02 -0.20909225977E+02 -0.13633687885E+02  0.46142317048E+02  0.99999934990E+01 0.  0.
         12    1    1    2    0    0 -0.37497204913E+02  0.20909225977E+02  0.13633687885E+02  0.45045682952E+02  0.00000000000E+00 0. -1.
         11    1    3    3    0    0  0.94533902767E+00 -0.14361681534E+01 -0.20278536787E+01  0.26586529757E+01  0.51100000000E-03 0. -1.
        -11    1    3    3    0    0  0.30418298704E+02 -0.13417141948E+02 -0.99864219457E+01  0.34713415529E+02  0.51100000000E-03 0.  1.
        -12    1    3    3    0    0  0.61335671814E+01 -0.60559158747E+01 -0.16194122605E+01  0.87702485438E+01  0.00000000000E+00 0.  1.
</event>
<event>
 7    1  0.3766050E-009  0.4614231E+02  0.7816164E-02  0.1320468E+00
        -11   -1    0    0    0    0  0.00000000000E+00  0.00000000000E+00  0.45593999997E+02  0.45594000000E+02  0.51100000000E-03 0. -1.
         11   -1    0    0    0    0 -0.00000000000E+00 -0.00000000000E+00 -0.45593999997E+02  0.45594000000E+02  0.51100000000E-03 0.  1.
    9900012    2    1    2    0    0  0.20896264022E+02  0.33306656422E+02 -0.21980158689E+02  0.46142305555E+02  0.99998886911E+01 0.  0.
         12    1    1    2    0    0 -0.20896264022E+02 -0.33306656422E+02  0.21980158689E+02  0.45045694445E+02  0.00000000000E+00 0. -1.
         11    1    3    3    0    0  0.11440575635E+02  0.13196026084E+02 -0.11887890883E+02  0.21126850811E+02  0.51100000000E-03 0. -1.
        -11    1    3    3    0    0  0.84301429200E+01  0.11724162087E+02 -0.63736907328E+01  0.15784397996E+02  0.51100000000E-03 0.  1.
         12    1    3    3    0    0  0.10255454670E+01  0.83864682507E+01 -0.37185770730E+01  0.92310567473E+01  0.00000000000E+00 0. -1.
</event>
<event>
 7    1  0.3766050E-009  0.4614232E+02  0.7816164E-02  0.1320468E+00
        -11   -1    0    0    0    0  0.00000000000E+00  0.00000000000E+00  0.45593999997E+02  0.45594000000E+02  0.51100000000E-03 0. -1.
         11   -1    0    0    0    0 -0.00000000000E+00 -0.00000000000E+00 -0.45593999997E+02  0.45594000000E+02  0.51100000000E-03 0.  1.
    9900012    2    1    2    0    0  0.31610703467E+02 -0.26493978605E+02 -0.18109279661E+02  0.46142317789E+02  0.10000000255E+02 0.  0.
         12    1    1    2    0    0 -0.31610703467E+02  0.26493978605E+02  0.18109279661E+02  0.45045682211E+02  0.00000000000E+00 0. -1.
         11    1    3    3    0    0  0.25456480376E+02 -0.17408487427E+02 -0.11270819209E+02  0.32834725422E+02  0.51100000000E-03 0.  1.
        -11    1    3    3    0    0  0.48977692925E+01 -0.88819884876E+01 -0.61111212874E+01  0.11841607458E+02  0.51100000000E-03 0. -1.
        -12    1    3    3    0    0  0.12564537985E+01 -0.20350268987E+00 -0.72733916488E+00  0.14659849090E+01  0.00000000000E+00 0.  1.
</event>
<event>
 7    1  0.3766050E-009  0.4614232E+02  0.7816164E-02  0.1320468E+00
        -11   -1    0    0    0    0  0.00000000000E+00  0.00000000000E+00  0.45593999997E+02  0.45594000000E+02  0.51100000000E-03 0. -1.
         11   -1    0    0    0    0 -0.00000000000E+00 -0.00000000000E+00 -0.45593999997E+02  0.45594000000E+02  0.51100000000E-03 0.  1.
    9900012    2    1    2    0    0 -0.34261788355E+02  0.21891101680E+02 -0.19391313934E+02  0.46142317297E+02  0.99999957705E+01 0.  0.
         12    1    1    2    0    0  0.34261788355E+02 -0.21891101680E+02  0.19391313934E+02  0.45045682703E+02  0.00000000000E+00 0. -1.
         11    1    3    3    0    0 -0.71058551624E+01  0.40844923259E+01 -0.82132843893E+01  0.11603201966E+02  0.51100000000E-03 0. -1.
        -11    1    3    3    0    0 -0.13779862184E+02  0.10148223266E+02 -0.42087425463E+01  0.17623409186E+02  0.51100000000E-03 0.  1.
         12    1    3    3    0    0 -0.13376071009E+02  0.76583860889E+01 -0.69692869983E+01  0.16915706145E+02  0.00000000000E+00 0. -1.
</event>
<event>
 7    1  0.3766050E-009  0.4614232E+02  0.7816164E-02  0.1320468E+00
        -11   -1    0    0    0    0  0.00000000000E+00  0.00000000000E+00  0.45593999997E+02  0.45594000000E+02  0.51100000000E-03 0. -1.
         11   -1    0    0    0    0 -0.00000000000E+00 -0.00000000000E+00 -0.45593999997E+02  0.45594000000E+02  0.51100000000E-03 0.  1.
    9900012    2    1    2    0    0  0.98042971467E+01 -0.37088449856E+02  0.23610086009E+02  0.46142317447E+02  0.99999971388E+01 0.  0.
        -12    1    1    2    0    0 -0.98042971467E+01  0.37088449856E+02 -0.23610086009E+02  0.45045682553E+02  0.00000000000E+00 0.  1.
         11    1    3    3    0    0  0.48294049801E+01 -0.30513681709E+02  0.16965937369E+02  0.35245580645E+02  0.51100000000E-03 0. -1.
        -11    1    3    3    0    0  0.31853936961E+01 -0.22292202324E+01  0.24331806246E+01  0.45865590650E+01  0.51100000000E-03 0.  1.
         12    1    3    3    0    0  0.17894984705E+01 -0.43455479149E+01  0.42109680152E+01  0.63101777377E+01  0.00000000000E+00 0. -1.
</event>
<event>
 7    1  0.3766050E-009  0.4614232E+02  0.7816164E-02  0.1320468E+00
        -11   -1    0    0    0    0  0.00000000000E+00  0.00000000000E+00  0.45593999997E+02  0.45594000000E+02  0.51100000000E-03 0. -1.
         11   -1    0    0    0    0 -0.00000000000E+00 -0.00000000000E+00 -0.45593999997E+02  0.45594000000E+02  0.51100000000E-03 0.  1.
    9900012    2    1    2    0    0  0.30843345714E+02 -0.28422948429E+02 -0.16429775219E+02  0.46142317788E+02  0.10000000242E+02 0.  0.
         12    1    1    2    0    0 -0.30843345714E+02  0.28422948429E+02  0.16429775219E+02  0.45045682212E+02  0.00000000000E+00 0. -1.
         11    1    3    3    0    0  0.14735591051E+02 -0.10776908484E+02 -0.98424183895E+01  0.20740120543E+02  0.51100000000E-03 0. -1.
        -11    1    3    3    0    0  0.51076950510E+01 -0.85457197279E+01 -0.76839085736E+00  0.99854043070E+01  0.51100000000E-03 0.  1.
        -12    1    3    3    0    0  0.11000059611E+02 -0.91003202170E+01 -0.58189659722E+01  0.15416792938E+02  0.00000000000E+00 0.  1.
</event>
<event>
 7    1  0.3766050E-009  0.4614232E+02  0.7816164E-02  0.1320468E+00
        -11   -1    0    0    0    0  0.00000000000E+00  0.00000000000E+00  0.45593999997E+02  0.45594000000E+02  0.51100000000E-03 0. -1.
         11   -1    0    0    0    0 -0.00000000000E+00 -0.00000000000E+00 -0.45593999997E+02  0.45594000000E+02  0.51100000000E-03 0.  1.
    9900012    2    1    2    0    0 -0.24432265305E+02  0.29355067269E+02 -0.23884260627E+02  0.46142317987E+02  0.10000002058E+02 0.  0.
         12    1    1    2    0    0  0.24432265305E+02 -0.29355067269E+02  0.23884260627E+02  0.45045682013E+02  0.00000000000E+00 0. -1.
         11    1    3    3    0    0  0.88637179065E+00  0.11885200055E+01 -0.15933103812E+01  0.21764358449E+01  0.51100000000E-03 0. -1.
        -11    1    3    3    0    0 -0.79245666986E+01  0.97372128978E+01 -0.74448624836E+01  0.14595823034E+02  0.51100000000E-03 0.  1.
         12    1    3    3    0    0 -0.17394070397E+02  0.18429334366E+02 -0.14846087763E+02  0.29370059108E+02  0.00000000000E+00 0. -1.
</event>
<event>
 7    1  0.3766050E-009  0.4614232E+02  0.7816164E-02  0.1320468E+00
        -11   -1    0    0    0    0  0.00000000000E+00  0.00000000000E+00  0.45593999997E+02  0.45594000000E+02  0.51100000000E-03 0. -1.
         11   -1    0    0    0    0 -0.00000000000E+00 -0.00000000000E+00 -0.45593999997E+02  0.45594000000E+02  0.51100000000E-03 0.  1.
    9900012    2    1    2    0    0  0.23025590400E+02  0.38054463230E+02  0.71269420444E+01  0.46142319986E+02  0.10000020290E+02 0.  0.
        -12    1    1    2    0    0 -0.23025590400E+02 -0.38054463230E+02 -0.71269420444E+01  0.45045680014E+02  0.00000000000E+00 0.  1.
         11    1    3    3    0    0  0.61581402166E+00  0.63566956657E+01  0.13585268120E+01  0.65293492827E+01  0.51100000000E-03 0. -1.
        -11    1    3    3    0    0  0.19506610061E+02  0.30082443741E+02  0.49708092887E+01  0.36196273327E+02  0.51100000000E-03 0.  1.
        -12    1    3    3    0    0  0.29031663176E+01  0.16153238232E+01  0.79760594377E+00  0.34166973765E+01  0.00000000000E+00 0.  1.
</event>
<event>
 7    1  0.3766050E-009  0.4614232E+02  0.7816164E-02  0.1320468E+00
        -11   -1    0    0    0    0  0.00000000000E+00  0.00000000000E+00  0.45593999997E+02  0.45594000000E+02  0.51100000000E-03 0. -1.
         11   -1    0    0    0    0 -0.00000000000E+00 -0.00000000000E+00 -0.45593999997E+02  0.45594000000E+02  0.51100000000E-03 0.  1.
    9900012    2    1    2    0    0  0.27264962515E+01 -0.19955990847E+02 -0.40291912066E+02  0.46142317295E+02  0.99999957459E+01 0.  0.
         12    1    1    2    0    0 -0.27264962515E+01  0.19955990847E+02  0.40291912066E+02  0.45045682705E+02  0.00000000000E+00 0. -1.
         11    1    3    3    0    0 -0.26064447411E+01 -0.81799468505E+01 -0.99307036533E+01  0.13127222097E+02  0.51100000000E-03 0. -1.
        -11    1    3    3    0    0  0.38234325908E+01 -0.93497230597E+01 -0.23112745598E+02  0.25223698527E+02  0.51100000000E-03 0.  1.
         12    1    3    3    0    0  0.15095084018E+01 -0.24263209364E+01 -0.72484628148E+01  0.77913966706E+01  0.00000000000E+00 0. -1.
</event>
<event>
 7    1  0.3766050E-009  0.4614232E+02  0.7816164E-02  0.1320468E+00
        -11   -1    0    0    0    0  0.00000000000E+00  0.00000000000E+00  0.45593999997E+02  0.45594000000E+02  0.51100000000E-03 0. -1.
         11   -1    0    0    0    0 -0.00000000000E+00 -0.00000000000E+00 -0.45593999997E+02  0.45594000000E+02  0.51100000000E-03 0.  1.
    9900012    2    1    2    0    0 -0.37029348314E+02 -0.23391552252E+01 -0.25543477875E+02  0.46142317125E+02  0.99999941997E+01 0.  0.
         12    1    1    2    0    0  0.37029348314E+02  0.23391552252E+01  0.25543477875E+02  0.45045682875E+02  0.00000000000E+00 0. -1.
         11    1    3    3    0    0 -0.14115876621E+01 -0.19995195363E+01 -0.15052700178E+01  0.28734119425E+01  0.51100000000E-03 0. -1.
        -11    1    3    3    0    0 -0.24264419610E+02 -0.11566337259E+01 -0.13681982852E+02  0.27880037942E+02  0.51100000000E-03 0.  1.
        -12    1    3    3    0    0 -0.11353341041E+02  0.81699803701E+00 -0.10356225005E+02  0.15388867241E+02  0.00000000000E+00 0.  1.
</event>
<event>
 7    1  0.3766050E-009  0.4614232E+02  0.7816164E-02  0.1320468E+00
        -11   -1    0    0    0    0  0.00000000000E+00  0.00000000000E+00  0.45593999997E+02  0.45594000000E+02  0.51100000000E-03 0.  1.
         11   -1    0    0    0    0 -0.00000000000E+00 -0.00000000000E+00 -0.45593999997E+02  0.45594000000E+02  0.51100000000E-03 0. -1.
    9900012    2    1    2    0    0  0.46001107961E+01  0.44205339174E+02 -0.73376071480E+01  0.46142317526E+02  0.99999978601E+01 0.  0.
        -12    1    1    2    0    0 -0.46001107961E+01 -0.44205339174E+02  0.73376071480E+01  0.45045682474E+02  0.00000000000E+00 0.  1.
         11    1    3    3    0    0  0.68560549073E+01  0.33121483867E+02 -0.39587282546E+01  0.34054510892E+02  0.51100000000E-03 0. -1.
        -11    1    3    3    0    0 -0.82494375707E+00  0.15870117523E+01 -0.14253565602E+01  0.22870898735E+01  0.51100000000E-03 0.  1.
         12    1    3    3    0    0 -0.14310003542E+01  0.94968435547E+01 -0.19535223331E+01  0.98007167606E+01  0.00000000000E+00 0. -1.
</event>
<event>
 7    1  0.3766050E-009  0.4614232E+02  0.7816164E-02  0.1320468E+00
        -11   -1    0    0    0    0  0.00000000000E+00  0.00000000000E+00  0.45593999997E+02  0.45594000000E+02  0.51100000000E-03 0. -1.
         11   -1    0    0    0    0 -0.00000000000E+00 -0.00000000000E+00 -0.45593999997E+02  0.45594000000E+02  0.51100000000E-03 0.  1.
    9900012    2    1    2    0    0 -0.25577916788E+02 -0.29260018413E+02 -0.22775753734E+02  0.46142318044E+02  0.10000002584E+02 0.  0.
         12    1    1    2    0    0  0.25577916788E+02  0.29260018413E+02  0.22775753734E+02  0.45045681956E+02  0.00000000000E+00 0. -1.
         11    1    3    3    0    0 -0.83511696517E+01 -0.11475920170E+02 -0.67867953429E+01  0.15732112687E+02  0.51100000000E-03 0.  1.
        -11    1    3    3    0    0 -0.11856078253E+02 -0.13020891460E+02 -0.71070054323E+01  0.18989990322E+02  0.51100000000E-03 0. -1.
        -12    1    3    3    0    0 -0.53706688828E+01 -0.47632067829E+01 -0.88819529587E+01  0.11420215036E+02  0.00000000000E+00 0.  1.
</event>
<event>
 7    1  0.3766050E-009  0.4614232E+02  0.7816164E-02  0.1320468E+00
        -11   -1    0    0    0    0  0.00000000000E+00  0.00000000000E+00  0.45593999997E+02  0.45594000000E+02  0.51100000000E-03 0. -1.
         11   -1    0    0    0    0 -0.00000000000E+00 -0.00000000000E+00 -0.45593999997E+02  0.45594000000E+02  0.51100000000E-03 0.  1.
    9900012    2    1    2    0    0 -0.39961847983E+02  0.18390380356E+02  0.96931886778E+01  0.46142319956E+02  0.10000020018E+02 0.  0.
        -12    1    1    2    0    0  0.39961847983E+02 -0.18390380356E+02 -0.96931886778E+01  0.45045680044E+02  0.00000000000E+00 0.  1.
         11    1    3    3    0    0 -0.14623711871E+02  0.91821389762E+01  0.34080891504E+01  0.17600559564E+02  0.51100000000E-03 0. -1.
        -11    1    3    3    0    0 -0.85887670823E+01  0.25020019335E+01 -0.11664398642E+01  0.90215029727E+01  0.51100000000E-03 0.  1.
         12    1    3    3    0    0 -0.16749369030E+02  0.67062394466E+01  0.74515393916E+01  0.19520257419E+02  0.00000000000E+00 0. -1.
</event>
<event>
 7    1  0.3766050E-009  0.4614232E+02  0.7816164E-02  0.1320468E+00
        -11   -1    0    0    0    0  0.00000000000E+00  0.00000000000E+00  0.45593999997E+02  0.45594000000E+02  0.51100000000E-03 0.  1.
         11   -1    0    0    0    0 -0.00000000000E+00 -0.00000000000E+00 -0.45593999997E+02  0.45594000000E+02  0.51100000000E-03 0. -1.
    9900012    2    1    2    0    0 -0.39119134914E+02  0.94976185127E+01 -0.20213904718E+02  0.46142318544E+02  0.10000007140E+02 0.  0.
         12    1    1    2    0    0  0.39119134914E+02 -0.94976185127E+01  0.20213904718E+02  0.45045681456E+02  0.00000000000E+00 0. -1.
         11    1    3    3    0    0 -0.47641244376E+01  0.17527367499E+01  0.18061122586E+00  0.50795263999E+01  0.51100000000E-03 0. -1.
        -11    1    3    3    0    0 -0.14484111541E+02  0.12985036486E+01 -0.62145633575E+01  0.15814436343E+02  0.51100000000E-03 0.  1.
         12    1    3    3    0    0 -0.19870898936E+02  0.64463781142E+01 -0.14179952587E+02  0.25248355801E+02  0.00000000000E+00 0. -1.
</event>
<event>
 7    1  0.3766050E-009  0.4614232E+02  0.7816164E-02  0.1320468E+00
        -11   -1    0    0    0    0  0.00000000000E+00  0.00000000000E+00  0.45593999997E+02  0.45594000000E+02  0.51100000000E-03 0. -1.
         11   -1    0    0    0    0 -0.00000000000E+00 -0.00000000000E+00 -0.45593999997E+02  0.45594000000E+02  0.51100000000E-03 0.  1.
    9900012    2    1    2    0    0  0.21614654799E+02 -0.31516135057E+02 -0.23846454884E+02  0.46142317837E+02  0.10000000689E+02 0.  0.
         12    1    1    2    0    0 -0.21614654799E+02  0.31516135057E+02  0.23846454884E+02  0.45045682163E+02  0.00000000000E+00 0. -1.
         11    1    3    3    0    0  0.17953713003E+02 -0.24110357803E+02 -0.19540769031E+02  0.35853686262E+02  0.51100000000E-03 0. -1.
        -11    1    3    3    0    0 -0.10190910175E+00 -0.40725536125E+01 -0.31000127209E+01  0.51191950073E+01  0.51100000000E-03 0.  1.
         12    1    3    3    0    0  0.37628508978E+01 -0.33332236416E+01 -0.12056731324E+01  0.51694365676E+01  0.00000000000E+00 0. -1.
</event>
<event>
 7    1  0.3766050E-009  0.4614231E+02  0.7816164E-02  0.1320468E+00
        -11   -1    0    0    0    0  0.00000000000E+00  0.00000000000E+00  0.45593999997E+02  0.45594000000E+02  0.51100000000E-03 0. -1.
         11   -1    0    0    0    0 -0.00000000000E+00 -0.00000000000E+00 -0.45593999997E+02  0.45594000000E+02  0.51100000000E-03 0.  1.
    9900012    2    1    2    0    0  0.84016865337E+01 -0.84251012759E+01 -0.43445865532E+02  0.46142313193E+02  0.99999583442E+01 0.  0.
         12    1    1    2    0    0 -0.84016865337E+01  0.84251012759E+01  0.43445865532E+02  0.45045686807E+02  0.00000000000E+00 0. -1.
         11    1    3    3    0    0  0.45861412379E+01 -0.12061827652E+01 -0.74279726886E+01  0.88126242879E+01  0.51100000000E-03 0. -1.
        -11    1    3    3    0    0  0.36358446491E+01 -0.19055844418E+01 -0.10716815766E+02  0.11476095102E+02  0.51100000000E-03 0.  1.
         12    1    3    3    0    0  0.17970064676E+00 -0.53133340689E+01 -0.25301077077E+02  0.25853593803E+02  0.00000000000E+00 0. -1.
</event>
<event>
 7    1  0.3766050E-009  0.4614232E+02  0.7816164E-02  0.1320468E+00
        -11   -1    0    0    0    0  0.00000000000E+00  0.00000000000E+00  0.45593999997E+02  0.45594000000E+02  0.51100000000E-03 0.  1.
         11   -1    0    0    0    0 -0.00000000000E+00 -0.00000000000E+00 -0.45593999997E+02  0.45594000000E+02  0.51100000000E-03 0. -1.
    9900012    2    1    2    0    0  0.26244961835E+02 -0.29621403806E+02 -0.21514828713E+02  0.46142318301E+02  0.10000004927E+02 0.  0.
         12    1    1    2    0    0 -0.26244961835E+02  0.29621403806E+02  0.21514828713E+02  0.45045681699E+02  0.00000000000E+00 0. -1.
         11    1    3    3    0    0  0.21162451827E+02 -0.18280049250E+02 -0.15436025951E+02  0.31941829398E+02  0.51100000000E-03 0. -1.
        -11    1    3    3    0    0  0.31625802110E+01 -0.71961719910E+01 -0.20841817400E+01  0.81320734564E+01  0.51100000000E-03 0.  1.
         12    1    3    3    0    0  0.19199297969E+01 -0.41451825652E+01 -0.39946210219E+01  0.60684154466E+01  0.00000000000E+00 0. -1.
</event>
<event>
 7    1  0.3766050E-009  0.4614232E+02  0.7816164E-02  0.1320468E+00
        -11   -1    0    0    0    0  0.00000000000E+00  0.00000000000E+00  0.45593999997E+02  0.45594000000E+02  0.51100000000E-03 0. -1.
         11   -1    0    0    0    0 -0.00000000000E+00 -0.00000000000E+00 -0.45593999997E+02  0.45594000000E+02  0.51100000000E-03 0.  1.
    9900012    2    1    2    0    0 -0.24296078547E+02  0.23794408849E+02 -0.29540485735E+02  0.46142316270E+02  0.99999864019E+01 0.  0.
         12    1    1    2    0    0  0.24296078547E+02 -0.23794408849E+02  0.29540485735E+02  0.45045683730E+02  0.00000000000E+00 0. -1.
         11    1    3    3    0    0 -0.11901559572E+00  0.21533816207E+01 -0.43302323294E+01  0.48375747440E+01  0.51100000000E-03 0. -1.
        -11    1    3    3    0    0 -0.87613020607E+01  0.73516369801E+01 -0.11436757018E+02  0.16174250877E+02  0.51100000000E-03 0.  1.
         12    1    3    3    0    0 -0.15415760891E+02  0.14289390248E+02 -0.13773496388E+02  0.25130490649E+02  0.00000000000E+00 0. -1.
</event>
<event>
 7    1  0.3766050E-009  0.4614232E+02  0.7816164E-02  0.1320468E+00
        -11   -1    0    0    0    0  0.00000000000E+00  0.00000000000E+00  0.45593999997E+02  0.45594000000E+02  0.51100000000E-03 0. -1.
         11   -1    0    0    0    0 -0.00000000000E+00 -0.00000000000E+00 -0.45593999997E+02  0.45594000000E+02  0.51100000000E-03 0.  1.
    9900012    2    1    2    0    0  0.45360602969E+01  0.30208369483E+02  0.33105769007E+02  0.46142319060E+02  0.10000011846E+02 0.  0.
        -12    1    1    2    0    0 -0.45360602969E+01 -0.30208369483E+02 -0.33105769007E+02  0.45045680940E+02  0.00000000000E+00 0.  1.
         11    1    3    3    0    0 -0.81485338176E+00  0.14245277662E+02  0.17262113037E+02  0.22395813637E+02  0.51100000000E-03 0. -1.
        -11    1    3    3    0    0 -0.74882141273E+00  0.25761507322E+01  0.10428744309E+01  0.28783456087E+01  0.51100000000E-03 0.  1.
         12    1    3    3    0    0  0.60997350914E+01  0.13386941088E+02  0.14800781539E+02  0.20868159815E+02  0.00000000000E+00 0. -1.
</event>
<event>
 7    1  0.3766050E-009  0.4614232E+02  0.7816164E-02  0.1320468E+00
        -11   -1    0    0    0    0  0.00000000000E+00  0.00000000000E+00  0.45593999997E+02  0.45594000000E+02  0.51100000000E-03 0. -1.
         11   -1    0    0    0    0 -0.00000000000E+00 -0.00000000000E+00 -0.45593999997E+02  0.45594000000E+02  0.51100000000E-03 0.  1.
    9900012    2    1    2    0    0  0.23277745679E+02 -0.10022928217E+02  0.37239777044E+02  0.46142317319E+02  0.99999959671E+01 0.  0.
        -12    1    1    2    0    0 -0.23277745679E+02  0.10022928217E+02 -0.37239777044E+02  0.45045682681E+02  0.00000000000E+00 0.  1.
         11    1    3    3    0    0  0.78568648863E+01 -0.20891616477E+01  0.69574218363E+01  0.10700497236E+02  0.51100000000E-03 0.  1.
        -11    1    3    3    0    0  0.14551541361E+02 -0.50853636939E+01  0.25993964788E+02  0.30220762491E+02  0.51100000000E-03 0. -1.
         12    1    3    3    0    0  0.86933943213E+00 -0.28484028750E+01  0.42883904199E+01  0.52210575921E+01  0.00000000000E+00 0. -1.
</event>
<event>
 7    1  0.3766050E-009  0.4614232E+02  0.7816164E-02  0.1320468E+00
        -11   -1    0    0    0    0  0.00000000000E+00  0.00000000000E+00  0.45593999997E+02  0.45594000000E+02  0.51100000000E-03 0. -1.
         11   -1    0    0    0    0 -0.00000000000E+00 -0.00000000000E+00 -0.45593999997E+02  0.45594000000E+02  0.51100000000E-03 0.  1.
    9900012    2    1    2    0    0  0.16578440113E+02  0.23036897163E+02  0.34979567710E+02  0.46142318024E+02  0.10000002396E+02 0.  0.
        -12    1    1    2    0    0 -0.16578440113E+02 -0.23036897163E+02 -0.34979567710E+02  0.45045681976E+02  0.00000000000E+00 0.  1.
         11    1    3    3    0    0  0.34744347470E+01  0.95679503088E+01  0.11064499244E+02  0.15034643784E+02  0.51100000000E-03 0. -1.
        -11    1    3    3    0    0  0.55422924388E+00  0.13070823923E+01 -0.81346303650E-01  0.14220590415E+01  0.51100000000E-03 0.  1.
         12    1    3    3    0    0  0.12549776122E+02  0.12161864462E+02  0.23996414770E+02  0.29685615199E+02  0.00000000000E+00 0. -1.
</event>
<event>
 7    1  0.3766050E-009  0.4614232E+02  0.7816164E-02  0.1320468E+00
        -11   -1    0    0    0    0  0.00000000000E+00  0.00000000000E+00  0.45593999997E+02  0.45594000000E+02  0.51100000000E-03 0. -1.
         11   -1    0    0    0    0 -0.00000000000E+00 -0.00000000000E+00 -0.45593999997E+02  0.45594000000E+02  0.51100000000E-03 0.  1.
    9900012    2    1    2    0    0  0.95107164499E+01 -0.15946549428E+02 -0.41041044313E+02  0.46142317806E+02  0.10000000408E+02 0.  0.
         12    1    1    2    0    0 -0.95107164499E+01  0.15946549428E+02  0.41041044313E+02  0.45045682194E+02  0.00000000000E+00 0. -1.
         11    1    3    3    0    0  0.68592726951E+01 -0.10214370940E+02 -0.19256522298E+02  0.22851622412E+02  0.51100000000E-03 0. -1.
        -11    1    3    3    0    0  0.16254240618E+01 -0.66335848979E+01 -0.18976861255E+02  0.20168483219E+02  0.51100000000E-03 0.  1.
         12    1    3    3    0    0  0.10260196930E+01  0.90140640918E+00 -0.28076607591E+01  0.31222121746E+01  0.00000000000E+00 0. -1.
</event>
<event>
 7    1  0.3766050E-009  0.4614232E+02  0.7816164E-02  0.1320468E+00
        -11   -1    0    0    0    0  0.00000000000E+00  0.00000000000E+00  0.45593999997E+02  0.45594000000E+02  0.51100000000E-03 0. -1.
         11   -1    0    0    0    0 -0.00000000000E+00 -0.00000000000E+00 -0.45593999997E+02  0.45594000000E+02  0.51100000000E-03 0.  1.
    9900012    2    1    2    0    0 -0.33248517073E+02  0.20059609265E+01  0.30325332488E+02  0.46142316996E+02  0.99999930225E+01 0.  0.
        -12    1    1    2    0    0  0.33248517073E+02 -0.20059609265E+01 -0.30325332488E+02  0.45045683004E+02  0.00000000000E+00 0.  1.
         11    1    3    3    0    0 -0.20818240361E+02  0.43215857993E+01  0.19520959153E+02  0.28864218022E+02  0.51100000000E-03 0. -1.
        -11    1    3    3    0    0 -0.11319404880E+02 -0.34387085888E+01  0.89020404081E+01  0.14805403314E+02  0.51100000000E-03 0.  1.
        -12    1    3    3    0    0 -0.11108718329E+01  0.11230837160E+01  0.19023329269E+01  0.24726956600E+01  0.00000000000E+00 0.  1.
</event>
<event>
 7    1  0.3766050E-009  0.4614232E+02  0.7816164E-02  0.1320468E+00
        -11   -1    0    0    0    0  0.00000000000E+00  0.00000000000E+00  0.45593999997E+02  0.45594000000E+02  0.51100000000E-03 0. -1.
         11   -1    0    0    0    0 -0.00000000000E+00 -0.00000000000E+00 -0.45593999997E+02  0.45594000000E+02  0.51100000000E-03 0.  1.
    9900012    2    1    2    0    0 -0.35629524969E+02 -0.89823128468E+01 -0.26057024289E+02  0.46142317539E+02  0.99999979719E+01 0.  0.
         12    1    1    2    0    0  0.35629524969E+02  0.89823128468E+01  0.26057024289E+02  0.45045682461E+02  0.00000000000E+00 0. -1.
         11    1    3    3    0    0 -0.26031324364E+02 -0.41045070471E+01 -0.21127776794E+02  0.33776615857E+02  0.51100000000E-03 0.  1.
        -11    1    3    3    0    0 -0.59762576937E+01 -0.47575365583E+01 -0.26535414085E+01  0.80864758946E+01  0.51100000000E-03 0. -1.
         12    1    3    3    0    0 -0.36219429114E+01 -0.12026924140E+00 -0.22757060864E+01  0.42792257870E+01  0.00000000000E+00 0. -1.
</event>
<event>
 7    1  0.3766050E-009  0.4614232E+02  0.7816164E-02  0.1320468E+00
        -11   -1    0    0    0    0  0.00000000000E+00  0.00000000000E+00  0.45593999997E+02  0.45594000000E+02  0.51100000000E-03 0. -1.
         11   -1    0    0    0    0 -0.00000000000E+00 -0.00000000000E+00 -0.45593999997E+02  0.45594000000E+02  0.51100000000E-03 0.  1.
    9900012    2    1    2    0    0  0.26955486412E+02 -0.34405835790E+02 -0.10897425330E+02  0.46142315823E+02  0.99999823307E+01 0.  0.
         12    1    1    2    0    0 -0.26955486412E+02  0.34405835790E+02  0.10897425330E+02  0.45045684177E+02  0.00000000000E+00 0. -1.
         11    1    3    3    0    0  0.99867405591E+01 -0.12846804538E+02 -0.24986321940E-01  0.16271938987E+02  0.51100000000E-03 0. -1.
        -11    1    3    3    0    0  0.16689680820E+02 -0.20924817909E+02 -0.11303351083E+02  0.29054417846E+02  0.51100000000E-03 0.  1.
        -12    1    3    3    0    0  0.27906503254E+00 -0.63421334347E+00  0.43091207494E+00  0.81595899024E+00  0.00000000000E+00 0.  1.
</event>
<event>
 7    1  0.3766050E-009  0.4614232E+02  0.7816164E-02  0.1320468E+00
        -11   -1    0    0    0    0  0.00000000000E+00  0.00000000000E+00  0.45593999997E+02  0.45594000000E+02  0.51100000000E-03 0. -1.
         11   -1    0    0    0    0 -0.00000000000E+00 -0.00000000000E+00 -0.45593999997E+02  0.45594000000E+02  0.51100000000E-03 0.  1.
    9900012    2    1    2    0    0  0.94208289328E+01 -0.41503283513E+02  0.14759365635E+02  0.46142318364E+02  0.10000005496E+02 0.  0.
        -12    1    1    2    0    0 -0.94208289328E+01  0.41503283513E+02 -0.14759365635E+02  0.45045681636E+02  0.00000000000E+00 0.  1.
         11    1    3    3    0    0  0.42236619200E+01 -0.30479686718E+02  0.93043126199E+01  0.32146863860E+02  0.51100000000E-03 0. -1.
        -11    1    3    3    0    0  0.42958138296E+01 -0.53281144722E+01  0.15101440395E+01  0.70088055737E+01  0.51100000000E-03 0.  1.
         12    1    3    3    0    0  0.90135318316E+00 -0.56954823225E+01  0.39449089755E+01  0.69866489301E+01  0.00000000000E+00 0. -1.
</event>
<event>
 7    1  0.3766050E-009  0.4614232E+02  0.7816164E-02  0.1320468E+00
        -11   -1    0    0    0    0  0.00000000000E+00  0.00000000000E+00  0.45593999997E+02  0.45594000000E+02  0.51100000000E-03 0. -1.
         11   -1    0    0    0    0 -0.00000000000E+00 -0.00000000000E+00 -0.45593999997E+02  0.45594000000E+02  0.51100000000E-03 0.  1.
    9900012    2    1    2    0    0 -0.40505237562E+02 -0.20885770437E+00  0.19707754881E+02  0.46142317700E+02  0.99999994393E+01 0.  0.
        -12    1    1    2    0    0  0.40505237562E+02  0.20885770437E+00 -0.19707754881E+02  0.45045682300E+02  0.00000000000E+00 0.  1.
         11    1    3    3    0    0 -0.18855615890E+02  0.24707418593E+01  0.11905019686E+02  0.22435871053E+02  0.51100000000E-03 0. -1.
        -11    1    3    3    0    0 -0.57027210985E+01 -0.75231081509E+00 -0.20987828933E+00  0.57559576655E+01  0.51100000000E-03 0.  1.
         12    1    3    3    0    0 -0.15946900574E+02 -0.19272887486E+01  0.80126134836E+01  0.17950488981E+02  0.00000000000E+00 0. -1.
</event>
<event>
 7    1  0.3766050E-009  0.4614232E+02  0.7816164E-02  0.1320468E+00
        -11   -1    0    0    0    0  0.00000000000E+00  0.00000000000E+00  0.45593999997E+02  0.45594000000E+02  0.51100000000E-03 0. -1.
         11   -1    0    0    0    0 -0.00000000000E+00 -0.00000000000E+00 -0.45593999997E+02  0.45594000000E+02  0.51100000000E-03 0.  1.
    9900012    2    1    2    0    0  0.18523813951E+02 -0.11467880781E+02  0.39426761765E+02  0.46142317452E+02  0.99999971827E+01 0.  0.
        -12    1    1    2    0    0 -0.18523813951E+02  0.11467880781E+02 -0.39426761765E+02  0.45045682548E+02  0.00000000000E+00 0.  1.
         11    1    3    3    0    0  0.12983816234E+02 -0.11904978564E+02  0.31887532995E+02  0.36429696120E+02  0.51100000000E-03 0. -1.
        -11    1    3    3    0    0  0.16426830185E+01  0.13115608049E+01  0.30436329261E+01  0.36989594340E+01  0.51100000000E-03 0.  1.
        -12    1    3    3    0    0  0.38973146983E+01 -0.87446302268E+00  0.44955958440E+01  0.60136618984E+01  0.00000000000E+00 0.  1.
</event>
<event>
 7    1  0.3766050E-009  0.4614232E+02  0.7816164E-02  0.1320468E+00
        -11   -1    0    0    0    0  0.00000000000E+00  0.00000000000E+00  0.45593999997E+02  0.45594000000E+02  0.51100000000E-03 0. -1.
         11   -1    0    0    0    0 -0.00000000000E+00 -0.00000000000E+00 -0.45593999997E+02  0.45594000000E+02  0.51100000000E-03 0.  1.
    9900012    2    1    2    0    0  0.94915991711E+01 -0.21524125288E+02 -0.38415296884E+02  0.46142318088E+02  0.10000002980E+02 0.  0.
         12    1    1    2    0    0 -0.94915991711E+01  0.21524125288E+02  0.38415296884E+02  0.45045681912E+02  0.00000000000E+00 0. -1.
         11    1    3    3    0    0  0.33029193896E+01 -0.97096659629E+01 -0.93889870004E+01  0.13904674277E+02  0.51100000000E-03 0. -1.
        -11    1    3    3    0    0  0.41022366871E+01 -0.11032015689E+02 -0.23620128514E+02  0.26390229012E+02  0.51100000000E-03 0.  1.
        -12    1    3    3    0    0  0.20864430945E+01 -0.78244363624E+00 -0.54061813693E+01  0.58474147987E+01  0.00000000000E+00 0.  1.
</event>
<event>
 7    1  0.3766050E-009  0.4614232E+02  0.7816164E-02  0.1320468E+00
        -11   -1    0    0    0    0  0.00000000000E+00  0.00000000000E+00  0.45593999997E+02  0.45594000000E+02  0.51100000000E-03 0. -1.
         11   -1    0    0    0    0 -0.00000000000E+00 -0.00000000000E+00 -0.45593999997E+02  0.45594000000E+02  0.51100000000E-03 0.  1.
    9900012    2    1    2    0    0  0.86497773886E+01  0.61431361131E+01 -0.43778496419E+02  0.46142317422E+02  0.99999969092E+01 0.  0.
         12    1    1    2    0    0 -0.86497773886E+01 -0.61431361131E+01  0.43778496419E+02  0.45045682578E+02  0.00000000000E+00 0. -1.
         11    1    3    3    0    0  0.31215708670E+01  0.45575096552E+01 -0.12466082681E+02  0.13635186710E+02  0.51100000000E-03 0. -1.
        -11    1    3    3    0    0  0.33852706356E+01  0.22445264539E+01 -0.70115912474E+01  0.81031085615E+01  0.51100000000E-03 0.  1.
        -12    1    3    3    0    0  0.21429358860E+01 -0.65889999603E+00 -0.24300822491E+02  0.24404022151E+02  0.00000000000E+00 0.  1.
</event>
<event>
 7    1  0.3766050E-009  0.4614232E+02  0.7816164E-02  0.1320468E+00
        -11   -1    0    0    0    0  0.00000000000E+00  0.00000000000E+00  0.45593999997E+02  0.45594000000E+02  0.51100000000E-03 0. -1.
         11   -1    0    0    0    0 -0.00000000000E+00 -0.00000000000E+00 -0.45593999997E+02  0.45594000000E+02  0.51100000000E-03 0.  1.
    9900012    2    1    2    0    0  0.34906827405E+01 -0.33202921393E+02  0.30240612531E+02  0.46142317618E+02  0.99999986968E+01 0.  0.
        -12    1    1    2    0    0 -0.34906827405E+01  0.33202921393E+02 -0.30240612531E+02  0.45045682382E+02  0.00000000000E+00 0.  1.
         11    1    3    3    0    0  0.36075976904E+01 -0.20208618091E+02  0.14737518870E+02  0.25270486124E+02  0.51100000000E-03 0. -1.
        -11    1    3    3    0    0 -0.11622404480E+01 -0.16738199365E+01  0.49788054515E+01  0.53796821490E+01  0.51100000000E-03 0.  1.
        -12    1    3    3    0    0  0.10453254981E+01 -0.11320483365E+02  0.10524288210E+02  0.15492149345E+02  0.00000000000E+00 0.  1.
</event>
<event>
 7    1  0.3766050E-009  0.4614232E+02  0.7816164E-02  0.1320468E+00
        -11   -1    0    0    0    0  0.00000000000E+00  0.00000000000E+00  0.45593999997E+02  0.45594000000E+02  0.51100000000E-03 0. -1.
         11   -1    0    0    0    0 -0.00000000000E+00 -0.00000000000E+00 -0.45593999997E+02  0.45594000000E+02  0.51100000000E-03 0.  1.
    9900012    2    1    2    0    0 -0.43714916983E+02 -0.26922274877E+01 -0.10529550396E+02  0.46142317774E+02  0.10000000120E+02 0.  0.
         12    1    1    2    0    0  0.43714916983E+02  0.26922274877E+01  0.10529550396E+02  0.45045682226E+02  0.00000000000E+00 0. -1.
         11    1    3    3    0    0 -0.72385231962E+01 -0.16857838286E+01  0.12170191007E+01  0.75312164311E+01  0.51100000000E-03 0. -1.
        -11    1    3    3    0    0 -0.31812044332E+02 -0.24284840276E+01 -0.10190799508E+02  0.33492627460E+02  0.51100000000E-03 0.  1.
         12    1    3    3    0    0 -0.46643494543E+01  0.14220403685E+01 -0.15557699882E+01  0.51184738836E+01  0.00000000000E+00 0. -1.
</event>
<event>
 7    1  0.3766050E-009  0.4614232E+02  0.7816164E-02  0.1320468E+00
        -11   -1    0    0    0    0  0.00000000000E+00  0.00000000000E+00  0.45593999997E+02  0.45594000000E+02  0.51100000000E-03 0. -1.
         11   -1    0    0    0    0 -0.00000000000E+00 -0.00000000000E+00 -0.45593999997E+02  0.45594000000E+02  0.51100000000E-03 0.  1.
    9900012    2    1    2    0    0  0.27183143459E+02  0.26113468739E+02  0.24663272407E+02  0.46142317146E+02  0.99999943947E+01 0.  0.
        -12    1    1    2    0    0 -0.27183143459E+02 -0.26113468739E+02 -0.24663272407E+02  0.45045682854E+02  0.00000000000E+00 0.  1.
         11    1    3    3    0    0  0.62311532907E+01  0.98813145560E+01  0.10905515075E+02  0.15981173549E+02  0.51100000000E-03 0. -1.
        -11    1    3    3    0    0  0.15897221258E+02  0.12180051326E+02  0.12359106941E+02  0.23533440434E+02  0.51100000000E-03 0.  1.
         12    1    3    3    0    0  0.50547689109E+01  0.40521028566E+01  0.13986503912E+01  0.66277031632E+01  0.00000000000E+00 0. -1.
</event>
<event>
 7    1  0.3766050E-009  0.4614232E+02  0.7816164E-02  0.1320468E+00
        -11   -1    0    0    0    0  0.00000000000E+00  0.00000000000E+00  0.45593999997E+02  0.45594000000E+02  0.51100000000E-03 0. -1.
         11   -1    0    0    0    0 -0.00000000000E+00 -0.00000000000E+00 -0.45593999997E+02  0.45594000000E+02  0.51100000000E-03 0.  1.
    9900012    2    1    2    0    0  0.12492798005E+02 -0.70581288476E+01  0.42699254498E+02  0.46142317415E+02  0.99999968479E+01 0.  0.
        -12    1    1    2    0    0 -0.12492798005E+02  0.70581288476E+01 -0.42699254498E+02  0.45045682585E+02  0.00000000000E+00 0.  1.
         11    1    3    3    0    0  0.69005219610E+01 -0.50928734304E+01  0.13929655953E+02  0.16358174664E+02  0.51100000000E-03 0. -1.
        -11    1    3    3    0    0 -0.41177488431E+00 -0.98655420000E+00  0.99151043661E+01  0.99725695082E+01  0.51100000000E-03 0.  1.
         12    1    3    3    0    0  0.60040509281E+01 -0.97870121719E+00  0.18854494179E+02  0.19811573243E+02  0.00000000000E+00 0. -1.
</event>
<event>
 7    1  0.3766050E-009  0.4614232E+02  0.7816164E-02  0.1320468E+00
        -11   -1    0    0    0    0  0.00000000000E+00  0.00000000000E+00  0.45593999997E+02  0.45594000000E+02  0.51100000000E-03 0. -1.
         11   -1    0    0    0    0 -0.00000000000E+00 -0.00000000000E+00 -0.45593999997E+02  0.45594000000E+02  0.51100000000E-03 0.  1.
    9900012    2    1    2    0    0 -0.16277255665E+02 -0.65981791134E+01  0.41480458274E+02  0.46142318318E+02  0.10000005076E+02 0.  0.
        -12    1    1    2    0    0  0.16277255665E+02  0.65981791134E+01 -0.41480458274E+02  0.45045681682E+02  0.00000000000E+00 0.  1.
         11    1    3    3    0    0 -0.89947729127E+01 -0.35881320169E+01  0.12051092893E+02  0.15459931154E+02  0.51100000000E-03 0. -1.
        -11    1    3    3    0    0 -0.16942245273E+01  0.40881141965E+00  0.31629901306E+01  0.36113751332E+01  0.51100000000E-03 0.  1.
         12    1    3    3    0    0 -0.55882582252E+01 -0.34188585162E+01  0.26266375251E+02  0.27071012030E+02  0.00000000000E+00 0. -1.
</event>
<event>
 7    1  0.3766050E-009  0.4614232E+02  0.7816164E-02  0.1320468E+00
        -11   -1    0    0    0    0  0.00000000000E+00  0.00000000000E+00  0.45593999997E+02  0.45594000000E+02  0.51100000000E-03 0. -1.
         11   -1    0    0    0    0 -0.00000000000E+00 -0.00000000000E+00 -0.45593999997E+02  0.45594000000E+02  0.51100000000E-03 0.  1.
    9900012    2    1    2    0    0  0.26282302911E+02  0.35848053897E+02 -0.72987130077E+01  0.46142316233E+02  0.99999860668E+01 0.  0.
         12    1    1    2    0    0 -0.26282302911E+02 -0.35848053897E+02  0.72987130077E+01  0.45045683767E+02  0.00000000000E+00 0. -1.
         11    1    3    3    0    0  0.55986794591E+01  0.60520183363E+01  0.16850970820E+01  0.84149682154E+01  0.51100000000E-03 0. -1.
        -11    1    3    3    0    0  0.19475688465E+02  0.25316084373E+02 -0.71044386069E+01  0.32721241073E+02  0.51100000000E-03 0.  1.
        -12    1    3    3    0    0  0.12079349861E+01  0.44799511878E+01 -0.18793714828E+01  0.50061069451E+01  0.00000000000E+00 0.  1.
</event>
<event>
 7    1  0.3766050E-009  0.4614232E+02  0.7816164E-02  0.1320468E+00
        -11   -1    0    0    0    0  0.00000000000E+00  0.00000000000E+00  0.45593999997E+02  0.45594000000E+02  0.51100000000E-03 0. -1.
         11   -1    0    0    0    0 -0.00000000000E+00 -0.00000000000E+00 -0.45593999997E+02  0.45594000000E+02  0.51100000000E-03 0.  1.
    9900012    2    1    2    0    0  0.11963890037E+02  0.66830903557E+01  0.42910547492E+02  0.46142318214E+02  0.10000004127E+02 0.  0.
        -12    1    1    2    0    0 -0.11963890037E+02 -0.66830903557E+01 -0.42910547492E+02  0.45045681786E+02  0.00000000000E+00 0.  1.
         11    1    3    3    0    0  0.17836599591E+01  0.39241162976E+01  0.18739024883E+02  0.19228395289E+02  0.51100000000E-03 0. -1.
        -11    1    3    3    0    0  0.90872934016E+01  0.15402563117E+01  0.15060521806E+02  0.17657027162E+02  0.51100000000E-03 0.  1.
        -12    1    3    3    0    0  0.10929366762E+01  0.12187177464E+01  0.91110008030E+01  0.92568957624E+01  0.00000000000E+00 0.  1.
</event>
<event>
 7    1  0.3766050E-009  0.4614232E+02  0.7816164E-02  0.1320468E+00
        -11   -1    0    0    0    0  0.00000000000E+00  0.00000000000E+00  0.45593999997E+02  0.45594000000E+02  0.51100000000E-03 0. -1.
         11   -1    0    0    0    0 -0.00000000000E+00 -0.00000000000E+00 -0.45593999997E+02  0.45594000000E+02  0.51100000000E-03 0.  1.
    9900012    2    1    2    0    0 -0.38603257694E+02  0.53117065091E+01  0.22598401721E+02  0.46142317732E+02  0.99999997361E+01 0.  0.
        -12    1    1    2    0    0  0.38603257694E+02 -0.53117065091E+01 -0.22598401721E+02  0.45045682268E+02  0.00000000000E+00 0.  1.
         11    1    3    3    0    0 -0.11915296425E+02  0.84081207768E+00  0.91705678600E+01  0.15059235339E+02  0.51100000000E-03 0. -1.
        -11    1    3    3    0    0 -0.23451565737E+02  0.61885477738E+01  0.10671985113E+02  0.26498402321E+02  0.51100000000E-03 0.  1.
        -12    1    3    3    0    0 -0.32363955322E+01 -0.17176533424E+01  0.27558487481E+01  0.45846800726E+01  0.00000000000E+00 0.  1.
</event>
<event>
 7    1  0.3766050E-009  0.4614231E+02  0.7816164E-02  0.1320468E+00
        -11   -1    0    0    0    0  0.00000000000E+00  0.00000000000E+00  0.45593999997E+02  0.45594000000E+02  0.51100000000E-03 0. -1.
         11   -1    0    0    0    0 -0.00000000000E+00 -0.00000000000E+00 -0.45593999997E+02  0.45594000000E+02  0.51100000000E-03 0.  1.
    9900012    2    1    2    0    0 -0.10598613852E+02  0.22978776680E+01 -0.43720737688E+02  0.46142314732E+02  0.99999723742E+01 0.  0.
         12    1    1    2    0    0  0.10598613852E+02 -0.22978776680E+01  0.43720737688E+02  0.45045685268E+02  0.00000000000E+00 0. -1.
         11    1    3    3    0    0 -0.36408079680E+01  0.97624583050E+00 -0.43572333750E+01  0.57614253034E+01  0.51100000000E-03 0. -1.
        -11    1    3    3    0    0 -0.11313286470E+01 -0.19641435477E+01 -0.11951571092E+02  0.12164613278E+02  0.51100000000E-03 0.  1.
        -12    1    3    3    0    0 -0.58264772370E+01  0.32857753853E+01 -0.27411933221E+02  0.28216276150E+02  0.00000000000E+00 0.  1.
</event>
<event>
 7    1  0.3766050E-009  0.4614232E+02  0.7816164E-02  0.1320468E+00
        -11   -1    0    0    0    0  0.00000000000E+00  0.00000000000E+00  0.45593999997E+02  0.45594000000E+02  0.51100000000E-03 0. -1.
         11   -1    0    0    0    0 -0.00000000000E+00 -0.00000000000E+00 -0.45593999997E+02  0.45594000000E+02  0.51100000000E-03 0.  1.
    9900012    2    1    2    0    0 -0.39511227701E+02  0.15754602992E+01 -0.21575317782E+02  0.46142317332E+02  0.99999960903E+01 0.  0.
         12    1    1    2    0    0  0.39511227701E+02 -0.15754602992E+01  0.21575317782E+02  0.45045682668E+02  0.00000000000E+00 0. -1.
         11    1    3    3    0    0 -0.23132322069E+01 -0.15071401854E+01 -0.37856749319E+00  0.27867235940E+01  0.51100000000E-03 0. -1.
        -11    1    3    3    0    0 -0.25842058565E+02  0.25107597618E+01 -0.17833070916E+02  0.31498163820E+02  0.51100000000E-03 0.  1.
        -12    1    3    3    0    0 -0.11355936929E+02  0.57184072281E+00 -0.33636793726E+01  0.11857429918E+02  0.00000000000E+00 0.  1.
</event>
<event>
 7    1  0.3766050E-009  0.4614232E+02  0.7816164E-02  0.1320468E+00
        -11   -1    0    0    0    0  0.00000000000E+00  0.00000000000E+00  0.45593999997E+02  0.45594000000E+02  0.51100000000E-03 0. -1.
         11   -1    0    0    0    0 -0.00000000000E+00 -0.00000000000E+00 -0.45593999997E+02  0.45594000000E+02  0.51100000000E-03 0.  1.
    9900012    2    1    2    0    0  0.18109199108E+02  0.60186980177E+01  0.40803746304E+02  0.46142317292E+02  0.99999957212E+01 0.  0.
        -12    1    1    2    0    0 -0.18109199108E+02 -0.60186980177E+01 -0.40803746304E+02  0.45045682708E+02  0.00000000000E+00 0.  1.
         11    1    3    3    0    0  0.35069043495E+01  0.43431744149E+01  0.76005801622E+01  0.94302895596E+01  0.51100000000E-03 0. -1.
        -11    1    3    3    0    0  0.11980801463E+02  0.62565789215E-01  0.29827389103E+02  0.32143687702E+02  0.51100000000E-03 0.  1.
        -12    1    3    3    0    0  0.26214932955E+01  0.16129578136E+01  0.33757770397E+01  0.45683400298E+01  0.00000000000E+00 0.  1.
</event>
<event>
 7    1  0.3766050E-009  0.4614232E+02  0.7816164E-02  0.1320468E+00
        -11   -1    0    0    0    0  0.00000000000E+00  0.00000000000E+00  0.45593999997E+02  0.45594000000E+02  0.51100000000E-03 0. -1.
         11   -1    0    0    0    0 -0.00000000000E+00 -0.00000000000E+00 -0.45593999997E+02  0.45594000000E+02  0.51100000000E-03 0.  1.
    9900012    2    1    2    0    0 -0.38038997491E+01  0.43884802080E+02  0.94216766846E+01  0.46142317649E+02  0.99999989784E+01 0.  0.
        -12    1    1    2    0    0  0.38038997491E+01 -0.43884802080E+02 -0.94216766846E+01  0.45045682351E+02  0.00000000000E+00 0.  1.
         11    1    3    3    0    0  0.56555257035E+00  0.33637032595E+01 -0.82194730589E+00  0.35085534003E+01  0.51100000000E-03 0.  1.
        -11    1    3    3    0    0 -0.27666192436E+01  0.36517684000E+02  0.11036384322E+02  0.38249146473E+02  0.51100000000E-03 0. -1.
         12    1    3    3    0    0 -0.16028330759E+01  0.40034148211E+01 -0.79276033159E+00  0.43846177761E+01  0.00000000000E+00 0. -1.
</event>
<event>
 7    1  0.3766050E-009  0.4614232E+02  0.7816164E-02  0.1320468E+00
        -11   -1    0    0    0    0  0.00000000000E+00  0.00000000000E+00  0.45593999997E+02  0.45594000000E+02  0.51100000000E-03 0. -1.
         11   -1    0    0    0    0 -0.00000000000E+00 -0.00000000000E+00 -0.45593999997E+02  0.45594000000E+02  0.51100000000E-03 0.  1.
    9900012    2    1    2    0    0  0.37574069893E+02 -0.37373571435E+01  0.24562878712E+02  0.46142316773E+02  0.99999909912E+01 0.  0.
        -12    1    1    2    0    0 -0.37574069893E+02  0.37373571435E+01 -0.24562878712E+02  0.45045683227E+02  0.00000000000E+00 0.  1.
         11    1    3    3    0    0  0.27803814680E+02 -0.30699005066E+01  0.19592790347E+02  0.34151922841E+02  0.51100000000E-03 0. -1.
        -11    1    3    3    0    0  0.97163824740E+01  0.16110750745E+00  0.53322481563E+01  0.11084534933E+02  0.51100000000E-03 0.  1.
         12    1    3    3    0    0  0.53872739149E-01 -0.82856414434E+00 -0.36215979122E+00  0.90585899989E+00  0.00000000000E+00 0. -1.
</event>
<event>
 7    1  0.3766050E-009  0.4614232E+02  0.7816164E-02  0.1320468E+00
        -11   -1    0    0    0    0  0.00000000000E+00  0.00000000000E+00  0.45593999997E+02  0.45594000000E+02  0.51100000000E-03 0. -1.
         11   -1    0    0    0    0 -0.00000000000E+00 -0.00000000000E+00 -0.45593999997E+02  0.45594000000E+02  0.51100000000E-03 0.  1.
    9900012    2    1    2    0    0 -0.19363601026E+02 -0.39255454854E+01  0.40481534051E+02  0.46142317064E+02  0.99999936466E+01 0.  0.
        -12    1    1    2    0    0  0.19363601026E+02  0.39255454854E+01 -0.40481534051E+02  0.45045682936E+02  0.00000000000E+00 0.  1.
         11    1    3    3    0    0 -0.98125910462E+01 -0.59724512083E+01  0.17308392818E+02  0.20773482584E+02  0.51100000000E-03 0. -1.
        -11    1    3    3    0    0 -0.21190276340E+01  0.13354159779E+01  0.90939669205E+01  0.94325950067E+01  0.51100000000E-03 0.  1.
         12    1    3    3    0    0 -0.74319823455E+01  0.71148974492E+00  0.14079174312E+02  0.15936239474E+02  0.00000000000E+00 0. -1.
</event>
<event>
 7    1  0.3766050E-009  0.4614232E+02  0.7816164E-02  0.1320468E+00
        -11   -1    0    0    0    0  0.00000000000E+00  0.00000000000E+00  0.45593999997E+02  0.45594000000E+02  0.51100000000E-03 0. -1.
         11   -1    0    0    0    0 -0.00000000000E+00 -0.00000000000E+00 -0.45593999997E+02  0.45594000000E+02  0.51100000000E-03 0.  1.
    9900012    2    1    2    0    0  0.20513890284E+02  0.10116082565E+02  0.38806683248E+02  0.46142317790E+02  0.10000000263E+02 0.  0.
        -12    1    1    2    0    0 -0.20513890284E+02 -0.10116082565E+02 -0.38806683248E+02  0.45045682210E+02  0.00000000000E+00 0.  1.
         11    1    3    3    0    0  0.98503299679E+01  0.63131395628E+01  0.25558308419E+02  0.28108928495E+02  0.51100000000E-03 0. -1.
        -11    1    3    3    0    0  0.86393969535E+01  0.12923501427E+01  0.78466017754E+01  0.11742167955E+02  0.51100000000E-03 0.  1.
        -12    1    3    3    0    0  0.20241633631E+01  0.25105928592E+01  0.54017730535E+01  0.62912213398E+01  0.00000000000E+00 0.  1.
</event>
<event>
 7    1  0.3766050E-009  0.4614232E+02  0.7816164E-02  0.1320468E+00
        -11   -1    0    0    0    0  0.00000000000E+00  0.00000000000E+00  0.45593999997E+02  0.45594000000E+02  0.51100000000E-03 0. -1.
         11   -1    0    0    0    0 -0.00000000000E+00 -0.00000000000E+00 -0.45593999997E+02  0.45594000000E+02  0.51100000000E-03 0.  1.
    9900012    2    1    2    0    0  0.24195905724E+02  0.24128900972E+01  0.37918987514E+02  0.46142317560E+02  0.99999981650E+01 0.  0.
        -12    1    1    2    0    0 -0.24195905724E+02 -0.24128900972E+01 -0.37918987514E+02  0.45045682440E+02  0.00000000000E+00 0.  1.
         11    1    3    3    0    0  0.46943027877E+01  0.42120873719E+00  0.99662943871E+01  0.11024559834E+02  0.51100000000E-03 0. -1.
        -11    1    3    3    0    0  0.11458634542E+02 -0.27953904792E+01  0.13849609749E+02  0.18191377187E+02  0.51100000000E-03 0.  1.
        -12    1    3    3    0    0  0.80429683938E+01  0.47870718392E+01  0.14103083378E+02  0.16926380539E+02  0.00000000000E+00 0.  1.
</event>
<event>
 7    1  0.3766050E-009  0.4614232E+02  0.7816164E-02  0.1320468E+00
        -11   -1    0    0    0    0  0.00000000000E+00  0.00000000000E+00  0.45593999997E+02  0.45594000000E+02  0.51100000000E-03 0. -1.
         11   -1    0    0    0    0 -0.00000000000E+00 -0.00000000000E+00 -0.45593999997E+02  0.45594000000E+02  0.51100000000E-03 0.  1.
    9900012    2    1    2    0    0 -0.23129345114E+02 -0.16757929632E+02  0.34832723868E+02  0.46142318042E+02  0.10000002564E+02 0.  0.
        -12    1    1    2    0    0  0.23129345114E+02  0.16757929632E+02 -0.34832723868E+02  0.45045681958E+02  0.00000000000E+00 0.  1.
         11    1    3    3    0    0 -0.82384839252E+01 -0.98765377719E+01  0.11490003201E+02  0.17246413818E+02  0.51100000000E-03 0. -1.
        -11    1    3    3    0    0 -0.10962756390E+02 -0.31006871125E+01  0.13695139836E+02  0.17814408315E+02  0.51100000000E-03 0.  1.
         12    1    3    3    0    0 -0.39281047989E+01 -0.37807047480E+01  0.96475808308E+01  0.11081495909E+02  0.00000000000E+00 0. -1.
</event>
<event>
 7    1  0.3766050E-009  0.4614231E+02  0.7816164E-02  0.1320468E+00
        -11   -1    0    0    0    0  0.00000000000E+00  0.00000000000E+00  0.45593999997E+02  0.45594000000E+02  0.51100000000E-03 0. -1.
         11   -1    0    0    0    0 -0.00000000000E+00 -0.00000000000E+00 -0.45593999997E+02  0.45594000000E+02  0.51100000000E-03 0.  1.
    9900012    2    1    2    0    0  0.18842326175E+02  0.35671513208E+02  0.20040564717E+02  0.46142308259E+02  0.99999133529E+01 0.  0.
        -12    1    1    2    0    0 -0.18842326175E+02 -0.35671513208E+02 -0.20040564717E+02  0.45045691741E+02  0.00000000000E+00 0.  1.
         11    1    3    3    0    0  0.83598781722E+01  0.19456671032E+02  0.84085970189E+01  0.22784953693E+02  0.51100000000E-03 0. -1.
        -11    1    3    3    0    0  0.56456157910E+01  0.99763214700E+01  0.34102264873E+01  0.11959498848E+02  0.51100000000E-03 0.  1.
        -12    1    3    3    0    0  0.48368322120E+01  0.62385207064E+01  0.82217412107E+01  0.11397855719E+02  0.00000000000E+00 0.  1.
</event>
<event>
 7    1  0.3766050E-009  0.4614232E+02  0.7816164E-02  0.1320468E+00
        -11   -1    0    0    0    0  0.00000000000E+00  0.00000000000E+00  0.45593999997E+02  0.45594000000E+02  0.51100000000E-03 0. -1.
         11   -1    0    0    0    0 -0.00000000000E+00 -0.00000000000E+00 -0.45593999997E+02  0.45594000000E+02  0.51100000000E-03 0.  1.
    9900012    2    1    2    0    0  0.24312241578E+02 -0.17621894636E+02  0.33578224431E+02  0.46142318553E+02  0.10000007220E+02 0.  0.
        -12    1    1    2    0    0 -0.24312241578E+02  0.17621894636E+02 -0.33578224431E+02  0.45045681447E+02  0.00000000000E+00 0.  1.
         11    1    3    3    0    0  0.99286333986E+01 -0.89870403380E+01  0.10087176737E+02  0.16765911546E+02  0.51100000000E-03 0. -1.
        -11    1    3    3    0    0  0.13684439066E+01  0.28269711417E+00  0.48271458175E+00  0.14783673470E+01  0.51100000000E-03 0.  1.
         12    1    3    3    0    0  0.13015164272E+02 -0.89175514126E+01  0.23008333112E+02  0.27898039660E+02  0.00000000000E+00 0. -1.
</event>
<event>
 7    1  0.3766050E-009  0.4614232E+02  0.7816164E-02  0.1320468E+00
        -11   -1    0    0    0    0  0.00000000000E+00  0.00000000000E+00  0.45593999997E+02  0.45594000000E+02  0.51100000000E-03 0. -1.
         11   -1    0    0    0    0 -0.00000000000E+00 -0.00000000000E+00 -0.45593999997E+02  0.45594000000E+02  0.51100000000E-03 0.  1.
    9900012    2    1    2    0    0 -0.36096829995E+01 -0.13433193456E+02 -0.42844287617E+02  0.46142317863E+02  0.10000000926E+02 0.  0.
         12    1    1    2    0    0  0.36096829995E+01  0.13433193456E+02  0.42844287617E+02  0.45045682137E+02  0.00000000000E+00 0. -1.
         11    1    3    3    0    0 -0.96635100820E+00 -0.22735694031E+01 -0.14798429451E+01  0.28797374021E+01  0.51100000000E-03 0.  1.
        -11    1    3    3    0    0 -0.10519659927E+01 -0.16468179132E+01 -0.16126116025E+02  0.16244083846E+02  0.51100000000E-03 0. -1.
        -12    1    3    3    0    0 -0.15913659986E+01 -0.95128061394E+01 -0.25238328648E+02  0.27018496615E+02  0.00000000000E+00 0.  1.
</event>
<event>
 7    1  0.3766050E-009  0.4614232E+02  0.7816164E-02  0.1320468E+00
        -11   -1    0    0    0    0  0.00000000000E+00  0.00000000000E+00  0.45593999997E+02  0.45594000000E+02  0.51100000000E-03 0. -1.
         11   -1    0    0    0    0 -0.00000000000E+00 -0.00000000000E+00 -0.45593999997E+02  0.45594000000E+02  0.51100000000E-03 0.  1.
    9900012    2    1    2    0    0 -0.35122698876E+02  0.11803076370E+02 -0.25616340616E+02  0.46142317691E+02  0.99999993606E+01 0.  0.
         12    1    1    2    0    0  0.35122698876E+02 -0.11803076370E+02  0.25616340616E+02  0.45045682309E+02  0.00000000000E+00 0. -1.
         11    1    3    3    0    0 -0.17972738022E+02  0.51444319869E+01 -0.89689536827E+01  0.20734671999E+02  0.51100000000E-03 0. -1.
        -11    1    3    3    0    0 -0.47959620508E+01  0.12743423380E+01 -0.16141857687E+01  0.52183135537E+01  0.51100000000E-03 0.  1.
         12    1    3    3    0    0 -0.12353998803E+02  0.53843020448E+01 -0.15033201165E+02  0.20189332138E+02  0.00000000000E+00 0. -1.
</event>
<event>
 7    1  0.3766050E-009  0.4614232E+02  0.7816164E-02  0.1320468E+00
        -11   -1    0    0    0    0  0.00000000000E+00  0.00000000000E+00  0.45593999997E+02  0.45594000000E+02  0.51100000000E-03 0.  1.
         11   -1    0    0    0    0 -0.00000000000E+00 -0.00000000000E+00 -0.45593999997E+02  0.45594000000E+02  0.51100000000E-03 0. -1.
    9900012    2    1    2    0    0 -0.43497516974E+02 -0.87841714719E+01 -0.77406385748E+01  0.46142321663E+02  0.10000035578E+02 0.  0.
         12    1    1    2    0    0  0.43497516974E+02  0.87841714719E+01  0.77406385748E+01  0.45045678337E+02  0.00000000000E+00 0. -1.
         11    1    3    3    0    0 -0.63123496975E+01 -0.28609723843E+01 -0.15868814761E+01  0.71097900650E+01  0.51100000000E-03 0. -1.
        -11    1    3    3    0    0 -0.17968095465E+02  0.12501597907E+01 -0.22408697678E+01  0.18150395360E+02  0.51100000000E-03 0.  1.
        -12    1    3    3    0    0 -0.19217071811E+02 -0.71733588783E+01 -0.39128873308E+01  0.20882136238E+02  0.00000000000E+00 0.  1.
</event>
<event>
 7    1  0.3766050E-009  0.4614232E+02  0.7816164E-02  0.1320468E+00
        -11   -1    0    0    0    0  0.00000000000E+00  0.00000000000E+00  0.45593999997E+02  0.45594000000E+02  0.51100000000E-03 0. -1.
         11   -1    0    0    0    0 -0.00000000000E+00 -0.00000000000E+00 -0.45593999997E+02  0.45594000000E+02  0.51100000000E-03 0.  1.
    9900012    2    1    2    0    0  0.19938447974E+01 -0.11721962845E+02  0.43448057370E+02  0.46142317419E+02  0.99999968768E+01 0.  0.
        -12    1    1    2    0    0 -0.19938447974E+01  0.11721962845E+02 -0.43448057370E+02  0.45045682581E+02  0.00000000000E+00 0.  1.
         11    1    3    3    0    0  0.38797877925E+01 -0.75836267137E+01  0.36332037186E+02  0.37317302606E+02  0.51100000000E-03 0. -1.
        -11    1    3    3    0    0  0.60787761204E+00 -0.12749363793E+01  0.16935246167E+01  0.22052219505E+01  0.51100000000E-03 0.  1.
         12    1    3    3    0    0 -0.24938206071E+01 -0.28633997522E+01  0.54224955671E+01  0.66197928620E+01  0.00000000000E+00 0. -1.
</event>
<event>
 7    1  0.3766050E-009  0.4614232E+02  0.7816164E-02  0.1320468E+00
        -11   -1    0    0    0    0  0.00000000000E+00  0.00000000000E+00  0.45593999997E+02  0.45594000000E+02  0.51100000000E-03 0. -1.
         11   -1    0    0    0    0 -0.00000000000E+00 -0.00000000000E+00 -0.45593999997E+02  0.45594000000E+02  0.51100000000E-03 0.  1.
    9900012    2    1    2    0    0 -0.61401869742E-01  0.40161415709E+02 -0.20400251675E+02  0.46142319293E+02  0.10000013968E+02 0.  0.
         12    1    1    2    0    0  0.61401869742E-01 -0.40161415709E+02  0.20400251675E+02  0.45045680707E+02  0.00000000000E+00 0. -1.
         11    1    3    3    0    0  0.28781436025E+01  0.82331673671E+01 -0.21006993316E+01  0.89711589794E+01  0.51100000000E-03 0. -1.
        -11    1    3    3    0    0 -0.22141778819E+01  0.77352201967E+01 -0.32999492764E+01  0.86963142004E+01  0.51100000000E-03 0.  1.
        -12    1    3    3    0    0 -0.72536759029E+00  0.24193028145E+02 -0.14999603067E+02  0.28474846113E+02  0.00000000000E+00 0.  1.
</event>
<event>
 7    1  0.3766050E-009  0.4614232E+02  0.7816164E-02  0.1320468E+00
        -11   -1    0    0    0    0  0.00000000000E+00  0.00000000000E+00  0.45593999997E+02  0.45594000000E+02  0.51100000000E-03 0.  1.
         11   -1    0    0    0    0 -0.00000000000E+00 -0.00000000000E+00 -0.45593999997E+02  0.45594000000E+02  0.51100000000E-03 0. -1.
    9900012    2    1    2    0    0  0.27024254661E+02  0.35901813029E+02 -0.31405376251E+01  0.46142317684E+02  0.99999992938E+01 0.  0.
        -12    1    1    2    0    0 -0.27024254661E+02 -0.35901813029E+02  0.31405376251E+01  0.45045682316E+02  0.00000000000E+00 0.  1.
         11    1    3    3    0    0  0.47237881724E+01  0.94413104461E+01 -0.26042664624E+01  0.10873579066E+02  0.51100000000E-03 0. -1.
        -11    1    3    3    0    0  0.59388931499E+00  0.33623728543E+01 -0.10349569081E+01  0.35678273210E+01  0.51100000000E-03 0.  1.
         12    1    3    3    0    0  0.21706577173E+02  0.23098129729E+02  0.49868574536E+00  0.31700911297E+02  0.00000000000E+00 0. -1.
</event>
<event>
 7    1  0.3766050E-009  0.4614232E+02  0.7816164E-02  0.1320468E+00
        -11   -1    0    0    0    0  0.00000000000E+00  0.00000000000E+00  0.45593999997E+02  0.45594000000E+02  0.51100000000E-03 0. -1.
         11   -1    0    0    0    0 -0.00000000000E+00 -0.00000000000E+00 -0.45593999997E+02  0.45594000000E+02  0.51100000000E-03 0.  1.
    9900012    2    1    2    0    0 -0.45705378852E+01 -0.62559029721E+01 -0.44374399639E+02  0.46142317834E+02  0.10000000661E+02 0.  0.
         12    1    1    2    0    0  0.45705378852E+01  0.62559029721E+01  0.44374399639E+02  0.45045682166E+02  0.00000000000E+00 0. -1.
         11    1    3    3    0    0  0.11466351979E+01 -0.29950419147E+01 -0.23311057520E+02  0.23530627941E+02  0.51100000000E-03 0. -1.
        -11    1    3    3    0    0  0.18782022262E+00  0.13212710032E+00  0.18735478767E+00  0.29637153077E+00  0.51100000000E-03 0.  1.
        -12    1    3    3    0    0 -0.59049933057E+01 -0.33929881577E+01 -0.21250696906E+02  0.22315318362E+02  0.00000000000E+00 0.  1.
</event>
<event>
 7    1  0.3766050E-009  0.4614232E+02  0.7816164E-02  0.1320468E+00
        -11   -1    0    0    0    0  0.00000000000E+00  0.00000000000E+00  0.45593999997E+02  0.45594000000E+02  0.51100000000E-03 0. -1.
         11   -1    0    0    0    0 -0.00000000000E+00 -0.00000000000E+00 -0.45593999997E+02  0.45594000000E+02  0.51100000000E-03 0.  1.
    9900012    2    1    2    0    0  0.21098543828E+02  0.38532890678E+02  0.99589776358E+01  0.46142318174E+02  0.10000003762E+02 0.  0.
        -12    1    1    2    0    0 -0.21098543828E+02 -0.38532890678E+02 -0.99589776358E+01  0.45045681826E+02  0.00000000000E+00 0.  1.
         11    1    3    3    0    0  0.30199869001E-01  0.54688875046E+01  0.32547525297E+01  0.63642011958E+01  0.51100000000E-03 0.  1.
        -11    1    3    3    0    0  0.96303844707E+01  0.14669842010E+02  0.30692121261E+01  0.17814843053E+02  0.51100000000E-03 0. -1.
        -12    1    3    3    0    0  0.11437959489E+02  0.18394161163E+02  0.36350129800E+01  0.21963273925E+02  0.00000000000E+00 0.  1.
</event>
<event>
 7    1  0.3766050E-009  0.4614232E+02  0.7816164E-02  0.1320468E+00
        -11   -1    0    0    0    0  0.00000000000E+00  0.00000000000E+00  0.45593999997E+02  0.45594000000E+02  0.51100000000E-03 0. -1.
         11   -1    0    0    0    0 -0.00000000000E+00 -0.00000000000E+00 -0.45593999997E+02  0.45594000000E+02  0.51100000000E-03 0.  1.
    9900012    2    1    2    0    0 -0.21334451368E+02 -0.11133430536E+02  0.38078886444E+02  0.46142315595E+02  0.99999802511E+01 0.  0.
        -12    1    1    2    0    0  0.21334451368E+02  0.11133430536E+02 -0.38078886444E+02  0.45045684405E+02  0.00000000000E+00 0.  1.
         11    1    3    3    0    0 -0.77829058995E+01 -0.68602289587E+01  0.14676485177E+02  0.17973190674E+02  0.51100000000E-03 0. -1.
        -11    1    3    3    0    0 -0.21218355204E+01  0.17227651947E+01  0.33741484658E+01  0.43422326080E+01  0.51100000000E-03 0.  1.
         12    1    3    3    0    0 -0.11429709948E+02 -0.59959667716E+01  0.20028252801E+02  0.23826892313E+02  0.00000000000E+00 0. -1.
</event>
<event>
 7    1  0.3766050E-009  0.4614232E+02  0.7816164E-02  0.1320468E+00
        -11   -1    0    0    0    0  0.00000000000E+00  0.00000000000E+00  0.45593999997E+02  0.45594000000E+02  0.51100000000E-03 0. -1.
         11   -1    0    0    0    0 -0.00000000000E+00 -0.00000000000E+00 -0.45593999997E+02  0.45594000000E+02  0.51100000000E-03 0.  1.
    9900012    2    1    2    0    0 -0.24199959667E+02  0.25434906676E+02  0.28223061452E+02  0.46142315154E+02  0.99999762292E+01 0.  0.
        -12    1    1    2    0    0  0.24199959667E+02 -0.25434906676E+02 -0.28223061452E+02  0.45045684846E+02  0.00000000000E+00 0.  1.
         11    1    3    3    0    0 -0.10831422452E+02  0.15748565632E+02  0.13826381241E+02  0.23590376222E+02  0.51100000000E-03 0. -1.
        -11    1    3    3    0    0 -0.11606586136E+01  0.13612312294E+00  0.32686370262E+01  0.34712600294E+01  0.51100000000E-03 0.  1.
         12    1    3    3    0    0 -0.12207878601E+02  0.95502179205E+01  0.11128043185E+02  0.19080678903E+02  0.00000000000E+00 0. -1.
</event>
<event>
 7    1  0.3766050E-009  0.4614232E+02  0.7816164E-02  0.1320468E+00
        -11   -1    0    0    0    0  0.00000000000E+00  0.00000000000E+00  0.45593999997E+02  0.45594000000E+02  0.51100000000E-03 0. -1.
         11   -1    0    0    0    0 -0.00000000000E+00 -0.00000000000E+00 -0.45593999997E+02  0.45594000000E+02  0.51100000000E-03 0.  1.
    9900012    2    1    2    0    0 -0.16958785564E+02  0.27226257008E+01  0.41642531224E+02  0.46142317574E+02  0.99999982910E+01 0.  0.
        -12    1    1    2    0    0  0.16958785564E+02 -0.27226257008E+01 -0.41642531224E+02  0.45045682426E+02  0.00000000000E+00 0.  1.
         11    1    3    3    0    0 -0.14934505289E+02  0.55332338926E+01  0.32541557821E+02  0.36229947711E+02  0.51100000000E-03 0. -1.
        -11    1    3    3    0    0  0.85392169095E-01 -0.39737576875E+00  0.29349822705E+01  0.29629918180E+01  0.51100000000E-03 0.  1.
         12    1    3    3    0    0 -0.21096724442E+01 -0.24132324231E+01  0.61659911329E+01  0.69493780442E+01  0.00000000000E+00 0. -1.
</event>
<event>
 7    1  0.3766050E-009  0.4614232E+02  0.7816164E-02  0.1320468E+00
        -11   -1    0    0    0    0  0.00000000000E+00  0.00000000000E+00  0.45593999997E+02  0.45594000000E+02  0.51100000000E-03 0. -1.
         11   -1    0    0    0    0 -0.00000000000E+00 -0.00000000000E+00 -0.45593999997E+02  0.45594000000E+02  0.51100000000E-03 0.  1.
    9900012    2    1    2    0    0 -0.31718023692E+02 -0.29276933475E+02 -0.12881834797E+02  0.46142317317E+02  0.99999959536E+01 0.  0.
         12    1    1    2    0    0  0.31718023692E+02  0.29276933475E+02  0.12881834797E+02  0.45045682683E+02  0.00000000000E+00 0. -1.
         11    1    3    3    0    0 -0.11836055797E+02 -0.16971828085E+02 -0.64146959595E+01  0.21662952013E+02  0.51100000000E-03 0. -1.
        -11    1    3    3    0    0 -0.13241551969E+02 -0.97784855601E+01 -0.51983875106E+01  0.17262117812E+02  0.51100000000E-03 0.  1.
         12    1    3    3    0    0 -0.66404159267E+01 -0.25266198290E+01 -0.12687513264E+01  0.72172474925E+01  0.00000000000E+00 0. -1.
</event>
<event>
 7    1  0.3766050E-009  0.4614232E+02  0.7816164E-02  0.1320468E+00
        -11   -1    0    0    0    0  0.00000000000E+00  0.00000000000E+00  0.45593999997E+02  0.45594000000E+02  0.51100000000E-03 0. -1.
         11   -1    0    0    0    0 -0.00000000000E+00 -0.00000000000E+00 -0.45593999997E+02  0.45594000000E+02  0.51100000000E-03 0.  1.
    9900012    2    1    2    0    0  0.22303416165E+02  0.34855466060E+02 -0.17797966424E+02  0.46142317680E+02  0.99999992565E+01 0.  0.
         12    1    1    2    0    0 -0.22303416165E+02 -0.34855466060E+02  0.17797966424E+02  0.45045682320E+02  0.00000000000E+00 0. -1.
         11    1    3    3    0    0  0.11150074922E+02  0.15864600449E+02 -0.79873161791E+01  0.20971574528E+02  0.51100000000E-03 0. -1.
        -11    1    3    3    0    0  0.65827401510E+01  0.16041215904E+02 -0.53796399504E+01  0.18154712937E+02  0.51100000000E-03 0.  1.
         12    1    3    3    0    0  0.45706010922E+01  0.29496497060E+01 -0.44310102944E+01  0.70160302138E+01  0.00000000000E+00 0. -1.
</event>
<event>
 7    1  0.3766050E-009  0.4614232E+02  0.7816164E-02  0.1320468E+00
        -11   -1    0    0    0    0  0.00000000000E+00  0.00000000000E+00  0.45593999997E+02  0.45594000000E+02  0.51100000000E-03 0. -1.
         11   -1    0    0    0    0 -0.00000000000E+00 -0.00000000000E+00 -0.45593999997E+02  0.45594000000E+02  0.51100000000E-03 0.  1.
    9900012    2    1    2    0    0  0.34481770178E+02  0.89758150043E+01 -0.27560039069E+02  0.46142317820E+02  0.10000000536E+02 0.  0.
         12    1    1    2    0    0 -0.34481770178E+02 -0.89758150043E+01  0.27560039069E+02  0.45045682180E+02  0.00000000000E+00 0. -1.
         11    1    3    3    0    0  0.68382866973E+01  0.41803701537E-01 -0.32451473137E+01  0.75693390632E+01  0.51100000000E-03 0. -1.
        -11    1    3    3    0    0  0.51586533173E+01  0.18684323986E+01 -0.87517557388E+01  0.10329374253E+02  0.51100000000E-03 0.  1.
        -12    1    3    3    0    0  0.22484830163E+02  0.70655789042E+01 -0.15563136016E+02  0.28243604504E+02  0.00000000000E+00 0.  1.
</event>
<event>
 7    1  0.3766050E-009  0.4614232E+02  0.7816164E-02  0.1320468E+00
        -11   -1    0    0    0    0  0.00000000000E+00  0.00000000000E+00  0.45593999997E+02  0.45594000000E+02  0.51100000000E-03 0.  1.
         11   -1    0    0    0    0 -0.00000000000E+00 -0.00000000000E+00 -0.45593999997E+02  0.45594000000E+02  0.51100000000E-03 0. -1.
    9900012    2    1    2    0    0 -0.36296520277E+02 -0.26512635523E+02  0.29590978973E+01  0.46142317777E+02  0.10000000146E+02 0.  0.
         12    1    1    2    0    0  0.36296520277E+02  0.26512635523E+02 -0.29590978973E+01  0.45045682223E+02  0.00000000000E+00 0. -1.
         11    1    3    3    0    0 -0.12883334792E+02 -0.10811339712E+02 -0.57325098963E+00  0.16828368866E+02  0.51100000000E-03 0. -1.
        -11    1    3    3    0    0 -0.21693990802E+02 -0.15378227525E+02  0.49669728413E+01  0.27051616185E+02  0.51100000000E-03 0.  1.
        -12    1    3    3    0    0 -0.17191946823E+01 -0.32306828531E+00 -0.14346239544E+01  0.22623327260E+01  0.00000000000E+00 0.  1.
</event>
<event>
 7    1  0.3766050E-009  0.4614232E+02  0.7816164E-02  0.1320468E+00
        -11   -1    0    0    0    0  0.00000000000E+00  0.00000000000E+00  0.45593999997E+02  0.45594000000E+02  0.51100000000E-03 0. -1.
         11   -1    0    0    0    0 -0.00000000000E+00 -0.00000000000E+00 -0.45593999997E+02  0.45594000000E+02  0.51100000000E-03 0.  1.
    9900012    2    1    2    0    0  0.12959949486E+02 -0.38390265441E+02 -0.19680971943E+02  0.46142318432E+02  0.10000006118E+02 0.  0.
         12    1    1    2    0    0 -0.12959949486E+02  0.38390265441E+02  0.19680971943E+02  0.45045681568E+02  0.00000000000E+00 0. -1.
         11    1    3    3    0    0  0.24974888714E+01 -0.99360825896E+01 -0.89698286912E+01  0.13616938529E+02  0.51100000000E-03 0. -1.
        -11    1    3    3    0    0  0.17260278430E+01 -0.32861687177E+01  0.24348012359E+00  0.37198601839E+01  0.51100000000E-03 0.  1.
        -12    1    3    3    0    0  0.87364327714E+01 -0.25168014134E+02 -0.10954623376E+02  0.28805519719E+02  0.00000000000E+00 0.  1.
</event>
<event>
 7    1  0.3766050E-009  0.4614232E+02  0.7816164E-02  0.1320468E+00
        -11   -1    0    0    0    0  0.00000000000E+00  0.00000000000E+00  0.45593999997E+02  0.45594000000E+02  0.51100000000E-03 0.  1.
         11   -1    0    0    0    0 -0.00000000000E+00 -0.00000000000E+00 -0.45593999997E+02  0.45594000000E+02  0.51100000000E-03 0. -1.
    9900012    2    1    2    0    0 -0.17078856987E+02  0.26909291517E+02 -0.31832627416E+02  0.46142317697E+02  0.99999994128E+01 0.  0.
         12    1    1    2    0    0  0.17078856987E+02 -0.26909291517E+02  0.31832627416E+02  0.45045682303E+02  0.00000000000E+00 0. -1.
         11    1    3    3    0    0 -0.19745119378E+01  0.12219523339E+01  0.22057426397E+00  0.23324918362E+01  0.51100000000E-03 0. -1.
        -11    1    3    3    0    0 -0.15979527817E+01  0.39845568341E+01 -0.49977859642E+01  0.65884756250E+01  0.51100000000E-03 0.  1.
         12    1    3    3    0    0 -0.13506392267E+02  0.21702782350E+02 -0.27055415716E+02  0.37221350235E+02  0.00000000000E+00 0. -1.
</event>
<event>
 7    1  0.3766050E-009  0.4614232E+02  0.7816164E-02  0.1320468E+00
        -11   -1    0    0    0    0  0.00000000000E+00  0.00000000000E+00  0.45593999997E+02  0.45594000000E+02  0.51100000000E-03 0. -1.
         11   -1    0    0    0    0 -0.00000000000E+00 -0.00000000000E+00 -0.45593999997E+02  0.45594000000E+02  0.51100000000E-03 0.  1.
    9900012    2    1    2    0    0  0.20483573137E+02  0.25156019512E+02 -0.31252382897E+02  0.46142317378E+02  0.99999965057E+01 0.  0.
         12    1    1    2    0    0 -0.20483573137E+02 -0.25156019512E+02  0.31252382897E+02  0.45045682622E+02  0.00000000000E+00 0. -1.
         11    1    3    3    0    0 -0.14530835945E+00  0.82078650816E+00 -0.31257468747E+00  0.89022930061E+00  0.51100000000E-03 0. -1.
        -11    1    3    3    0    0  0.13908269992E+02  0.16371844203E+02 -0.14970761041E+02  0.26183982569E+02  0.51100000000E-03 0.  1.
        -12    1    3    3    0    0  0.67206115040E+01  0.79633888004E+01 -0.15969047169E+02  0.19068105508E+02  0.00000000000E+00 0.  1.
</event>
<event>
 7    1  0.3766050E-009  0.4614232E+02  0.7816164E-02  0.1320468E+00
        -11   -1    0    0    0    0  0.00000000000E+00  0.00000000000E+00  0.45593999997E+02  0.45594000000E+02  0.51100000000E-03 0. -1.
         11   -1    0    0    0    0 -0.00000000000E+00 -0.00000000000E+00 -0.45593999997E+02  0.45594000000E+02  0.51100000000E-03 0.  1.
    9900012    2    1    2    0    0 -0.15981969007E+00 -0.43162981330E+02  0.12885844657E+02  0.46142317719E+02  0.99999996190E+01 0.  0.
        -12    1    1    2    0    0  0.15981969007E+00  0.43162981330E+02 -0.12885844657E+02  0.45045682281E+02  0.00000000000E+00 0.  1.
         11    1    3    3    0    0 -0.79328587534E+00 -0.54658835324E+01 -0.84696430007E+00  0.55877127751E+01  0.51100000000E-03 0. -1.
        -11    1    3    3    0    0 -0.23754379996E+01 -0.23717842993E+02  0.92599115282E+01  0.25571952285E+02  0.51100000000E-03 0.  1.
        -12    1    3    3    0    0  0.30089041848E+01 -0.13979254805E+02  0.44728974287E+01  0.14982652659E+02  0.00000000000E+00 0.  1.
</event>
<event>
 7    1  0.3766050E-009  0.4614232E+02  0.7816164E-02  0.1320468E+00
        -11   -1    0    0    0    0  0.00000000000E+00  0.00000000000E+00  0.45593999997E+02  0.45594000000E+02  0.51100000000E-03 0. -1.
         11   -1    0    0    0    0 -0.00000000000E+00 -0.00000000000E+00 -0.45593999997E+02  0.45594000000E+02  0.51100000000E-03 0.  1.
    9900012    2    1    2    0    0  0.16797553843E+02  0.74468144191E+01 -0.41127857492E+02  0.46142317388E+02  0.99999965936E+01 0.  0.
         12    1    1    2    0    0 -0.16797553843E+02 -0.74468144191E+01  0.41127857492E+02  0.45045682612E+02  0.00000000000E+00 0. -1.
         11    1    3    3    0    0  0.36265676070E+00  0.31180332973E-01  0.19588990168E+00  0.41335850535E+00  0.51100000000E-03 0. -1.
        -11    1    3    3    0    0  0.14753036169E+02  0.44469044822E+01 -0.27834554836E+02  0.31814925410E+02  0.51100000000E-03 0.  1.
        -12    1    3    3    0    0  0.16818609139E+01  0.29687296039E+01 -0.13489192558E+02  0.13914033472E+02  0.00000000000E+00 0.  1.
</event>
<event>
 7    1  0.3766050E-009  0.4614232E+02  0.7816164E-02  0.1320468E+00
        -11   -1    0    0    0    0  0.00000000000E+00  0.00000000000E+00  0.45593999997E+02  0.45594000000E+02  0.51100000000E-03 0.  1.
         11   -1    0    0    0    0 -0.00000000000E+00 -0.00000000000E+00 -0.45593999997E+02  0.45594000000E+02  0.51100000000E-03 0. -1.
    9900012    2    1    2    0    0 -0.58509698480E+01  0.43672852417E+02 -0.93574336099E+01  0.46142318185E+02  0.10000003870E+02 0.  0.
        -12    1    1    2    0    0  0.58509698480E+01 -0.43672852417E+02  0.93574336099E+01  0.45045681815E+02  0.00000000000E+00 0.  1.
         11    1    3    3    0    0 -0.36127278084E+01  0.84291468642E+01 -0.11070832345E+01  0.92373130631E+01  0.51100000000E-03 0. -1.
        -11    1    3    3    0    0  0.18471498735E+01  0.14234811391E+02 -0.52943192378E+01  0.15299399806E+02  0.51100000000E-03 0.  1.
        -12    1    3    3    0    0 -0.40853919130E+01  0.21008894162E+02 -0.29560311376E+01  0.21605605316E+02  0.00000000000E+00 0.  1.
</event>
<event>
 7    1  0.3766050E-009  0.4614232E+02  0.7816164E-02  0.1320468E+00
        -11   -1    0    0    0    0  0.00000000000E+00  0.00000000000E+00  0.45593999997E+02  0.45594000000E+02  0.51100000000E-03 0. -1.
         11   -1    0    0    0    0 -0.00000000000E+00 -0.00000000000E+00 -0.45593999997E+02  0.45594000000E+02  0.51100000000E-03 0.  1.
    9900012    2    1    2    0    0  0.14667163472E+02  0.72901585722E+01  0.41962381144E+02  0.46142317326E+02  0.99999960311E+01 0.  0.
        -12    1    1    2    0    0 -0.14667163472E+02 -0.72901585722E+01 -0.41962381144E+02  0.45045682674E+02  0.00000000000E+00 0.  1.
         11    1    3    3    0    0  0.33468059232E+01  0.39357521025E+00  0.15117066601E+02  0.15488115257E+02  0.51100000000E-03 0. -1.
        -11    1    3    3    0    0  0.11715688084E+02  0.55817463776E+01  0.25952965233E+02  0.29016713193E+02  0.51100000000E-03 0.  1.
        -12    1    3    3    0    0 -0.39533053470E+00  0.13148369844E+01  0.89234930990E+00  0.16374888757E+01  0.00000000000E+00 0.  1.
</event>
<event>
 7    1  0.3766050E-009  0.4614232E+02  0.7816164E-02  0.1320468E+00
        -11   -1    0    0    0    0  0.00000000000E+00  0.00000000000E+00  0.45593999997E+02  0.45594000000E+02  0.51100000000E-03 0. -1.
         11   -1    0    0    0    0 -0.00000000000E+00 -0.00000000000E+00 -0.45593999997E+02  0.45594000000E+02  0.51100000000E-03 0.  1.
    9900012    2    1    2    0    0 -0.10632229730E+02 -0.42766390837E+02  0.93330129121E+01  0.46142316253E+02  0.99999862440E+01 0.  0.
        -12    1    1    2    0    0  0.10632229730E+02  0.42766390837E+02 -0.93330129121E+01  0.45045683747E+02  0.00000000000E+00 0.  1.
         11    1    3    3    0    0  0.13597252627E+01 -0.30130965799E+01  0.98539255462E+00  0.34494351041E+01  0.51100000000E-03 0.  1.
        -11    1    3    3    0    0 -0.22902851533E+01 -0.16200943854E+02  0.41126821757E+01  0.16870985235E+02  0.51100000000E-03 0. -1.
        -12    1    3    3    0    0 -0.97016698396E+01 -0.23552350403E+02  0.42349381817E+01  0.25821895914E+02  0.00000000000E+00 0.  1.
</event>
<event>
 7    1  0.3766050E-009  0.4614232E+02  0.7816164E-02  0.1320468E+00
        -11   -1    0    0    0    0  0.00000000000E+00  0.00000000000E+00  0.45593999997E+02  0.45594000000E+02  0.51100000000E-03 0. -1.
         11   -1    0    0    0    0 -0.00000000000E+00 -0.00000000000E+00 -0.45593999997E+02  0.45594000000E+02  0.51100000000E-03 0.  1.
    9900012    2    1    2    0    0 -0.31807819654E+02  0.15915715438E+02 -0.27641744992E+02  0.46142318129E+02  0.10000003351E+02 0.  0.
         12    1    1    2    0    0  0.31807819654E+02 -0.15915715438E+02  0.27641744992E+02  0.45045681871E+02  0.00000000000E+00 0. -1.
         11    1    3    3    0    0 -0.89447781540E+01  0.91086442818E+01 -0.89238940740E+01  0.15576018188E+02  0.51100000000E-03 0. -1.
        -11    1    3    3    0    0 -0.20979091314E+02  0.70028098593E+01 -0.16199004232E+02  0.27414765304E+02  0.51100000000E-03 0.  1.
        -12    1    3    3    0    0 -0.18839501858E+01 -0.19573870261E+00 -0.25188466857E+01  0.31515346370E+01  0.00000000000E+00 0.  1.
</event>
<event>
 7    1  0.4716686E-009  0.4614232E+02  0.7816164E-02  0.1320468E+00
        -11   -1    0    0    0    0  0.00000000000E+00  0.00000000000E+00  0.45593999997E+02  0.45594000000E+02  0.51100000000E-03 0. -1.
         11   -1    0    0    0    0 -0.00000000000E+00 -0.00000000000E+00 -0.45593999997E+02  0.45594000000E+02  0.51100000000E-03 0.  1.
    9900012    2    1    2    0    0  0.43381909344E+01 -0.27756827470E+02 -0.35211533472E+02  0.46142318062E+02  0.10000002748E+02 0.  0.
         12    1    1    2    0    0 -0.43381909344E+01  0.27756827470E+02  0.35211533472E+02  0.45045681938E+02  0.00000000000E+00 0. -1.
         11    1    3    3    0    0  0.49561127901E+01 -0.56792829913E+01 -0.10343174716E+02  0.12798381646E+02  0.51100000000E-03 0. -1.
        -11    1    3    3    0    0  0.58886502292E+00 -0.14601911144E+02 -0.15605971021E+02  0.21380105305E+02  0.51100000000E-03 0.  1.
         12    1    3    3    0    0 -0.12067868786E+01 -0.74756333345E+01 -0.92623877349E+01  0.11963831112E+02  0.00000000000E+00 0. -1.
</event>
<event>
 7    1  0.3766050E-009  0.4614232E+02  0.7816164E-02  0.1320468E+00
        -11   -1    0    0    0    0  0.00000000000E+00  0.00000000000E+00  0.45593999997E+02  0.45594000000E+02  0.51100000000E-03 0. -1.
         11   -1    0    0    0    0 -0.00000000000E+00 -0.00000000000E+00 -0.45593999997E+02  0.45594000000E+02  0.51100000000E-03 0.  1.
    9900012    2    1    2    0    0 -0.30516620499E+02  0.97894041073E+01  0.31654650175E+02  0.46142318329E+02  0.10000005180E+02 0.  0.
        -12    1    1    2    0    0  0.30516620499E+02 -0.97894041073E+01 -0.31654650175E+02  0.45045681671E+02  0.00000000000E+00 0.  1.
         11    1    3    3    0    0 -0.22679402058E+02  0.11496745634E+02  0.22894256198E+02  0.34215163378E+02  0.51100000000E-03 0. -1.
        -11    1    3    3    0    0 -0.43174132276E+01 -0.84020951958E+00  0.40131238132E+01  0.59540886806E+01  0.51100000000E-03 0.  1.
         12    1    3    3    0    0 -0.35198052142E+01 -0.86713200717E+00  0.47472701642E+01  0.59730662708E+01  0.00000000000E+00 0. -1.
</event>
<event>
 7    1  0.3766050E-009  0.4614232E+02  0.7816164E-02  0.1320468E+00
        -11   -1    0    0    0    0  0.00000000000E+00  0.00000000000E+00  0.45593999997E+02  0.45594000000E+02  0.51100000000E-03 0. -1.
         11   -1    0    0    0    0 -0.00000000000E+00 -0.00000000000E+00 -0.45593999997E+02  0.45594000000E+02  0.51100000000E-03 0.  1.
    9900012    2    1    2    0    0  0.61835763228E+01  0.23283109917E+02  0.38062761394E+02  0.46142316206E+02  0.99999858187E+01 0.  0.
        -12    1    1    2    0    0 -0.61835763228E+01 -0.23283109917E+02 -0.38062761394E+02  0.45045683794E+02  0.00000000000E+00 0.  1.
         11    1    3    3    0    0  0.20428394913E+01  0.51039182398E+01  0.37254293401E+01  0.66409335651E+01  0.51100000000E-03 0. -1.
        -11    1    3    3    0    0  0.69949329133E+00  0.49518156161E+01  0.46937153506E+01  0.68586247028E+01  0.51100000000E-03 0.  1.
         12    1    3    3    0    0  0.34412435402E+01  0.13227376062E+02  0.29643616703E+02  0.32642757938E+02  0.00000000000E+00 0. -1.
</event>
<event>
 7    1  0.3766050E-009  0.4614232E+02  0.7816164E-02  0.1320468E+00
        -11   -1    0    0    0    0  0.00000000000E+00  0.00000000000E+00  0.45593999997E+02  0.45594000000E+02  0.51100000000E-03 0. -1.
         11   -1    0    0    0    0 -0.00000000000E+00 -0.00000000000E+00 -0.45593999997E+02  0.45594000000E+02  0.51100000000E-03 0.  1.
    9900012    2    1    2    0    0 -0.25646052993E+01 -0.43236686335E+02 -0.12374381593E+02  0.46142316906E+02  0.99999922029E+01 0.  0.
         12    1    1    2    0    0  0.25646052993E+01  0.43236686335E+02  0.12374381593E+02  0.45045683094E+02  0.00000000000E+00 0. -1.
         11    1    3    3    0    0  0.33153727983E+01 -0.85768791911E+01 -0.18842581761E+01  0.93864254424E+01  0.51100000000E-03 0. -1.
        -11    1    3    3    0    0 -0.51549238491E+01 -0.27214354814E+02 -0.90383309060E+01  0.29135644384E+02  0.51100000000E-03 0.  1.
         12    1    3    3    0    0 -0.72505424860E+00 -0.74454523298E+01 -0.14517925110E+01  0.76202470796E+01  0.00000000000E+00 0. -1.
</event>
<event>
 7    1  0.3766050E-009  0.4614232E+02  0.7816164E-02  0.1320468E+00
        -11   -1    0    0    0    0  0.00000000000E+00  0.00000000000E+00  0.45593999997E+02  0.45594000000E+02  0.51100000000E-03 0. -1.
         11   -1    0    0    0    0 -0.00000000000E+00 -0.00000000000E+00 -0.45593999997E+02  0.45594000000E+02  0.51100000000E-03 0.  1.
    9900012    2    1    2    0    0  0.36453984634E+02 -0.23367003234E+01 -0.26358306202E+02  0.46142317965E+02  0.10000001864E+02 0.  0.
         12    1    1    2    0    0 -0.36453984634E+02  0.23367003234E+01  0.26358306202E+02  0.45045682035E+02  0.00000000000E+00 0. -1.
         11    1    3    3    0    0  0.27314630085E+01 -0.32439727134E+00 -0.33120464081E+00  0.27705271217E+01  0.51100000000E-03 0. -1.
        -11    1    3    3    0    0  0.18047246289E+02  0.11201944320E+01 -0.96884057260E+01  0.20513974260E+02  0.51100000000E-03 0.  1.
        -12    1    3    3    0    0  0.15675275337E+02 -0.31324974840E+01 -0.16338695835E+02  0.22857816583E+02  0.00000000000E+00 0.  1.
</event>
<event>
 7    1  0.3766050E-009  0.4614232E+02  0.7816164E-02  0.1320468E+00
        -11   -1    0    0    0    0  0.00000000000E+00  0.00000000000E+00  0.45593999997E+02  0.45594000000E+02  0.51100000000E-03 0. -1.
         11   -1    0    0    0    0 -0.00000000000E+00 -0.00000000000E+00 -0.45593999997E+02  0.45594000000E+02  0.51100000000E-03 0.  1.
    9900012    2    1    2    0    0  0.15648291840E+02 -0.23709139550E+02  0.34958848809E+02  0.46142318234E+02  0.10000004311E+02 0.  0.
        -12    1    1    2    0    0 -0.15648291840E+02  0.23709139550E+02 -0.34958848809E+02  0.45045681766E+02  0.00000000000E+00 0.  1.
         11    1    3    3    0    0  0.31639491630E+01 -0.22497014071E+01  0.82896484408E+01  0.91536879049E+01  0.51100000000E-03 0.  1.
        -11    1    3    3    0    0  0.11344706762E+02 -0.13780684903E+02  0.19212362310E+02  0.26224502163E+02  0.51100000000E-03 0. -1.
        -12    1    3    3    0    0  0.11396359146E+01 -0.76787532398E+01  0.74568380583E+01  0.10764128165E+02  0.00000000000E+00 0.  1.
</event>
<event>
 7    1  0.3766050E-009  0.4614232E+02  0.7816164E-02  0.1320468E+00
        -11   -1    0    0    0    0  0.00000000000E+00  0.00000000000E+00  0.45593999997E+02  0.45594000000E+02  0.51100000000E-03 0. -1.
         11   -1    0    0    0    0 -0.00000000000E+00 -0.00000000000E+00 -0.45593999997E+02  0.45594000000E+02  0.51100000000E-03 0.  1.
    9900012    2    1    2    0    0 -0.74814914304E+01  0.43057794570E+02 -0.10916369769E+02  0.46142317452E+02  0.99999971803E+01 0.  0.
         12    1    1    2    0    0  0.74814914304E+01 -0.43057794570E+02  0.10916369769E+02  0.45045682548E+02  0.00000000000E+00 0. -1.
         11    1    3    3    0    0  0.12097561225E+01  0.25474740928E+01 -0.24029255715E+01  0.37050216859E+01  0.51100000000E-03 0. -1.
        -11    1    3    3    0    0 -0.77184463505E+01  0.29039402998E+02 -0.66611361773E+01  0.30777135603E+02  0.51100000000E-03 0.  1.
         12    1    3    3    0    0 -0.97280120243E+00  0.11470917480E+02 -0.18523080199E+01  0.11660160163E+02  0.00000000000E+00 0. -1.
</event>
<event>
 7    1  0.3766050E-009  0.4614232E+02  0.7816164E-02  0.1320468E+00
        -11   -1    0    0    0    0  0.00000000000E+00  0.00000000000E+00  0.45593999997E+02  0.45594000000E+02  0.51100000000E-03 0.  1.
         11   -1    0    0    0    0 -0.00000000000E+00 -0.00000000000E+00 -0.45593999997E+02  0.45594000000E+02  0.51100000000E-03 0. -1.
    9900012    2    1    2    0    0 -0.29794481982E+02  0.17759332158E+02 -0.28740356475E+02  0.46142321788E+02  0.10000036717E+02 0.  0.
         12    1    1    2    0    0  0.29794481982E+02 -0.17759332158E+02  0.28740356475E+02  0.45045678212E+02  0.00000000000E+00 0. -1.
         11    1    3    3    0    0 -0.37016008720E+01  0.50679622645E+00 -0.43042813570E+01  0.56996078542E+01  0.51100000000E-03 0. -1.
        -11    1    3    3    0    0 -0.18005304651E+02  0.79775496146E+01 -0.12670726317E+02  0.23417506253E+02  0.51100000000E-03 0.  1.
        -12    1    3    3    0    0 -0.80875764594E+01  0.92749863167E+01 -0.11765348801E+02  0.17025207681E+02  0.00000000000E+00 0.  1.
</event>
<event>
 7    1  0.3766050E-009  0.4614232E+02  0.7816164E-02  0.1320468E+00
        -11   -1    0    0    0    0  0.00000000000E+00  0.00000000000E+00  0.45593999997E+02  0.45594000000E+02  0.51100000000E-03 0. -1.
         11   -1    0    0    0    0 -0.00000000000E+00 -0.00000000000E+00 -0.45593999997E+02  0.45594000000E+02  0.51100000000E-03 0.  1.
    9900012    2    1    2    0    0 -0.26813684714E+02  0.25137254290E+02 -0.26043385349E+02  0.46142321388E+02  0.10000033072E+02 0.  0.
         12    1    1    2    0    0  0.26813684714E+02 -0.25137254290E+02  0.26043385349E+02  0.45045678612E+02  0.00000000000E+00 0. -1.
         11    1    3    3    0    0 -0.61910822967E+01  0.61086763484E+01 -0.11764256175E+02  0.14630213613E+02  0.51100000000E-03 0. -1.
        -11    1    3    3    0    0 -0.13321229132E+02  0.12063403144E+02 -0.84555167537E+01  0.19861435115E+02  0.51100000000E-03 0.  1.
        -12    1    3    3    0    0 -0.73013732853E+01  0.69651747972E+01 -0.58236124201E+01  0.11650672660E+02  0.00000000000E+00 0.  1.
</event>
<event>
 7    1  0.3766050E-009  0.4614232E+02  0.7816164E-02  0.1320468E+00
        -11   -1    0    0    0    0  0.00000000000E+00  0.00000000000E+00  0.45593999997E+02  0.45594000000E+02  0.51100000000E-03 0.  1.
         11   -1    0    0    0    0 -0.00000000000E+00 -0.00000000000E+00 -0.45593999997E+02  0.45594000000E+02  0.51100000000E-03 0. -1.
    9900012    2    1    2    0    0 -0.44383148380E+02  0.75463117803E+01 -0.15175349895E+01  0.46142316588E+02  0.99999893035E+01 0.  0.
         12    1    1    2    0    0  0.44383148380E+02 -0.75463117803E+01  0.15175349895E+01  0.45045683412E+02  0.00000000000E+00 0. -1.
         11    1    3    3    0    0 -0.32920502168E+02  0.21688990882E+01  0.13213073665E+01  0.33018319758E+02  0.51100000000E-03 0. -1.
        -11    1    3    3    0    0 -0.94804538111E+01  0.37246819270E+01 -0.27087532608E+01  0.10539905332E+02  0.51100000000E-03 0.  1.
         12    1    3    3    0    0 -0.19821924013E+01  0.16527307650E+01 -0.13008909529E+00  0.25840914980E+01  0.00000000000E+00 0. -1.
</event>
<event>
 7    1  0.3766050E-009  0.4614232E+02  0.7816164E-02  0.1320468E+00
        -11   -1    0    0    0    0  0.00000000000E+00  0.00000000000E+00  0.45593999997E+02  0.45594000000E+02  0.51100000000E-03 0. -1.
         11   -1    0    0    0    0 -0.00000000000E+00 -0.00000000000E+00 -0.45593999997E+02  0.45594000000E+02  0.51100000000E-03 0.  1.
    9900012    2    1    2    0    0 -0.23289574269E+02 -0.20337901866E+02  0.32757885555E+02  0.46142316656E+02  0.99999899221E+01 0.  0.
        -12    1    1    2    0    0  0.23289574269E+02  0.20337901866E+02 -0.32757885555E+02  0.45045683344E+02  0.00000000000E+00 0.  1.
         11    1    3    3    0    0 -0.21177884934E+02 -0.18565742598E+02  0.32075088749E+02  0.42684902800E+02  0.51100000000E-03 0. -1.
        -11    1    3    3    0    0 -0.23040139920E+01 -0.10371699947E+01  0.15325752274E+00  0.25313415815E+01  0.51100000000E-03 0.  1.
         12    1    3    3    0    0  0.19232465760E+00 -0.73498927326E+00  0.52953928282E+00  0.92607227459E+00  0.00000000000E+00 0. -1.
</event>
<event>
 7    1  0.3766050E-009  0.4614232E+02  0.7816164E-02  0.1320468E+00
        -11   -1    0    0    0    0  0.00000000000E+00  0.00000000000E+00  0.45593999997E+02  0.45594000000E+02  0.51100000000E-03 0.  1.
         11   -1    0    0    0    0 -0.00000000000E+00 -0.00000000000E+00 -0.45593999997E+02  0.45594000000E+02  0.51100000000E-03 0. -1.
    9900012    2    1    2    0    0 -0.40287704754E+02  0.19375218520E+02  0.55331078025E+01  0.46142317311E+02  0.99999958911E+01 0.  0.
         12    1    1    2    0    0  0.40287704754E+02 -0.19375218520E+02 -0.55331078025E+01  0.45045682689E+02  0.00000000000E+00 0. -1.
         11    1    3    3    0    0 -0.17317334448E+00 -0.22093185816E-01 -0.47216392954E+00  0.50340456253E+00  0.51100000000E-03 0. -1.
        -11    1    3    3    0    0 -0.32418762094E+02  0.13686028067E+02  0.73871976183E+01  0.35956281633E+02  0.51100000000E-03 0.  1.
        -12    1    3    3    0    0 -0.76957693149E+01  0.57112836387E+01 -0.13819258863E+01  0.96826311148E+01  0.00000000000E+00 0.  1.
</event>
<event>
 7    1  0.3766050E-009  0.4614232E+02  0.7816164E-02  0.1320468E+00
        -11   -1    0    0    0    0  0.00000000000E+00  0.00000000000E+00  0.45593999997E+02  0.45594000000E+02  0.51100000000E-03 0. -1.
         11   -1    0    0    0    0 -0.00000000000E+00 -0.00000000000E+00 -0.45593999997E+02  0.45594000000E+02  0.51100000000E-03 0.  1.
    9900012    2    1    2    0    0 -0.25077900038E+02  0.18457784159E+01  0.37373862028E+02  0.46142317286E+02  0.99999956714E+01 0.  0.
        -12    1    1    2    0    0  0.25077900038E+02 -0.18457784159E+01 -0.37373862028E+02  0.45045682714E+02  0.00000000000E+00 0.  1.
         11    1    3    3    0    0 -0.12077509496E+02  0.40510397139E+01  0.15189502175E+02  0.19824180562E+02  0.51100000000E-03 0. -1.
        -11    1    3    3    0    0 -0.31108935372E+01 -0.38885951647E+00  0.18671624916E+01  0.36489952527E+01  0.51100000000E-03 0.  1.
         12    1    3    3    0    0 -0.98894970049E+01 -0.18164017815E+01  0.20317197361E+02  0.22669141471E+02  0.00000000000E+00 0. -1.
</event>
<event>
 7    1  0.3766050E-009  0.4614232E+02  0.7816164E-02  0.1320468E+00
        -11   -1    0    0    0    0  0.00000000000E+00  0.00000000000E+00  0.45593999997E+02  0.45594000000E+02  0.51100000000E-03 0. -1.
         11   -1    0    0    0    0 -0.00000000000E+00 -0.00000000000E+00 -0.45593999997E+02  0.45594000000E+02  0.51100000000E-03 0.  1.
    9900012    2    1    2    0    0 -0.18188703965E+02  0.18684046299E+01  0.41167870080E+02  0.46142318578E+02  0.10000007453E+02 0.  0.
        -12    1    1    2    0    0  0.18188703965E+02 -0.18684046299E+01 -0.41167870080E+02  0.45045681422E+02  0.00000000000E+00 0.  1.
         11    1    3    3    0    0 -0.11650678365E+01  0.33572834764E+00  0.10223308164E+02  0.10294956370E+02  0.51100000000E-03 0. -1.
        -11    1    3    3    0    0 -0.17280053616E+02  0.19200850434E+01  0.28702869900E+02  0.33558035108E+02  0.51100000000E-03 0.  1.
        -12    1    3    3    0    0  0.25641748768E+00 -0.38740876113E+00  0.22416920164E+01  0.22893271004E+01  0.00000000000E+00 0.  1.
</event>
<event>
 7    1  0.3766050E-009  0.4614232E+02  0.7816164E-02  0.1320468E+00
        -11   -1    0    0    0    0  0.00000000000E+00  0.00000000000E+00  0.45593999997E+02  0.45594000000E+02  0.51100000000E-03 0. -1.
         11   -1    0    0    0    0 -0.00000000000E+00 -0.00000000000E+00 -0.45593999997E+02  0.45594000000E+02  0.51100000000E-03 0.  1.
    9900012    2    1    2    0    0  0.35739108008E+01  0.36114181437E+02  0.26685324119E+02  0.46142318047E+02  0.10000002608E+02 0.  0.
        -12    1    1    2    0    0 -0.35739108008E+01 -0.36114181437E+02 -0.26685324119E+02  0.45045681953E+02  0.00000000000E+00 0.  1.
         11    1    3    3    0    0 -0.14125859503E+01  0.18605449252E+02  0.97491261396E+01  0.21052401328E+02  0.51100000000E-03 0. -1.
        -11    1    3    3    0    0  0.11301499393E+01  0.86009987690E+00  0.12106382962E+01  0.18661875653E+01  0.51100000000E-03 0.  1.
         12    1    3    3    0    0  0.38563468119E+01  0.16648632308E+02  0.15725559683E+02  0.23223729154E+02  0.00000000000E+00 0. -1.
</event>
<event>
 7    1  0.3766050E-009  0.4614232E+02  0.7816164E-02  0.1320468E+00
        -11   -1    0    0    0    0  0.00000000000E+00  0.00000000000E+00  0.45593999997E+02  0.45594000000E+02  0.51100000000E-03 0. -1.
         11   -1    0    0    0    0 -0.00000000000E+00 -0.00000000000E+00 -0.45593999997E+02  0.45594000000E+02  0.51100000000E-03 0.  1.
    9900012    2    1    2    0    0 -0.10370966114E+02 -0.12163128785E+02  0.42114307713E+02  0.46142317031E+02  0.99999933461E+01 0.  0.
        -12    1    1    2    0    0  0.10370966114E+02  0.12163128785E+02 -0.42114307713E+02  0.45045682969E+02  0.00000000000E+00 0.  1.
         11    1    3    3    0    0 -0.95923314944E+00 -0.64744547920E+01  0.14317357970E+02  0.15742472252E+02  0.51100000000E-03 0. -1.
        -11    1    3    3    0    0  0.23659809962E+00 -0.11584254301E+01  0.95786879787E+00  0.15216573310E+01  0.51100000000E-03 0.  1.
         12    1    3    3    0    0 -0.96483310642E+01 -0.45302485630E+01  0.26839080945E+02  0.28878187449E+02  0.00000000000E+00 0. -1.
</event>
<event>
 7    1  0.3766050E-009  0.4614232E+02  0.7816164E-02  0.1320468E+00
        -11   -1    0    0    0    0  0.00000000000E+00  0.00000000000E+00  0.45593999997E+02  0.45594000000E+02  0.51100000000E-03 0. -1.
         11   -1    0    0    0    0 -0.00000000000E+00 -0.00000000000E+00 -0.45593999997E+02  0.45594000000E+02  0.51100000000E-03 0.  1.
    9900012    2    1    2    0    0  0.19100573726E+02  0.21654344927E+02 -0.34574135085E+02  0.46142318878E+02  0.10000010186E+02 0.  0.
         12    1    1    2    0    0 -0.19100573726E+02 -0.21654344927E+02  0.34574135085E+02  0.45045681122E+02  0.00000000000E+00 0. -1.
         11    1    3    3    0    0  0.60339378452E+01  0.53938949907E+01 -0.11298094928E+02  0.13897822072E+02  0.51100000000E-03 0. -1.
        -11    1    3    3    0    0  0.67835442639E+01  0.12444297416E+02 -0.11021382850E+02  0.17954049436E+02  0.51100000000E-03 0.  1.
        -12    1    3    3    0    0  0.62830916166E+01  0.38161525200E+01 -0.12254657307E+02  0.14290447370E+02  0.00000000000E+00 0.  1.
</event>
<event>
 7    1  0.3766050E-009  0.4614232E+02  0.7816164E-02  0.1320468E+00
        -11   -1    0    0    0    0  0.00000000000E+00  0.00000000000E+00  0.45593999997E+02  0.45594000000E+02  0.51100000000E-03 0. -1.
         11   -1    0    0    0    0 -0.00000000000E+00 -0.00000000000E+00 -0.45593999997E+02  0.45594000000E+02  0.51100000000E-03 0.  1.
    9900012    2    1    2    0    0 -0.37898900705E+01 -0.34344248169E+02 -0.28900221363E+02  0.46142318255E+02  0.10000004500E+02 0.  0.
         12    1    1    2    0    0  0.37898900705E+01  0.34344248169E+02  0.28900221363E+02  0.45045681745E+02  0.00000000000E+00 0. -1.
         11    1    3    3    0    0  0.22717066508E+01 -0.55571345330E+01 -0.46136506001E+01  0.75715366635E+01  0.51100000000E-03 0. -1.
        -11    1    3    3    0    0 -0.38711067694E+01 -0.26221943231E+02 -0.22414692526E+02  0.34713026599E+02  0.51100000000E-03 0.  1.
         12    1    3    3    0    0 -0.21904899520E+01 -0.25651704058E+01 -0.18718782373E+01  0.38577549917E+01  0.00000000000E+00 0. -1.
</event>
<event>
 7    1  0.3766050E-009  0.4614232E+02  0.7816164E-02  0.1320468E+00
        -11   -1    0    0    0    0  0.00000000000E+00  0.00000000000E+00  0.45593999997E+02  0.45594000000E+02  0.51100000000E-03 0. -1.
         11   -1    0    0    0    0 -0.00000000000E+00 -0.00000000000E+00 -0.45593999997E+02  0.45594000000E+02  0.51100000000E-03 0.  1.
    9900012    2    1    2    0    0 -0.77718606855E+01  0.12322273570E+02 -0.42624798733E+02  0.46142315285E+02  0.99999774164E+01 0.  0.
         12    1    1    2    0    0  0.77718606855E+01 -0.12322273570E+02  0.42624798733E+02  0.45045684715E+02  0.00000000000E+00 0. -1.
         11    1    3    3    0    0 -0.44251501692E+01  0.21677023628E+01 -0.67489781876E+01  0.83564103772E+01  0.51100000000E-03 0. -1.
        -11    1    3    3    0    0 -0.15875099580E+01  0.27099800191E+01 -0.18992649116E+02  0.19250581817E+02  0.51100000000E-03 0.  1.
        -12    1    3    3    0    0 -0.17592005583E+01  0.74445911884E+01 -0.16883171429E+02  0.18535323091E+02  0.00000000000E+00 0.  1.
</event>
<event>
 7    1  0.3766050E-009  0.4614232E+02  0.7816164E-02  0.1320468E+00
        -11   -1    0    0    0    0  0.00000000000E+00  0.00000000000E+00  0.45593999997E+02  0.45594000000E+02  0.51100000000E-03 0. -1.
         11   -1    0    0    0    0 -0.00000000000E+00 -0.00000000000E+00 -0.45593999997E+02  0.45594000000E+02  0.51100000000E-03 0.  1.
    9900012    2    1    2    0    0 -0.21858454069E+02 -0.31818007592E+02 -0.23214992132E+02  0.46142317842E+02  0.10000000736E+02 0.  0.
         12    1    1    2    0    0  0.21858454069E+02  0.31818007592E+02  0.23214992132E+02  0.45045682158E+02  0.00000000000E+00 0. -1.
         11    1    3    3    0    0 -0.10668586586E+02 -0.15572595955E+02 -0.66769473496E+01  0.20022639953E+02  0.51100000000E-03 0. -1.
        -11    1    3    3    0    0 -0.83615421201E+01 -0.13864864718E+02 -0.15141478874E+02  0.22167865098E+02  0.51100000000E-03 0.  1.
        -12    1    3    3    0    0 -0.28283253637E+01 -0.23805469188E+01 -0.13965659085E+01  0.39518127906E+01  0.00000000000E+00 0.  1.
</event>
<event>
 7    1  0.3766050E-009  0.4614232E+02  0.7816164E-02  0.1320468E+00
        -11   -1    0    0    0    0  0.00000000000E+00  0.00000000000E+00  0.45593999997E+02  0.45594000000E+02  0.51100000000E-03 0. -1.
         11   -1    0    0    0    0 -0.00000000000E+00 -0.00000000000E+00 -0.45593999997E+02  0.45594000000E+02  0.51100000000E-03 0.  1.
    9900012    2    1    2    0    0 -0.10292573607E+02 -0.15317229002E+02 -0.41092076883E+02  0.46142319205E+02  0.10000013163E+02 0.  0.
         12    1    1    2    0    0  0.10292573607E+02  0.15317229002E+02  0.41092076883E+02  0.45045680795E+02  0.00000000000E+00 0. -1.
         11    1    3    3    0    0 -0.58619250983E+01 -0.41679379847E+01 -0.10034529774E+02  0.12346078768E+02  0.51100000000E-03 0. -1.
        -11    1    3    3    0    0 -0.40691950798E+01 -0.82726419975E+01 -0.16034158113E+02  0.18495653026E+02  0.51100000000E-03 0.  1.
         12    1    3    3    0    0 -0.36145342861E+00 -0.28766490193E+01 -0.15023388996E+02  0.15300587410E+02  0.00000000000E+00 0. -1.
</event>
<event>
 7    1  0.3766050E-009  0.4614232E+02  0.7816164E-02  0.1320468E+00
        -11   -1    0    0    0    0  0.00000000000E+00  0.00000000000E+00  0.45593999997E+02  0.45594000000E+02  0.51100000000E-03 0. -1.
         11   -1    0    0    0    0 -0.00000000000E+00 -0.00000000000E+00 -0.45593999997E+02  0.45594000000E+02  0.51100000000E-03 0.  1.
    9900012    2    1    2    0    0 -0.35159718988E+02  0.94906698977E+01  0.26511034269E+02  0.46142316606E+02  0.99999894661E+01 0.  0.
        -12    1    1    2    0    0  0.35159718988E+02 -0.94906698977E+01 -0.26511034269E+02  0.45045683394E+02  0.00000000000E+00 0.  1.
         11    1    3    3    0    0 -0.50570995030E+01 -0.11208430624E+01  0.24442200886E+01  0.57275436844E+01  0.51100000000E-03 0. -1.
        -11    1    3    3    0    0 -0.77905277168E+01  0.50031748808E+01  0.90123386974E+01  0.12920771264E+02  0.51100000000E-03 0.  1.
         12    1    3    3    0    0 -0.22312091768E+02  0.56083380793E+01  0.15054475483E+02  0.27494001658E+02  0.00000000000E+00 0. -1.
</event>
<event>
 7    1  0.3766050E-009  0.4614232E+02  0.7816164E-02  0.1320468E+00
        -11   -1    0    0    0    0  0.00000000000E+00  0.00000000000E+00  0.45593999997E+02  0.45594000000E+02  0.51100000000E-03 0. -1.
         11   -1    0    0    0    0 -0.00000000000E+00 -0.00000000000E+00 -0.45593999997E+02  0.45594000000E+02  0.51100000000E-03 0.  1.
    9900012    2    1    2    0    0 -0.12344464648E+02  0.69151471011E+01  0.42765739195E+02  0.46142317457E+02  0.99999972248E+01 0.  0.
        -12    1    1    2    0    0  0.12344464648E+02 -0.69151471011E+01 -0.42765739195E+02  0.45045682543E+02  0.00000000000E+00 0.  1.
         11    1    3    3    0    0 -0.63068685235E+01 -0.12243030710E+00  0.25867121327E+02  0.26625167526E+02  0.51100000000E-03 0. -1.
        -11    1    3    3    0    0 -0.59519971509E+01  0.62116282662E+01  0.16472793839E+02  0.18583959022E+02  0.51100000000E-03 0.  1.
         12    1    3    3    0    0 -0.85598974141E-01  0.82594914204E+00  0.42582402882E+00  0.93319090927E+00  0.00000000000E+00 0. -1.
</event>
<event>
 7    1  0.3766050E-009  0.4614232E+02  0.7816164E-02  0.1320468E+00
        -11   -1    0    0    0    0  0.00000000000E+00  0.00000000000E+00  0.45593999997E+02  0.45594000000E+02  0.51100000000E-03 0. -1.
         11   -1    0    0    0    0 -0.00000000000E+00 -0.00000000000E+00 -0.45593999997E+02  0.45594000000E+02  0.51100000000E-03 0.  1.
    9900012    2    1    2    0    0 -0.33730312107E+02  0.28275594226E+02  0.95849054106E+01  0.46142316574E+02  0.99999891713E+01 0.  0.
         12    1    1    2    0    0  0.33730312107E+02 -0.28275594226E+02 -0.95849054106E+01  0.45045683426E+02  0.00000000000E+00 0. -1.
         11    1    3    3    0    0 -0.34928360527E+01  0.16549960161E+01  0.32228245624E+01  0.50324461175E+01  0.51100000000E-03 0. -1.
        -11    1    3    3    0    0 -0.17568320027E+02  0.18747314873E+02  0.43578763493E+01  0.26059523596E+02  0.51100000000E-03 0.  1.
         12    1    3    3    0    0 -0.12669156027E+02  0.78732833365E+01  0.20042044989E+01  0.15050346860E+02  0.00000000000E+00 0. -1.
</event>
<event>
 7    1  0.3766050E-009  0.4614232E+02  0.7816164E-02  0.1320468E+00
        -11   -1    0    0    0    0  0.00000000000E+00  0.00000000000E+00  0.45593999997E+02  0.45594000000E+02  0.51100000000E-03 0. -1.
         11   -1    0    0    0    0 -0.00000000000E+00 -0.00000000000E+00 -0.45593999997E+02  0.45594000000E+02  0.51100000000E-03 0.  1.
    9900012    2    1    2    0    0 -0.99309309259E+01 -0.13231812575E+02 -0.41897601592E+02  0.46142320160E+02  0.10000021875E+02 0.  0.
         12    1    1    2    0    0  0.99309309259E+01  0.13231812575E+02  0.41897601592E+02  0.45045679840E+02  0.00000000000E+00 0. -1.
         11    1    3    3    0    0 -0.43020985456E+01 -0.71017089089E+01 -0.11390535368E+02  0.14095624056E+02  0.51100000000E-03 0. -1.
        -11    1    3    3    0    0 -0.37600689832E+00 -0.15148817268E+00 -0.10600384548E+02  0.10608132855E+02  0.51100000000E-03 0.  1.
        -12    1    3    3    0    0 -0.52528254820E+01 -0.59786154932E+01 -0.19906681677E+02  0.21438563248E+02  0.00000000000E+00 0.  1.
</event>
<event>
 7    1  0.4665453E-009  0.4614232E+02  0.7816164E-02  0.1320468E+00
        -11   -1    0    0    0    0  0.00000000000E+00  0.00000000000E+00  0.45593999997E+02  0.45594000000E+02  0.51100000000E-03 0. -1.
         11   -1    0    0    0    0 -0.00000000000E+00 -0.00000000000E+00 -0.45593999997E+02  0.45594000000E+02  0.51100000000E-03 0.  1.
    9900012    2    1    2    0    0  0.17250999908E+02 -0.21435024059E+02 -0.35665897738E+02  0.46142317458E+02  0.99999972315E+01 0.  0.
         12    1    1    2    0    0 -0.17250999908E+02  0.21435024059E+02  0.35665897738E+02  0.45045682542E+02  0.00000000000E+00 0. -1.
         11    1    3    3    0    0  0.59983903785E+01 -0.15855830002E+01 -0.60568687527E+01  0.86706643305E+01  0.51100000000E-03 0. -1.
        -11    1    3    3    0    0  0.64708595226E+01 -0.13841525050E+02 -0.19238819386E+02  0.24568109620E+02  0.51100000000E-03 0.  1.
         12    1    3    3    0    0  0.47817500071E+01 -0.60079160090E+01 -0.10370209599E+02  0.12903543507E+02  0.00000000000E+00 0. -1.
</event>
<event>
 7    1  0.3766050E-009  0.4614232E+02  0.7816164E-02  0.1320468E+00
        -11   -1    0    0    0    0  0.00000000000E+00  0.00000000000E+00  0.45593999997E+02  0.45594000000E+02  0.51100000000E-03 0. -1.
         11   -1    0    0    0    0 -0.00000000000E+00 -0.00000000000E+00 -0.45593999997E+02  0.45594000000E+02  0.51100000000E-03 0.  1.
    9900012    2    1    2    0    0 -0.33463068352E+02  0.92555294893E+01 -0.28699681187E+02  0.46142317966E+02  0.10000001870E+02 0.  0.
         12    1    1    2    0    0  0.33463068352E+02 -0.92555294893E+01  0.28699681187E+02  0.45045682034E+02  0.00000000000E+00 0. -1.
         11    1    3    3    0    0 -0.84998528021E+01 -0.23192519856E+00 -0.41649182288E+01  0.94682538553E+01  0.51100000000E-03 0. -1.
        -11    1    3    3    0    0 -0.91857819427E+01  0.63405067849E+01 -0.95917659285E+01  0.14716745227E+02  0.51100000000E-03 0.  1.
        -12    1    3    3    0    0 -0.15777433607E+02  0.31469479029E+01 -0.14942997030E+02  0.21957318884E+02  0.00000000000E+00 0.  1.
</event>
<event>
 7    1  0.3766050E-009  0.4614232E+02  0.7816164E-02  0.1320468E+00
        -11   -1    0    0    0    0  0.00000000000E+00  0.00000000000E+00  0.45593999997E+02  0.45594000000E+02  0.51100000000E-03 0.  1.
         11   -1    0    0    0    0 -0.00000000000E+00 -0.00000000000E+00 -0.45593999997E+02  0.45594000000E+02  0.51100000000E-03 0. -1.
    9900012    2    1    2    0    0 -0.42450807908E+02  0.14144608914E+02 -0.51934918736E+01  0.46142318618E+02  0.10000007811E+02 0.  0.
         12    1    1    2    0    0  0.42450807908E+02 -0.14144608914E+02  0.51934918736E+01  0.45045681382E+02  0.00000000000E+00 0. -1.
         11    1    3    3    0    0 -0.15531006667E+02  0.46397316290E+01 -0.62013559914E+01  0.17355001990E+02  0.51100000000E-03 0. -1.
        -11    1    3    3    0    0 -0.28606754370E+01  0.21733923605E+01 -0.27563407406E+00  0.36032031184E+01  0.51100000000E-03 0.  1.
         12    1    3    3    0    0 -0.24059125804E+02  0.73314849242E+01  0.12834981919E+01  0.25184113509E+02  0.00000000000E+00 0. -1.
</event>
<event>
 7    1  0.3766050E-009  0.4614232E+02  0.7816164E-02  0.1320468E+00
        -11   -1    0    0    0    0  0.00000000000E+00  0.00000000000E+00  0.45593999997E+02  0.45594000000E+02  0.51100000000E-03 0. -1.
         11   -1    0    0    0    0 -0.00000000000E+00 -0.00000000000E+00 -0.45593999997E+02  0.45594000000E+02  0.51100000000E-03 0.  1.
    9900012    2    1    2    0    0  0.33459625596E+02 -0.27308758500E+01  0.30035134744E+02  0.46142317110E+02  0.99999940638E+01 0.  0.
        -12    1    1    2    0    0 -0.33459625596E+02  0.27308758500E+01 -0.30035134744E+02  0.45045682890E+02  0.00000000000E+00 0.  1.
         11    1    3    3    0    0  0.78795521002E+01 -0.23094393965E+01  0.66720517307E+01  0.10580034319E+02  0.51100000000E-03 0. -1.
        -11    1    3    3    0    0  0.61834728762E-01 -0.12578394299E+01  0.14051200043E+01  0.18868879280E+01  0.51100000000E-03 0.  1.
         12    1    3    3    0    0  0.25518238767E+02  0.83640297651E+00  0.21957963009E+02  0.33675394863E+02  0.00000000000E+00 0. -1.
</event>
<event>
 7    1  0.3766050E-009  0.4614232E+02  0.7816164E-02  0.1320468E+00
        -11   -1    0    0    0    0  0.00000000000E+00  0.00000000000E+00  0.45593999997E+02  0.45594000000E+02  0.51100000000E-03 0. -1.
         11   -1    0    0    0    0 -0.00000000000E+00 -0.00000000000E+00 -0.45593999997E+02  0.45594000000E+02  0.51100000000E-03 0.  1.
    9900012    2    1    2    0    0 -0.19869437297E+02  0.25209271473E+02  0.31603980158E+02  0.46142317981E+02  0.10000002010E+02 0.  0.
        -12    1    1    2    0    0  0.19869437297E+02 -0.25209271473E+02 -0.31603980158E+02  0.45045682019E+02  0.00000000000E+00 0.  1.
         11    1    3    3    0    0 -0.80563423062E+01  0.97627275211E+01  0.72181447742E+01  0.14571105457E+02  0.51100000000E-03 0. -1.
        -11    1    3    3    0    0 -0.71784633951E+01  0.84714339612E+01  0.17518280209E+02  0.20740917815E+02  0.51100000000E-03 0.  1.
         12    1    3    3    0    0 -0.46346315954E+01  0.69751099905E+01  0.68675551754E+01  0.10830294709E+02  0.00000000000E+00 0. -1.
</event>
<event>
 7    1  0.3766050E-009  0.4614232E+02  0.7816164E-02  0.1320468E+00
        -11   -1    0    0    0    0  0.00000000000E+00  0.00000000000E+00  0.45593999997E+02  0.45594000000E+02  0.51100000000E-03 0. -1.
         11   -1    0    0    0    0 -0.00000000000E+00 -0.00000000000E+00 -0.45593999997E+02  0.45594000000E+02  0.51100000000E-03 0.  1.
    9900012    2    1    2    0    0 -0.29578625095E+01  0.40270040781E+02 -0.19967174193E+02  0.46142321179E+02  0.10000031169E+02 0.  0.
         12    1    1    2    0    0  0.29578625095E+01 -0.40270040781E+02  0.19967174193E+02  0.45045678821E+02  0.00000000000E+00 0. -1.
         11    1    3    3    0    0 -0.24761651956E+01  0.75342662505E+01 -0.14276967596E+01  0.80582181845E+01  0.51100000000E-03 0. -1.
        -11    1    3    3    0    0  0.18571196720E+00  0.26801234488E+02 -0.17534708111E+02  0.32028216432E+02  0.51100000000E-03 0.  1.
        -12    1    3    3    0    0 -0.66740928110E+00  0.59345400430E+01 -0.10047693226E+01  0.60558865629E+01  0.00000000000E+00 0.  1.
</event>
<event>
 7    1  0.3766050E-009  0.4614232E+02  0.7816164E-02  0.1320468E+00
        -11   -1    0    0    0    0  0.00000000000E+00  0.00000000000E+00  0.45593999997E+02  0.45594000000E+02  0.51100000000E-03 0. -1.
         11   -1    0    0    0    0 -0.00000000000E+00 -0.00000000000E+00 -0.45593999997E+02  0.45594000000E+02  0.51100000000E-03 0.  1.
    9900012    2    1    2    0    0  0.17489486867E+02  0.52551435606E+01  0.41177843163E+02  0.46142318162E+02  0.10000003657E+02 0.  0.
        -12    1    1    2    0    0 -0.17489486867E+02 -0.52551435606E+01 -0.41177843163E+02  0.45045681838E+02  0.00000000000E+00 0.  1.
         11    1    3    3    0    0  0.13473696697E+02  0.59442306032E+01  0.32898318239E+02  0.36044052538E+02  0.51100000000E-03 0. -1.
        -11    1    3    3    0    0  0.30647190615E+01  0.13040313498E+01  0.34905398682E+01  0.48246108154E+01  0.51100000000E-03 0.  1.
         12    1    3    3    0    0  0.95107110801E+00 -0.19931183924E+01  0.47889850560E+01  0.52736548091E+01  0.00000000000E+00 0. -1.
</event>
<event>
 7    1  0.3766050E-009  0.4614232E+02  0.7816164E-02  0.1320468E+00
        -11   -1    0    0    0    0  0.00000000000E+00  0.00000000000E+00  0.45593999997E+02  0.45594000000E+02  0.51100000000E-03 0. -1.
         11   -1    0    0    0    0 -0.00000000000E+00 -0.00000000000E+00 -0.45593999997E+02  0.45594000000E+02  0.51100000000E-03 0.  1.
    9900012    2    1    2    0    0 -0.34070963579E+01 -0.34429457230E+02 -0.28846450588E+02  0.46142317163E+02  0.99999945451E+01 0.  0.
         12    1    1    2    0    0  0.34070963579E+01  0.34429457230E+02  0.28846450588E+02  0.45045682837E+02  0.00000000000E+00 0. -1.
         11    1    3    3    0    0 -0.18021939451E+01 -0.54526264892E+01 -0.44234159519E+01  0.72488376717E+01  0.51100000000E-03 0. -1.
        -11    1    3    3    0    0  0.12330939707E+00 -0.23837941362E+02 -0.23345414382E+02  0.33365716334E+02  0.51100000000E-03 0.  1.
        -12    1    3    3    0    0 -0.17282118099E+01 -0.51388893787E+01 -0.10776202545E+01  0.55277631570E+01  0.00000000000E+00 0.  1.
</event>
<event>
 7    1  0.3766050E-009  0.4614232E+02  0.7816164E-02  0.1320468E+00
        -11   -1    0    0    0    0  0.00000000000E+00  0.00000000000E+00  0.45593999997E+02  0.45594000000E+02  0.51100000000E-03 0.  1.
         11   -1    0    0    0    0 -0.00000000000E+00 -0.00000000000E+00 -0.45593999997E+02  0.45594000000E+02  0.51100000000E-03 0. -1.
    9900012    2    1    2    0    0 -0.19704974058E+02 -0.40450142527E+02  0.21479034879E+01  0.46142317382E+02  0.99999965443E+01 0.  0.
         12    1    1    2    0    0  0.19704974058E+02  0.40450142527E+02 -0.21479034879E+01  0.45045682618E+02  0.00000000000E+00 0. -1.
         11    1    3    3    0    0 -0.10255610824E+00  0.24097383820E+00 -0.50931423195E+00  0.57270183693E+00  0.51100000000E-03 0. -1.
        -11    1    3    3    0    0 -0.58715521545E+01 -0.17442798751E+02  0.24624743651E+01  0.18568525338E+02  0.51100000000E-03 0.  1.
         12    1    3    3    0    0 -0.13730865795E+02 -0.23248317614E+02  0.19474335468E+00  0.27001090207E+02  0.00000000000E+00 0. -1.
</event>
<event>
 7    1  0.3766050E-009  0.4614232E+02  0.7816164E-02  0.1320468E+00
        -11   -1    0    0    0    0  0.00000000000E+00  0.00000000000E+00  0.45593999997E+02  0.45594000000E+02  0.51100000000E-03 0. -1.
         11   -1    0    0    0    0 -0.00000000000E+00 -0.00000000000E+00 -0.45593999997E+02  0.45594000000E+02  0.51100000000E-03 0.  1.
    9900012    2    1    2    0    0 -0.14210840263E+02 -0.25318853289E+02  0.34440110111E+02  0.46142317662E+02  0.99999990930E+01 0.  0.
        -12    1    1    2    0    0  0.14210840263E+02  0.25318853289E+02 -0.34440110111E+02  0.45045682338E+02  0.00000000000E+00 0.  1.
         11    1    3    3    0    0 -0.76516308367E+01 -0.20805086233E+02  0.23032659719E+02  0.31967209475E+02  0.51100000000E-03 0. -1.
        -11    1    3    3    0    0 -0.67911338611E+01 -0.40853754020E+01  0.10818245869E+02  0.13410601599E+02  0.51100000000E-03 0.  1.
        -12    1    3    3    0    0  0.23192443496E+00 -0.42839165429E+00  0.58920452307E+00  0.76450658794E+00  0.00000000000E+00 0.  1.
</event>
<event>
 7    1  0.3766050E-009  0.4614232E+02  0.7816164E-02  0.1320468E+00
        -11   -1    0    0    0    0  0.00000000000E+00  0.00000000000E+00  0.45593999997E+02  0.45594000000E+02  0.51100000000E-03 0. -1.
         11   -1    0    0    0    0 -0.00000000000E+00 -0.00000000000E+00 -0.45593999997E+02  0.45594000000E+02  0.51100000000E-03 0.  1.
    9900012    2    1    2    0    0 -0.12261506337E+02 -0.22876934404E+02  0.36815952095E+02  0.46142323248E+02  0.10000050031E+02 0.  0.
        -12    1    1    2    0    0  0.12261506337E+02  0.22876934404E+02 -0.36815952095E+02  0.45045676752E+02  0.00000000000E+00 0.  1.
         11    1    3    3    0    0  0.78631525540E+00 -0.48024762813E+01  0.36547242911E+01  0.60859740403E+01  0.51100000000E-03 0. -1.
        -11    1    3    3    0    0 -0.11891967904E+02 -0.14810616403E+02  0.27558136246E+02  0.33469749513E+02  0.51100000000E-03 0.  1.
        -12    1    3    3    0    0 -0.11558536881E+01 -0.32638417200E+01  0.56030915583E+01  0.65865996942E+01  0.00000000000E+00 0.  1.
</event>
<event>
 7    1  0.3766050E-009  0.4614232E+02  0.7816164E-02  0.1320468E+00
        -11   -1    0    0    0    0  0.00000000000E+00  0.00000000000E+00  0.45593999997E+02  0.45594000000E+02  0.51100000000E-03 0. -1.
         11   -1    0    0    0    0 -0.00000000000E+00 -0.00000000000E+00 -0.45593999997E+02  0.45594000000E+02  0.51100000000E-03 0.  1.
    9900012    2    1    2    0    0 -0.53473221477E+00 -0.25106055841E+02 -0.37396706866E+02  0.46142315824E+02  0.99999823386E+01 0.  0.
         12    1    1    2    0    0  0.53473221477E+00  0.25106055841E+02  0.37396706866E+02  0.45045684176E+02  0.00000000000E+00 0. -1.
         11    1    3    3    0    0  0.79437672221E+00 -0.13823735662E+01 -0.59942629880E+00  0.17033212269E+01  0.51100000000E-03 0. -1.
        -11    1    3    3    0    0 -0.73585191082E+00 -0.15960685135E+02 -0.30475851436E+02  0.34410208791E+02  0.51100000000E-03 0.  1.
        -12    1    3    3    0    0 -0.59325702616E+00 -0.77629971402E+01 -0.63214291313E+01  0.10028785807E+02  0.00000000000E+00 0.  1.
</event>
<event>
 7    1  0.3766050E-009  0.4614232E+02  0.7816164E-02  0.1320468E+00
        -11   -1    0    0    0    0  0.00000000000E+00  0.00000000000E+00  0.45593999997E+02  0.45594000000E+02  0.51100000000E-03 0. -1.
         11   -1    0    0    0    0 -0.00000000000E+00 -0.00000000000E+00 -0.45593999997E+02  0.45594000000E+02  0.51100000000E-03 0.  1.
    9900012    2    1    2    0    0 -0.28798838438E+02  0.34606242751E+02  0.14657415300E+01  0.46142317288E+02  0.99999956886E+01 0.  0.
         12    1    1    2    0    0  0.28798838438E+02 -0.34606242751E+02 -0.14657415300E+01  0.45045682712E+02  0.00000000000E+00 0. -1.
         11    1    3    3    0    0 -0.69750868198E+01  0.92468847039E+01  0.35656541224E+01  0.12119018213E+02  0.51100000000E-03 0. -1.
        -11    1    3    3    0    0 -0.13679594505E+02  0.18366141836E+02  0.76283325803E+00  0.22913497913E+02  0.51100000000E-03 0.  1.
        -12    1    3    3    0    0 -0.81441571126E+01  0.69932162116E+01 -0.28627458505E+01  0.11109801162E+02  0.00000000000E+00 0.  1.
</event>
<event>
 7    1  0.3766050E-009  0.4614232E+02  0.7816164E-02  0.1320468E+00
        -11   -1    0    0    0    0  0.00000000000E+00  0.00000000000E+00  0.45593999997E+02  0.45594000000E+02  0.51100000000E-03 0. -1.
         11   -1    0    0    0    0 -0.00000000000E+00 -0.00000000000E+00 -0.45593999997E+02  0.45594000000E+02  0.51100000000E-03 0.  1.
    9900012    2    1    2    0    0  0.19184202855E+02 -0.30956540110E+02  0.26509858059E+02  0.46142316644E+02  0.99999898089E+01 0.  0.
        -12    1    1    2    0    0 -0.19184202855E+02  0.30956540110E+02 -0.26509858059E+02  0.45045683356E+02  0.00000000000E+00 0.  1.
         11    1    3    3    0    0  0.69556017035E+01 -0.13806830524E+02  0.10863504173E+02  0.18895096913E+02  0.51100000000E-03 0. -1.
        -11    1    3    3    0    0  0.90632463289E+01 -0.78083027301E+01  0.57425249205E+01  0.13269838668E+02  0.51100000000E-03 0.  1.
        -12    1    3    3    0    0  0.31653548227E+01 -0.93414068551E+01  0.99038289657E+01  0.13977381063E+02  0.00000000000E+00 0.  1.
</event>
<event>
 7    1  0.3766050E-009  0.4614232E+02  0.7816164E-02  0.1320468E+00
        -11   -1    0    0    0    0  0.00000000000E+00  0.00000000000E+00  0.45593999997E+02  0.45594000000E+02  0.51100000000E-03 0. -1.
         11   -1    0    0    0    0 -0.00000000000E+00 -0.00000000000E+00 -0.45593999997E+02  0.45594000000E+02  0.51100000000E-03 0.  1.
    9900012    2    1    2    0    0 -0.12301167041E+02 -0.16486795763E+02 -0.40074684184E+02  0.46142318103E+02  0.10000003118E+02 0.  0.
         12    1    1    2    0    0  0.12301167041E+02  0.16486795763E+02  0.40074684184E+02  0.45045681897E+02  0.00000000000E+00 0. -1.
         11    1    3    3    0    0 -0.47281970443E+01 -0.86975955814E+00 -0.72311117194E+01  0.86833925363E+01  0.51100000000E-03 0. -1.
        -11    1    3    3    0    0 -0.48855668133E+01 -0.13881365954E+02 -0.28363502880E+02  0.31953863299E+02  0.51100000000E-03 0.  1.
        -12    1    3    3    0    0 -0.26874031833E+01 -0.17356702509E+01 -0.44800695844E+01  0.55050622676E+01  0.00000000000E+00 0.  1.
</event>
<event>
 7    1  0.3766050E-009  0.4614232E+02  0.7816164E-02  0.1320468E+00
        -11   -1    0    0    0    0  0.00000000000E+00  0.00000000000E+00  0.45593999997E+02  0.45594000000E+02  0.51100000000E-03 0. -1.
         11   -1    0    0    0    0 -0.00000000000E+00 -0.00000000000E+00 -0.45593999997E+02  0.45594000000E+02  0.51100000000E-03 0.  1.
    9900012    2    1    2    0    0 -0.78868609344E+01  0.19791086643E+02  0.39689084033E+02  0.46142322324E+02  0.10000041610E+02 0.  0.
        -12    1    1    2    0    0  0.78868609344E+01 -0.19791086643E+02 -0.39689084033E+02  0.45045677676E+02  0.00000000000E+00 0.  1.
         11    1    3    3    0    0 -0.22430317220E+01  0.56096142471E+01  0.48590260800E+01  0.77530057406E+01  0.51100000000E-03 0. -1.
        -11    1    3    3    0    0 -0.58555826699E+01  0.11752723663E+02  0.24736613135E+02  0.28005613572E+02  0.51100000000E-03 0.  1.
        -12    1    3    3    0    0  0.21175345748E+00  0.24287487326E+01  0.10093444819E+02  0.10383703012E+02  0.00000000000E+00 0.  1.
</event>
<event>
 7    1  0.3766050E-009  0.4614232E+02  0.7816164E-02  0.1320468E+00
        -11   -1    0    0    0    0  0.00000000000E+00  0.00000000000E+00  0.45593999997E+02  0.45594000000E+02  0.51100000000E-03 0. -1.
         11   -1    0    0    0    0 -0.00000000000E+00 -0.00000000000E+00 -0.45593999997E+02  0.45594000000E+02  0.51100000000E-03 0.  1.
    9900012    2    1    2    0    0 -0.50178397177E+01 -0.21990178392E+02  0.38991882149E+02  0.46142317247E+02  0.99999953123E+01 0.  0.
        -12    1    1    2    0    0  0.50178397177E+01  0.21990178392E+02 -0.38991882149E+02  0.45045682753E+02  0.00000000000E+00 0.  1.
         11    1    3    3    0    0  0.14006404629E+01 -0.39602786962E+01  0.30821428865E+01  0.52101061498E+01  0.51100000000E-03 0. -1.
        -11    1    3    3    0    0 -0.12005300085E+01 -0.69089325672E+00  0.41287534561E+01  0.43549065611E+01  0.51100000000E-03 0.  1.
         12    1    3    3    0    0 -0.52179501721E+01 -0.17339006439E+02  0.31780985807E+02  0.36577304536E+02  0.00000000000E+00 0. -1.
</event>
<event>
 7    1  0.3881968E-009  0.4614232E+02  0.7816164E-02  0.1320468E+00
        -11   -1    0    0    0    0  0.00000000000E+00  0.00000000000E+00  0.45593999997E+02  0.45594000000E+02  0.51100000000E-03 0. -1.
         11   -1    0    0    0    0 -0.00000000000E+00 -0.00000000000E+00 -0.45593999997E+02  0.45594000000E+02  0.51100000000E-03 0.  1.
    9900012    2    1    2    0    0 -0.30580296985E+02  0.18512899816E+02  0.27408603042E+02  0.46142317144E+02  0.99999943687E+01 0.  0.
        -12    1    1    2    0    0  0.30580296985E+02 -0.18512899816E+02 -0.27408603042E+02  0.45045682856E+02  0.00000000000E+00 0.  1.
         11    1    3    3    0    0 -0.25123941513E+02  0.17692950375E+02  0.19143499391E+02  0.36203956957E+02  0.51100000000E-03 0. -1.
        -11    1    3    3    0    0 -0.39959743391E+01  0.65459449680E+00  0.60773854786E+01  0.73028021602E+01  0.51100000000E-03 0.  1.
         12    1    3    3    0    0 -0.14603811329E+01  0.16535494410E+00  0.21877181720E+01  0.26355580265E+01  0.00000000000E+00 0. -1.
</event>
<event>
 7    1  0.3766050E-009  0.4614232E+02  0.7816164E-02  0.1320468E+00
        -11   -1    0    0    0    0  0.00000000000E+00  0.00000000000E+00  0.45593999997E+02  0.45594000000E+02  0.51100000000E-03 0. -1.
         11   -1    0    0    0    0 -0.00000000000E+00 -0.00000000000E+00 -0.45593999997E+02  0.45594000000E+02  0.51100000000E-03 0.  1.
    9900012    2    1    2    0    0 -0.14843395755E+02 -0.20723923632E+02  0.37139009897E+02  0.46142318027E+02  0.10000002429E+02 0.  0.
        -12    1    1    2    0    0  0.14843395755E+02  0.20723923632E+02 -0.37139009897E+02  0.45045681973E+02  0.00000000000E+00 0.  1.
         11    1    3    3    0    0 -0.80487761717E+01 -0.65730943777E+01  0.17483718984E+02  0.20338849459E+02  0.51100000000E-03 0. -1.
        -11    1    3    3    0    0 -0.67241109766E+01 -0.13412536030E+02  0.19986352548E+02  0.24991280071E+02  0.51100000000E-03 0.  1.
         12    1    3    3    0    0 -0.70508606912E-01 -0.73829322453E+00 -0.33106163449E+00  0.81218849712E+00  0.00000000000E+00 0. -1.
</event>
<event>
 7    1  0.3766050E-009  0.4614232E+02  0.7816164E-02  0.1320468E+00
        -11   -1    0    0    0    0  0.00000000000E+00  0.00000000000E+00  0.45593999997E+02  0.45594000000E+02  0.51100000000E-03 0. -1.
         11   -1    0    0    0    0 -0.00000000000E+00 -0.00000000000E+00 -0.45593999997E+02  0.45594000000E+02  0.51100000000E-03 0.  1.
    9900012    2    1    2    0    0 -0.24104820895E+02 -0.26915170551E+02 -0.26900644979E+02  0.46142317671E+02  0.99999991773E+01 0.  0.
         12    1    1    2    0    0  0.24104820895E+02  0.26915170551E+02  0.26900644979E+02  0.45045682329E+02  0.00000000000E+00 0. -1.
         11    1    3    3    0    0 -0.67078606199E+01 -0.90606927445E+01 -0.77860746494E+01  0.13700894344E+02  0.51100000000E-03 0. -1.
        -11    1    3    3    0    0 -0.30913335597E+01 -0.28160201801E+00 -0.55962619330E+00  0.31541757420E+01  0.51100000000E-03 0.  1.
        -12    1    3    3    0    0 -0.14305626715E+02 -0.17572875789E+02 -0.18554944137E+02  0.29287247585E+02  0.00000000000E+00 0.  1.
</event>
<event>
 7    1  0.3766050E-009  0.4614232E+02  0.7816164E-02  0.1320468E+00
        -11   -1    0    0    0    0  0.00000000000E+00  0.00000000000E+00  0.45593999997E+02  0.45594000000E+02  0.51100000000E-03 0. -1.
         11   -1    0    0    0    0 -0.00000000000E+00 -0.00000000000E+00 -0.45593999997E+02  0.45594000000E+02  0.51100000000E-03 0.  1.
    9900012    2    1    2    0    0  0.21895233735E+02  0.27498654666E+02  0.28169774805E+02  0.46142317839E+02  0.10000000714E+02 0.  0.
        -12    1    1    2    0    0 -0.21895233735E+02 -0.27498654666E+02 -0.28169774805E+02  0.45045682161E+02  0.00000000000E+00 0.  1.
         11    1    3    3    0    0  0.15126928315E+02  0.18132767766E+02  0.18610491935E+02  0.30066121091E+02  0.51100000000E-03 0. -1.
        -11    1    3    3    0    0  0.67065702213E+01  0.63602327418E+01  0.92125654342E+01  0.13049981104E+02  0.51100000000E-03 0.  1.
        -12    1    3    3    0    0  0.61735199147E-01  0.30056541577E+01  0.34671743555E+00  0.30262156451E+01  0.00000000000E+00 0.  1.
</event>
<event>
 7    1  0.3766050E-009  0.4614232E+02  0.7816164E-02  0.1320468E+00
        -11   -1    0    0    0    0  0.00000000000E+00  0.00000000000E+00  0.45593999997E+02  0.45594000000E+02  0.51100000000E-03 0. -1.
         11   -1    0    0    0    0 -0.00000000000E+00 -0.00000000000E+00 -0.45593999997E+02  0.45594000000E+02  0.51100000000E-03 0.  1.
    9900012    2    1    2    0    0  0.27401570135E+02 -0.63491408373E+01  0.35184596554E+02  0.46142317966E+02  0.10000001870E+02 0.  0.
        -12    1    1    2    0    0 -0.27401570135E+02  0.63491408373E+01 -0.35184596554E+02  0.45045682034E+02  0.00000000000E+00 0.  1.
         11    1    3    3    0    0  0.67964555379E+01 -0.28145111499E+01  0.93780742894E+01  0.11918957946E+02  0.51100000000E-03 0. -1.
        -11    1    3    3    0    0  0.92998404407E+01 -0.77161490495E-01  0.17358698607E+02  0.19693080097E+02  0.51100000000E-03 0.  1.
        -12    1    3    3    0    0  0.11305274157E+02 -0.34574681970E+01  0.84478236576E+01  0.14530279923E+02  0.00000000000E+00 0.  1.
</event>
<event>
 7    1  0.3972110E-009  0.4614232E+02  0.7816164E-02  0.1320468E+00
        -11   -1    0    0    0    0  0.00000000000E+00  0.00000000000E+00  0.45593999997E+02  0.45594000000E+02  0.51100000000E-03 0. -1.
         11   -1    0    0    0    0 -0.00000000000E+00 -0.00000000000E+00 -0.45593999997E+02  0.45594000000E+02  0.51100000000E-03 0.  1.
    9900012    2    1    2    0    0 -0.68396139953E+01  0.97324122907E+01 -0.43446670839E+02  0.46142319013E+02  0.10000011414E+02 0.  0.
         12    1    1    2    0    0  0.68396139953E+01 -0.97324122907E+01  0.43446670839E+02  0.45045680987E+02  0.00000000000E+00 0. -1.
         11    1    3    3    0    0 -0.82585492223E+01  0.94212347042E+01 -0.32105796497E+02  0.34463683314E+02  0.51100000000E-03 0. -1.
        -11    1    3    3    0    0  0.90690536287E+00  0.85956872099E+00 -0.10402122412E+02  0.10476902532E+02  0.51100000000E-03 0.  1.
         12    1    3    3    0    0  0.51202986416E+00 -0.54839113447E+00 -0.93875193011E+00  0.12017331669E+01  0.00000000000E+00 0. -1.
</event>
<event>
 7    1  0.3766050E-009  0.4614232E+02  0.7816164E-02  0.1320468E+00
        -11   -1    0    0    0    0  0.00000000000E+00  0.00000000000E+00  0.45593999997E+02  0.45594000000E+02  0.51100000000E-03 0. -1.
         11   -1    0    0    0    0 -0.00000000000E+00 -0.00000000000E+00 -0.45593999997E+02  0.45594000000E+02  0.51100000000E-03 0.  1.
    9900012    2    1    2    0    0  0.44569594449E+01 -0.43337655696E+02 -0.11449740241E+02  0.46142318295E+02  0.10000004864E+02 0.  0.
         12    1    1    2    0    0 -0.44569594449E+01  0.43337655696E+02  0.11449740241E+02  0.45045681705E+02  0.00000000000E+00 0. -1.
         11    1    3    3    0    0 -0.50353333117E+00 -0.49550003838E+00 -0.13316011349E+01  0.15073911062E+01  0.51100000000E-03 0. -1.
        -11    1    3    3    0    0  0.44887266822E+01 -0.16106850254E+02 -0.33647383857E+01  0.17055812997E+02  0.51100000000E-03 0.  1.
        -12    1    3    3    0    0  0.47176609386E+00 -0.26735305404E+02 -0.67534007205E+01  0.27579114191E+02  0.00000000000E+00 0.  1.
</event>
<event>
 7    1  0.3766050E-009  0.4614232E+02  0.7816164E-02  0.1320468E+00
        -11   -1    0    0    0    0  0.00000000000E+00  0.00000000000E+00  0.45593999997E+02  0.45594000000E+02  0.51100000000E-03 0. -1.
         11   -1    0    0    0    0 -0.00000000000E+00 -0.00000000000E+00 -0.45593999997E+02  0.45594000000E+02  0.51100000000E-03 0.  1.
    9900012    2    1    2    0    0  0.71140652377E+01 -0.30895861059E+02 -0.31999208201E+02  0.46142317851E+02  0.10000000816E+02 0.  0.
         12    1    1    2    0    0 -0.71140652377E+01  0.30895861059E+02  0.31999208201E+02  0.45045682149E+02  0.00000000000E+00 0. -1.
         11    1    3    3    0    0 -0.15036576348E+01 -0.13152128836E+02 -0.12830318614E+02  0.18435198811E+02  0.51100000000E-03 0. -1.
        -11    1    3    3    0    0  0.30061018350E+01 -0.59127186524E+01 -0.43517906012E+01  0.79331564842E+01  0.51100000000E-03 0.  1.
         12    1    3    3    0    0  0.56116210375E+01 -0.11831013571E+02 -0.14817098986E+02  0.19773962555E+02  0.00000000000E+00 0. -1.
</event>
<event>
 7    1  0.3766050E-009  0.4614232E+02  0.7816164E-02  0.1320468E+00
        -11   -1    0    0    0    0  0.00000000000E+00  0.00000000000E+00  0.45593999997E+02  0.45594000000E+02  0.51100000000E-03 0. -1.
         11   -1    0    0    0    0 -0.00000000000E+00 -0.00000000000E+00 -0.45593999997E+02  0.45594000000E+02  0.51100000000E-03 0.  1.
    9900012    2    1    2    0    0  0.17011251270E+01  0.25515968566E+02  0.37083081505E+02  0.46142318604E+02  0.10000007687E+02 0.  0.
        -12    1    1    2    0    0 -0.17011251270E+01 -0.25515968566E+02 -0.37083081505E+02  0.45045681396E+02  0.00000000000E+00 0.  1.
         11    1    3    3    0    0  0.23204879536E+00  0.11343449494E+02  0.11775435544E+02  0.16352020535E+02  0.51100000000E-03 0. -1.
        -11    1    3    3    0    0  0.23599663545E+01  0.13066319084E+02  0.25043457823E+02  0.28345597817E+02  0.51100000000E-03 0.  1.
        -12    1    3    3    0    0 -0.89089002283E+00  0.11061999884E+01  0.26418813706E+00  0.14447002523E+01  0.00000000000E+00 0.  1.
</event>
<event>
 7    1  0.3766050E-009  0.4614232E+02  0.7816164E-02  0.1320468E+00
        -11   -1    0    0    0    0  0.00000000000E+00  0.00000000000E+00  0.45593999997E+02  0.45594000000E+02  0.51100000000E-03 0. -1.
         11   -1    0    0    0    0 -0.00000000000E+00 -0.00000000000E+00 -0.45593999997E+02  0.45594000000E+02  0.51100000000E-03 0.  1.
    9900012    2    1    2    0    0  0.10957966368E+02 -0.40444535840E+02  0.16531061563E+02  0.46142317602E+02  0.99999985525E+01 0.  0.
        -12    1    1    2    0    0 -0.10957966368E+02  0.40444535840E+02 -0.16531061563E+02  0.45045682398E+02  0.00000000000E+00 0.  1.
         11    1    3    3    0    0  0.51718972287E+01 -0.64019764223E+01  0.12607691566E+01  0.83260652282E+01  0.51100000000E-03 0.  1.
        -11    1    3    3    0    0  0.58718387591E+01 -0.31876482080E+02  0.14032312491E+02  0.35319886669E+02  0.51100000000E-03 0. -1.
         12    1    3    3    0    0 -0.85769620057E-01 -0.21660773377E+01  0.12379799155E+01  0.24963657048E+01  0.00000000000E+00 0. -1.
</event>
<event>
 7    1  0.3766050E-009  0.4614232E+02  0.7816164E-02  0.1320468E+00
        -11   -1    0    0    0    0  0.00000000000E+00  0.00000000000E+00  0.45593999997E+02  0.45594000000E+02  0.51100000000E-03 0. -1.
         11   -1    0    0    0    0 -0.00000000000E+00 -0.00000000000E+00 -0.45593999997E+02  0.45594000000E+02  0.51100000000E-03 0.  1.
    9900012    2    1    2    0    0 -0.27933250344E+02 -0.14545010735E+02 -0.32206982113E+02  0.46142317533E+02  0.99999979224E+01 0.  0.
         12    1    1    2    0    0  0.27933250344E+02  0.14545010735E+02  0.32206982113E+02  0.45045682467E+02  0.00000000000E+00 0. -1.
         11    1    3    3    0    0 -0.92506315168E+01 -0.41796806065E+01 -0.14767887294E+02  0.17920223459E+02  0.51100000000E-03 0. -1.
        -11    1    3    3    0    0 -0.57653093588E+01 -0.53378331943E+01 -0.91948068128E+01  0.12094450289E+02  0.51100000000E-03 0.  1.
         12    1    3    3    0    0 -0.12917309468E+02 -0.50274969338E+01 -0.82442880062E+01  0.16127643785E+02  0.00000000000E+00 0. -1.
</event>
<event>
 7    1  0.3766050E-009  0.4614232E+02  0.7816164E-02  0.1320468E+00
        -11   -1    0    0    0    0  0.00000000000E+00  0.00000000000E+00  0.45593999997E+02  0.45594000000E+02  0.51100000000E-03 0. -1.
         11   -1    0    0    0    0 -0.00000000000E+00 -0.00000000000E+00 -0.45593999997E+02  0.45594000000E+02  0.51100000000E-03 0.  1.
    9900012    2    1    2    0    0 -0.19161933777E+02 -0.98811156854E+01  0.39551198939E+02  0.46142317734E+02  0.99999997533E+01 0.  0.
        -12    1    1    2    0    0  0.19161933777E+02  0.98811156854E+01 -0.39551198939E+02  0.45045682266E+02  0.00000000000E+00 0.  1.
         11    1    3    3    0    0 -0.50230327662E+00 -0.17361308950E+01  0.47231432884E+01  0.50571278262E+01  0.51100000000E-03 0. -1.
        -11    1    3    3    0    0 -0.15363831046E+02 -0.62660524203E+01  0.32859475306E+02  0.36811083046E+02  0.51100000000E-03 0.  1.
        -12    1    3    3    0    0 -0.32957994542E+01 -0.18789323700E+01  0.19685803446E+01  0.42741068618E+01  0.00000000000E+00 0.  1.
</event>
<event>
 7    1  0.3766050E-009  0.4614232E+02  0.7816164E-02  0.1320468E+00
        -11   -1    0    0    0    0  0.00000000000E+00  0.00000000000E+00  0.45593999997E+02  0.45594000000E+02  0.51100000000E-03 0. -1.
         11   -1    0    0    0    0 -0.00000000000E+00 -0.00000000000E+00 -0.45593999997E+02  0.45594000000E+02  0.51100000000E-03 0.  1.
    9900012    2    1    2    0    0 -0.62257237560E+01 -0.32932576614E+00  0.44612166304E+02  0.46142317920E+02  0.10000001448E+02 0.  0.
        -12    1    1    2    0    0  0.62257237560E+01  0.32932576614E+00 -0.44612166304E+02  0.45045682080E+02  0.00000000000E+00 0.  1.
         11    1    3    3    0    0  0.10606466335E+01  0.11164532388E+01  0.72683391710E+01  0.74296832827E+01  0.51100000000E-03 0. -1.
        -11    1    3    3    0    0 -0.65381819217E+01 -0.34711732084E+01  0.21868412077E+02  0.23087319319E+02  0.51100000000E-03 0.  1.
        -12    1    3    3    0    0 -0.74818846779E+00  0.20253942034E+01  0.15475415055E+02  0.15625315318E+02  0.00000000000E+00 0.  1.
</event>
<event>
 7    1  0.3766050E-009  0.4614232E+02  0.7816164E-02  0.1320468E+00
        -11   -1    0    0    0    0  0.00000000000E+00  0.00000000000E+00  0.45593999997E+02  0.45594000000E+02  0.51100000000E-03 0. -1.
         11   -1    0    0    0    0 -0.00000000000E+00 -0.00000000000E+00 -0.45593999997E+02  0.45594000000E+02  0.51100000000E-03 0.  1.
    9900012    2    1    2    0    0 -0.25616988361E+01  0.14390924800E+02 -0.42608126987E+02  0.46142317601E+02  0.99999985354E+01 0.  0.
         12    1    1    2    0    0  0.25616988361E+01 -0.14390924800E+02  0.42608126987E+02  0.45045682399E+02  0.00000000000E+00 0. -1.
         11    1    3    3    0    0  0.65411166638E+00  0.65449684731E+01 -0.80401509025E+01  0.10387901674E+02  0.51100000000E-03 0. -1.
        -11    1    3    3    0    0 -0.57324010310E+00  0.56925884356E+01 -0.21148293196E+02  0.21908547936E+02  0.51100000000E-03 0.  1.
        -12    1    3    3    0    0 -0.26425703994E+01  0.21533678911E+01 -0.13419682888E+02  0.13845867990E+02  0.00000000000E+00 0.  1.
</event>
<event>
 7    1  0.3766050E-009  0.4614232E+02  0.7816164E-02  0.1320468E+00
        -11   -1    0    0    0    0  0.00000000000E+00  0.00000000000E+00  0.45593999997E+02  0.45594000000E+02  0.51100000000E-03 0. -1.
         11   -1    0    0    0    0 -0.00000000000E+00 -0.00000000000E+00 -0.45593999997E+02  0.45594000000E+02  0.51100000000E-03 0.  1.
    9900012    2    1    2    0    0  0.27603219955E+02  0.21007422054E+02  0.28737849174E+02  0.46142317539E+02  0.99999979741E+01 0.  0.
        -12    1    1    2    0    0 -0.27603219955E+02 -0.21007422054E+02 -0.28737849174E+02  0.45045682461E+02  0.00000000000E+00 0.  1.
         11    1    3    3    0    0  0.22637538057E+02  0.15942201588E+02  0.25420143927E+02  0.37587173853E+02  0.51100000000E-03 0. -1.
        -11    1    3    3    0    0  0.25092440924E+00  0.19306998530E+01  0.18962725541E+01  0.27177959530E+01  0.51100000000E-03 0.  1.
         12    1    3    3    0    0  0.47147574889E+01  0.31345206129E+01  0.14214326929E+01  0.58373477327E+01  0.00000000000E+00 0. -1.
</event>
<event>
 7    1  0.3766050E-009  0.4614232E+02  0.7816164E-02  0.1320468E+00
        -11   -1    0    0    0    0  0.00000000000E+00  0.00000000000E+00  0.45593999997E+02  0.45594000000E+02  0.51100000000E-03 0. -1.
         11   -1    0    0    0    0 -0.00000000000E+00 -0.00000000000E+00 -0.45593999997E+02  0.45594000000E+02  0.51100000000E-03 0.  1.
    9900012    2    1    2    0    0 -0.89616308276E+01  0.10104623742E+02 -0.42973238083E+02  0.46142318305E+02  0.10000004961E+02 0.  0.
         12    1    1    2    0    0  0.89616308276E+01 -0.10104623742E+02  0.42973238083E+02  0.45045681695E+02  0.00000000000E+00 0. -1.
         11    1    3    3    0    0 -0.15461407856E+01  0.63742301102E+01 -0.25200773979E+02  0.26040360409E+02  0.51100000000E-03 0. -1.
        -11    1    3    3    0    0 -0.52379367030E+01  0.26365327096E+01 -0.73721478615E+01  0.94199708061E+01  0.51100000000E-03 0.  1.
        -12    1    3    3    0    0 -0.21775533390E+01  0.10938609221E+01 -0.10400316242E+02  0.10681987090E+02  0.00000000000E+00 0.  1.
</event>
<event>
 7    1  0.3766050E-009  0.4614232E+02  0.7816164E-02  0.1320468E+00
        -11   -1    0    0    0    0  0.00000000000E+00  0.00000000000E+00  0.45593999997E+02  0.45594000000E+02  0.51100000000E-03 0.  1.
         11   -1    0    0    0    0 -0.00000000000E+00 -0.00000000000E+00 -0.45593999997E+02  0.45594000000E+02  0.51100000000E-03 0. -1.
    9900012    2    1    2    0    0  0.41003780861E+02  0.13803615930E+02 -0.12540479757E+02  0.46142317741E+02  0.99999998161E+01 0.  0.
         12    1    1    2    0    0 -0.41003780861E+02 -0.13803615930E+02  0.12540479757E+02  0.45045682259E+02  0.00000000000E+00 0. -1.
         11    1    3    3    0    0  0.20501764276E+01  0.19159957006E+01  0.97286266857E+00  0.29699705288E+01  0.51100000000E-03 0. -1.
        -11    1    3    3    0    0  0.88893051269E+01  0.45935906242E+01 -0.43201642082E+01  0.10898836613E+02  0.51100000000E-03 0.  1.
        -12    1    3    3    0    0  0.30064299307E+02  0.72940296051E+01 -0.91931782176E+01  0.32273510599E+02  0.00000000000E+00 0.  1.
</event>
<event>
 7    1  0.3766050E-009  0.4614232E+02  0.7816164E-02  0.1320468E+00
        -11   -1    0    0    0    0  0.00000000000E+00  0.00000000000E+00  0.45593999997E+02  0.45594000000E+02  0.51100000000E-03 0.  1.
         11   -1    0    0    0    0 -0.00000000000E+00 -0.00000000000E+00 -0.45593999997E+02  0.45594000000E+02  0.51100000000E-03 0. -1.
    9900012    2    1    2    0    0  0.34824325134E+02  0.21516669854E+02  0.18799276183E+02  0.46142317769E+02  0.10000000074E+02 0.  0.
        -12    1    1    2    0    0 -0.34824325134E+02 -0.21516669854E+02 -0.18799276183E+02  0.45045682231E+02  0.00000000000E+00 0.  1.
         11    1    3    3    0    0  0.15408585459E+02  0.67639176936E+01  0.38540118115E+01  0.17263501838E+02  0.51100000000E-03 0. -1.
        -11    1    3    3    0    0  0.12975324752E+02  0.11745392252E+02  0.11786439810E+02  0.21100555804E+02  0.51100000000E-03 0.  1.
         12    1    3    3    0    0  0.64404149230E+01  0.30073599082E+01  0.31588245621E+01  0.77782601275E+01  0.00000000000E+00 0. -1.
</event>
<event>
 7    1  0.3766050E-009  0.4614231E+02  0.7816164E-02  0.1320468E+00
        -11   -1    0    0    0    0  0.00000000000E+00  0.00000000000E+00  0.45593999997E+02  0.45594000000E+02  0.51100000000E-03 0. -1.
         11   -1    0    0    0    0 -0.00000000000E+00 -0.00000000000E+00 -0.45593999997E+02  0.45594000000E+02  0.51100000000E-03 0.  1.
    9900012    2    1    2    0    0  0.80483713133E+00  0.18142296364E+02  0.41222851523E+02  0.46142310219E+02  0.99999312222E+01 0.  0.
        -12    1    1    2    0    0 -0.80483713133E+00 -0.18142296364E+02 -0.41222851523E+02  0.45045689781E+02  0.00000000000E+00 0.  1.
         11    1    3    3    0    0 -0.26099684533E+01  0.89943092456E+01  0.28610137110E+02  0.30103977808E+02  0.51100000000E-03 0. -1.
        -11    1    3    3    0    0  0.10835189766E+01  0.27321157843E+01  0.51095925927E+01  0.58946082785E+01  0.51100000000E-03 0.  1.
         12    1    3    3    0    0  0.23312866080E+01  0.64158713340E+01  0.75031218203E+01  0.10143724132E+02  0.00000000000E+00 0. -1.
</event>
<event>
 7    1  0.3766050E-009  0.4614232E+02  0.7816164E-02  0.1320468E+00
        -11   -1    0    0    0    0  0.00000000000E+00  0.00000000000E+00  0.45593999997E+02  0.45594000000E+02  0.51100000000E-03 0. -1.
         11   -1    0    0    0    0 -0.00000000000E+00 -0.00000000000E+00 -0.45593999997E+02  0.45594000000E+02  0.51100000000E-03 0.  1.
    9900012    2    1    2    0    0 -0.20778555012E+02 -0.19639623301E+01  0.39918767356E+02  0.46142317814E+02  0.10000000482E+02 0.  0.
        -12    1    1    2    0    0  0.20778555012E+02  0.19639623301E+01 -0.39918767356E+02  0.45045682186E+02  0.00000000000E+00 0.  1.
         11    1    3    3    0    0 -0.55760889045E+01 -0.44841831402E+00  0.17235027921E+02  0.18120155468E+02  0.51100000000E-03 0. -1.
        -11    1    3    3    0    0 -0.73700456936E+01 -0.38023803579E+01  0.11482307465E+02  0.14164005609E+02  0.51100000000E-03 0.  1.
         12    1    3    3    0    0 -0.78324204139E+01  0.22868363419E+01  0.11201431969E+02  0.13858156737E+02  0.00000000000E+00 0. -1.
</event>
<event>
 7    1  0.3766050E-009  0.4614232E+02  0.7816164E-02  0.1320468E+00
        -11   -1    0    0    0    0  0.00000000000E+00  0.00000000000E+00  0.45593999997E+02  0.45594000000E+02  0.51100000000E-03 0. -1.
         11   -1    0    0    0    0 -0.00000000000E+00 -0.00000000000E+00 -0.45593999997E+02  0.45594000000E+02  0.51100000000E-03 0.  1.
    9900012    2    1    2    0    0 -0.20206960528E+02  0.22195887856E+02  0.33587716976E+02  0.46142318485E+02  0.10000006600E+02 0.  0.
        -12    1    1    2    0    0  0.20206960528E+02 -0.22195887856E+02 -0.33587716976E+02  0.45045681515E+02  0.00000000000E+00 0.  1.
         11    1    3    3    0    0 -0.72699199524E+01  0.42408325249E+01  0.12301007835E+02  0.14904737188E+02  0.51100000000E-03 0. -1.
        -11    1    3    3    0    0 -0.29482376057E+01  0.27379335751E+01  0.13566995187E+01  0.42460592420E+01  0.51100000000E-03 0.  1.
         12    1    3    3    0    0 -0.99888029701E+01  0.15217121756E+02  0.19930009623E+02  0.26991522055E+02  0.00000000000E+00 0. -1.
</event>
<event>
 7    1  0.3766050E-009  0.4614233E+02  0.7816164E-02  0.1320468E+00
        -11   -1    0    0    0    0  0.00000000000E+00  0.00000000000E+00  0.45593999997E+02  0.45594000000E+02  0.51100000000E-03 0. -1.
         11   -1    0    0    0    0 -0.00000000000E+00 -0.00000000000E+00 -0.45593999997E+02  0.45594000000E+02  0.51100000000E-03 0.  1.
    9900012    2    1    2    0    0  0.20678648446E+02  0.16254786356E+02 -0.36568951351E+02  0.46142325580E+02  0.10000071299E+02 0.  0.
         12    1    1    2    0    0 -0.20678648446E+02 -0.16254786356E+02  0.36568951351E+02  0.45045674420E+02  0.00000000000E+00 0. -1.
         11    1    3    3    0    0  0.53350322801E+01 -0.49108377535E-01 -0.77086439589E+01  0.93748692262E+01  0.51100000000E-03 0. -1.
        -11    1    3    3    0    0  0.59966718906E+01  0.94374571056E+01 -0.14041403703E+02  0.17949559566E+02  0.51100000000E-03 0.  1.
         12    1    3    3    0    0  0.93469442757E+01  0.68664376277E+01 -0.14818903689E+02  0.18817896788E+02  0.00000000000E+00 0. -1.
</event>
<event>
 7    1  0.3766050E-009  0.4614232E+02  0.7816164E-02  0.1320468E+00
        -11   -1    0    0    0    0  0.00000000000E+00  0.00000000000E+00  0.45593999997E+02  0.45594000000E+02  0.51100000000E-03 0. -1.
         11   -1    0    0    0    0 -0.00000000000E+00 -0.00000000000E+00 -0.45593999997E+02  0.45594000000E+02  0.51100000000E-03 0.  1.
    9900012    2    1    2    0    0  0.28877067166E+02  0.17919743103E+02  0.29565372916E+02  0.46142317891E+02  0.10000001181E+02 0.  0.
        -12    1    1    2    0    0 -0.28877067166E+02 -0.17919743103E+02 -0.29565372916E+02  0.45045682109E+02  0.00000000000E+00 0.  1.
         11    1    3    3    0    0  0.22101218900E+02  0.14247055552E+02  0.22577132283E+02  0.34657890460E+02  0.51100000000E-03 0. -1.
        -11    1    3    3    0    0 -0.22341469818E+00 -0.43374571170E+00  0.17711458300E+01  0.18371192890E+01  0.51100000000E-03 0.  1.
         12    1    3    3    0    0  0.69992629645E+01  0.41064332624E+01  0.52170948036E+01  0.96473081414E+01  0.00000000000E+00 0. -1.
</event>
<event>
 7    1  0.4751736E-009  0.4614232E+02  0.7816164E-02  0.1320468E+00
        -11   -1    0    0    0    0  0.00000000000E+00  0.00000000000E+00  0.45593999997E+02  0.45594000000E+02  0.51100000000E-03 0. -1.
         11   -1    0    0    0    0 -0.00000000000E+00 -0.00000000000E+00 -0.45593999997E+02  0.45594000000E+02  0.51100000000E-03 0.  1.
    9900012    2    1    2    0    0 -0.21758216290E+02  0.16972277212E+02 -0.35603866039E+02  0.46142318222E+02  0.10000004202E+02 0.  0.
         12    1    1    2    0    0  0.21758216290E+02 -0.16972277212E+02  0.35603866039E+02  0.45045681778E+02  0.00000000000E+00 0. -1.
         11    1    3    3    0    0 -0.22880191648E+01 -0.12389063185E+01 -0.29307470501E+01  0.39190814099E+01  0.51100000000E-03 0. -1.
        -11    1    3    3    0    0 -0.17514464749E+02  0.15476521829E+02 -0.28935666126E+02  0.37196128533E+02  0.51100000000E-03 0.  1.
         12    1    3    3    0    0 -0.19557323757E+01  0.27346617019E+01 -0.37374528629E+01  0.50271082793E+01  0.00000000000E+00 0. -1.
</event>
<event>
 7    1  0.3766050E-009  0.4614232E+02  0.7816164E-02  0.1320468E+00
        -11   -1    0    0    0    0  0.00000000000E+00  0.00000000000E+00  0.45593999997E+02  0.45594000000E+02  0.51100000000E-03 0. -1.
         11   -1    0    0    0    0 -0.00000000000E+00 -0.00000000000E+00 -0.45593999997E+02  0.45594000000E+02  0.51100000000E-03 0.  1.
    9900012    2    1    2    0    0  0.17854298573E+02  0.34181416768E+02 -0.23280213064E+02  0.46142317076E+02  0.99999937524E+01 0.  0.
         12    1    1    2    0    0 -0.17854298573E+02 -0.34181416768E+02  0.23280213064E+02  0.45045682924E+02  0.00000000000E+00 0. -1.
         11    1    3    3    0    0  0.74934680754E+00  0.52033692919E+01 -0.19086182655E+01  0.55927986349E+01  0.51100000000E-03 0. -1.
        -11    1    3    3    0    0  0.90480052237E+01  0.14766865257E+02 -0.66262356993E+01  0.18542753513E+02  0.51100000000E-03 0.  1.
        -12    1    3    3    0    0  0.80569465413E+01  0.14211182220E+02 -0.14745359099E+02  0.22006764928E+02  0.00000000000E+00 0.  1.
</event>
<event>
 7    1  0.3766050E-009  0.4614231E+02  0.7816164E-02  0.1320468E+00
        -11   -1    0    0    0    0  0.00000000000E+00  0.00000000000E+00  0.45593999997E+02  0.45594000000E+02  0.51100000000E-03 0. -1.
         11   -1    0    0    0    0 -0.00000000000E+00 -0.00000000000E+00 -0.45593999997E+02  0.45594000000E+02  0.51100000000E-03 0.  1.
    9900012    2    1    2    0    0 -0.15674090108E+02  0.17586356448E+02  0.38394748613E+02  0.46142314803E+02  0.99999730263E+01 0.  0.
        -12    1    1    2    0    0  0.15674090108E+02 -0.17586356448E+02 -0.38394748613E+02  0.45045685197E+02  0.00000000000E+00 0.  1.
         11    1    3    3    0    0 -0.58466500324E+00  0.18661715247E+01  0.73374592580E+01  0.75935984849E+01  0.51100000000E-03 0. -1.
        -11    1    3    3    0    0 -0.40652231907E+01  0.10258411110E+01  0.83303837611E+01  0.93259682309E+01  0.51100000000E-03 0.  1.
        -12    1    3    3    0    0 -0.11024201914E+02  0.14694343812E+02  0.22726905594E+02  0.29222748087E+02  0.00000000000E+00 0.  1.
</event>
<event>
 7    1  0.4186873E-009  0.4614232E+02  0.7816164E-02  0.1320468E+00
        -11   -1    0    0    0    0  0.00000000000E+00  0.00000000000E+00  0.45593999997E+02  0.45594000000E+02  0.51100000000E-03 0. -1.
         11   -1    0    0    0    0 -0.00000000000E+00 -0.00000000000E+00 -0.45593999997E+02  0.45594000000E+02  0.51100000000E-03 0.  1.
    9900012    2    1    2    0    0 -0.20955210976E+02  0.87958537679E+00 -0.39865008901E+02  0.46142317941E+02  0.10000001640E+02 0.  0.
         12    1    1    2    0    0  0.20955210976E+02 -0.87958537679E+00  0.39865008901E+02  0.45045682059E+02  0.00000000000E+00 0. -1.
         11    1    3    3    0    0 -0.22437304048E+01  0.27352673274E+01 -0.28704806853E+01  0.45558394514E+01  0.51100000000E-03 0. -1.
        -11    1    3    3    0    0 -0.13285174497E+02 -0.77147511816E-01 -0.25918346809E+02  0.29124946605E+02  0.51100000000E-03 0.  1.
         12    1    3    3    0    0 -0.54263060742E+01 -0.17785344388E+01 -0.11076181407E+02  0.12461531885E+02  0.00000000000E+00 0. -1.
</event>
<event>
 7    1  0.3766050E-009  0.4614232E+02  0.7816164E-02  0.1320468E+00
        -11   -1    0    0    0    0  0.00000000000E+00  0.00000000000E+00  0.45593999997E+02  0.45594000000E+02  0.51100000000E-03 0. -1.
         11   -1    0    0    0    0 -0.00000000000E+00 -0.00000000000E+00 -0.45593999997E+02  0.45594000000E+02  0.51100000000E-03 0.  1.
    9900012    2    1    2    0    0 -0.54679379220E+01 -0.15142802729E+02  0.42070306192E+02  0.46142317824E+02  0.10000000576E+02 0.  0.
        -12    1    1    2    0    0  0.54679379220E+01  0.15142802729E+02 -0.42070306192E+02  0.45045682176E+02  0.00000000000E+00 0.  1.
         11    1    3    3    0    0  0.60298894205E+00 -0.92789185655E-01  0.64757266949E+01  0.65044017392E+01  0.51100000000E-03 0. -1.
        -11    1    3    3    0    0  0.71531025817E+00 -0.33478303453E+01  0.39737735057E+01  0.52450465128E+01  0.51100000000E-03 0.  1.
        -12    1    3    3    0    0 -0.67862371222E+01 -0.11702183198E+02  0.31620805991E+02  0.34392869572E+02  0.00000000000E+00 0.  1.
</event>
<event>
 7    1  0.3766050E-009  0.4614232E+02  0.7816164E-02  0.1320468E+00
        -11   -1    0    0    0    0  0.00000000000E+00  0.00000000000E+00  0.45593999997E+02  0.45594000000E+02  0.51100000000E-03 0. -1.
         11   -1    0    0    0    0 -0.00000000000E+00 -0.00000000000E+00 -0.45593999997E+02  0.45594000000E+02  0.51100000000E-03 0.  1.
    9900012    2    1    2    0    0  0.93107876932E-01 -0.31289478102E+02 -0.32404836528E+02  0.46142317195E+02  0.99999948371E+01 0.  0.
         12    1    1    2    0    0 -0.93107876932E-01  0.31289478102E+02  0.32404836528E+02  0.45045682805E+02  0.00000000000E+00 0. -1.
         11    1    3    3    0    0 -0.31430200617E+01 -0.50603017821E+01 -0.54547736427E+01  0.80771148926E+01  0.51100000000E-03 0. -1.
        -11    1    3    3    0    0  0.11530360421E+01 -0.16933147978E+02 -0.20231351170E+02  0.26407736802E+02  0.51100000000E-03 0.  1.
         12    1    3    3    0    0  0.20830918965E+01 -0.92960283426E+01 -0.67187117148E+01  0.11657465501E+02  0.00000000000E+00 0. -1.
</event>
<event>
 7    1  0.3766050E-009  0.4614232E+02  0.7816164E-02  0.1320468E+00
        -11   -1    0    0    0    0  0.00000000000E+00  0.00000000000E+00  0.45593999997E+02  0.45594000000E+02  0.51100000000E-03 0.  1.
         11   -1    0    0    0    0 -0.00000000000E+00 -0.00000000000E+00 -0.45593999997E+02  0.45594000000E+02  0.51100000000E-03 0. -1.
    9900012    2    1    2    0    0  0.30192637048E+02 -0.30274802399E+02 -0.14175842481E+02  0.46142317607E+02  0.99999985927E+01 0.  0.
         12    1    1    2    0    0 -0.30192637048E+02  0.30274802399E+02  0.14175842481E+02  0.45045682393E+02  0.00000000000E+00 0. -1.
         11    1    3    3    0    0  0.15450559908E+02 -0.15515892372E+02 -0.37634206748E+01  0.22217696843E+02  0.51100000000E-03 0. -1.
        -11    1    3    3    0    0  0.88280202349E+01 -0.96541709263E+01 -0.36233299218E+01  0.13574442071E+02  0.51100000000E-03 0.  1.
         12    1    3    3    0    0  0.59140569051E+01 -0.51047391007E+01 -0.67890918848E+01  0.10350178693E+02  0.00000000000E+00 0. -1.
</event>
<event>
 7    1  0.3766050E-009  0.4614232E+02  0.7816164E-02  0.1320468E+00
        -11   -1    0    0    0    0  0.00000000000E+00  0.00000000000E+00  0.45593999997E+02  0.45594000000E+02  0.51100000000E-03 0. -1.
         11   -1    0    0    0    0 -0.00000000000E+00 -0.00000000000E+00 -0.45593999997E+02  0.45594000000E+02  0.51100000000E-03 0.  1.
    9900012    2    1    2    0    0  0.40082734603E+02  0.49587420167E+01 -0.19947399885E+02  0.46142317656E+02  0.99999990438E+01 0.  0.
         12    1    1    2    0    0 -0.40082734603E+02 -0.49587420167E+01  0.19947399885E+02  0.45045682344E+02  0.00000000000E+00 0. -1.
         11    1    3    3    0    0  0.64957234673E+01  0.45813817132E+01 -0.38622509545E+01  0.88374467163E+01  0.51100000000E-03 0. -1.
        -11    1    3    3    0    0  0.17935248897E+02  0.52352990417E+00 -0.74456990185E+01  0.19426416826E+02  0.51100000000E-03 0.  1.
         12    1    3    3    0    0  0.15651762239E+02 -0.14616960074E+00 -0.86394499122E+01  0.17878454114E+02  0.00000000000E+00 0. -1.
</event>
<event>
 7    1  0.3766050E-009  0.4614232E+02  0.7816164E-02  0.1320468E+00
        -11   -1    0    0    0    0  0.00000000000E+00  0.00000000000E+00  0.45593999997E+02  0.45594000000E+02  0.51100000000E-03 0. -1.
         11   -1    0    0    0    0 -0.00000000000E+00 -0.00000000000E+00 -0.45593999997E+02  0.45594000000E+02  0.51100000000E-03 0.  1.
    9900012    2    1    2    0    0  0.43365020249E+01 -0.10923659352E+02  0.43485421490E+02  0.46142318014E+02  0.10000002303E+02 0.  0.
        -12    1    1    2    0    0 -0.43365020249E+01  0.10923659352E+02 -0.43485421490E+02  0.45045681986E+02  0.00000000000E+00 0.  1.
         11    1    3    3    0    0  0.40666071178E+01 -0.83977811840E+01  0.22457216554E+02  0.24318441518E+02  0.51100000000E-03 0. -1.
        -11    1    3    3    0    0 -0.51422972816E+00 -0.40726371449E+01  0.14738048157E+02  0.15299047986E+02  0.51100000000E-03 0.  1.
         12    1    3    3    0    0  0.78412463531E+00  0.15467589769E+01  0.62901567788E+01  0.65248285095E+01  0.00000000000E+00 0. -1.
</event>
<event>
 7    1  0.3766050E-009  0.4614232E+02  0.7816164E-02  0.1320468E+00
        -11   -1    0    0    0    0  0.00000000000E+00  0.00000000000E+00  0.45593999997E+02  0.45594000000E+02  0.51100000000E-03 0. -1.
         11   -1    0    0    0    0 -0.00000000000E+00 -0.00000000000E+00 -0.45593999997E+02  0.45594000000E+02  0.51100000000E-03 0.  1.
    9900012    2    1    2    0    0 -0.40396539623E+02 -0.10073031482E+02 -0.17197879009E+02  0.46142318529E+02  0.10000007002E+02 0.  0.
         12    1    1    2    0    0  0.40396539623E+02  0.10073031482E+02  0.17197879009E+02  0.45045681471E+02  0.00000000000E+00 0. -1.
         11    1    3    3    0    0 -0.17594563725E+01 -0.10442844778E+01 -0.36291919716E+00  0.20779623197E+01  0.51100000000E-03 0. -1.
        -11    1    3    3    0    0 -0.38398421154E+02 -0.92394887550E+01 -0.15071547326E+02  0.42272431189E+02  0.51100000000E-03 0.  1.
        -12    1    3    3    0    0 -0.23866209688E+00  0.21074175079E+00 -0.17634124861E+01  0.17919250202E+01  0.00000000000E+00 0.  1.
</event>
<event>
 7    1  0.3766050E-009  0.4614232E+02  0.7816164E-02  0.1320468E+00
        -11   -1    0    0    0    0  0.00000000000E+00  0.00000000000E+00  0.45593999997E+02  0.45594000000E+02  0.51100000000E-03 0. -1.
         11   -1    0    0    0    0 -0.00000000000E+00 -0.00000000000E+00 -0.45593999997E+02  0.45594000000E+02  0.51100000000E-03 0.  1.
    9900012    2    1    2    0    0 -0.33578673635E+02  0.25624771298E+02  0.15651108717E+02  0.46142318395E+02  0.10000005785E+02 0.  0.
        -12    1    1    2    0    0  0.33578673635E+02 -0.25624771298E+02 -0.15651108717E+02  0.45045681605E+02  0.00000000000E+00 0.  1.
         11    1    3    3    0    0 -0.13165851375E+02  0.12347458858E+02  0.20377912074E+01  0.18164580258E+02  0.51100000000E-03 0. -1.
        -11    1    3    3    0    0 -0.16483871254E+02  0.97008622854E+01  0.10475365443E+02  0.21807292863E+02  0.51100000000E-03 0.  1.
         12    1    3    3    0    0 -0.39289510066E+01  0.35764501548E+01  0.31379520660E+01  0.61704452749E+01  0.00000000000E+00 0. -1.
</event>
<event>
 7    1  0.3766050E-009  0.4614232E+02  0.7816164E-02  0.1320468E+00
        -11   -1    0    0    0    0  0.00000000000E+00  0.00000000000E+00  0.45593999997E+02  0.45594000000E+02  0.51100000000E-03 0. -1.
         11   -1    0    0    0    0 -0.00000000000E+00 -0.00000000000E+00 -0.45593999997E+02  0.45594000000E+02  0.51100000000E-03 0.  1.
    9900012    2    1    2    0    0  0.98102474984E+01 -0.17748367904E+02 -0.40222729733E+02  0.46142317560E+02  0.99999981694E+01 0.  0.
         12    1    1    2    0    0 -0.98102474984E+01  0.17748367904E+02  0.40222729733E+02  0.45045682440E+02  0.00000000000E+00 0. -1.
         11    1    3    3    0    0 -0.11612755522E+00 -0.48252832352E+01 -0.78334156093E+01  0.92010458252E+01  0.51100000000E-03 0. -1.
        -11    1    3    3    0    0  0.10098896631E+02 -0.97513797539E+01 -0.29398836374E+02  0.32578654064E+02  0.51100000000E-03 0.  1.
        -12    1    3    3    0    0 -0.17252157728E+00 -0.31717049154E+01 -0.29904777504E+01  0.43626176707E+01  0.00000000000E+00 0.  1.
</event>
<event>
 7    1  0.3766050E-009  0.4614231E+02  0.7816164E-02  0.1320468E+00
        -11   -1    0    0    0    0  0.00000000000E+00  0.00000000000E+00  0.45593999997E+02  0.45594000000E+02  0.51100000000E-03 0. -1.
         11   -1    0    0    0    0 -0.00000000000E+00 -0.00000000000E+00 -0.45593999997E+02  0.45594000000E+02  0.51100000000E-03 0.  1.
    9900012    2    1    2    0    0  0.48997441186E+01 -0.32952492581E+02 -0.30318967663E+02  0.46142311417E+02  0.99999421505E+01 0.  0.
         12    1    1    2    0    0 -0.48997441186E+01  0.32952492581E+02  0.30318967663E+02  0.45045688583E+02  0.00000000000E+00 0. -1.
         11    1    3    3    0    0  0.33033071583E+01 -0.37950202774E+01 -0.63713368303E+01  0.81183711639E+01  0.51100000000E-03 0. -1.
        -11    1    3    3    0    0  0.24605110708E+01 -0.27810444217E+02 -0.22920319279E+02  0.36122236342E+02  0.51100000000E-03 0.  1.
         12    1    3    3    0    0 -0.86407411059E+00 -0.13470280872E+01 -0.10273115536E+01  0.19017039108E+01  0.00000000000E+00 0. -1.
</event>
<event>
 7    1  0.3766050E-009  0.4614232E+02  0.7816164E-02  0.1320468E+00
        -11   -1    0    0    0    0  0.00000000000E+00  0.00000000000E+00  0.45593999997E+02  0.45594000000E+02  0.51100000000E-03 0. -1.
         11   -1    0    0    0    0 -0.00000000000E+00 -0.00000000000E+00 -0.45593999997E+02  0.45594000000E+02  0.51100000000E-03 0.  1.
    9900012    2    1    2    0    0  0.71263473704E+01 -0.36224504762E+02  0.25809181970E+02  0.46142318231E+02  0.10000004282E+02 0.  0.
        -12    1    1    2    0    0 -0.71263473704E+01  0.36224504762E+02 -0.25809181970E+02  0.45045681769E+02  0.00000000000E+00 0.  1.
         11    1    3    3    0    0  0.33257066639E+01 -0.20481134548E+02  0.17914815024E+02  0.27413095316E+02  0.51100000000E-03 0. -1.
        -11    1    3    3    0    0  0.13695329732E+01 -0.50788364752E+00  0.12828559114E+01  0.19440385579E+01  0.51100000000E-03 0.  1.
        -12    1    3    3    0    0  0.24311077333E+01 -0.15235486567E+02  0.66115110340E+01  0.16785184357E+02  0.00000000000E+00 0.  1.
</event>
<event>
 7    1  0.3766050E-009  0.4614232E+02  0.7816164E-02  0.1320468E+00
        -11   -1    0    0    0    0  0.00000000000E+00  0.00000000000E+00  0.45593999997E+02  0.45594000000E+02  0.51100000000E-03 0. -1.
         11   -1    0    0    0    0 -0.00000000000E+00 -0.00000000000E+00 -0.45593999997E+02  0.45594000000E+02  0.51100000000E-03 0.  1.
    9900012    2    1    2    0    0 -0.37167498666E+02 -0.85728752896E+01 -0.23962392613E+02  0.46142318658E+02  0.10000008176E+02 0.  0.
         12    1    1    2    0    0  0.37167498666E+02  0.85728752896E+01  0.23962392613E+02  0.45045681342E+02  0.00000000000E+00 0. -1.
         11    1    3    3    0    0 -0.10000880824E+02 -0.39239166138E+01 -0.34665533734E+01  0.11288566401E+02  0.51100000000E-03 0. -1.
        -11    1    3    3    0    0 -0.20873986744E+02 -0.17198739221E+01 -0.17501804476E+02  0.27294586442E+02  0.51100000000E-03 0.  1.
        -12    1    3    3    0    0 -0.62926310985E+01 -0.29290847538E+01 -0.29940347641E+01  0.75591658141E+01  0.00000000000E+00 0.  1.
</event>
<event>
 7    1  0.3766050E-009  0.4614232E+02  0.7816164E-02  0.1320468E+00
        -11   -1    0    0    0    0  0.00000000000E+00  0.00000000000E+00  0.45593999997E+02  0.45594000000E+02  0.51100000000E-03 0. -1.
         11   -1    0    0    0    0 -0.00000000000E+00 -0.00000000000E+00 -0.45593999997E+02  0.45594000000E+02  0.51100000000E-03 0.  1.
    9900012    2    1    2    0    0  0.59992744186E+01 -0.26370894930E+02  0.36023572757E+02  0.46142321105E+02  0.10000030490E+02 0.  0.
        -12    1    1    2    0    0 -0.59992744186E+01  0.26370894930E+02 -0.36023572757E+02  0.45045678895E+02  0.00000000000E+00 0.  1.
         11    1    3    3    0    0  0.33183753422E+01 -0.62657792166E+01  0.48734479390E+01  0.86036096598E+01  0.51100000000E-03 0. -1.
        -11    1    3    3    0    0  0.21689659537E+01 -0.19474754926E+02  0.31056046279E+02  0.36721226879E+02  0.51100000000E-03 0.  1.
        -12    1    3    3    0    0  0.51193312271E+00 -0.63036078702E+00  0.94078538787E-01  0.81748456585E+00  0.00000000000E+00 0.  1.
</event>
<event>
 7    1  0.3766050E-009  0.4614232E+02  0.7816164E-02  0.1320468E+00
        -11   -1    0    0    0    0  0.00000000000E+00  0.00000000000E+00  0.45593999997E+02  0.45594000000E+02  0.51100000000E-03 0. -1.
         11   -1    0    0    0    0 -0.00000000000E+00 -0.00000000000E+00 -0.45593999997E+02  0.45594000000E+02  0.51100000000E-03 0.  1.
    9900012    2    1    2    0    0  0.22809336060E+02  0.16641268469E+02  0.35098659447E+02  0.46142317379E+02  0.99999965199E+01 0.  0.
        -12    1    1    2    0    0 -0.22809336060E+02 -0.16641268469E+02 -0.35098659447E+02  0.45045682621E+02  0.00000000000E+00 0.  1.
         11    1    3    3    0    0  0.46296464156E+01  0.74518006325E+01  0.89250613710E+01  0.12514778437E+02  0.51100000000E-03 0. -1.
        -11    1    3    3    0    0  0.56856605532E+00  0.83672789267E+00  0.22858370567E-01  0.10118812637E+01  0.51100000000E-03 0.  1.
         12    1    3    3    0    0  0.17611123589E+02  0.83527399440E+01  0.26150739706E+02  0.32615657678E+02  0.00000000000E+00 0. -1.
</event>
<event>
 7    1  0.3766050E-009  0.4614232E+02  0.7816164E-02  0.1320468E+00
        -11   -1    0    0    0    0  0.00000000000E+00  0.00000000000E+00  0.45593999997E+02  0.45594000000E+02  0.51100000000E-03 0. -1.
         11   -1    0    0    0    0 -0.00000000000E+00 -0.00000000000E+00 -0.45593999997E+02  0.45594000000E+02  0.51100000000E-03 0.  1.
    9900012    2    1    2    0    0 -0.85094543152E+01  0.33718282227E+02  0.28631804727E+02  0.46142316400E+02  0.99999875882E+01 0.  0.
        -12    1    1    2    0    0  0.85094543152E+01 -0.33718282227E+02 -0.28631804727E+02  0.45045683600E+02  0.00000000000E+00 0.  1.
         11    1    3    3    0    0 -0.55550691148E+01  0.28306530142E+02  0.20634018100E+02  0.35466620148E+02  0.51100000000E-03 0. -1.
        -11    1    3    3    0    0 -0.10987142507E+01  0.23302636353E+01  0.60710800059E+01  0.65950977486E+01  0.51100000000E-03 0.  1.
        -12    1    3    3    0    0 -0.18556709497E+01  0.30814884495E+01  0.19267066214E+01  0.40805985030E+01  0.00000000000E+00 0.  1.
</event>
<event>
 7    1  0.3766050E-009  0.4614231E+02  0.7816164E-02  0.1320468E+00
        -11   -1    0    0    0    0  0.00000000000E+00  0.00000000000E+00  0.45593999997E+02  0.45594000000E+02  0.51100000000E-03 0. -1.
         11   -1    0    0    0    0 -0.00000000000E+00 -0.00000000000E+00 -0.45593999997E+02  0.45594000000E+02  0.51100000000E-03 0.  1.
    9900012    2    1    2    0    0 -0.10620477560E+02 -0.14055145500E+02 -0.41458077592E+02  0.46142313678E+02  0.99999627652E+01 0.  0.
         12    1    1    2    0    0  0.10620477560E+02  0.14055145500E+02  0.41458077592E+02  0.45045686322E+02  0.00000000000E+00 0. -1.
         11    1    3    3    0    0 -0.67101723838E+01 -0.32846124834E+01 -0.12666332175E+02  0.14705477334E+02  0.51100000000E-03 0. -1.
        -11    1    3    3    0    0  0.12146219247E+01 -0.36583199805E+01 -0.89570116381E+01  0.97512393697E+01  0.51100000000E-03 0.  1.
        -12    1    3    3    0    0 -0.51249271006E+01 -0.71122130357E+01 -0.19834733778E+02  0.21685596974E+02  0.00000000000E+00 0.  1.
</event>
<event>
 7    1  0.3766050E-009  0.4614232E+02  0.7816164E-02  0.1320468E+00
        -11   -1    0    0    0    0  0.00000000000E+00  0.00000000000E+00  0.45593999997E+02  0.45594000000E+02  0.51100000000E-03 0. -1.
         11   -1    0    0    0    0 -0.00000000000E+00 -0.00000000000E+00 -0.45593999997E+02  0.45594000000E+02  0.51100000000E-03 0.  1.
    9900012    2    1    2    0    0  0.12796077017E+01  0.34204037894E+02  0.29284123693E+02  0.46142317581E+02  0.99999983565E+01 0.  0.
        -12    1    1    2    0    0 -0.12796077017E+01 -0.34204037894E+02 -0.29284123693E+02  0.45045682419E+02  0.00000000000E+00 0.  1.
         11    1    3    3    0    0  0.13067750428E+01  0.21617170511E+02  0.20129908692E+02  0.29567261390E+02  0.51100000000E-03 0. -1.
        -11    1    3    3    0    0 -0.82398313990E+00  0.22877927669E+01  0.47685567753E+01  0.53527635796E+01  0.51100000000E-03 0.  1.
        -12    1    3    3    0    0  0.79681579878E+00  0.10299074617E+02  0.43856582253E+01  0.11222292611E+02  0.00000000000E+00 0.  1.
</event>
<event>
 7    1  0.3766050E-009  0.4614232E+02  0.7816164E-02  0.1320468E+00
        -11   -1    0    0    0    0  0.00000000000E+00  0.00000000000E+00  0.45593999997E+02  0.45594000000E+02  0.51100000000E-03 0. -1.
         11   -1    0    0    0    0 -0.00000000000E+00 -0.00000000000E+00 -0.45593999997E+02  0.45594000000E+02  0.51100000000E-03 0.  1.
    9900012    2    1    2    0    0 -0.16962342812E+02  0.15614487302E+02 -0.38698580908E+02  0.46142318168E+02  0.10000003712E+02 0.  0.
         12    1    1    2    0    0  0.16962342812E+02 -0.15614487302E+02  0.38698580908E+02  0.45045681832E+02  0.00000000000E+00 0. -1.
         11    1    3    3    0    0 -0.10321001634E+02  0.74515464327E+01 -0.15058274687E+02  0.19718018556E+02  0.51100000000E-03 0. -1.
        -11    1    3    3    0    0 -0.74533686820E+01  0.79405065626E+01 -0.22590529971E+02  0.25078604303E+02  0.51100000000E-03 0.  1.
        -12    1    3    3    0    0  0.81202750399E+00  0.22243430673E+00 -0.10497762504E+01  0.13456953087E+01  0.00000000000E+00 0.  1.
</event>
<event>
 7    1  0.3766050E-009  0.4614232E+02  0.7816164E-02  0.1320468E+00
        -11   -1    0    0    0    0  0.00000000000E+00  0.00000000000E+00  0.45593999997E+02  0.45594000000E+02  0.51100000000E-03 0. -1.
         11   -1    0    0    0    0 -0.00000000000E+00 -0.00000000000E+00 -0.45593999997E+02  0.45594000000E+02  0.51100000000E-03 0.  1.
    9900012    2    1    2    0    0 -0.78305170968E+01  0.32513719174E+02  0.30177052175E+02  0.46142318625E+02  0.10000007880E+02 0.  0.
        -12    1    1    2    0    0  0.78305170968E+01 -0.32513719174E+02 -0.30177052175E+02  0.45045681375E+02  0.00000000000E+00 0.  1.
         11    1    3    3    0    0 -0.63381767887E+01  0.13699553397E+02  0.13828410497E+02  0.20471325932E+02  0.51100000000E-03 0. -1.
        -11    1    3    3    0    0 -0.15529696032E+01  0.18835816519E+02  0.14499929262E+02  0.23821159657E+02  0.51100000000E-03 0.  1.
         12    1    3    3    0    0  0.60629295153E-01 -0.21650741798E-01  0.18487124159E+01  0.18498330365E+01  0.00000000000E+00 0. -1.
</event>
<event>
 7    1  0.3766050E-009  0.4614232E+02  0.7816164E-02  0.1320468E+00
        -11   -1    0    0    0    0  0.00000000000E+00  0.00000000000E+00  0.45593999997E+02  0.45594000000E+02  0.51100000000E-03 0. -1.
         11   -1    0    0    0    0 -0.00000000000E+00 -0.00000000000E+00 -0.45593999997E+02  0.45594000000E+02  0.51100000000E-03 0.  1.
    9900012    2    1    2    0    0 -0.34277415864E+02 -0.57486466126E+01  0.28655284142E+02  0.46142317793E+02  0.10000000291E+02 0.  0.
        -12    1    1    2    0    0  0.34277415864E+02  0.57486466126E+01 -0.28655284142E+02  0.45045682207E+02  0.00000000000E+00 0.  1.
         11    1    3    3    0    0 -0.12683151957E+02  0.24183581272E+01  0.10787685706E+02  0.16825128907E+02  0.51100000000E-03 0. -1.
        -11    1    3    3    0    0 -0.13033656533E+02 -0.63191372708E+01  0.11025615490E+02  0.18203623147E+02  0.51100000000E-03 0.  1.
         12    1    3    3    0    0 -0.85606073741E+01 -0.18478674690E+01  0.68419829465E+01  0.11113565739E+02  0.00000000000E+00 0. -1.
</event>
<event>
 7    1  0.3766050E-009  0.4614232E+02  0.7816164E-02  0.1320468E+00
        -11   -1    0    0    0    0  0.00000000000E+00  0.00000000000E+00  0.45593999997E+02  0.45594000000E+02  0.51100000000E-03 0. -1.
         11   -1    0    0    0    0 -0.00000000000E+00 -0.00000000000E+00 -0.45593999997E+02  0.45594000000E+02  0.51100000000E-03 0.  1.
    9900012    2    1    2    0    0 -0.12941585288E+02  0.11398404356E+02 -0.41613763159E+02  0.46142317234E+02  0.99999951914E+01 0.  0.
         12    1    1    2    0    0  0.12941585288E+02 -0.11398404356E+02  0.41613763159E+02  0.45045682766E+02  0.00000000000E+00 0. -1.
         11    1    3    3    0    0  0.74095653059E+00  0.82276443754E+00 -0.94550022387E+01  0.95196126756E+01  0.51100000000E-03 0. -1.
        -11    1    3    3    0    0 -0.10835200816E+02  0.97008596948E+01 -0.26593116868E+02  0.30310099316E+02  0.51100000000E-03 0.  1.
         12    1    3    3    0    0 -0.28473410025E+01  0.87478022382E+00 -0.55656440521E+01  0.63126052418E+01  0.00000000000E+00 0. -1.
</event>
<event>
 7    1  0.3766050E-009  0.4614232E+02  0.7816164E-02  0.1320468E+00
        -11   -1    0    0    0    0  0.00000000000E+00  0.00000000000E+00  0.45593999997E+02  0.45594000000E+02  0.51100000000E-03 0.  1.
         11   -1    0    0    0    0 -0.00000000000E+00 -0.00000000000E+00 -0.45593999997E+02  0.45594000000E+02  0.51100000000E-03 0. -1.
    9900012    2    1    2    0    0  0.31779214582E+02 -0.17867355418E+02  0.26456617289E+02  0.46142317993E+02  0.10000002118E+02 0.  0.
        -12    1    1    2    0    0 -0.31779214582E+02  0.17867355418E+02 -0.26456617289E+02  0.45045682007E+02  0.00000000000E+00 0.  1.
         11    1    3    3    0    0  0.11565421112E+02 -0.70764100586E+01  0.11922708372E+02  0.18055069094E+02  0.51100000000E-03 0. -1.
        -11    1    3    3    0    0  0.91532602963E+01 -0.42092814118E+01  0.23085889797E+01  0.10335850589E+02  0.51100000000E-03 0.  1.
        -12    1    3    3    0    0  0.11060533174E+02 -0.65816639480E+01  0.12225319937E+02  0.17751398310E+02  0.00000000000E+00 0.  1.
</event>
<event>
 7    1  0.3766050E-009  0.4614232E+02  0.7816164E-02  0.1320468E+00
        -11   -1    0    0    0    0  0.00000000000E+00  0.00000000000E+00  0.45593999997E+02  0.45594000000E+02  0.51100000000E-03 0. -1.
         11   -1    0    0    0    0 -0.00000000000E+00 -0.00000000000E+00 -0.45593999997E+02  0.45594000000E+02  0.51100000000E-03 0.  1.
    9900012    2    1    2    0    0 -0.22825253653E+02  0.85075401209E+01 -0.37891200246E+02  0.46142317640E+02  0.99999988916E+01 0.  0.
         12    1    1    2    0    0  0.22825253653E+02 -0.85075401209E+01  0.37891200246E+02  0.45045682360E+02  0.00000000000E+00 0. -1.
         11    1    3    3    0    0 -0.46412464824E+01 -0.40276767509E+00 -0.97056920133E+01  0.10765864964E+02  0.51100000000E-03 0. -1.
        -11    1    3    3    0    0 -0.11222981197E+02  0.82278270169E+01 -0.22041031650E+02  0.26066444346E+02  0.51100000000E-03 0.  1.
         12    1    3    3    0    0 -0.69610259738E+01  0.68248077900E+00 -0.61444765824E+01  0.93100083294E+01  0.00000000000E+00 0. -1.
</event>
<event>
 7    1  0.3766050E-009  0.4614232E+02  0.7816164E-02  0.1320468E+00
        -11   -1    0    0    0    0  0.00000000000E+00  0.00000000000E+00  0.45593999997E+02  0.45594000000E+02  0.51100000000E-03 0. -1.
         11   -1    0    0    0    0 -0.00000000000E+00 -0.00000000000E+00 -0.45593999997E+02  0.45594000000E+02  0.51100000000E-03 0.  1.
    9900012    2    1    2    0    0 -0.64411997726E+01  0.11522325690E+02  0.43068090884E+02  0.46142317674E+02  0.99999992079E+01 0.  0.
        -12    1    1    2    0    0  0.64411997726E+01 -0.11522325690E+02 -0.43068090884E+02  0.45045682326E+02  0.00000000000E+00 0.  1.
         11    1    3    3    0    0 -0.41161056719E+01  0.11353480725E+02  0.29059543028E+02  0.31469046565E+02  0.51100000000E-03 0. -1.
        -11    1    3    3    0    0 -0.29986290367E+00 -0.15320969477E+01  0.34208535938E+01  0.37602497775E+01  0.51100000000E-03 0.  1.
         12    1    3    3    0    0 -0.20252311970E+01  0.17009419125E+01  0.10587694262E+02  0.10913021331E+02  0.00000000000E+00 0. -1.
</event>
<event>
 7    1  0.3766050E-009  0.4614232E+02  0.7816164E-02  0.1320468E+00
        -11   -1    0    0    0    0  0.00000000000E+00  0.00000000000E+00  0.45593999997E+02  0.45594000000E+02  0.51100000000E-03 0. -1.
         11   -1    0    0    0    0 -0.00000000000E+00 -0.00000000000E+00 -0.45593999997E+02  0.45594000000E+02  0.51100000000E-03 0.  1.
    9900012    2    1    2    0    0 -0.59832505955E+01  0.34592335553E+02  0.28225600945E+02  0.46142317460E+02  0.99999972581E+01 0.  0.
        -12    1    1    2    0    0  0.59832505955E+01 -0.34592335553E+02 -0.28225600945E+02  0.45045682540E+02  0.00000000000E+00 0.  1.
         11    1    3    3    0    0 -0.85634909783E+00  0.45717170068E+01  0.22858353753E+01  0.51825644030E+01  0.51100000000E-03 0. -1.
        -11    1    3    3    0    0 -0.42320697184E+01  0.28978313867E+02  0.21550058354E+02  0.36360116942E+02  0.51100000000E-03 0.  1.
        -12    1    3    3    0    0 -0.89483177926E+00  0.10423046798E+01  0.43897072157E+01  0.45996361159E+01  0.00000000000E+00 0.  1.
</event>
<event>
 7    1  0.3766050E-009  0.4614232E+02  0.7816164E-02  0.1320468E+00
        -11   -1    0    0    0    0  0.00000000000E+00  0.00000000000E+00  0.45593999997E+02  0.45594000000E+02  0.51100000000E-03 0. -1.
         11   -1    0    0    0    0 -0.00000000000E+00 -0.00000000000E+00 -0.45593999997E+02  0.45594000000E+02  0.51100000000E-03 0.  1.
    9900012    2    1    2    0    0  0.21499041656E+02 -0.20743287536E+02  0.33713806876E+02  0.46142317143E+02  0.99999943658E+01 0.  0.
        -12    1    1    2    0    0 -0.21499041656E+02  0.20743287536E+02 -0.33713806876E+02  0.45045682857E+02  0.00000000000E+00 0.  1.
         11    1    3    3    0    0  0.89445335707E+01 -0.75549910617E+01  0.11136719746E+02  0.16158870558E+02  0.51100000000E-03 0. -1.
        -11    1    3    3    0    0  0.49780778010E+01 -0.37126212870E+01  0.13407372257E+02  0.14775738442E+02  0.51100000000E-03 0.  1.
        -12    1    3    3    0    0  0.75764302844E+01 -0.94756751872E+01  0.91697148731E+01  0.15207708143E+02  0.00000000000E+00 0.  1.
</event>
<event>
 7    1  0.3766050E-009  0.4614231E+02  0.7816164E-02  0.1320468E+00
        -11   -1    0    0    0    0  0.00000000000E+00  0.00000000000E+00  0.45593999997E+02  0.45594000000E+02  0.51100000000E-03 0. -1.
         11   -1    0    0    0    0 -0.00000000000E+00 -0.00000000000E+00 -0.45593999997E+02  0.45594000000E+02  0.51100000000E-03 0.  1.
    9900012    2    1    2    0    0  0.36942258154E+02  0.66521216916E+01  0.24902464517E+02  0.46142313197E+02  0.99999583824E+01 0.  0.
        -12    1    1    2    0    0 -0.36942258154E+02 -0.66521216916E+01 -0.24902464517E+02  0.45045686803E+02  0.00000000000E+00 0.  1.
         11    1    3    3    0    0  0.17471985730E+01 -0.50198586739E+00  0.11081502130E+01  0.21290114655E+01  0.51100000000E-03 0. -1.
        -11    1    3    3    0    0  0.14519988007E+02  0.86156581853E+00  0.50246947946E+01  0.15388954007E+02  0.51100000000E-03 0.  1.
        -12    1    3    3    0    0  0.20675071574E+02  0.62925417404E+01  0.18769619510E+02  0.28624347725E+02  0.00000000000E+00 0.  1.
</event>
<event>
 7    1  0.3766050E-009  0.4614232E+02  0.7816164E-02  0.1320468E+00
        -11   -1    0    0    0    0  0.00000000000E+00  0.00000000000E+00  0.45593999997E+02  0.45594000000E+02  0.51100000000E-03 0. -1.
         11   -1    0    0    0    0 -0.00000000000E+00 -0.00000000000E+00 -0.45593999997E+02  0.45594000000E+02  0.51100000000E-03 0.  1.
    9900012    2    1    2    0    0 -0.16151111632E+02  0.30115236377E+02  0.29348383299E+02  0.46142317951E+02  0.10000001731E+02 0.  0.
        -12    1    1    2    0    0  0.16151111632E+02 -0.30115236377E+02 -0.29348383299E+02  0.45045682049E+02  0.00000000000E+00 0.  1.
         11    1    3    3    0    0 -0.54610878963E+01  0.10406137019E+02  0.58098160553E+01  0.13109734228E+02  0.51100000000E-03 0. -1.
        -11    1    3    3    0    0 -0.41332326470E+01  0.13181615781E+02  0.12508807087E+02  0.18636224449E+02  0.51100000000E-03 0.  1.
        -12    1    3    3    0    0 -0.65567910889E+01  0.65274835772E+01  0.11029760157E+02  0.14396359274E+02  0.00000000000E+00 0.  1.
</event>
<event>
 7    1  0.3766050E-009  0.4614232E+02  0.7816164E-02  0.1320468E+00
        -11   -1    0    0    0    0  0.00000000000E+00  0.00000000000E+00  0.45593999997E+02  0.45594000000E+02  0.51100000000E-03 0. -1.
         11   -1    0    0    0    0 -0.00000000000E+00 -0.00000000000E+00 -0.45593999997E+02  0.45594000000E+02  0.51100000000E-03 0.  1.
    9900012    2    1    2    0    0  0.18040288086E+02  0.87780484799E+01 -0.40331221569E+02  0.46142316937E+02  0.99999924881E+01 0.  0.
         12    1    1    2    0    0 -0.18040288086E+02 -0.87780484799E+01  0.40331221569E+02  0.45045683063E+02  0.00000000000E+00 0. -1.
         11    1    3    3    0    0  0.92112857861E+01  0.53854952723E+01 -0.12358357233E+02  0.16327288168E+02  0.51100000000E-03 0. -1.
        -11    1    3    3    0    0  0.43573375554E+01  0.34884383565E+01 -0.18778245801E+02  0.19590255444E+02  0.51100000000E-03 0.  1.
         12    1    3    3    0    0  0.44716647447E+01 -0.95885148934E-01 -0.91946185349E+01  0.10224773325E+02  0.00000000000E+00 0. -1.
</event>
<event>
 7    1  0.3766050E-009  0.4614232E+02  0.7816164E-02  0.1320468E+00
        -11   -1    0    0    0    0  0.00000000000E+00  0.00000000000E+00  0.45593999997E+02  0.45594000000E+02  0.51100000000E-03 0. -1.
         11   -1    0    0    0    0 -0.00000000000E+00 -0.00000000000E+00 -0.45593999997E+02  0.45594000000E+02  0.51100000000E-03 0.  1.
    9900012    2    1    2    0    0  0.14652358446E+02 -0.40738320826E+02 -0.12442307428E+02  0.46142318677E+02  0.10000008351E+02 0.  0.
         12    1    1    2    0    0 -0.14652358446E+02  0.40738320826E+02  0.12442307428E+02  0.45045681323E+02  0.00000000000E+00 0. -1.
         11    1    3    3    0    0  0.47245794249E+01 -0.18530716726E+02 -0.24299947869E+01  0.19277292031E+02  0.51100000000E-03 0. -1.
        -11    1    3    3    0    0  0.24328780094E+01 -0.11962664402E+02 -0.55475308992E+01  0.13408927412E+02  0.51100000000E-03 0.  1.
         12    1    3    3    0    0  0.74949010118E+01 -0.10244939697E+02 -0.44647817419E+01  0.13456099234E+02  0.00000000000E+00 0. -1.
</event>
<event>
 7    1  0.3766050E-009  0.4614232E+02  0.7816164E-02  0.1320468E+00
        -11   -1    0    0    0    0  0.00000000000E+00  0.00000000000E+00  0.45593999997E+02  0.45594000000E+02  0.51100000000E-03 0. -1.
         11   -1    0    0    0    0 -0.00000000000E+00 -0.00000000000E+00 -0.45593999997E+02  0.45594000000E+02  0.51100000000E-03 0.  1.
    9900012    2    1    2    0    0 -0.11797345180E+02  0.23833396030E+02  0.36358018259E+02  0.46142316396E+02  0.99999875476E+01 0.  0.
        -12    1    1    2    0    0  0.11797345180E+02 -0.23833396030E+02 -0.36358018259E+02  0.45045683604E+02  0.00000000000E+00 0.  1.
         11    1    3    3    0    0 -0.33720327602E+01  0.12397149760E+02  0.22174170352E+02  0.25627207381E+02  0.51100000000E-03 0. -1.
        -11    1    3    3    0    0 -0.35653510079E+01  0.24694795702E+01  0.61819952776E+01  0.75516304882E+01  0.51100000000E-03 0.  1.
        -12    1    3    3    0    0 -0.48599614123E+01  0.89667667007E+01  0.80018526301E+01  0.12963478526E+02  0.00000000000E+00 0.  1.
</event>
<event>
 7    1  0.3766050E-009  0.4614232E+02  0.7816164E-02  0.1320468E+00
        -11   -1    0    0    0    0  0.00000000000E+00  0.00000000000E+00  0.45593999997E+02  0.45594000000E+02  0.51100000000E-03 0. -1.
         11   -1    0    0    0    0 -0.00000000000E+00 -0.00000000000E+00 -0.45593999997E+02  0.45594000000E+02  0.51100000000E-03 0.  1.
    9900012    2    1    2    0    0 -0.37499116295E+02 -0.53838788556E+00  0.24952756140E+02  0.46142316262E+02  0.99999863305E+01 0.  0.
        -12    1    1    2    0    0  0.37499116295E+02  0.53838788556E+00 -0.24952756140E+02  0.45045683738E+02  0.00000000000E+00 0.  1.
         11    1    3    3    0    0 -0.77037931768E+00  0.97851106648E+00  0.86568211488E+00  0.15166983832E+01  0.51100000000E-03 0. -1.
        -11    1    3    3    0    0 -0.34291214986E+02 -0.17687919610E+01  0.19663218528E+02  0.39568399177E+02  0.51100000000E-03 0.  1.
        -12    1    3    3    0    0 -0.24375219909E+01  0.25189300894E+00  0.44238554970E+01  0.50572187022E+01  0.00000000000E+00 0.  1.
</event>
<event>
 7    1  0.3766050E-009  0.4614232E+02  0.7816164E-02  0.1320468E+00
        -11   -1    0    0    0    0  0.00000000000E+00  0.00000000000E+00  0.45593999997E+02  0.45594000000E+02  0.51100000000E-03 0. -1.
         11   -1    0    0    0    0 -0.00000000000E+00 -0.00000000000E+00 -0.45593999997E+02  0.45594000000E+02  0.51100000000E-03 0.  1.
    9900012    2    1    2    0    0 -0.29415640198E+02 -0.59699569645E+01  0.33588588061E+02  0.46142317384E+02  0.99999965622E+01 0.  0.
        -12    1    1    2    0    0  0.29415640198E+02  0.59699569645E+01 -0.33588588061E+02  0.45045682616E+02  0.00000000000E+00 0.  1.
         11    1    3    3    0    0 -0.10509389094E+02 -0.27396045828E+01  0.11234102867E+02  0.15625548307E+02  0.51100000000E-03 0. -1.
        -11    1    3    3    0    0 -0.70463860538E+00 -0.18485196180E+01  0.47993199338E+01  0.51910511874E+01  0.51100000000E-03 0.  1.
        -12    1    3    3    0    0 -0.18201612498E+02 -0.13818327637E+01  0.17555165260E+02  0.25325717890E+02  0.00000000000E+00 0.  1.
</event>
<event>
 7    1  0.3766050E-009  0.4614232E+02  0.7816164E-02  0.1320468E+00
        -11   -1    0    0    0    0  0.00000000000E+00  0.00000000000E+00  0.45593999997E+02  0.45594000000E+02  0.51100000000E-03 0. -1.
         11   -1    0    0    0    0 -0.00000000000E+00 -0.00000000000E+00 -0.45593999997E+02  0.45594000000E+02  0.51100000000E-03 0.  1.
    9900012    2    1    2    0    0 -0.19400812730E+02 -0.29328149142E+02  0.28152826495E+02  0.46142317561E+02  0.99999981766E+01 0.  0.
        -12    1    1    2    0    0  0.19400812730E+02  0.29328149142E+02 -0.28152826495E+02  0.45045682439E+02  0.00000000000E+00 0.  1.
         11    1    3    3    0    0 -0.62406123733E+01 -0.86630534066E+01  0.13748705124E+02  0.17407487756E+02  0.51100000000E-03 0.  1.
        -11    1    3    3    0    0 -0.97636882824E+01 -0.12376519864E+02  0.76864370844E+01  0.17538220210E+02  0.51100000000E-03 0. -1.
        -12    1    3    3    0    0 -0.33965120741E+01 -0.82885758713E+01  0.67176842873E+01  0.11196609595E+02  0.00000000000E+00 0.  1.
</event>
<event>
 7    1  0.3788047E-009  0.4614232E+02  0.7816164E-02  0.1320468E+00
        -11   -1    0    0    0    0  0.00000000000E+00  0.00000000000E+00  0.45593999997E+02  0.45594000000E+02  0.51100000000E-03 0. -1.
         11   -1    0    0    0    0 -0.00000000000E+00 -0.00000000000E+00 -0.45593999997E+02  0.45594000000E+02  0.51100000000E-03 0.  1.
    9900012    2    1    2    0    0  0.15521504420E+02  0.80775164899E+01 -0.41508434036E+02  0.46142317985E+02  0.10000002039E+02 0.  0.
         12    1    1    2    0    0 -0.15521504420E+02 -0.80775164899E+01  0.41508434036E+02  0.45045682015E+02  0.00000000000E+00 0. -1.
         11    1    3    3    0    0  0.16277369528E+01  0.19899131523E+01 -0.12881217191E+02  0.13135259363E+02  0.51100000000E-03 0. -1.
        -11    1    3    3    0    0  0.14407127112E+02  0.52579649892E+01 -0.25776202175E+02  0.29993734450E+02  0.51100000000E-03 0.  1.
        -12    1    3    3    0    0 -0.51335964518E+00  0.82963834843E+00 -0.28510146704E+01  0.30133241719E+01  0.00000000000E+00 0.  1.
</event>
<event>
 7    1  0.4966985E-009  0.4614232E+02  0.7816164E-02  0.1320468E+00
        -11   -1    0    0    0    0  0.00000000000E+00  0.00000000000E+00  0.45593999997E+02  0.45594000000E+02  0.51100000000E-03 0. -1.
         11   -1    0    0    0    0 -0.00000000000E+00 -0.00000000000E+00 -0.45593999997E+02  0.45594000000E+02  0.51100000000E-03 0.  1.
    9900012    2    1    2    0    0 -0.15235648754E+02  0.22317316748E+02 -0.36040613592E+02  0.46142318211E+02  0.10000004100E+02 0.  0.
         12    1    1    2    0    0  0.15235648754E+02 -0.22317316748E+02  0.36040613592E+02  0.45045681789E+02  0.00000000000E+00 0. -1.
         11    1    3    3    0    0  0.74589634832E+00  0.25537028739E+01 -0.47448523276E+01  0.54397962832E+01  0.51100000000E-03 0. -1.
        -11    1    3    3    0    0 -0.11892121376E+02  0.10640591459E+02 -0.17778364066E+02  0.23889641407E+02  0.51100000000E-03 0.  1.
        -12    1    3    3    0    0 -0.40894237268E+01  0.91230224146E+01 -0.13517397198E+02  0.16812880521E+02  0.00000000000E+00 0.  1.
</event>
<event>
 7    1  0.3766050E-009  0.4614232E+02  0.7816164E-02  0.1320468E+00
        -11   -1    0    0    0    0  0.00000000000E+00  0.00000000000E+00  0.45593999997E+02  0.45594000000E+02  0.51100000000E-03 0.  1.
         11   -1    0    0    0    0 -0.00000000000E+00 -0.00000000000E+00 -0.45593999997E+02  0.45594000000E+02  0.51100000000E-03 0. -1.
    9900012    2    1    2    0    0  0.37394664585E+02  0.22514408671E+02 -0.11128963895E+02  0.46142319024E+02  0.10000011517E+02 0.  0.
         12    1    1    2    0    0 -0.37394664585E+02 -0.22514408671E+02  0.11128963895E+02  0.45045680976E+02  0.00000000000E+00 0. -1.
         11    1    3    3    0    0  0.29592008950E+01  0.39853908495E+01 -0.70040470418E+00  0.50130606591E+01  0.51100000000E-03 0. -1.
        -11    1    3    3    0    0  0.16129679693E+02  0.12467635567E+02 -0.37932018016E+01  0.20736366215E+02  0.51100000000E-03 0.  1.
         12    1    3    3    0    0  0.18305783997E+02  0.60613822549E+01 -0.66353573887E+01  0.20392892150E+02  0.00000000000E+00 0. -1.
</event>
<event>
 7    1  0.3766050E-009  0.4614232E+02  0.7816164E-02  0.1320468E+00
        -11   -1    0    0    0    0  0.00000000000E+00  0.00000000000E+00  0.45593999997E+02  0.45594000000E+02  0.51100000000E-03 0. -1.
         11   -1    0    0    0    0 -0.00000000000E+00 -0.00000000000E+00 -0.45593999997E+02  0.45594000000E+02  0.51100000000E-03 0.  1.
    9900012    2    1    2    0    0 -0.36229275195E+02 -0.13936166100E+02  0.22854679824E+02  0.46142317669E+02  0.99999991624E+01 0.  0.
        -12    1    1    2    0    0  0.36229275195E+02  0.13936166100E+02 -0.22854679824E+02  0.45045682331E+02  0.00000000000E+00 0.  1.
         11    1    3    3    0    0 -0.23130144477E+02 -0.54511097407E+01  0.96955369008E+01  0.25665572602E+02  0.51100000000E-03 0. -1.
        -11    1    3    3    0    0 -0.85540497722E+01 -0.47089783394E+01  0.77596529333E+01  0.12472307662E+02  0.51100000000E-03 0.  1.
         12    1    3    3    0    0 -0.45450809467E+01 -0.37760780202E+01  0.53994899904E+01  0.80044374057E+01  0.00000000000E+00 0. -1.
</event>
<event>
 7    1  0.3766050E-009  0.4614232E+02  0.7816164E-02  0.1320468E+00
        -11   -1    0    0    0    0  0.00000000000E+00  0.00000000000E+00  0.45593999997E+02  0.45594000000E+02  0.51100000000E-03 0. -1.
         11   -1    0    0    0    0 -0.00000000000E+00 -0.00000000000E+00 -0.45593999997E+02  0.45594000000E+02  0.51100000000E-03 0.  1.
    9900012    2    1    2    0    0  0.29367858081E+02 -0.23262383691E+02  0.25010075251E+02  0.46142318217E+02  0.10000004153E+02 0.  0.
        -12    1    1    2    0    0 -0.29367858081E+02  0.23262383691E+02 -0.25010075251E+02  0.45045681783E+02  0.00000000000E+00 0.  1.
         11    1    3    3    0    0  0.51036404865E+01 -0.65600534547E+01  0.95462310496E+01  0.12657486917E+02  0.51100000000E-03 0. -1.
        -11    1    3    3    0    0  0.68361094926E+01 -0.60330468385E+01  0.32566886186E+01  0.96817389022E+01  0.51100000000E-03 0.  1.
         12    1    3    3    0    0  0.17428108102E+02 -0.10669283398E+02  0.12207155583E+02  0.23803092397E+02  0.00000000000E+00 0. -1.
</event>
<event>
 7    1  0.3766050E-009  0.4614232E+02  0.7816164E-02  0.1320468E+00
        -11   -1    0    0    0    0  0.00000000000E+00  0.00000000000E+00  0.45593999997E+02  0.45594000000E+02  0.51100000000E-03 0. -1.
         11   -1    0    0    0    0 -0.00000000000E+00 -0.00000000000E+00 -0.45593999997E+02  0.45594000000E+02  0.51100000000E-03 0.  1.
    9900012    2    1    2    0    0 -0.60542213250E+00 -0.13671769223E+02  0.42916542750E+02  0.46142318173E+02  0.10000003759E+02 0.  0.
        -12    1    1    2    0    0  0.60542213250E+00  0.13671769223E+02 -0.42916542750E+02  0.45045681827E+02  0.00000000000E+00 0.  1.
         11    1    3    3    0    0 -0.26544325738E+01 -0.38152341436E+01  0.14300645696E+02  0.15036970820E+02  0.51100000000E-03 0. -1.
        -11    1    3    3    0    0  0.29235122695E+01 -0.87407080007E+00  0.54930012486E+01  0.62836284686E+01  0.51100000000E-03 0.  1.
        -12    1    3    3    0    0 -0.87450182828E+00 -0.89824642791E+01  0.23122895805E+02  0.24821718885E+02  0.00000000000E+00 0.  1.
</event>
<event>
 7    1  0.3766050E-009  0.4614232E+02  0.7816164E-02  0.1320468E+00
        -11   -1    0    0    0    0  0.00000000000E+00  0.00000000000E+00  0.45593999997E+02  0.45594000000E+02  0.51100000000E-03 0. -1.
         11   -1    0    0    0    0 -0.00000000000E+00 -0.00000000000E+00 -0.45593999997E+02  0.45594000000E+02  0.51100000000E-03 0.  1.
    9900012    2    1    2    0    0 -0.19397076002E+01  0.26414451298E+02  0.36436627484E+02  0.46142317351E+02  0.99999962564E+01 0.  0.
        -12    1    1    2    0    0  0.19397076002E+01 -0.26414451298E+02 -0.36436627484E+02  0.45045682649E+02  0.00000000000E+00 0.  1.
         11    1    3    3    0    0 -0.37712960553E+01  0.75536377234E+01  0.11140117283E+02  0.13977922955E+02  0.51100000000E-03 0. -1.
        -11    1    3    3    0    0  0.73175315735E+00  0.50150590166E+01  0.29820737284E+01  0.58803948512E+01  0.51100000000E-03 0.  1.
         12    1    3    3    0    0  0.10998352978E+01  0.13845754558E+02  0.22314436473E+02  0.26283999545E+02  0.00000000000E+00 0. -1.
</event>
<event>
 7    1  0.3766050E-009  0.4614232E+02  0.7816164E-02  0.1320468E+00
        -11   -1    0    0    0    0  0.00000000000E+00  0.00000000000E+00  0.45593999997E+02  0.45594000000E+02  0.51100000000E-03 0. -1.
         11   -1    0    0    0    0 -0.00000000000E+00 -0.00000000000E+00 -0.45593999997E+02  0.45594000000E+02  0.51100000000E-03 0.  1.
    9900012    2    1    2    0    0 -0.32913980238E+02 -0.30673210000E+02 -0.22220679346E+01  0.46142317713E+02  0.99999995585E+01 0.  0.
         12    1    1    2    0    0  0.32913980238E+02  0.30673210000E+02  0.22220679346E+01  0.45045682287E+02  0.00000000000E+00 0. -1.
         11    1    3    3    0    0 -0.14086540512E+01 -0.39200776542E+01  0.11730425284E+00  0.41671423782E+01  0.51100000000E-03 0. -1.
        -11    1    3    3    0    0 -0.15853590211E+02 -0.17425638180E+02 -0.29655422225E+01  0.23744128317E+02  0.51100000000E-03 0.  1.
         12    1    3    3    0    0 -0.15651735975E+02 -0.93274941655E+01  0.62617003503E+00  0.18231047018E+02  0.00000000000E+00 0. -1.
</event>
<event>
 7    1  0.3766050E-009  0.4614232E+02  0.7816164E-02  0.1320468E+00
        -11   -1    0    0    0    0  0.00000000000E+00  0.00000000000E+00  0.45593999997E+02  0.45594000000E+02  0.51100000000E-03 0. -1.
         11   -1    0    0    0    0 -0.00000000000E+00 -0.00000000000E+00 -0.45593999997E+02  0.45594000000E+02  0.51100000000E-03 0.  1.
    9900012    2    1    2    0    0  0.26813175188E+02 -0.24361030653E+02  0.26771390314E+02  0.46142317438E+02  0.99999970547E+01 0.  0.
        -12    1    1    2    0    0 -0.26813175188E+02  0.24361030653E+02 -0.26771390314E+02  0.45045682562E+02  0.00000000000E+00 0.  1.
         11    1    3    3    0    0  0.93974035335E+01 -0.60524336897E+01  0.95627315901E+01  0.14710165956E+02  0.51100000000E-03 0. -1.
        -11    1    3    3    0    0  0.17899478506E+02 -0.18435218615E+02  0.17220353856E+02  0.30932009365E+02  0.51100000000E-03 0.  1.
        -12    1    3    3    0    0 -0.48370685144E+00  0.12662165199E+00 -0.11695132053E-01  0.50014211680E+00  0.00000000000E+00 0.  1.
</event>
<event>
 7    1  0.3766050E-009  0.4614232E+02  0.7816164E-02  0.1320468E+00
        -11   -1    0    0    0    0  0.00000000000E+00  0.00000000000E+00  0.45593999997E+02  0.45594000000E+02  0.51100000000E-03 0. -1.
         11   -1    0    0    0    0 -0.00000000000E+00 -0.00000000000E+00 -0.45593999997E+02  0.45594000000E+02  0.51100000000E-03 0.  1.
    9900012    2    1    2    0    0  0.31833206054E+02  0.13439839171E+02 -0.28898635902E+02  0.46142318280E+02  0.10000004734E+02 0.  0.
         12    1    1    2    0    0 -0.31833206054E+02 -0.13439839171E+02  0.28898635902E+02  0.45045681720E+02  0.00000000000E+00 0. -1.
         11    1    3    3    0    0  0.16210478778E+01  0.59724169108E+00 -0.29879754842E+01  0.34514477564E+01  0.51100000000E-03 0. -1.
        -11    1    3    3    0    0  0.20348675441E+02  0.12761128717E+02 -0.19359618454E+02  0.30849794574E+02  0.51100000000E-03 0.  1.
        -12    1    3    3    0    0  0.98634827357E+01  0.81468762303E-01 -0.65510419639E+01  0.11841075950E+02  0.00000000000E+00 0.  1.
</event>
<event>
 7    1  0.3766050E-009  0.4614232E+02  0.7816164E-02  0.1320468E+00
        -11   -1    0    0    0    0  0.00000000000E+00  0.00000000000E+00  0.45593999997E+02  0.45594000000E+02  0.51100000000E-03 0. -1.
         11   -1    0    0    0    0 -0.00000000000E+00 -0.00000000000E+00 -0.45593999997E+02  0.45594000000E+02  0.51100000000E-03 0.  1.
    9900012    2    1    2    0    0 -0.38130775448E+02  0.11590179827E+02 -0.20995839282E+02  0.46142316834E+02  0.99999915487E+01 0.  0.
         12    1    1    2    0    0  0.38130775448E+02 -0.11590179827E+02  0.20995839282E+02  0.45045683166E+02  0.00000000000E+00 0. -1.
         11    1    3    3    0    0 -0.21925236516E+01 -0.44492210718E+00  0.65598240334E+00  0.23314006131E+01  0.51100000000E-03 0. -1.
        -11    1    3    3    0    0 -0.18933351524E+02  0.58183342266E+01 -0.13395745763E+02  0.23911729714E+02  0.51100000000E-03 0.  1.
         12    1    3    3    0    0 -0.17004900273E+02  0.62167677074E+01 -0.82560759223E+01  0.19899186507E+02  0.00000000000E+00 0. -1.
</event>
<event>
 7    1  0.3766050E-009  0.4614232E+02  0.7816164E-02  0.1320468E+00
        -11   -1    0    0    0    0  0.00000000000E+00  0.00000000000E+00  0.45593999997E+02  0.45594000000E+02  0.51100000000E-03 0. -1.
         11   -1    0    0    0    0 -0.00000000000E+00 -0.00000000000E+00 -0.45593999997E+02  0.45594000000E+02  0.51100000000E-03 0.  1.
    9900012    2    1    2    0    0  0.11552392669E+02  0.34026831497E+02 -0.27163035235E+02  0.46142317396E+02  0.99999966708E+01 0.  0.
         12    1    1    2    0    0 -0.11552392669E+02 -0.34026831497E+02  0.27163035235E+02  0.45045682604E+02  0.00000000000E+00 0. -1.
         11    1    3    3    0    0  0.58349630281E+01  0.19134124492E+02 -0.19785897741E+02  0.28136155802E+02  0.51100000000E-03 0. -1.
        -11    1    3    3    0    0  0.40187079002E+01  0.12453711239E+02 -0.74006972050E+01  0.15033803783E+02  0.51100000000E-03 0.  1.
         12    1    3    3    0    0  0.16987217403E+01  0.24389957657E+01  0.23559711210E-01  0.29723578109E+01  0.00000000000E+00 0. -1.
</event>
<event>
 7    1  0.3766050E-009  0.4614232E+02  0.7816164E-02  0.1320468E+00
        -11   -1    0    0    0    0  0.00000000000E+00  0.00000000000E+00  0.45593999997E+02  0.45594000000E+02  0.51100000000E-03 0. -1.
         11   -1    0    0    0    0 -0.00000000000E+00 -0.00000000000E+00 -0.45593999997E+02  0.45594000000E+02  0.51100000000E-03 0.  1.
    9900012    2    1    2    0    0  0.10117997971E+02 -0.38637069574E+02 -0.20830662001E+02  0.46142317548E+02  0.99999980544E+01 0.  0.
         12    1    1    2    0    0 -0.10117997971E+02  0.38637069574E+02  0.20830662001E+02  0.45045682452E+02  0.00000000000E+00 0. -1.
         11    1    3    3    0    0  0.12815113481E+01 -0.59419898001E+01 -0.67765834383E+00  0.61162680788E+01  0.51100000000E-03 0. -1.
        -11    1    3    3    0    0  0.21662139135E+01 -0.11043721089E+02 -0.10527463814E+02  0.15410507871E+02  0.51100000000E-03 0.  1.
        -12    1    3    3    0    0  0.66702727096E+01 -0.21651358684E+02 -0.96255398427E+01  0.24615541598E+02  0.00000000000E+00 0.  1.
</event>
<event>
 7    1  0.3766050E-009  0.4614232E+02  0.7816164E-02  0.1320468E+00
        -11   -1    0    0    0    0  0.00000000000E+00  0.00000000000E+00  0.45593999997E+02  0.45594000000E+02  0.51100000000E-03 0. -1.
         11   -1    0    0    0    0 -0.00000000000E+00 -0.00000000000E+00 -0.45593999997E+02  0.45594000000E+02  0.51100000000E-03 0.  1.
    9900012    2    1    2    0    0  0.35976933411E+02  0.47137411824E+01 -0.26693712800E+02  0.46142318780E+02  0.10000009288E+02 0.  0.
         12    1    1    2    0    0 -0.35976933411E+02 -0.47137411824E+01  0.26693712800E+02  0.45045681220E+02  0.00000000000E+00 0. -1.
         11    1    3    3    0    0  0.29640739065E+01  0.18092307079E+01  0.10618648362E+00  0.34742374282E+01  0.51100000000E-03 0. -1.
        -11    1    3    3    0    0  0.65885648890E+01  0.81670359937E+00 -0.44049684551E+01  0.79674299129E+01  0.51100000000E-03 0.  1.
         12    1    3    3    0    0  0.26424294615E+02  0.20878068752E+01 -0.22394930828E+02  0.34700651439E+02  0.00000000000E+00 0. -1.
</event>
<event>
 7    1  0.3766050E-009  0.4614232E+02  0.7816164E-02  0.1320468E+00
        -11   -1    0    0    0    0  0.00000000000E+00  0.00000000000E+00  0.45593999997E+02  0.45594000000E+02  0.51100000000E-03 0. -1.
         11   -1    0    0    0    0 -0.00000000000E+00 -0.00000000000E+00 -0.45593999997E+02  0.45594000000E+02  0.51100000000E-03 0.  1.
    9900012    2    1    2    0    0  0.33336066203E+01  0.22652128341E+02 -0.38792807048E+02  0.46142315077E+02  0.99999755255E+01 0.  0.
         12    1    1    2    0    0 -0.33336066203E+01 -0.22652128341E+02  0.38792807048E+02  0.45045684923E+02  0.00000000000E+00 0. -1.
         11    1    3    3    0    0  0.26530844793E+01  0.18473396954E+02 -0.27683590501E+02  0.33386920127E+02  0.51100000000E-03 0.  1.
        -11    1    3    3    0    0 -0.59754172359E+00  0.46456748041E+00  0.20050820633E+00  0.78299607739E+00  0.51100000000E-03 0. -1.
         12    1    3    3    0    0  0.12780638646E+01  0.37141639067E+01 -0.11309724753E+02  0.11972398872E+02  0.00000000000E+00 0. -1.
</event>
<event>
 7    1  0.3766050E-009  0.4614232E+02  0.7816164E-02  0.1320468E+00
        -11   -1    0    0    0    0  0.00000000000E+00  0.00000000000E+00  0.45593999997E+02  0.45594000000E+02  0.51100000000E-03 0. -1.
         11   -1    0    0    0    0 -0.00000000000E+00 -0.00000000000E+00 -0.45593999997E+02  0.45594000000E+02  0.51100000000E-03 0.  1.
    9900012    2    1    2    0    0 -0.20357421520E+02 -0.82051663200E+01  0.39336550467E+02  0.46142316878E+02  0.99999919469E+01 0.  0.
        -12    1    1    2    0    0  0.20357421520E+02  0.82051663200E+01 -0.39336550467E+02  0.45045683122E+02  0.00000000000E+00 0.  1.
         11    1    3    3    0    0 -0.60322368170E+01  0.11648564765E+01  0.15360547660E+02  0.16543614971E+02  0.51100000000E-03 0. -1.
        -11    1    3    3    0    0 -0.56377323139E+01 -0.30296380740E+01  0.68420422633E+01  0.93688993535E+01  0.51100000000E-03 0.  1.
         12    1    3    3    0    0 -0.86874523892E+01 -0.63403847225E+01  0.17133960543E+02  0.20229802553E+02  0.00000000000E+00 0. -1.
</event>
<event>
 7    1  0.3766050E-009  0.4614231E+02  0.7816164E-02  0.1320468E+00
        -11   -1    0    0    0    0  0.00000000000E+00  0.00000000000E+00  0.45593999997E+02  0.45594000000E+02  0.51100000000E-03 0. -1.
         11   -1    0    0    0    0 -0.00000000000E+00 -0.00000000000E+00 -0.45593999997E+02  0.45594000000E+02  0.51100000000E-03 0.  1.
    9900012    2    1    2    0    0 -0.24817842136E+02 -0.28107821720E+02 -0.24962760181E+02  0.46142308464E+02  0.99999152191E+01 0.  0.
         12    1    1    2    0    0  0.24817842136E+02  0.28107821720E+02  0.24962760181E+02  0.45045691536E+02  0.00000000000E+00 0. -1.
         11    1    3    3    0    0 -0.61002095388E+01 -0.47218906152E+01 -0.13304376462E+01  0.78280822678E+01  0.51100000000E-03 0. -1.
        -11    1    3    3    0    0 -0.60770040218E+01 -0.55873759326E+01 -0.76912832592E+01  0.11282933401E+02  0.51100000000E-03 0.  1.
         12    1    3    3    0    0 -0.12640628576E+02 -0.17798555172E+02 -0.15941039276E+02  0.27031292795E+02  0.00000000000E+00 0. -1.
</event>
<event>
 7    1  0.3766050E-009  0.4614232E+02  0.7816164E-02  0.1320468E+00
        -11   -1    0    0    0    0  0.00000000000E+00  0.00000000000E+00  0.45593999997E+02  0.45594000000E+02  0.51100000000E-03 0. -1.
         11   -1    0    0    0    0 -0.00000000000E+00 -0.00000000000E+00 -0.45593999997E+02  0.45594000000E+02  0.51100000000E-03 0.  1.
    9900012    2    1    2    0    0  0.41546657636E+02 -0.46449698290E+01 -0.16775366550E+02  0.46142318428E+02  0.10000006078E+02 0.  0.
         12    1    1    2    0    0 -0.41546657636E+02  0.46449698290E+01  0.16775366550E+02  0.45045681572E+02  0.00000000000E+00 0. -1.
         11    1    3    3    0    0  0.30968544624E+01 -0.20027740119E+01 -0.21611322289E+01  0.42745881761E+01  0.51100000000E-03 0. -1.
        -11    1    3    3    0    0  0.30376123259E+02 -0.11204626955E+01 -0.83109636133E+01  0.31512480343E+02  0.51100000000E-03 0.  1.
        -12    1    3    3    0    0  0.80736799142E+01 -0.15217331216E+01 -0.63032707081E+01  0.10355249909E+02  0.00000000000E+00 0.  1.
</event>
<event>
 7    1  0.3766050E-009  0.4614232E+02  0.7816164E-02  0.1320468E+00
        -11   -1    0    0    0    0  0.00000000000E+00  0.00000000000E+00  0.45593999997E+02  0.45594000000E+02  0.51100000000E-03 0. -1.
         11   -1    0    0    0    0 -0.00000000000E+00 -0.00000000000E+00 -0.45593999997E+02  0.45594000000E+02  0.51100000000E-03 0.  1.
    9900012    2    1    2    0    0  0.18730063582E+02 -0.40816835975E+02 -0.35048703783E+01  0.46142317663E+02  0.99999991061E+01 0.  0.
         12    1    1    2    0    0 -0.18730063582E+02  0.40816835975E+02  0.35048703783E+01  0.45045682337E+02  0.00000000000E+00 0. -1.
         11    1    3    3    0    0  0.12695253527E+02 -0.33924522544E+02 -0.50105803525E+01  0.36567042644E+02  0.51100000000E-03 0.  1.
        -11    1    3    3    0    0  0.61988012085E+01 -0.68523830348E+01  0.13365411821E+01  0.93363072074E+01  0.51100000000E-03 0. -1.
         12    1    3    3    0    0 -0.16399115342E+00 -0.39930396246E-01  0.16916879213E+00  0.23896781201E+00  0.00000000000E+00 0. -1.
</event>
<event>
 7    1  0.3766050E-009  0.4614232E+02  0.7816164E-02  0.1320468E+00
        -11   -1    0    0    0    0  0.00000000000E+00  0.00000000000E+00  0.45593999997E+02  0.45594000000E+02  0.51100000000E-03 0. -1.
         11   -1    0    0    0    0 -0.00000000000E+00 -0.00000000000E+00 -0.45593999997E+02  0.45594000000E+02  0.51100000000E-03 0.  1.
    9900012    2    1    2    0    0 -0.36716853302E+02 -0.92085912574E+01 -0.24416957343E+02  0.46142320127E+02  0.10000021573E+02 0.  0.
         12    1    1    2    0    0  0.36716853302E+02  0.92085912574E+01  0.24416957343E+02  0.45045679873E+02  0.00000000000E+00 0. -1.
         11    1    3    3    0    0 -0.53435169930E+01 -0.32550779964E+01 -0.53085479660E+01  0.82054487011E+01  0.51100000000E-03 0. -1.
        -11    1    3    3    0    0 -0.10471516057E+02 -0.26872237026E+01 -0.10581731517E+02  0.15127685280E+02  0.51100000000E-03 0.  1.
        -12    1    3    3    0    0 -0.20901820252E+02 -0.32662895584E+01 -0.85266778599E+01  0.22809186146E+02  0.00000000000E+00 0.  1.
</event>
<event>
 7    1  0.3766050E-009  0.4614232E+02  0.7816164E-02  0.1320468E+00
        -11   -1    0    0    0    0  0.00000000000E+00  0.00000000000E+00  0.45593999997E+02  0.45594000000E+02  0.51100000000E-03 0. -1.
         11   -1    0    0    0    0 -0.00000000000E+00 -0.00000000000E+00 -0.45593999997E+02  0.45594000000E+02  0.51100000000E-03 0.  1.
    9900012    2    1    2    0    0 -0.33367290547E+02 -0.16484223422E+02  0.25377302086E+02  0.46142321390E+02  0.10000033092E+02 0.  0.
        -12    1    1    2    0    0  0.33367290547E+02  0.16484223422E+02 -0.25377302086E+02  0.45045678610E+02  0.00000000000E+00 0.  1.
         11    1    3    3    0    0 -0.26171977980E+02 -0.16164944551E+02  0.18909673721E+02  0.36108913363E+02  0.51100000000E-03 0. -1.
        -11    1    3    3    0    0 -0.41018425284E+01  0.36978939587E+00  0.51671749541E+01  0.66076889752E+01  0.51100000000E-03 0.  1.
         12    1    3    3    0    0 -0.30934700377E+01 -0.68906826696E+00  0.13004534115E+01  0.34257190524E+01  0.00000000000E+00 0. -1.
</event>
<event>
 7    1  0.3766050E-009  0.4614232E+02  0.7816164E-02  0.1320468E+00
        -11   -1    0    0    0    0  0.00000000000E+00  0.00000000000E+00  0.45593999997E+02  0.45594000000E+02  0.51100000000E-03 0. -1.
         11   -1    0    0    0    0 -0.00000000000E+00 -0.00000000000E+00 -0.45593999997E+02  0.45594000000E+02  0.51100000000E-03 0.  1.
    9900012    2    1    2    0    0  0.11863279939E+02  0.11619206154E+02 -0.41873263537E+02  0.46142316946E+02  0.99999925680E+01 0.  0.
         12    1    1    2    0    0 -0.11863279939E+02 -0.11619206154E+02  0.41873263537E+02  0.45045683054E+02  0.00000000000E+00 0. -1.
         11    1    3    3    0    0 -0.87728303125E-01  0.36584199710E+01 -0.98491511048E+01  0.10507021970E+02  0.51100000000E-03 0.  1.
        -11    1    3    3    0    0  0.13620119198E+01 -0.69135508524E+00 -0.13006410217E+01  0.20061693977E+01  0.51100000000E-03 0. -1.
        -12    1    3    3    0    0  0.10588996322E+02  0.86521412687E+01 -0.30723471410E+02  0.33629125578E+02  0.00000000000E+00 0.  1.
</event>
<event>
 7    1  0.3766050E-009  0.4614232E+02  0.7816164E-02  0.1320468E+00
        -11   -1    0    0    0    0  0.00000000000E+00  0.00000000000E+00  0.45593999997E+02  0.45594000000E+02  0.51100000000E-03 0. -1.
         11   -1    0    0    0    0 -0.00000000000E+00 -0.00000000000E+00 -0.45593999997E+02  0.45594000000E+02  0.51100000000E-03 0.  1.
    9900012    2    1    2    0    0 -0.39396285125E+02 -0.47008434293E+01  0.21329518819E+02  0.46142316703E+02  0.99999903530E+01 0.  0.
        -12    1    1    2    0    0  0.39396285125E+02  0.47008434293E+01 -0.21329518819E+02  0.45045683297E+02  0.00000000000E+00 0.  1.
         11    1    3    3    0    0 -0.35752220032E+01 -0.25663258306E+01  0.17738602090E+01  0.47449784976E+01  0.51100000000E-03 0. -1.
        -11    1    3    3    0    0 -0.35776356268E+02 -0.14783075174E+01  0.18995878456E+02  0.40533646018E+02  0.51100000000E-03 0.  1.
        -12    1    3    3    0    0 -0.44706853833E-01 -0.65621008122E+00  0.55978015428E+00  0.86369218741E+00  0.00000000000E+00 0.  1.
</event>
<event>
 7    1  0.3766050E-009  0.4614232E+02  0.7816164E-02  0.1320468E+00
        -11   -1    0    0    0    0  0.00000000000E+00  0.00000000000E+00  0.45593999997E+02  0.45594000000E+02  0.51100000000E-03 0. -1.
         11   -1    0    0    0    0 -0.00000000000E+00 -0.00000000000E+00 -0.45593999997E+02  0.45594000000E+02  0.51100000000E-03 0.  1.
    9900012    2    1    2    0    0  0.73613707166E+01  0.41815600498E+02 -0.15045904985E+02  0.46142317847E+02  0.10000000783E+02 0.  0.
         12    1    1    2    0    0 -0.73613707166E+01 -0.41815600498E+02  0.15045904985E+02  0.45045682153E+02  0.00000000000E+00 0. -1.
         11    1    3    3    0    0  0.27705192703E+01  0.31832826259E+02 -0.13540535529E+02  0.34703756387E+02  0.51100000000E-03 0. -1.
        -11    1    3    3    0    0  0.39270563254E+01  0.96968125122E+01 -0.90851455030E+00  0.10501206751E+02  0.51100000000E-03 0.  1.
        -12    1    3    3    0    0  0.66379512090E+00  0.28596172593E+00 -0.59685490654E+00  0.93735470911E+00  0.00000000000E+00 0.  1.
</event>
<event>
 7    1  0.3766050E-009  0.4614232E+02  0.7816164E-02  0.1320468E+00
        -11   -1    0    0    0    0  0.00000000000E+00  0.00000000000E+00  0.45593999997E+02  0.45594000000E+02  0.51100000000E-03 0.  1.
         11   -1    0    0    0    0 -0.00000000000E+00 -0.00000000000E+00 -0.45593999997E+02  0.45594000000E+02  0.51100000000E-03 0. -1.
    9900012    2    1    2    0    0 -0.10119788667E+02 -0.41581802619E+02 -0.14059055566E+02  0.46142317908E+02  0.10000001340E+02 0.  0.
         12    1    1    2    0    0  0.10119788667E+02  0.41581802619E+02  0.14059055566E+02  0.45045682092E+02  0.00000000000E+00 0. -1.
         11    1    3    3    0    0 -0.19547457854E+01 -0.11659079682E+02 -0.63104142946E+01  0.13400615618E+02  0.51100000000E-03 0. -1.
        -11    1    3    3    0    0 -0.73659839778E+01 -0.24594184173E+02 -0.35646286408E+01  0.25919841680E+02  0.51100000000E-03 0.  1.
        -12    1    3    3    0    0 -0.79905890432E+00 -0.53285387641E+01 -0.41840126303E+01  0.68218606100E+01  0.00000000000E+00 0.  1.
</event>
<event>
 7    1  0.3766050E-009  0.4614232E+02  0.7816164E-02  0.1320468E+00
        -11   -1    0    0    0    0  0.00000000000E+00  0.00000000000E+00  0.45593999997E+02  0.45594000000E+02  0.51100000000E-03 0. -1.
         11   -1    0    0    0    0 -0.00000000000E+00 -0.00000000000E+00 -0.45593999997E+02  0.45594000000E+02  0.51100000000E-03 0.  1.
    9900012    2    1    2    0    0  0.12859601368E+02 -0.17568530214E+02 -0.39434640348E+02  0.46142318069E+02  0.10000002808E+02 0.  0.
         12    1    1    2    0    0 -0.12859601368E+02  0.17568530214E+02  0.39434640348E+02  0.45045681931E+02  0.00000000000E+00 0. -1.
         11    1    3    3    0    0  0.93673498911E+00  0.57613919904E+00 -0.58251646056E+00  0.12444816208E+01  0.51100000000E-03 0. -1.
        -11    1    3    3    0    0  0.68824050243E+01 -0.53387278729E+01 -0.13955916473E+02  0.16451052218E+02  0.51100000000E-03 0.  1.
        -12    1    3    3    0    0  0.50404613548E+01 -0.12805941540E+02 -0.24896207415E+02  0.28446784230E+02  0.00000000000E+00 0.  1.
</event>
<event>
 7    1  0.3766050E-009  0.4614232E+02  0.7816164E-02  0.1320468E+00
        -11   -1    0    0    0    0  0.00000000000E+00  0.00000000000E+00  0.45593999997E+02  0.45594000000E+02  0.51100000000E-03 0. -1.
         11   -1    0    0    0    0 -0.00000000000E+00 -0.00000000000E+00 -0.45593999997E+02  0.45594000000E+02  0.51100000000E-03 0.  1.
    9900012    2    1    2    0    0  0.14281382800E+02 -0.39719386888E+02 -0.15732956603E+02  0.46142317489E+02  0.99999975161E+01 0.  0.
         12    1    1    2    0    0 -0.14281382800E+02  0.39719386888E+02  0.15732956603E+02  0.45045682511E+02  0.00000000000E+00 0. -1.
         11    1    3    3    0    0  0.49978348077E+01 -0.23738591283E+02 -0.12540781334E+02  0.27308794657E+02  0.51100000000E-03 0. -1.
        -11    1    3    3    0    0  0.48515170184E+01 -0.99369425621E+01 -0.16267270322E+01  0.11177042809E+02  0.51100000000E-03 0.  1.
         12    1    3    3    0    0  0.44320309735E+01 -0.60438530427E+01 -0.15654482360E+01  0.76564800223E+01  0.00000000000E+00 0. -1.
</event>
<event>
 7    1  0.3766050E-009  0.4614232E+02  0.7816164E-02  0.1320468E+00
        -11   -1    0    0    0    0  0.00000000000E+00  0.00000000000E+00  0.45593999997E+02  0.45594000000E+02  0.51100000000E-03 0. -1.
         11   -1    0    0    0    0 -0.00000000000E+00 -0.00000000000E+00 -0.45593999997E+02  0.45594000000E+02  0.51100000000E-03 0.  1.
    9900012    2    1    2    0    0 -0.14683905940E+02  0.32367762499E+02  0.27673532792E+02  0.46142316965E+02  0.99999927424E+01 0.  0.
        -12    1    1    2    0    0  0.14683905940E+02 -0.32367762499E+02 -0.27673532792E+02  0.45045683035E+02  0.00000000000E+00 0.  1.
         11    1    3    3    0    0  0.83612549277E+00  0.28524410355E+01  0.16439712781E+01  0.33967878245E+01  0.51100000000E-03 0. -1.
        -11    1    3    3    0    0 -0.35857950501E+01  0.12082538471E+02  0.11868264022E+02  0.17311884739E+02  0.51100000000E-03 0.  1.
         12    1    3    3    0    0 -0.11934236383E+02  0.17432782992E+02  0.14161297492E+02  0.25433644402E+02  0.00000000000E+00 0. -1.
</event>
<event>
 7    1  0.3766050E-009  0.4614232E+02  0.7816164E-02  0.1320468E+00
        -11   -1    0    0    0    0  0.00000000000E+00  0.00000000000E+00  0.45593999997E+02  0.45594000000E+02  0.51100000000E-03 0. -1.
         11   -1    0    0    0    0 -0.00000000000E+00 -0.00000000000E+00 -0.45593999997E+02  0.45594000000E+02  0.51100000000E-03 0.  1.
    9900012    2    1    2    0    0  0.15810607633E+02  0.25740620769E+02 -0.33414948872E+02  0.46142315641E+02  0.99999806633E+01 0.  0.
         12    1    1    2    0    0 -0.15810607633E+02 -0.25740620769E+02  0.33414948872E+02  0.45045684359E+02  0.00000000000E+00 0. -1.
         11    1    3    3    0    0 -0.34689681284E+00  0.17382387076E+01 -0.34450057734E-01  0.17728503239E+01  0.51100000000E-03 0. -1.
        -11    1    3    3    0    0  0.89060835792E+01  0.14443660551E+02 -0.22430352694E+02  0.28125760026E+02  0.51100000000E-03 0.  1.
        -12    1    3    3    0    0  0.72514208670E+01  0.95587215105E+01 -0.10950146120E+02  0.16243705290E+02  0.00000000000E+00 0.  1.
</event>
<event>
 7    1  0.3766050E-009  0.4614232E+02  0.7816164E-02  0.1320468E+00
        -11   -1    0    0    0    0  0.00000000000E+00  0.00000000000E+00  0.45593999997E+02  0.45594000000E+02  0.51100000000E-03 0. -1.
         11   -1    0    0    0    0 -0.00000000000E+00 -0.00000000000E+00 -0.45593999997E+02  0.45594000000E+02  0.51100000000E-03 0.  1.
    9900012    2    1    2    0    0 -0.21578507343E+02  0.12390226721E+02  0.37549483972E+02  0.46142318255E+02  0.10000004501E+02 0.  0.
        -12    1    1    2    0    0  0.21578507343E+02 -0.12390226721E+02 -0.37549483972E+02  0.45045681745E+02  0.00000000000E+00 0.  1.
         11    1    3    3    0    0 -0.31638826749E+01  0.47673659205E+01  0.49235196840E+01  0.75484420737E+01  0.51100000000E-03 0. -1.
        -11    1    3    3    0    0 -0.12075996414E+02  0.49276929111E+01  0.16310333790E+02  0.20883937259E+02  0.51100000000E-03 0.  1.
         12    1    3    3    0    0 -0.63386282545E+01  0.26951678890E+01  0.16315630497E+02  0.17709938922E+02  0.00000000000E+00 0. -1.
</event>
<event>
 7    1  0.3766050E-009  0.4614232E+02  0.7816164E-02  0.1320468E+00
        -11   -1    0    0    0    0  0.00000000000E+00  0.00000000000E+00  0.45593999997E+02  0.45594000000E+02  0.51100000000E-03 0.  1.
         11   -1    0    0    0    0 -0.00000000000E+00 -0.00000000000E+00 -0.45593999997E+02  0.45594000000E+02  0.51100000000E-03 0. -1.
    9900012    2    1    2    0    0  0.32601957121E+02 -0.28074883224E+02  0.13342666764E+02  0.46142318381E+02  0.10000005650E+02 0.  0.
         12    1    1    2    0    0 -0.32601957121E+02  0.28074883224E+02 -0.13342666764E+02  0.45045681619E+02  0.00000000000E+00 0. -1.
         11    1    3    3    0    0  0.54891837947E+01 -0.42082055284E+01  0.12994923252E+00  0.69178768105E+01  0.51100000000E-03 0. -1.
        -11    1    3    3    0    0  0.79376734843E+01 -0.36702405828E+01  0.95557940717E+00  0.87971846942E+01  0.51100000000E-03 0.  1.
        -12    1    3    3    0    0  0.19175099842E+02 -0.20196437113E+02  0.12257138124E+02  0.30427256876E+02  0.00000000000E+00 0.  1.
</event>
<event>
 7    1  0.3766050E-009  0.4614232E+02  0.7816164E-02  0.1320468E+00
        -11   -1    0    0    0    0  0.00000000000E+00  0.00000000000E+00  0.45593999997E+02  0.45594000000E+02  0.51100000000E-03 0. -1.
         11   -1    0    0    0    0 -0.00000000000E+00 -0.00000000000E+00 -0.45593999997E+02  0.45594000000E+02  0.51100000000E-03 0.  1.
    9900012    2    1    2    0    0  0.26189571862E+02 -0.31423209306E+02 -0.18862708945E+02  0.46142317120E+02  0.99999941544E+01 0.  0.
         12    1    1    2    0    0 -0.26189571862E+02  0.31423209306E+02  0.18862708945E+02  0.45045682880E+02  0.00000000000E+00 0. -1.
         11    1    3    3    0    0  0.83793978291E+01 -0.17357593257E+02 -0.81245797411E+01  0.20916719339E+02  0.51100000000E-03 0. -1.
        -11    1    3    3    0    0  0.10101697362E+02 -0.75656698580E+01 -0.46684132106E+01  0.13456512630E+02  0.51100000000E-03 0.  1.
         12    1    3    3    0    0  0.77084766709E+01 -0.64999461904E+01 -0.60697159931E+01  0.11769085151E+02  0.00000000000E+00 0. -1.
</event>
<event>
 7    1  0.3766050E-009  0.4614232E+02  0.7816164E-02  0.1320468E+00
        -11   -1    0    0    0    0  0.00000000000E+00  0.00000000000E+00  0.45593999997E+02  0.45594000000E+02  0.51100000000E-03 0. -1.
         11   -1    0    0    0    0 -0.00000000000E+00 -0.00000000000E+00 -0.45593999997E+02  0.45594000000E+02  0.51100000000E-03 0.  1.
    9900012    2    1    2    0    0 -0.80829180342E+01  0.27593489378E+02  0.34675340886E+02  0.46142317792E+02  0.10000000283E+02 0.  0.
        -12    1    1    2    0    0  0.80829180342E+01 -0.27593489378E+02 -0.34675340886E+02  0.45045682208E+02  0.00000000000E+00 0.  1.
         11    1    3    3    0    0 -0.64188806493E+01  0.11684583252E+02  0.16759854992E+02  0.21415514334E+02  0.51100000000E-03 0. -1.
        -11    1    3    3    0    0 -0.79504234110E+00  0.26442674090E+00 -0.10798602470E+00  0.84479291433E+00  0.51100000000E-03 0.  1.
         12    1    3    3    0    0 -0.86899504373E+00  0.15644479385E+02  0.18023471919E+02  0.23882010544E+02  0.00000000000E+00 0. -1.
</event>
<event>
 7    1  0.3766050E-009  0.4614232E+02  0.7816164E-02  0.1320468E+00
        -11   -1    0    0    0    0  0.00000000000E+00  0.00000000000E+00  0.45593999997E+02  0.45594000000E+02  0.51100000000E-03 0.  1.
         11   -1    0    0    0    0 -0.00000000000E+00 -0.00000000000E+00 -0.45593999997E+02  0.45594000000E+02  0.51100000000E-03 0. -1.
    9900012    2    1    2    0    0  0.35666979196E+02 -0.12396299931E+02  0.24562407238E+02  0.46142317562E+02  0.99999981878E+01 0.  0.
        -12    1    1    2    0    0 -0.35666979196E+02  0.12396299931E+02 -0.24562407238E+02  0.45045682438E+02  0.00000000000E+00 0.  1.
         11    1    3    3    0    0  0.13546314998E+02 -0.26223193827E+01  0.86410124942E+01  0.16280242816E+02  0.51100000000E-03 0. -1.
        -11    1    3    3    0    0  0.99380524944E+01 -0.16152594706E+01  0.95436283115E+01  0.13872807652E+02  0.51100000000E-03 0.  1.
         12    1    3    3    0    0  0.12182611703E+02 -0.81587210778E+01  0.63777664326E+01  0.15989267094E+02  0.00000000000E+00 0. -1.
</event>
<event>
 7    1  0.3766050E-009  0.4614232E+02  0.7816164E-02  0.1320468E+00
        -11   -1    0    0    0    0  0.00000000000E+00  0.00000000000E+00  0.45593999997E+02  0.45594000000E+02  0.51100000000E-03 0. -1.
         11   -1    0    0    0    0 -0.00000000000E+00 -0.00000000000E+00 -0.45593999997E+02  0.45594000000E+02  0.51100000000E-03 0.  1.
    9900012    2    1    2    0    0  0.38647855897E+02  0.44340282270E+01 -0.22711145260E+02  0.46142317734E+02  0.99999997561E+01 0.  0.
         12    1    1    2    0    0 -0.38647855897E+02 -0.44340282270E+01  0.22711145260E+02  0.45045682266E+02  0.00000000000E+00 0. -1.
         11    1    3    3    0    0  0.23227958482E+00 -0.62223781386E+00 -0.17365712918E+01  0.18592508747E+01  0.51100000000E-03 0. -1.
        -11    1    3    3    0    0  0.17400006150E+02  0.15943339544E+01 -0.70800551786E+01  0.18852832582E+02  0.51100000000E-03 0.  1.
         12    1    3    3    0    0  0.21015570163E+02  0.34619320865E+01 -0.13894518790E+02  0.25430234278E+02  0.00000000000E+00 0. -1.
</event>
<event>
 7    1  0.3766050E-009  0.4614232E+02  0.7816164E-02  0.1320468E+00
        -11   -1    0    0    0    0  0.00000000000E+00  0.00000000000E+00  0.45593999997E+02  0.45594000000E+02  0.51100000000E-03 0. -1.
         11   -1    0    0    0    0 -0.00000000000E+00 -0.00000000000E+00 -0.45593999997E+02  0.45594000000E+02  0.51100000000E-03 0.  1.
    9900012    2    1    2    0    0  0.12568318872E+02  0.13047307077E+02 -0.41242192068E+02  0.46142320209E+02  0.10000022322E+02 0.  0.
         12    1    1    2    0    0 -0.12568318872E+02 -0.13047307077E+02  0.41242192068E+02  0.45045679791E+02  0.00000000000E+00 0. -1.
         11    1    3    3    0    0  0.76252551616E+01  0.34958410216E+01 -0.13659211492E+02  0.16029331850E+02  0.51100000000E-03 0. -1.
        -11    1    3    3    0    0  0.25467380462E+01  0.91836458828E+01 -0.23580011617E+02  0.25433092114E+02  0.51100000000E-03 0.  1.
        -12    1    3    3    0    0  0.23963256641E+01  0.36782017264E+00 -0.40029689593E+01  0.46798962443E+01  0.00000000000E+00 0.  1.
</event>
<event>
 7    1  0.3766050E-009  0.4614232E+02  0.7816164E-02  0.1320468E+00
        -11   -1    0    0    0    0  0.00000000000E+00  0.00000000000E+00  0.45593999997E+02  0.45594000000E+02  0.51100000000E-03 0. -1.
         11   -1    0    0    0    0 -0.00000000000E+00 -0.00000000000E+00 -0.45593999997E+02  0.45594000000E+02  0.51100000000E-03 0.  1.
    9900012    2    1    2    0    0  0.27403990439E+02 -0.26749248423E+02  0.23719454898E+02  0.46142317367E+02  0.99999964092E+01 0.  0.
        -12    1    1    2    0    0 -0.27403990439E+02  0.26749248423E+02 -0.23719454898E+02  0.45045682633E+02  0.00000000000E+00 0.  1.
         11    1    3    3    0    0  0.46657134688E+01 -0.87984665919E+01  0.93425727457E+01  0.13655239372E+02  0.51100000000E-03 0. -1.
        -11    1    3    3    0    0  0.15855634096E+01 -0.16308662501E+01  0.31651180219E+00  0.22965008238E+01  0.51100000000E-03 0.  1.
         12    1    3    3    0    0  0.21152713561E+02 -0.16319915581E+02  0.14060370350E+02  0.30190577171E+02  0.00000000000E+00 0. -1.
</event>
<event>
 7    1  0.3766050E-009  0.4614232E+02  0.7816164E-02  0.1320468E+00
        -11   -1    0    0    0    0  0.00000000000E+00  0.00000000000E+00  0.45593999997E+02  0.45594000000E+02  0.51100000000E-03 0. -1.
         11   -1    0    0    0    0 -0.00000000000E+00 -0.00000000000E+00 -0.45593999997E+02  0.45594000000E+02  0.51100000000E-03 0.  1.
    9900012    2    1    2    0    0 -0.62750686707E+00  0.28574240064E+02  0.34817129494E+02  0.46142318006E+02  0.10000002232E+02 0.  0.
        -12    1    1    2    0    0  0.62750686707E+00 -0.28574240064E+02 -0.34817129494E+02  0.45045681994E+02  0.00000000000E+00 0.  1.
         11    1    3    3    0    0 -0.21016433635E+00  0.55347761711E+01  0.78246648335E+01  0.95866206940E+01  0.51100000000E-03 0. -1.
        -11    1    3    3    0    0 -0.35737264551E+00 -0.71801738779E+00  0.39927602044E+00  0.89592732883E+00  0.51100000000E-03 0.  1.
        -12    1    3    3    0    0 -0.59969885214E-01  0.23757481281E+02  0.26593188640E+02  0.35659769983E+02  0.00000000000E+00 0.  1.
</event>
<event>
 7    1  0.3766050E-009  0.4614233E+02  0.7816164E-02  0.1320468E+00
        -11   -1    0    0    0    0  0.00000000000E+00  0.00000000000E+00  0.45593999997E+02  0.45594000000E+02  0.51100000000E-03 0. -1.
         11   -1    0    0    0    0 -0.00000000000E+00 -0.00000000000E+00 -0.45593999997E+02  0.45594000000E+02  0.51100000000E-03 0.  1.
    9900012    2    1    2    0    0  0.36893424530E+01  0.13266209513E+02  0.42889500525E+02  0.46142325204E+02  0.10000067866E+02 0.  0.
        -12    1    1    2    0    0 -0.36893424530E+01 -0.13266209513E+02 -0.42889500525E+02  0.45045674796E+02  0.00000000000E+00 0.  1.
         11    1    3    3    0    0  0.38391136416E+01  0.36724396922E+01  0.60974249860E+01  0.80872862301E+01  0.51100000000E-03 0.  1.
        -11    1    3    3    0    0  0.25247367661E+00  0.78891677713E+01  0.28059140337E+02  0.29148208655E+02  0.51100000000E-03 0. -1.
         12    1    3    3    0    0 -0.40224486527E+00  0.17046020490E+01  0.87329352018E+01  0.89068303181E+01  0.00000000000E+00 0. -1.
</event>
<event>
 7    1  0.3766050E-009  0.4614232E+02  0.7816164E-02  0.1320468E+00
        -11   -1    0    0    0    0  0.00000000000E+00  0.00000000000E+00  0.45593999997E+02  0.45594000000E+02  0.51100000000E-03 0. -1.
         11   -1    0    0    0    0 -0.00000000000E+00 -0.00000000000E+00 -0.45593999997E+02  0.45594000000E+02  0.51100000000E-03 0.  1.
    9900012    2    1    2    0    0 -0.20845348775E+01  0.73601519993E+01  0.44391399165E+02  0.46142318265E+02  0.10000004596E+02 0.  0.
        -12    1    1    2    0    0  0.20845348775E+01 -0.73601519993E+01 -0.44391399165E+02  0.45045681735E+02  0.00000000000E+00 0.  1.
         11    1    3    3    0    0 -0.28577036186E+00  0.39586843733E+01  0.11646138186E+02  0.12303876689E+02  0.51100000000E-03 0. -1.
        -11    1    3    3    0    0 -0.39084116745E+01  0.42680551320E+01  0.17720580506E+02  0.18641645586E+02  0.51100000000E-03 0.  1.
        -12    1    3    3    0    0  0.21096471588E+01 -0.86658750602E+00  0.15024680474E+02  0.15196795991E+02  0.00000000000E+00 0.  1.
</event>
<event>
 7    1  0.3766050E-009  0.4614232E+02  0.7816164E-02  0.1320468E+00
        -11   -1    0    0    0    0  0.00000000000E+00  0.00000000000E+00  0.45593999997E+02  0.45594000000E+02  0.51100000000E-03 0. -1.
         11   -1    0    0    0    0 -0.00000000000E+00 -0.00000000000E+00 -0.45593999997E+02  0.45594000000E+02  0.51100000000E-03 0.  1.
    9900012    2    1    2    0    0  0.24613472863E+02  0.24620408776E+02 -0.28585413853E+02  0.46142318078E+02  0.10000002890E+02 0.  0.
         12    1    1    2    0    0 -0.24613472863E+02 -0.24620408776E+02  0.28585413853E+02  0.45045681922E+02  0.00000000000E+00 0. -1.
         11    1    3    3    0    0  0.47823232168E+00 -0.56527584730E+00 -0.10440247254E-02  0.74043520185E+00  0.51100000000E-03 0. -1.
        -11    1    3    3    0    0  0.18533196177E+02  0.17069853789E+02 -0.22727397764E+02  0.33932195306E+02  0.51100000000E-03 0.  1.
         12    1    3    3    0    0  0.56020443635E+01  0.81158308349E+01 -0.58569720642E+01  0.11469687570E+02  0.00000000000E+00 0. -1.
</event>
<event>
 7    1  0.3766050E-009  0.4614232E+02  0.7816164E-02  0.1320468E+00
        -11   -1    0    0    0    0  0.00000000000E+00  0.00000000000E+00  0.45593999997E+02  0.45594000000E+02  0.51100000000E-03 0. -1.
         11   -1    0    0    0    0 -0.00000000000E+00 -0.00000000000E+00 -0.45593999997E+02  0.45594000000E+02  0.51100000000E-03 0.  1.
    9900012    2    1    2    0    0  0.19661079367E+02 -0.11715374009E+02 -0.38798268744E+02  0.46142315550E+02  0.99999798350E+01 0.  0.
         12    1    1    2    0    0 -0.19661079367E+02  0.11715374009E+02  0.38798268744E+02  0.45045684450E+02  0.00000000000E+00 0. -1.
         11    1    3    3    0    0  0.25248579470E+01 -0.29158114657E+01 -0.12787888304E+02  0.13356906517E+02  0.51100000000E-03 0. -1.
        -11    1    3    3    0    0  0.86564492864E+01 -0.71399604225E+01 -0.13079608427E+02  0.17233377671E+02  0.51100000000E-03 0.  1.
        -12    1    3    3    0    0  0.84797721333E+01 -0.16596021210E+01 -0.12930772013E+02  0.15552031362E+02  0.00000000000E+00 0.  1.
</event>
<event>
 7    1  0.3766050E-009  0.4614232E+02  0.7816164E-02  0.1320468E+00
        -11   -1    0    0    0    0  0.00000000000E+00  0.00000000000E+00  0.45593999997E+02  0.45594000000E+02  0.51100000000E-03 0. -1.
         11   -1    0    0    0    0 -0.00000000000E+00 -0.00000000000E+00 -0.45593999997E+02  0.45594000000E+02  0.51100000000E-03 0.  1.
    9900012    2    1    2    0    0 -0.19058615406E+02  0.18084739771E+02 -0.36589953530E+02  0.46142319484E+02  0.10000015712E+02 0.  0.
         12    1    1    2    0    0  0.19058615406E+02 -0.18084739771E+02  0.36589953530E+02  0.45045680516E+02  0.00000000000E+00 0. -1.
         11    1    3    3    0    0  0.43554267120E+00  0.90382284028E+00 -0.77888090663E+00  0.12701373441E+01  0.51100000000E-03 0. -1.
        -11    1    3    3    0    0 -0.12352035959E+02  0.76424384194E+01 -0.24263047718E+02  0.28278527934E+02  0.51100000000E-03 0.  1.
        -12    1    3    3    0    0 -0.71421221185E+01  0.95384785117E+01 -0.11548024906E+02  0.16593654206E+02  0.00000000000E+00 0.  1.
</event>
<event>
 7    1  0.3766050E-009  0.4614232E+02  0.7816164E-02  0.1320468E+00
        -11   -1    0    0    0    0  0.00000000000E+00  0.00000000000E+00  0.45593999997E+02  0.45594000000E+02  0.51100000000E-03 0. -1.
         11   -1    0    0    0    0 -0.00000000000E+00 -0.00000000000E+00 -0.45593999997E+02  0.45594000000E+02  0.51100000000E-03 0.  1.
    9900012    2    1    2    0    0 -0.18956573101E+02  0.33146917321E+02  0.23896520038E+02  0.46142318059E+02  0.10000002721E+02 0.  0.
        -12    1    1    2    0    0  0.18956573101E+02 -0.33146917321E+02 -0.23896520038E+02  0.45045681941E+02  0.00000000000E+00 0.  1.
         11    1    3    3    0    0 -0.67917342663E+01  0.13931720780E+02  0.13316992335E+02  0.20434353020E+02  0.51100000000E-03 0. -1.
        -11    1    3    3    0    0 -0.47769940241E+01  0.48010001823E+01  0.88262584037E+00  0.68299563170E+01  0.51100000000E-03 0.  1.
         12    1    3    3    0    0 -0.73878448102E+01  0.14414196359E+02  0.96969018619E+01  0.18878008722E+02  0.00000000000E+00 0. -1.
</event>
<event>
 7    1  0.3766050E-009  0.4614232E+02  0.7816164E-02  0.1320468E+00
        -11   -1    0    0    0    0  0.00000000000E+00  0.00000000000E+00  0.45593999997E+02  0.45594000000E+02  0.51100000000E-03 0. -1.
         11   -1    0    0    0    0 -0.00000000000E+00 -0.00000000000E+00 -0.45593999997E+02  0.45594000000E+02  0.51100000000E-03 0.  1.
    9900012    2    1    2    0    0 -0.70893387229E+01 -0.41322571568E+02  0.16471180477E+02  0.46142318400E+02  0.10000005828E+02 0.  0.
        -12    1    1    2    0    0  0.70893387229E+01  0.41322571568E+02 -0.16471180477E+02  0.45045681600E+02  0.00000000000E+00 0.  1.
         11    1    3    3    0    0 -0.70735463353E+01 -0.18011450905E+02  0.78766806707E+01  0.20892331610E+02  0.51100000000E-03 0. -1.
        -11    1    3    3    0    0  0.13385311746E+01 -0.20123579105E+02  0.81728004913E+01  0.21761083839E+02  0.51100000000E-03 0.  1.
        -12    1    3    3    0    0 -0.13543235622E+01 -0.31875415579E+01  0.42169931475E+00  0.34889029517E+01  0.00000000000E+00 0.  1.
</event>
<event>
 7    1  0.3766050E-009  0.4614232E+02  0.7816164E-02  0.1320468E+00
        -11   -1    0    0    0    0  0.00000000000E+00  0.00000000000E+00  0.45593999997E+02  0.45594000000E+02  0.51100000000E-03 0. -1.
         11   -1    0    0    0    0 -0.00000000000E+00 -0.00000000000E+00 -0.45593999997E+02  0.45594000000E+02  0.51100000000E-03 0.  1.
    9900012    2    1    2    0    0  0.19753872313E+02  0.34218738390E+02 -0.21632747141E+02  0.46142320105E+02  0.10000021370E+02 0.  0.
         12    1    1    2    0    0 -0.19753872313E+02 -0.34218738390E+02  0.21632747141E+02  0.45045679895E+02  0.00000000000E+00 0. -1.
         11    1    3    3    0    0  0.12322688046E+02  0.23583711929E+02 -0.99505633998E+01  0.28408692706E+02  0.51100000000E-03 0. -1.
        -11    1    3    3    0    0  0.39295316850E+01  0.68927953931E+01 -0.88198789295E+01  0.11863478081E+02  0.51100000000E-03 0.  1.
        -12    1    3    3    0    0  0.35016525815E+01  0.37422310680E+01 -0.28623048115E+01  0.58701493169E+01  0.00000000000E+00 0.  1.
</event>
<event>
 7    1  0.3766050E-009  0.4614232E+02  0.7816164E-02  0.1320468E+00
        -11   -1    0    0    0    0  0.00000000000E+00  0.00000000000E+00  0.45593999997E+02  0.45594000000E+02  0.51100000000E-03 0. -1.
         11   -1    0    0    0    0 -0.00000000000E+00 -0.00000000000E+00 -0.45593999997E+02  0.45594000000E+02  0.51100000000E-03 0.  1.
    9900012    2    1    2    0    0 -0.18730493487E+02  0.86894990319E+01 -0.40034669859E+02  0.46142316851E+02  0.99999916984E+01 0.  0.
         12    1    1    2    0    0  0.18730493487E+02 -0.86894990319E+01  0.40034669859E+02  0.45045683149E+02  0.00000000000E+00 0. -1.
         11    1    3    3    0    0 -0.61398570876E+01  0.11777677499E+01 -0.21222836000E+02  0.22124505646E+02  0.51100000000E-03 0. -1.
        -11    1    3    3    0    0 -0.47293290555E+01  0.12792218523E+01 -0.60606329696E+01  0.77932171865E+01  0.51100000000E-03 0.  1.
         12    1    3    3    0    0 -0.78613073439E+01  0.62325094297E+01 -0.12751200889E+02  0.16224594018E+02  0.00000000000E+00 0. -1.
</event>
<event>
 7    1  0.3766050E-009  0.4614232E+02  0.7816164E-02  0.1320468E+00
        -11   -1    0    0    0    0  0.00000000000E+00  0.00000000000E+00  0.45593999997E+02  0.45594000000E+02  0.51100000000E-03 0. -1.
         11   -1    0    0    0    0 -0.00000000000E+00 -0.00000000000E+00 -0.45593999997E+02  0.45594000000E+02  0.51100000000E-03 0.  1.
    9900012    2    1    2    0    0 -0.36885083155E+02 -0.17935401592E+01 -0.25795105975E+02  0.46142316101E+02  0.99999848613E+01 0.  0.
         12    1    1    2    0    0  0.36885083155E+02  0.17935401592E+01  0.25795105975E+02  0.45045683899E+02  0.00000000000E+00 0. -1.
         11    1    3    3    0    0 -0.96112404900E+01 -0.41344989775E+01 -0.77912849909E+01  0.13045081357E+02  0.51100000000E-03 0. -1.
        -11    1    3    3    0    0 -0.16806808935E+02  0.17999649651E+01 -0.83719516660E+01  0.18862615816E+02  0.51100000000E-03 0.  1.
        -12    1    3    3    0    0 -0.10467033730E+02  0.54099385318E+00 -0.96318693180E+01  0.14234618928E+02  0.00000000000E+00 0.  1.
</event>
<event>
 7    1  0.3766050E-009  0.4614232E+02  0.7816164E-02  0.1320468E+00
        -11   -1    0    0    0    0  0.00000000000E+00  0.00000000000E+00  0.45593999997E+02  0.45594000000E+02  0.51100000000E-03 0. -1.
         11   -1    0    0    0    0 -0.00000000000E+00 -0.00000000000E+00 -0.45593999997E+02  0.45594000000E+02  0.51100000000E-03 0.  1.
    9900012    2    1    2    0    0 -0.86414472114E+01  0.16125902080E+02 -0.41163019420E+02  0.46142317681E+02  0.99999992695E+01 0.  0.
         12    1    1    2    0    0  0.86414472114E+01 -0.16125902080E+02  0.41163019420E+02  0.45045682319E+02  0.00000000000E+00 0. -1.
         11    1    3    3    0    0 -0.14763150598E+01  0.34533752465E+01 -0.12508890156E+02  0.13060537506E+02  0.51100000000E-03 0. -1.
        -11    1    3    3    0    0 -0.82937095049E+01  0.12593379226E+02 -0.27923997198E+02  0.31735286944E+02  0.51100000000E-03 0.  1.
        -12    1    3    3    0    0  0.11285773534E+01  0.79147607648E-01 -0.73013206693E+00  0.13464932312E+01  0.00000000000E+00 0.  1.
</event>
<event>
 7    1  0.4351206E-009  0.4614232E+02  0.7816164E-02  0.1320468E+00
        -11   -1    0    0    0    0  0.00000000000E+00  0.00000000000E+00  0.45593999997E+02  0.45594000000E+02  0.51100000000E-03 0. -1.
         11   -1    0    0    0    0 -0.00000000000E+00 -0.00000000000E+00 -0.45593999997E+02  0.45594000000E+02  0.51100000000E-03 0.  1.
    9900012    2    1    2    0    0 -0.27560620057E+02 -0.20957663242E+02  0.28814961511E+02  0.46142318371E+02  0.10000005563E+02 0.  0.
        -12    1    1    2    0    0  0.27560620057E+02  0.20957663242E+02 -0.28814961511E+02  0.45045681629E+02  0.00000000000E+00 0.  1.
         11    1    3    3    0    0 -0.21255108391E+02 -0.20064076592E+02  0.22209504278E+02  0.36709792736E+02  0.51100000000E-03 0. -1.
        -11    1    3    3    0    0 -0.46035967014E+01 -0.44932296537E-01  0.34686989255E+01  0.57642860787E+01  0.51100000000E-03 0.  1.
         12    1    3    3    0    0 -0.17019149648E+01 -0.84865435335E+00  0.31367583078E+01  0.36682395561E+01  0.00000000000E+00 0. -1.
</event>
<event>
 7    1  0.3766050E-009  0.4614232E+02  0.7816164E-02  0.1320468E+00
        -11   -1    0    0    0    0  0.00000000000E+00  0.00000000000E+00  0.45593999997E+02  0.45594000000E+02  0.51100000000E-03 0. -1.
         11   -1    0    0    0    0 -0.00000000000E+00 -0.00000000000E+00 -0.45593999997E+02  0.45594000000E+02  0.51100000000E-03 0.  1.
    9900012    2    1    2    0    0 -0.25104877938E+02  0.25881932822E+02  0.26999707266E+02  0.46142317240E+02  0.99999952469E+01 0.  0.
        -12    1    1    2    0    0  0.25104877938E+02 -0.25881932822E+02 -0.26999707266E+02  0.45045682760E+02  0.00000000000E+00 0.  1.
         11    1    3    3    0    0 -0.32749644467E+01  0.29453092964E+01  0.41871225214E+01  0.60771896670E+01  0.51100000000E-03 0. -1.
        -11    1    3    3    0    0 -0.72283251231E+01  0.79570380784E+01  0.13255292698E+02  0.17066514695E+02  0.51100000000E-03 0.  1.
        -12    1    3    3    0    0 -0.14601588368E+02  0.14979585447E+02  0.95572920467E+01  0.22998612878E+02  0.00000000000E+00 0.  1.
</event>
<event>
 7    1  0.3766050E-009  0.4614232E+02  0.7816164E-02  0.1320468E+00
        -11   -1    0    0    0    0  0.00000000000E+00  0.00000000000E+00  0.45593999997E+02  0.45594000000E+02  0.51100000000E-03 0. -1.
         11   -1    0    0    0    0 -0.00000000000E+00 -0.00000000000E+00 -0.45593999997E+02  0.45594000000E+02  0.51100000000E-03 0.  1.
    9900012    2    1    2    0    0  0.62168400300E+00 -0.25062401371E+02  0.37424631497E+02  0.46142317675E+02  0.99999992151E+01 0.  0.
        -12    1    1    2    0    0 -0.62168400300E+00  0.25062401371E+02 -0.37424631497E+02  0.45045682325E+02  0.00000000000E+00 0.  1.
         11    1    3    3    0    0  0.21462113197E+01 -0.14473643406E+02  0.17926417160E+02  0.23139771151E+02  0.51100000000E-03 0.  1.
        -11    1    3    3    0    0 -0.21773096857E+01 -0.84439654558E+01  0.10113719831E+02  0.13353971663E+02  0.51100000000E-03 0. -1.
        -12    1    3    3    0    0  0.65278236903E+00 -0.21447925090E+01  0.93844945056E+01  0.96485748612E+01  0.00000000000E+00 0.  1.
</event>
<event>
 7    1  0.3766050E-009  0.4614232E+02  0.7816164E-02  0.1320468E+00
        -11   -1    0    0    0    0  0.00000000000E+00  0.00000000000E+00  0.45593999997E+02  0.45594000000E+02  0.51100000000E-03 0.  1.
         11   -1    0    0    0    0 -0.00000000000E+00 -0.00000000000E+00 -0.45593999997E+02  0.45594000000E+02  0.51100000000E-03 0. -1.
    9900012    2    1    2    0    0  0.69478073417E+01  0.44505592447E+02 -0.30627208105E+00  0.46142316650E+02  0.99999898666E+01 0.  0.
         12    1    1    2    0    0 -0.69478073417E+01 -0.44505592447E+02  0.30627208105E+00  0.45045683350E+02  0.00000000000E+00 0. -1.
         11    1    3    3    0    0  0.26862004614E+01  0.46821726061E+01 -0.25233312495E+01  0.59586587491E+01  0.51100000000E-03 0. -1.
        -11    1    3    3    0    0  0.38113800594E+01  0.25396004013E+02  0.10438706423E+01  0.25701620648E+02  0.51100000000E-03 0.  1.
         12    1    3    3    0    0  0.45022682088E+00  0.14427415828E+02  0.11731885262E+01  0.14482037252E+02  0.00000000000E+00 0. -1.
</event>
<event>
 7    1  0.3766050E-009  0.4614232E+02  0.7816164E-02  0.1320468E+00
        -11   -1    0    0    0    0  0.00000000000E+00  0.00000000000E+00  0.45593999997E+02  0.45594000000E+02  0.51100000000E-03 0. -1.
         11   -1    0    0    0    0 -0.00000000000E+00 -0.00000000000E+00 -0.45593999997E+02  0.45594000000E+02  0.51100000000E-03 0.  1.
    9900012    2    1    2    0    0  0.36506632788E+01  0.14309595778E+02 -0.42556098990E+02  0.46142318354E+02  0.10000005409E+02 0.  0.
         12    1    1    2    0    0 -0.36506632788E+01 -0.14309595778E+02  0.42556098990E+02  0.45045681646E+02  0.00000000000E+00 0. -1.
         11    1    3    3    0    0  0.23499031727E+01  0.83240013503E+01 -0.21890385115E+02  0.23537204680E+02  0.51100000000E-03 0. -1.
        -11    1    3    3    0    0  0.28974741618E+01  0.33929585763E+01 -0.52421594494E+01  0.68838768418E+01  0.51100000000E-03 0.  1.
         12    1    3    3    0    0 -0.15967140557E+01  0.25926358513E+01 -0.15423554426E+02  0.15721236833E+02  0.00000000000E+00 0. -1.
</event>
<event>
 7    1  0.4543631E-009  0.4614232E+02  0.7816164E-02  0.1320468E+00
        -11   -1    0    0    0    0  0.00000000000E+00  0.00000000000E+00  0.45593999997E+02  0.45594000000E+02  0.51100000000E-03 0. -1.
         11   -1    0    0    0    0 -0.00000000000E+00 -0.00000000000E+00 -0.45593999997E+02  0.45594000000E+02  0.51100000000E-03 0.  1.
    9900012    2    1    2    0    0  0.20264834376E+02 -0.15817343184E+02 -0.36990018319E+02  0.46142319709E+02  0.10000017758E+02 0.  0.
         12    1    1    2    0    0 -0.20264834376E+02  0.15817343184E+02  0.36990018319E+02  0.45045680291E+02  0.00000000000E+00 0. -1.
         11    1    3    3    0    0  0.46472635309E+01 -0.59516844305E+00 -0.12289673399E+02  0.13152465788E+02  0.51100000000E-03 0. -1.
        -11    1    3    3    0    0  0.12552145162E+02 -0.11294122941E+02 -0.19155984152E+02  0.25535569119E+02  0.51100000000E-03 0.  1.
         12    1    3    3    0    0  0.30654256827E+01 -0.39280518004E+01 -0.55443607688E+01  0.74542848012E+01  0.00000000000E+00 0. -1.
</event>
<event>
 7    1  0.3766050E-009  0.4614232E+02  0.7816164E-02  0.1320468E+00
        -11   -1    0    0    0    0  0.00000000000E+00  0.00000000000E+00  0.45593999997E+02  0.45594000000E+02  0.51100000000E-03 0. -1.
         11   -1    0    0    0    0 -0.00000000000E+00 -0.00000000000E+00 -0.45593999997E+02  0.45594000000E+02  0.51100000000E-03 0.  1.
    9900012    2    1    2    0    0 -0.25565836688E+02  0.14152612159E+02  0.34281264079E+02  0.46142317595E+02  0.99999984855E+01 0.  0.
        -12    1    1    2    0    0  0.25565836688E+02 -0.14152612159E+02 -0.34281264079E+02  0.45045682405E+02  0.00000000000E+00 0.  1.
         11    1    3    3    0    0 -0.56350164258E+01  0.35674157402E+01  0.88478543880E+01  0.11079909418E+02  0.51100000000E-03 0. -1.
        -11    1    3    3    0    0 -0.13340731803E+01 -0.14256205501E+01  0.26852480238E+01  0.33200455440E+01  0.51100000000E-03 0.  1.
        -12    1    3    3    0    0 -0.18596747081E+02  0.12010816969E+02  0.22748161668E+02  0.31742362633E+02  0.00000000000E+00 0.  1.
</event>
<event>
 7    1  0.3766050E-009  0.4614232E+02  0.7816164E-02  0.1320468E+00
        -11   -1    0    0    0    0  0.00000000000E+00  0.00000000000E+00  0.45593999997E+02  0.45594000000E+02  0.51100000000E-03 0. -1.
         11   -1    0    0    0    0 -0.00000000000E+00 -0.00000000000E+00 -0.45593999997E+02  0.45594000000E+02  0.51100000000E-03 0.  1.
    9900012    2    1    2    0    0 -0.19017794623E+02  0.22223535182E+02  0.34257129791E+02  0.46142323516E+02  0.10000052481E+02 0.  0.
        -12    1    1    2    0    0  0.19017794623E+02 -0.22223535182E+02 -0.34257129791E+02  0.45045676484E+02  0.00000000000E+00 0.  1.
         11    1    3    3    0    0 -0.87688137173E+01  0.82516230855E+01  0.18367930971E+02  0.21962747232E+02  0.51100000000E-03 0. -1.
        -11    1    3    3    0    0 -0.73844479748E+01  0.98597860923E+01  0.75432441239E+01  0.14444583270E+02  0.51100000000E-03 0.  1.
         12    1    3    3    0    0 -0.28645329309E+01  0.41121260045E+01  0.83459546964E+01  0.97349930141E+01  0.00000000000E+00 0. -1.
</event>
<event>
 7    1  0.3766050E-009  0.4614232E+02  0.7816164E-02  0.1320468E+00
        -11   -1    0    0    0    0  0.00000000000E+00  0.00000000000E+00  0.45593999997E+02  0.45594000000E+02  0.51100000000E-03 0. -1.
         11   -1    0    0    0    0 -0.00000000000E+00 -0.00000000000E+00 -0.45593999997E+02  0.45594000000E+02  0.51100000000E-03 0.  1.
    9900012    2    1    2    0    0 -0.11498081487E+02  0.22753449529E+02  0.37137422612E+02  0.46142317614E+02  0.99999986579E+01 0.  0.
        -12    1    1    2    0    0  0.11498081487E+02 -0.22753449529E+02 -0.37137422612E+02  0.45045682386E+02  0.00000000000E+00 0.  1.
         11    1    3    3    0    0 -0.81532689990E+01  0.11783563267E+02  0.14449933042E+02  0.20350152919E+02  0.51100000000E-03 0. -1.
        -11    1    3    3    0    0  0.58081939043E+00  0.35920759167E+01  0.45828812452E+01  0.58517656587E+01  0.51100000000E-03 0.  1.
        -12    1    3    3    0    0 -0.39256318787E+01  0.73778103453E+01  0.18104608324E+02  0.19940399036E+02  0.00000000000E+00 0.  1.
</event>
<event>
 7    1  0.3766050E-009  0.4614232E+02  0.7816164E-02  0.1320468E+00
        -11   -1    0    0    0    0  0.00000000000E+00  0.00000000000E+00  0.45593999997E+02  0.45594000000E+02  0.51100000000E-03 0. -1.
         11   -1    0    0    0    0 -0.00000000000E+00 -0.00000000000E+00 -0.45593999997E+02  0.45594000000E+02  0.51100000000E-03 0.  1.
    9900012    2    1    2    0    0  0.16315373143E+02 -0.18349795077E+01  0.41947046070E+02  0.46142320689E+02  0.10000026696E+02 0.  0.
        -12    1    1    2    0    0 -0.16315373143E+02  0.18349795077E+01 -0.41947046070E+02  0.45045679311E+02  0.00000000000E+00 0.  1.
         11    1    3    3    0    0  0.81641394587E+00 -0.29099386759E+01  0.11276756339E+02  0.11674738054E+02  0.51100000000E-03 0. -1.
        -11    1    3    3    0    0  0.79978002371E+01  0.17393853490E+01  0.16645134547E+02  0.18548605726E+02  0.51100000000E-03 0.  1.
         12    1    3    3    0    0  0.75011589600E+01 -0.66442618074E+00  0.14025155184E+02  0.15918976909E+02  0.00000000000E+00 0. -1.
</event>
<event>
 7    1  0.3766050E-009  0.4614232E+02  0.7816164E-02  0.1320468E+00
        -11   -1    0    0    0    0  0.00000000000E+00  0.00000000000E+00  0.45593999997E+02  0.45594000000E+02  0.51100000000E-03 0. -1.
         11   -1    0    0    0    0 -0.00000000000E+00 -0.00000000000E+00 -0.45593999997E+02  0.45594000000E+02  0.51100000000E-03 0.  1.
    9900012    2    1    2    0    0 -0.42949055083E+01  0.58880047382E+01  0.44452206192E+02  0.46142318204E+02  0.10000004043E+02 0.  0.
        -12    1    1    2    0    0  0.42949055083E+01 -0.58880047382E+01 -0.44452206192E+02  0.45045681796E+02  0.00000000000E+00 0.  1.
         11    1    3    3    0    0  0.75786584093E+00 -0.22506400014E+00  0.59682374104E+00  0.99056210103E+00  0.51100000000E-03 0.  1.
        -11    1    3    3    0    0 -0.14033034731E+01  0.81154144151E-01  0.24704065294E+02  0.24744023297E+02  0.51100000000E-03 0. -1.
         12    1    3    3    0    0 -0.36494678761E+01  0.60319145942E+01  0.19151317157E+02  0.20407732806E+02  0.00000000000E+00 0. -1.
</event>
<event>
 7    1  0.3766050E-009  0.4614232E+02  0.7816164E-02  0.1320468E+00
        -11   -1    0    0    0    0  0.00000000000E+00  0.00000000000E+00  0.45593999997E+02  0.45594000000E+02  0.51100000000E-03 0. -1.
         11   -1    0    0    0    0 -0.00000000000E+00 -0.00000000000E+00 -0.45593999997E+02  0.45594000000E+02  0.51100000000E-03 0.  1.
    9900012    2    1    2    0    0 -0.57582932347E+00 -0.98155918415E+01  0.43959482542E+02  0.46142317322E+02  0.99999959925E+01 0.  0.
        -12    1    1    2    0    0  0.57582932347E+00  0.98155918415E+01 -0.43959482542E+02  0.45045682678E+02  0.00000000000E+00 0.  1.
         11    1    3    3    0    0  0.10003159584E+01  0.11222728835E+01  0.42520406816E+01  0.45099865478E+01  0.51100000000E-03 0. -1.
        -11    1    3    3    0    0 -0.20738593546E+01 -0.34406871060E+01  0.69808454572E+01  0.80542798525E+01  0.51100000000E-03 0.  1.
         12    1    3    3    0    0  0.49771407276E+00 -0.74971776190E+01  0.32726596403E+02  0.33578050921E+02  0.00000000000E+00 0. -1.
</event>
<event>
 7    1  0.3766050E-009  0.4614232E+02  0.7816164E-02  0.1320468E+00
        -11   -1    0    0    0    0  0.00000000000E+00  0.00000000000E+00  0.45593999997E+02  0.45594000000E+02  0.51100000000E-03 0. -1.
         11   -1    0    0    0    0 -0.00000000000E+00 -0.00000000000E+00 -0.45593999997E+02  0.45594000000E+02  0.51100000000E-03 0.  1.
    9900012    2    1    2    0    0 -0.22713564908E+02 -0.45165987945E+01  0.38636871196E+02  0.46142317507E+02  0.99999976791E+01 0.  0.
        -12    1    1    2    0    0  0.22713564908E+02  0.45165987945E+01 -0.38636871196E+02  0.45045682493E+02  0.00000000000E+00 0.  1.
         11    1    3    3    0    0 -0.92456415528E+01  0.99263639580E+00  0.14314060584E+02  0.17069257318E+02  0.51100000000E-03 0. -1.
        -11    1    3    3    0    0 -0.49869136683E+01 -0.50565456527E+01  0.81836018345E+01  0.10835557259E+02  0.51100000000E-03 0.  1.
        -12    1    3    3    0    0 -0.84810096869E+01 -0.45268953764E+00  0.16139208777E+02  0.18237502929E+02  0.00000000000E+00 0.  1.
</event>
<event>
 7    1  0.3766050E-009  0.4614232E+02  0.7816164E-02  0.1320468E+00
        -11   -1    0    0    0    0  0.00000000000E+00  0.00000000000E+00  0.45593999997E+02  0.45594000000E+02  0.51100000000E-03 0. -1.
         11   -1    0    0    0    0 -0.00000000000E+00 -0.00000000000E+00 -0.45593999997E+02  0.45594000000E+02  0.51100000000E-03 0.  1.
    9900012    2    1    2    0    0  0.42464921304E+02  0.85966261463E+01 -0.12326473444E+02  0.46142317965E+02  0.10000001859E+02 0.  0.
         12    1    1    2    0    0 -0.42464921304E+02 -0.85966261463E+01  0.12326473444E+02  0.45045682035E+02  0.00000000000E+00 0. -1.
         11    1    3    3    0    0  0.17073536874E+02  0.24156100257E+01 -0.29515528757E+01  0.17494356170E+02  0.51100000000E-03 0. -1.
        -11    1    3    3    0    0  0.16265071019E+02  0.42476645512E+01 -0.23589114146E+01  0.16975265910E+02  0.51100000000E-03 0.  1.
         12    1    3    3    0    0  0.91263134112E+01  0.19333515694E+01 -0.70160091542E+01  0.11672695885E+02  0.00000000000E+00 0. -1.
</event>
<event>
 7    1  0.3766050E-009  0.4614232E+02  0.7816164E-02  0.1320468E+00
        -11   -1    0    0    0    0  0.00000000000E+00  0.00000000000E+00  0.45593999997E+02  0.45594000000E+02  0.51100000000E-03 0. -1.
         11   -1    0    0    0    0 -0.00000000000E+00 -0.00000000000E+00 -0.45593999997E+02  0.45594000000E+02  0.51100000000E-03 0.  1.
    9900012    2    1    2    0    0 -0.20703566621E+02  0.64605396540E+01  0.39480846958E+02  0.46142317410E+02  0.99999968019E+01 0.  0.
        -12    1    1    2    0    0  0.20703566621E+02 -0.64605396540E+01 -0.39480846958E+02  0.45045682590E+02  0.00000000000E+00 0.  1.
         11    1    3    3    0    0 -0.15278572965E+02  0.18810757445E+01  0.31708474983E+02  0.35247703809E+02  0.51100000000E-03 0. -1.
        -11    1    3    3    0    0 -0.33755769692E+01  0.29371404672E+01  0.67023756639E+01  0.80587315255E+01  0.51100000000E-03 0.  1.
        -12    1    3    3    0    0 -0.20494166860E+01  0.16423234423E+01  0.10699963116E+01  0.28358820759E+01  0.00000000000E+00 0.  1.
</event>
<event>
 7    1  0.3766050E-009  0.4614231E+02  0.7816164E-02  0.1320468E+00
        -11   -1    0    0    0    0  0.00000000000E+00  0.00000000000E+00  0.45593999997E+02  0.45594000000E+02  0.51100000000E-03 0. -1.
         11   -1    0    0    0    0 -0.00000000000E+00 -0.00000000000E+00 -0.45593999997E+02  0.45594000000E+02  0.51100000000E-03 0.  1.
    9900012    2    1    2    0    0 -0.26792033666E+02 -0.29538392266E+02 -0.20947182317E+02  0.46142310610E+02  0.99999347906E+01 0.  0.
         12    1    1    2    0    0  0.26792033666E+02  0.29538392266E+02  0.20947182317E+02  0.45045689390E+02  0.00000000000E+00 0. -1.
         11    1    3    3    0    0 -0.48134920301E+01 -0.11370851102E+02 -0.43495220045E+01  0.13091382747E+02  0.51100000000E-03 0. -1.
        -11    1    3    3    0    0 -0.99249114405E+01 -0.83206545878E+01 -0.64293761353E+01  0.14459392713E+02  0.51100000000E-03 0.  1.
         12    1    3    3    0    0 -0.12053630195E+02 -0.98468865758E+01 -0.10168284178E+02  0.18591535150E+02  0.00000000000E+00 0. -1.
</event>
<event>
 7    1  0.3766050E-009  0.4614232E+02  0.7816164E-02  0.1320468E+00
        -11   -1    0    0    0    0  0.00000000000E+00  0.00000000000E+00  0.45593999997E+02  0.45594000000E+02  0.51100000000E-03 0. -1.
         11   -1    0    0    0    0 -0.00000000000E+00 -0.00000000000E+00 -0.45593999997E+02  0.45594000000E+02  0.51100000000E-03 0.  1.
    9900012    2    1    2    0    0  0.39958773739E+01 -0.23883234970E+02  0.37983385780E+02  0.46142317144E+02  0.99999943728E+01 0.  0.
        -12    1    1    2    0    0 -0.39958773739E+01  0.23883234970E+02 -0.37983385780E+02  0.45045682856E+02  0.00000000000E+00 0.  1.
         11    1    3    3    0    0 -0.12723390474E+01 -0.13773811404E+02  0.18901919210E+02  0.23422623195E+02  0.51100000000E-03 0. -1.
        -11    1    3    3    0    0  0.34241678862E+01 -0.72460521735E+01  0.16819137924E+02  0.18630984906E+02  0.51100000000E-03 0.  1.
         12    1    3    3    0    0  0.18440485351E+01 -0.28633713923E+01  0.22623286459E+01  0.40887090422E+01  0.00000000000E+00 0. -1.
</event>
<event>
 7    1  0.3766050E-009  0.4614232E+02  0.7816164E-02  0.1320468E+00
        -11   -1    0    0    0    0  0.00000000000E+00  0.00000000000E+00  0.45593999997E+02  0.45594000000E+02  0.51100000000E-03 0. -1.
         11   -1    0    0    0    0 -0.00000000000E+00 -0.00000000000E+00 -0.45593999997E+02  0.45594000000E+02  0.51100000000E-03 0.  1.
    9900012    2    1    2    0    0 -0.98131730589E+00  0.86496081987E+01  0.44196545393E+02  0.46142319516E+02  0.10000016001E+02 0.  0.
        -12    1    1    2    0    0  0.98131730589E+00 -0.86496081987E+01 -0.44196545393E+02  0.45045680484E+02  0.00000000000E+00 0.  1.
         11    1    3    3    0    0 -0.55753162622E+00  0.57332617483E+01  0.15843530866E+02  0.16858190958E+02  0.51100000000E-03 0. -1.
        -11    1    3    3    0    0  0.30634663288E+01  0.20745723300E+01  0.12893354657E+02  0.13413697137E+02  0.51100000000E-03 0.  1.
        -12    1    3    3    0    0 -0.34872520085E+01  0.84177412040E+00  0.15459659869E+02  0.15870431421E+02  0.00000000000E+00 0.  1.
</event>
<event>
 7    1  0.3766050E-009  0.4614232E+02  0.7816164E-02  0.1320468E+00
        -11   -1    0    0    0    0  0.00000000000E+00  0.00000000000E+00  0.45593999997E+02  0.45594000000E+02  0.51100000000E-03 0. -1.
         11   -1    0    0    0    0 -0.00000000000E+00 -0.00000000000E+00 -0.45593999997E+02  0.45594000000E+02  0.51100000000E-03 0.  1.
    9900012    2    1    2    0    0  0.30294810007E+01  0.19796998813E+02  0.40348661537E+02  0.46142318687E+02  0.10000008444E+02 0.  0.
        -12    1    1    2    0    0 -0.30294810007E+01 -0.19796998813E+02 -0.40348661537E+02  0.45045681313E+02  0.00000000000E+00 0.  1.
         11    1    3    3    0    0 -0.14907186610E+01  0.61276111114E+01  0.11648746258E+02  0.13246250402E+02  0.51100000000E-03 0. -1.
        -11    1    3    3    0    0  0.51000602695E+00  0.72499895104E+01  0.77688564566E+01  0.10638495427E+02  0.51100000000E-03 0.  1.
        -12    1    3    3    0    0  0.40101936348E+01  0.64193981911E+01  0.20931058822E+02  0.22257572858E+02  0.00000000000E+00 0.  1.
</event>
<event>
 7    1  0.3766050E-009  0.4614232E+02  0.7816164E-02  0.1320468E+00
        -11   -1    0    0    0    0  0.00000000000E+00  0.00000000000E+00  0.45593999997E+02  0.45594000000E+02  0.51100000000E-03 0. -1.
         11   -1    0    0    0    0 -0.00000000000E+00 -0.00000000000E+00 -0.45593999997E+02  0.45594000000E+02  0.51100000000E-03 0.  1.
    9900012    2    1    2    0    0  0.68575818894E+00 -0.40856783351E+02 -0.18956963243E+02  0.46142318015E+02  0.10000002314E+02 0.  0.
         12    1    1    2    0    0 -0.68575818894E+00  0.40856783351E+02  0.18956963243E+02  0.45045681985E+02  0.00000000000E+00 0. -1.
         11    1    3    3    0    0  0.37645430785E-01 -0.70300308761E+01 -0.89877385388E+00  0.70873511271E+01  0.51100000000E-03 0. -1.
        -11    1    3    3    0    0 -0.17183281448E+01 -0.18069067773E+01 -0.90229555252E+00  0.26517355147E+01  0.51100000000E-03 0.  1.
        -12    1    3    3    0    0  0.23664409029E+01 -0.32019845698E+02 -0.17155893837E+02  0.36403231373E+02  0.00000000000E+00 0.  1.
</event>
<event>
 7    1  0.5213163E-009  0.4614232E+02  0.7816164E-02  0.1320468E+00
        -11   -1    0    0    0    0  0.00000000000E+00  0.00000000000E+00  0.45593999997E+02  0.45594000000E+02  0.51100000000E-03 0. -1.
         11   -1    0    0    0    0 -0.00000000000E+00 -0.00000000000E+00 -0.45593999997E+02  0.45594000000E+02  0.51100000000E-03 0.  1.
    9900012    2    1    2    0    0  0.87789508560E+01  0.17128763411E+01 -0.44148721001E+02  0.46142317748E+02  0.99999998804E+01 0.  0.
         12    1    1    2    0    0 -0.87789508560E+01 -0.17128763411E+01  0.44148721001E+02  0.45045682252E+02  0.00000000000E+00 0. -1.
         11    1    3    3    0    0  0.18272041067E+00  0.19129460660E+01 -0.50359435009E+01  0.53901276984E+01  0.51100000000E-03 0. -1.
        -11    1    3    3    0    0  0.60839835950E+01 -0.21368336800E+01 -0.34833937419E+02  0.35425754910E+02  0.51100000000E-03 0.  1.
        -12    1    3    3    0    0  0.25122468503E+01  0.19367639551E+01 -0.42788400814E+01  0.53264351397E+01  0.00000000000E+00 0.  1.
</event>
<event>
 7    1  0.3766050E-009  0.4614232E+02  0.7816164E-02  0.1320468E+00
        -11   -1    0    0    0    0  0.00000000000E+00  0.00000000000E+00  0.45593999997E+02  0.45594000000E+02  0.51100000000E-03 0. -1.
         11   -1    0    0    0    0 -0.00000000000E+00 -0.00000000000E+00 -0.45593999997E+02  0.45594000000E+02  0.51100000000E-03 0.  1.
    9900012    2    1    2    0    0  0.13295534245E+02  0.76802933168E+01  0.42348025247E+02  0.46142318979E+02  0.10000011107E+02 0.  0.
        -12    1    1    2    0    0 -0.13295534245E+02 -0.76802933168E+01 -0.42348025247E+02  0.45045681021E+02  0.00000000000E+00 0.  1.
         11    1    3    3    0    0  0.70332422089E+01  0.56794177435E+01  0.22366808460E+02  0.24124601609E+02  0.51100000000E-03 0. -1.
        -11    1    3    3    0    0  0.18103209430E+01 -0.23787879387E+01  0.70429445938E+01  0.76510759235E+01  0.51100000000E-03 0.  1.
        -12    1    3    3    0    0  0.44519710926E+01  0.43796635120E+01  0.12938272194E+02  0.14366641446E+02  0.00000000000E+00 0.  1.
</event>
<event>
 7    1  0.3766050E-009  0.4614232E+02  0.7816164E-02  0.1320468E+00
        -11   -1    0    0    0    0  0.00000000000E+00  0.00000000000E+00  0.45593999997E+02  0.45594000000E+02  0.51100000000E-03 0.  1.
         11   -1    0    0    0    0 -0.00000000000E+00 -0.00000000000E+00 -0.45593999997E+02  0.45594000000E+02  0.51100000000E-03 0. -1.
    9900012    2    1    2    0    0 -0.18721452211E+02 -0.40653417933E+02 -0.50912245730E+01  0.46142315077E+02  0.99999755250E+01 0.  0.
         12    1    1    2    0    0  0.18721452211E+02  0.40653417933E+02  0.50912245730E+01  0.45045684923E+02  0.00000000000E+00 0. -1.
         11    1    3    3    0    0 -0.26073536002E+01 -0.14878699320E+02 -0.21546156022E+01  0.15258320841E+02  0.51100000000E-03 0. -1.
        -11    1    3    3    0    0 -0.14424692259E+02 -0.25048709238E+02 -0.27777989247E+01  0.29038349615E+02  0.51100000000E-03 0.  1.
         12    1    3    3    0    0 -0.16894063521E+01 -0.72600937575E+00 -0.15881004622E+00  0.18456446210E+01  0.00000000000E+00 0. -1.
</event>
<event>
 7    1  0.3766050E-009  0.4614232E+02  0.7816164E-02  0.1320468E+00
        -11   -1    0    0    0    0  0.00000000000E+00  0.00000000000E+00  0.45593999997E+02  0.45594000000E+02  0.51100000000E-03 0. -1.
         11   -1    0    0    0    0 -0.00000000000E+00 -0.00000000000E+00 -0.45593999997E+02  0.45594000000E+02  0.51100000000E-03 0.  1.
    9900012    2    1    2    0    0  0.13762045612E+02 -0.37529580261E+02 -0.20766560581E+02  0.46142319492E+02  0.10000015787E+02 0.  0.
         12    1    1    2    0    0 -0.13762045612E+02  0.37529580261E+02  0.20766560581E+02  0.45045680508E+02  0.00000000000E+00 0. -1.
         11    1    3    3    0    0  0.10930115727E+01 -0.76088917060E+01 -0.12258599778E+01  0.77841274552E+01  0.51100000000E-03 0. -1.
        -11    1    3    3    0    0  0.10351333736E+02 -0.28397223356E+02 -0.17642928642E+02  0.34997504708E+02  0.51100000000E-03 0.  1.
        -12    1    3    3    0    0  0.23177003030E+01 -0.15234651993E+01 -0.18977719616E+01  0.33606873294E+01  0.00000000000E+00 0.  1.
</event>
<event>
 7    1  0.3766050E-009  0.4614232E+02  0.7816164E-02  0.1320468E+00
        -11   -1    0    0    0    0  0.00000000000E+00  0.00000000000E+00  0.45593999997E+02  0.45594000000E+02  0.51100000000E-03 0. -1.
         11   -1    0    0    0    0 -0.00000000000E+00 -0.00000000000E+00 -0.45593999997E+02  0.45594000000E+02  0.51100000000E-03 0.  1.
    9900012    2    1    2    0    0  0.47039466079E+01 -0.10847666411E+01  0.44786265645E+02  0.46142318489E+02  0.10000006636E+02 0.  0.
        -12    1    1    2    0    0 -0.47039466079E+01  0.10847666411E+01 -0.44786265645E+02  0.45045681511E+02  0.00000000000E+00 0.  1.
         11    1    3    3    0    0  0.57049308540E+01  0.62936148482E+00  0.26340812119E+02  0.26958870809E+02  0.51100000000E-03 0. -1.
        -11    1    3    3    0    0  0.67413118709E+00 -0.46027346487E+00  0.22979040199E+00  0.84800260014E+00  0.51100000000E-03 0.  1.
        -12    1    3    3    0    0 -0.16751154332E+01 -0.12538546610E+01  0.18215663124E+02  0.18335445080E+02  0.00000000000E+00 0.  1.
</event>
<event>
 7    1  0.3766050E-009  0.4614231E+02  0.7816164E-02  0.1320468E+00
        -11   -1    0    0    0    0  0.00000000000E+00  0.00000000000E+00  0.45593999997E+02  0.45594000000E+02  0.51100000000E-03 0. -1.
         11   -1    0    0    0    0 -0.00000000000E+00 -0.00000000000E+00 -0.45593999997E+02  0.45594000000E+02  0.51100000000E-03 0.  1.
    9900012    2    1    2    0    0  0.31051357394E+02 -0.29948173891E+02 -0.12962788788E+02  0.46142314207E+02  0.99999675907E+01 0.  0.
         12    1    1    2    0    0 -0.31051357394E+02  0.29948173891E+02  0.12962788788E+02  0.45045685793E+02  0.00000000000E+00 0. -1.
         11    1    3    3    0    0  0.11099689896E+02 -0.85122194608E+01 -0.22894131521E+01  0.14174004684E+02  0.51100000000E-03 0. -1.
        -11    1    3    3    0    0  0.19442541601E+01 -0.24970143059E+01 -0.38019311695E+01  0.49467045153E+01  0.51100000000E-03 0.  1.
        -12    1    3    3    0    0  0.18007413338E+02 -0.18938940124E+02 -0.68714444668E+01  0.27021605008E+02  0.00000000000E+00 0.  1.
</event>
<event>
 7    1  0.3766050E-009  0.4614232E+02  0.7816164E-02  0.1320468E+00
        -11   -1    0    0    0    0  0.00000000000E+00  0.00000000000E+00  0.45593999997E+02  0.45594000000E+02  0.51100000000E-03 0. -1.
         11   -1    0    0    0    0 -0.00000000000E+00 -0.00000000000E+00 -0.45593999997E+02  0.45594000000E+02  0.51100000000E-03 0.  1.
    9900012    2    1    2    0    0  0.35825028316E+01  0.22747653650E+02 -0.38714639309E+02  0.46142319076E+02  0.10000011987E+02 0.  0.
         12    1    1    2    0    0 -0.35825028316E+01 -0.22747653650E+02  0.38714639309E+02  0.45045680924E+02  0.00000000000E+00 0. -1.
         11    1    3    3    0    0  0.85685247841E+00  0.89375653493E+00  0.20169562581E+00  0.12544633514E+01  0.51100000000E-03 0. -1.
        -11    1    3    3    0    0 -0.75115763291E+00  0.19707223994E+01 -0.26961172338E+01  0.34230151861E+01  0.51100000000E-03 0.  1.
         12    1    3    3    0    0  0.34768079861E+01  0.19883174716E+02 -0.36220217701E+02  0.41464840538E+02  0.00000000000E+00 0. -1.
</event>
<event>
 7    1  0.3766050E-009  0.4614232E+02  0.7816164E-02  0.1320468E+00
        -11   -1    0    0    0    0  0.00000000000E+00  0.00000000000E+00  0.45593999997E+02  0.45594000000E+02  0.51100000000E-03 0. -1.
         11   -1    0    0    0    0 -0.00000000000E+00 -0.00000000000E+00 -0.45593999997E+02  0.45594000000E+02  0.51100000000E-03 0.  1.
    9900012    2    1    2    0    0 -0.12404820933E+02  0.23411125846E+02 -0.36430112259E+02  0.46142317910E+02  0.10000001357E+02 0.  0.
         12    1    1    2    0    0  0.12404820933E+02 -0.23411125846E+02  0.36430112259E+02  0.45045682090E+02  0.00000000000E+00 0. -1.
         11    1    3    3    0    0 -0.65066178542E+01  0.35222641639E+01 -0.91742500568E+01  0.11785978326E+02  0.51100000000E-03 0. -1.
        -11    1    3    3    0    0 -0.14058499414E+01  0.80522909734E+01 -0.12195390867E+02  0.14681395119E+02  0.51100000000E-03 0.  1.
         12    1    3    3    0    0 -0.44923531375E+01  0.11836570709E+02 -0.15060471335E+02  0.19674944465E+02  0.00000000000E+00 0. -1.
</event>
<event>
 7    1  0.3766050E-009  0.4614232E+02  0.7816164E-02  0.1320468E+00
        -11   -1    0    0    0    0  0.00000000000E+00  0.00000000000E+00  0.45593999997E+02  0.45594000000E+02  0.51100000000E-03 0. -1.
         11   -1    0    0    0    0 -0.00000000000E+00 -0.00000000000E+00 -0.45593999997E+02  0.45594000000E+02  0.51100000000E-03 0.  1.
    9900012    2    1    2    0    0 -0.43699522629E+02 -0.52845414014E+01 -0.95675939888E+01  0.46142317515E+02  0.99999977527E+01 0.  0.
         12    1    1    2    0    0  0.43699522629E+02  0.52845414014E+01  0.95675939888E+01  0.45045682485E+02  0.00000000000E+00 0. -1.
         11    1    3    3    0    0 -0.29210189035E+01  0.78196921919E+00  0.38429186562E+00  0.30481974663E+01  0.51100000000E-03 0. -1.
        -11    1    3    3    0    0 -0.34282368546E+02 -0.39149161097E+01 -0.10899312220E+02  0.36185665233E+02  0.51100000000E-03 0.  1.
        -12    1    3    3    0    0 -0.64961351798E+01 -0.21515945109E+01  0.94742636529E+00  0.69084548150E+01  0.00000000000E+00 0.  1.
</event>
<event>
 7    1  0.3766050E-009  0.4614232E+02  0.7816164E-02  0.1320468E+00
        -11   -1    0    0    0    0  0.00000000000E+00  0.00000000000E+00  0.45593999997E+02  0.45594000000E+02  0.51100000000E-03 0.  1.
         11   -1    0    0    0    0 -0.00000000000E+00 -0.00000000000E+00 -0.45593999997E+02  0.45594000000E+02  0.51100000000E-03 0. -1.
    9900012    2    1    2    0    0 -0.42335965745E+02  0.13583889066E+02  0.72289237850E+01  0.46142318999E+02  0.10000011289E+02 0.  0.
         12    1    1    2    0    0  0.42335965745E+02 -0.13583889066E+02 -0.72289237850E+01  0.45045681001E+02  0.00000000000E+00 0. -1.
         11    1    3    3    0    0 -0.26857158876E+02  0.67938135849E+01  0.21406567330E+01  0.27785703112E+02  0.51100000000E-03 0. -1.
        -11    1    3    3    0    0 -0.14113706724E+02  0.75409756610E+01  0.51112545690E+01  0.16798450968E+02  0.51100000000E-03 0.  1.
         12    1    3    3    0    0 -0.13651001455E+01 -0.75090018015E+00 -0.22987517031E-01  0.15581649186E+01  0.00000000000E+00 0. -1.
</event>
<event>
 7    1  0.3766050E-009  0.4614232E+02  0.7816164E-02  0.1320468E+00
        -11   -1    0    0    0    0  0.00000000000E+00  0.00000000000E+00  0.45593999997E+02  0.45594000000E+02  0.51100000000E-03 0. -1.
         11   -1    0    0    0    0 -0.00000000000E+00 -0.00000000000E+00 -0.45593999997E+02  0.45594000000E+02  0.51100000000E-03 0.  1.
    9900012    2    1    2    0    0  0.94699987220E+01 -0.29564880557E+02  0.32639704911E+02  0.46142319021E+02  0.10000011492E+02 0.  0.
        -12    1    1    2    0    0 -0.94699987220E+01  0.29564880557E+02 -0.32639704911E+02  0.45045680979E+02  0.00000000000E+00 0.  1.
         11    1    3    3    0    0  0.26780579838E+01 -0.21228455945E+01  0.26482142890E+01  0.43233675722E+01  0.51100000000E-03 0. -1.
        -11    1    3    3    0    0  0.65833084888E+01 -0.15884411078E+02  0.21198282472E+02  0.27295084649E+02  0.51100000000E-03 0.  1.
        -12    1    3    3    0    0  0.20863224941E+00 -0.11557623884E+02  0.87932081500E+01  0.14523866800E+02  0.00000000000E+00 0.  1.
</event>
<event>
 7    1  0.3766050E-009  0.4614232E+02  0.7816164E-02  0.1320468E+00
        -11   -1    0    0    0    0  0.00000000000E+00  0.00000000000E+00  0.45593999997E+02  0.45594000000E+02  0.51100000000E-03 0. -1.
         11   -1    0    0    0    0 -0.00000000000E+00 -0.00000000000E+00 -0.45593999997E+02  0.45594000000E+02  0.51100000000E-03 0.  1.
    9900012    2    1    2    0    0 -0.12814901456E+02  0.93167414716E+01 -0.42167405952E+02  0.46142317679E+02  0.99999992558E+01 0.  0.
         12    1    1    2    0    0  0.12814901456E+02 -0.93167414716E+01  0.42167405952E+02  0.45045682321E+02  0.00000000000E+00 0. -1.
         11    1    3    3    0    0  0.38787905858E+00 -0.67630883788E+00 -0.69295365472E+01  0.69732575479E+01  0.51100000000E-03 0. -1.
        -11    1    3    3    0    0 -0.86415384607E+01  0.49058500769E+01 -0.16971166746E+02  0.19666317727E+02  0.51100000000E-03 0.  1.
        -12    1    3    3    0    0 -0.45612420540E+01  0.50872002325E+01 -0.18266702659E+02  0.19502742405E+02  0.00000000000E+00 0.  1.
</event>
<event>
 7    1  0.3766050E-009  0.4614232E+02  0.7816164E-02  0.1320468E+00
        -11   -1    0    0    0    0  0.00000000000E+00  0.00000000000E+00  0.45593999997E+02  0.45594000000E+02  0.51100000000E-03 0. -1.
         11   -1    0    0    0    0 -0.00000000000E+00 -0.00000000000E+00 -0.45593999997E+02  0.45594000000E+02  0.51100000000E-03 0.  1.
    9900012    2    1    2    0    0 -0.41028763667E+02  0.18459852034E+02  0.22332448487E+01  0.46142323540E+02  0.10000052700E+02 0.  0.
        -12    1    1    2    0    0  0.41028763667E+02 -0.18459852034E+02 -0.22332448487E+01  0.45045676460E+02  0.00000000000E+00 0.  1.
         11    1    3    3    0    0 -0.29633952359E+01  0.27084201990E+01  0.20227833255E+01  0.44954314523E+01  0.51100000000E-03 0. -1.
        -11    1    3    3    0    0 -0.27885046927E+02  0.13192095589E+02 -0.20245350887E+01  0.30914494509E+02  0.51100000000E-03 0.  1.
        -12    1    3    3    0    0 -0.10180321504E+02  0.25593362461E+01  0.22349966119E+01  0.10732397579E+02  0.00000000000E+00 0.  1.
</event>
<event>
 7    1  0.3766050E-009  0.4614232E+02  0.7816164E-02  0.1320468E+00
        -11   -1    0    0    0    0  0.00000000000E+00  0.00000000000E+00  0.45593999997E+02  0.45594000000E+02  0.51100000000E-03 0. -1.
         11   -1    0    0    0    0 -0.00000000000E+00 -0.00000000000E+00 -0.45593999997E+02  0.45594000000E+02  0.51100000000E-03 0.  1.
    9900012    2    1    2    0    0  0.29999631963E+02 -0.12383748866E+02  0.31237450584E+02  0.46142317933E+02  0.10000001569E+02 0.  0.
        -12    1    1    2    0    0 -0.29999631963E+02  0.12383748866E+02 -0.31237450584E+02  0.45045682067E+02  0.00000000000E+00 0.  1.
         11    1    3    3    0    0  0.15019493323E+02 -0.89531224202E+01  0.21647495531E+02  0.27827282364E+02  0.51100000000E-03 0. -1.
        -11    1    3    3    0    0  0.26585946622E+01 -0.16663292527E+01  0.15771864649E+01  0.35117369153E+01  0.51100000000E-03 0.  1.
         12    1    3    3    0    0  0.12321543978E+02 -0.17642971927E+01  0.80127685877E+01  0.14803298653E+02  0.00000000000E+00 0. -1.
</event>
<event>
 7    1  0.3766050E-009  0.4614232E+02  0.7816164E-02  0.1320468E+00
        -11   -1    0    0    0    0  0.00000000000E+00  0.00000000000E+00  0.45593999997E+02  0.45594000000E+02  0.51100000000E-03 0. -1.
         11   -1    0    0    0    0 -0.00000000000E+00 -0.00000000000E+00 -0.45593999997E+02  0.45594000000E+02  0.51100000000E-03 0.  1.
    9900012    2    1    2    0    0 -0.24112976486E+02 -0.29319890820E+02 -0.24249158798E+02  0.46142319462E+02  0.10000015511E+02 0.  0.
         12    1    1    2    0    0  0.24112976486E+02  0.29319890820E+02  0.24249158798E+02  0.45045680538E+02  0.00000000000E+00 0. -1.
         11    1    3    3    0    0 -0.53219088637E+01 -0.45217432788E+01 -0.46158853604E+01  0.83710975478E+01  0.51100000000E-03 0. -1.
        -11    1    3    3    0    0 -0.56699553200E+01 -0.79791263340E+01 -0.17686874655E+01  0.99470149289E+01  0.51100000000E-03 0.  1.
        -12    1    3    3    0    0 -0.13121112302E+02 -0.16819021208E+02 -0.17864585972E+02  0.27824206985E+02  0.00000000000E+00 0.  1.
</event>
<event>
 7    1  0.3766050E-009  0.4614232E+02  0.7816164E-02  0.1320468E+00
        -11   -1    0    0    0    0  0.00000000000E+00  0.00000000000E+00  0.45593999997E+02  0.45594000000E+02  0.51100000000E-03 0. -1.
         11   -1    0    0    0    0 -0.00000000000E+00 -0.00000000000E+00 -0.45593999997E+02  0.45594000000E+02  0.51100000000E-03 0.  1.
    9900012    2    1    2    0    0 -0.32416551615E+02  0.25494621811E+02 -0.18119186774E+02  0.46142317751E+02  0.99999999120E+01 0.  0.
         12    1    1    2    0    0  0.32416551615E+02 -0.25494621811E+02  0.18119186774E+02  0.45045682249E+02  0.00000000000E+00 0. -1.
         11    1    3    3    0    0 -0.84928006894E+00  0.28270786772E+01  0.11720041798E+00  0.29542150703E+01  0.51100000000E-03 0. -1.
        -11    1    3    3    0    0 -0.58794146508E+01  0.43703351267E+01 -0.55641077528E+01  0.91992739443E+01  0.51100000000E-03 0.  1.
        -12    1    3    3    0    0 -0.25687856895E+02  0.18297208007E+02 -0.12672279439E+02  0.33988828737E+02  0.00000000000E+00 0.  1.
</event>
<event>
 7    1  0.3766050E-009  0.4614232E+02  0.7816164E-02  0.1320468E+00
        -11   -1    0    0    0    0  0.00000000000E+00  0.00000000000E+00  0.45593999997E+02  0.45594000000E+02  0.51100000000E-03 0. -1.
         11   -1    0    0    0    0 -0.00000000000E+00 -0.00000000000E+00 -0.45593999997E+02  0.45594000000E+02  0.51100000000E-03 0.  1.
    9900012    2    1    2    0    0 -0.10747061949E+02 -0.45772923306E+01 -0.43504744169E+02  0.46142315292E+02  0.99999774825E+01 0.  0.
         12    1    1    2    0    0  0.10747061949E+02  0.45772923306E+01  0.43504744169E+02  0.45045684708E+02  0.00000000000E+00 0. -1.
         11    1    3    3    0    0 -0.23414558908E+01 -0.23627946914E+01 -0.49870463638E+01  0.59946514609E+01  0.51100000000E-03 0. -1.
        -11    1    3    3    0    0  0.47691496836E+00  0.74355555586E+00 -0.11877210846E+02  0.11910015134E+02  0.51100000000E-03 0.  1.
        -12    1    3    3    0    0 -0.88825210269E+01 -0.29580531950E+01 -0.26640486959E+02  0.28237648697E+02  0.00000000000E+00 0.  1.
</event>
<event>
 7    1  0.3766050E-009  0.4614232E+02  0.7816164E-02  0.1320468E+00
        -11   -1    0    0    0    0  0.00000000000E+00  0.00000000000E+00  0.45593999997E+02  0.45594000000E+02  0.51100000000E-03 0. -1.
         11   -1    0    0    0    0 -0.00000000000E+00 -0.00000000000E+00 -0.45593999997E+02  0.45594000000E+02  0.51100000000E-03 0.  1.
    9900012    2    1    2    0    0  0.19428380357E+02 -0.22976292490E+02  0.33522253704E+02  0.46142317928E+02  0.10000001525E+02 0.  0.
        -12    1    1    2    0    0 -0.19428380357E+02  0.22976292490E+02 -0.33522253704E+02  0.45045682072E+02  0.00000000000E+00 0.  1.
         11    1    3    3    0    0  0.19018777187E+01 -0.42282612365E+01  0.95235163184E+01  0.10592105328E+02  0.51100000000E-03 0.  1.
        -11    1    3    3    0    0  0.10613469269E+02 -0.14656518514E+02  0.18007255745E+02  0.25528817533E+02  0.51100000000E-03 0. -1.
        -12    1    3    3    0    0  0.69130333690E+01 -0.40915127394E+01  0.59914816407E+01  0.10021395068E+02  0.00000000000E+00 0.  1.
</event>
<event>
 7    1  0.3766050E-009  0.4614232E+02  0.7816164E-02  0.1320468E+00
        -11   -1    0    0    0    0  0.00000000000E+00  0.00000000000E+00  0.45593999997E+02  0.45594000000E+02  0.51100000000E-03 0. -1.
         11   -1    0    0    0    0 -0.00000000000E+00 -0.00000000000E+00 -0.45593999997E+02  0.45594000000E+02  0.51100000000E-03 0.  1.
    9900012    2    1    2    0    0  0.26880011405E+02 -0.23104112935E+02  0.27798894725E+02  0.46142316571E+02  0.99999891492E+01 0.  0.
        -12    1    1    2    0    0 -0.26880011405E+02  0.23104112935E+02 -0.27798894725E+02  0.45045683429E+02  0.00000000000E+00 0.  1.
         11    1    3    3    0    0  0.18346306925E+02 -0.16577655428E+02  0.23324599951E+02  0.33991801959E+02  0.51100000000E-03 0. -1.
        -11    1    3    3    0    0  0.85225991247E+01 -0.68729932159E+01  0.43689675581E+01  0.11788155469E+02  0.51100000000E-03 0.  1.
         12    1    3    3    0    0  0.11105354725E-01  0.34653570830E+00  0.10532721569E+00  0.36235914283E+00  0.00000000000E+00 0. -1.
</event>
<event>
 7    1  0.3766050E-009  0.4614232E+02  0.7816164E-02  0.1320468E+00
        -11   -1    0    0    0    0  0.00000000000E+00  0.00000000000E+00  0.45593999997E+02  0.45594000000E+02  0.51100000000E-03 0. -1.
         11   -1    0    0    0    0 -0.00000000000E+00 -0.00000000000E+00 -0.45593999997E+02  0.45594000000E+02  0.51100000000E-03 0.  1.
    9900012    2    1    2    0    0  0.11560903933E+02  0.39512306610E+02  0.18282144556E+02  0.46142315601E+02  0.99999802999E+01 0.  0.
        -12    1    1    2    0    0 -0.11560903933E+02 -0.39512306610E+02 -0.18282144556E+02  0.45045684399E+02  0.00000000000E+00 0.  1.
         11    1    3    3    0    0  0.93602271025E+01  0.21200899093E+02  0.98387907876E+01  0.25177247232E+02  0.51100000000E-03 0. -1.
        -11    1    3    3    0    0  0.75750140681E+00  0.88931248115E+01  0.12199889987E+01  0.90083211927E+01  0.51100000000E-03 0.  1.
         12    1    3    3    0    0  0.14431754241E+01  0.94182827062E+01  0.72233647695E+01  0.11956747176E+02  0.00000000000E+00 0. -1.
</event>
<event>
 7    1  0.3766050E-009  0.4614232E+02  0.7816164E-02  0.1320468E+00
        -11   -1    0    0    0    0  0.00000000000E+00  0.00000000000E+00  0.45593999997E+02  0.45594000000E+02  0.51100000000E-03 0. -1.
         11   -1    0    0    0    0 -0.00000000000E+00 -0.00000000000E+00 -0.45593999997E+02  0.45594000000E+02  0.51100000000E-03 0.  1.
    9900012    2    1    2    0    0  0.12422074905E+02 -0.36312016931E+02  0.23584804633E+02  0.46142317319E+02  0.99999959728E+01 0.  0.
        -12    1    1    2    0    0 -0.12422074905E+02  0.36312016931E+02 -0.23584804633E+02  0.45045682681E+02  0.00000000000E+00 0.  1.
         11    1    3    3    0    0  0.12197997739E+02 -0.30054429788E+02  0.16226641836E+02  0.36267944583E+02  0.51100000000E-03 0. -1.
        -11    1    3    3    0    0 -0.66562811058E+00 -0.10240003239E+01  0.19131831553E+01  0.22697813753E+01  0.51100000000E-03 0.  1.
         12    1    3    3    0    0  0.88970527662E+00 -0.52335868199E+01  0.54449796412E+01  0.76045913614E+01  0.00000000000E+00 0. -1.
</event>
<event>
 7    1  0.3766050E-009  0.4614231E+02  0.7816164E-02  0.1320468E+00
        -11   -1    0    0    0    0  0.00000000000E+00  0.00000000000E+00  0.45593999997E+02  0.45594000000E+02  0.51100000000E-03 0. -1.
         11   -1    0    0    0    0 -0.00000000000E+00 -0.00000000000E+00 -0.45593999997E+02  0.45594000000E+02  0.51100000000E-03 0.  1.
    9900012    2    1    2    0    0  0.36148648069E+02  0.26867783433E+02 -0.71500590549E+00  0.46142314554E+02  0.99999707543E+01 0.  0.
        -12    1    1    2    0    0 -0.36148648069E+02 -0.26867783433E+02  0.71500590549E+00  0.45045685446E+02  0.00000000000E+00 0.  1.
         11    1    3    3    0    0  0.37112733041E+01  0.28650884119E+01 -0.22990173437E+01  0.52218542830E+01  0.51100000000E-03 0. -1.
        -11    1    3    3    0    0  0.27763713723E+01  0.35908464339E+01  0.18812932734E+01  0.49134184384E+01  0.51100000000E-03 0.  1.
         12    1    3    3    0    0  0.29661003393E+02  0.20411848587E+02 -0.29728183524E+00  0.36007041832E+02  0.00000000000E+00 0. -1.
</event>
<event>
 7    1  0.3766050E-009  0.4614232E+02  0.7816164E-02  0.1320468E+00
        -11   -1    0    0    0    0  0.00000000000E+00  0.00000000000E+00  0.45593999997E+02  0.45594000000E+02  0.51100000000E-03 0. -1.
         11   -1    0    0    0    0 -0.00000000000E+00 -0.00000000000E+00 -0.45593999997E+02  0.45594000000E+02  0.51100000000E-03 0.  1.
    9900012    2    1    2    0    0 -0.25518031833E+02  0.19062174687E+02  0.31852425922E+02  0.46142317748E+02  0.99999998820E+01 0.  0.
        -12    1    1    2    0    0  0.25518031833E+02 -0.19062174687E+02 -0.31852425922E+02  0.45045682252E+02  0.00000000000E+00 0.  1.
         11    1    3    3    0    0 -0.19276290353E+02  0.99410778332E+01  0.20980040457E+02  0.30175528100E+02  0.51100000000E-03 0. -1.
        -11    1    3    3    0    0  0.12815387806E+00  0.13568274925E+01  0.32130896976E+00  0.14002299725E+01  0.51100000000E-03 0.  1.
        -12    1    3    3    0    0 -0.63698953583E+01  0.77642693615E+01  0.10551076495E+02  0.14566559676E+02  0.00000000000E+00 0.  1.
</event>
<event>
 7    1  0.3766050E-009  0.4614232E+02  0.7816164E-02  0.1320468E+00
        -11   -1    0    0    0    0  0.00000000000E+00  0.00000000000E+00  0.45593999997E+02  0.45594000000E+02  0.51100000000E-03 0. -1.
         11   -1    0    0    0    0 -0.00000000000E+00 -0.00000000000E+00 -0.45593999997E+02  0.45594000000E+02  0.51100000000E-03 0.  1.
    9900012    2    1    2    0    0 -0.28923281517E+02 -0.61699897828E+00 -0.34527909687E+02  0.46142318200E+02  0.10000004005E+02 0.  0.
         12    1    1    2    0    0  0.28923281517E+02  0.61699897828E+00  0.34527909687E+02  0.45045681800E+02  0.00000000000E+00 0. -1.
         11    1    3    3    0    0 -0.24306164604E+02 -0.36572449740E+00 -0.24435572561E+02  0.34467674694E+02  0.51100000000E-03 0. -1.
        -11    1    3    3    0    0 -0.33970023749E+01  0.33116374820E-02 -0.98307195346E+01  0.10401090468E+02  0.51100000000E-03 0.  1.
         12    1    3    3    0    0 -0.12201145379E+01 -0.25458611836E+00 -0.26161759195E+00  0.12735530384E+01  0.00000000000E+00 0. -1.
</event>
<event>
 7    1  0.3766050E-009  0.4614232E+02  0.7816164E-02  0.1320468E+00
        -11   -1    0    0    0    0  0.00000000000E+00  0.00000000000E+00  0.45593999997E+02  0.45594000000E+02  0.51100000000E-03 0. -1.
         11   -1    0    0    0    0 -0.00000000000E+00 -0.00000000000E+00 -0.45593999997E+02  0.45594000000E+02  0.51100000000E-03 0.  1.
    9900012    2    1    2    0    0 -0.73511570512E+01 -0.19489353307E+02  0.39940443762E+02  0.46142318184E+02  0.10000003857E+02 0.  0.
        -12    1    1    2    0    0  0.73511570512E+01  0.19489353307E+02 -0.39940443762E+02  0.45045681816E+02  0.00000000000E+00 0.  1.
         11    1    3    3    0    0 -0.32845275938E+01 -0.10207815731E+02  0.29453569660E+02  0.31344862251E+02  0.51100000000E-03 0. -1.
        -11    1    3    3    0    0 -0.34495713060E+01 -0.88538620734E+01  0.88001146371E+01  0.12951155690E+02  0.51100000000E-03 0.  1.
         12    1    3    3    0    0 -0.61705815139E+00 -0.42767550240E+00  0.16867594652E+01  0.18463002440E+01  0.00000000000E+00 0. -1.
</event>
<event>
 7    1  0.3766050E-009  0.4614232E+02  0.7816164E-02  0.1320468E+00
        -11   -1    0    0    0    0  0.00000000000E+00  0.00000000000E+00  0.45593999997E+02  0.45594000000E+02  0.51100000000E-03 0. -1.
         11   -1    0    0    0    0 -0.00000000000E+00 -0.00000000000E+00 -0.45593999997E+02  0.45594000000E+02  0.51100000000E-03 0.  1.
    9900012    2    1    2    0    0  0.24756683829E+02  0.21096036210E+02  0.31163718903E+02  0.46142317479E+02  0.99999974238E+01 0.  0.
        -12    1    1    2    0    0 -0.24756683829E+02 -0.21096036210E+02 -0.31163718903E+02  0.45045682521E+02  0.00000000000E+00 0.  1.
         11    1    3    3    0    0  0.59798406974E+01  0.54889509320E+01  0.76296004198E+01  0.11139922797E+02  0.51100000000E-03 0. -1.
        -11    1    3    3    0    0  0.54997825522E+01  0.42153622569E+01  0.19101588004E+01  0.71878782671E+01  0.51100000000E-03 0.  1.
        -12    1    3    3    0    0  0.13277060579E+02  0.11391723021E+02  0.21623959682E+02  0.27814516414E+02  0.00000000000E+00 0.  1.
</event>
<event>
 7    1  0.3766050E-009  0.4614232E+02  0.7816164E-02  0.1320468E+00
        -11   -1    0    0    0    0  0.00000000000E+00  0.00000000000E+00  0.45593999997E+02  0.45594000000E+02  0.51100000000E-03 0. -1.
         11   -1    0    0    0    0 -0.00000000000E+00 -0.00000000000E+00 -0.45593999997E+02  0.45594000000E+02  0.51100000000E-03 0.  1.
    9900012    2    1    2    0    0  0.96631935230E+01  0.43058323168E+01  0.43785796400E+02  0.46142317994E+02  0.10000002126E+02 0.  0.
        -12    1    1    2    0    0 -0.96631935230E+01 -0.43058323168E+01 -0.43785796400E+02  0.45045682006E+02  0.00000000000E+00 0.  1.
         11    1    3    3    0    0  0.85661655386E+01  0.38914806323E+00  0.24694952454E+02  0.26141371526E+02  0.51100000000E-03 0. -1.
        -11    1    3    3    0    0  0.50452038035E+00  0.29822444941E+00  0.25933368270E-01  0.58664421682E+00  0.51100000000E-03 0.  1.
         12    1    3    3    0    0  0.59250760402E+00  0.36184598042E+01  0.19064910577E+02  0.19414302252E+02  0.00000000000E+00 0. -1.
</event>
<event>
 7    1  0.3766050E-009  0.4614232E+02  0.7816164E-02  0.1320468E+00
        -11   -1    0    0    0    0  0.00000000000E+00  0.00000000000E+00  0.45593999997E+02  0.45594000000E+02  0.51100000000E-03 0. -1.
         11   -1    0    0    0    0 -0.00000000000E+00 -0.00000000000E+00 -0.45593999997E+02  0.45594000000E+02  0.51100000000E-03 0.  1.
    9900012    2    1    2    0    0  0.78320709773E+01  0.17306729645E+02 -0.40844204099E+02  0.46142320570E+02  0.10000025617E+02 0.  0.
         12    1    1    2    0    0 -0.78320709773E+01 -0.17306729645E+02  0.40844204099E+02  0.45045679430E+02  0.00000000000E+00 0. -1.
         11    1    3    3    0    0  0.20656804121E+01 -0.71913609315E+00 -0.32950155141E+01  0.39549108441E+01  0.51100000000E-03 0. -1.
        -11    1    3    3    0    0  0.60367861769E+01  0.15007955310E+02 -0.30815086364E+02  0.34803032308E+02  0.51100000000E-03 0.  1.
        -12    1    3    3    0    0 -0.27039561180E+00  0.30179104281E+01 -0.67341022204E+01  0.73843774182E+01  0.00000000000E+00 0.  1.
</event>
<event>
 7    1  0.3766050E-009  0.4614232E+02  0.7816164E-02  0.1320468E+00
        -11   -1    0    0    0    0  0.00000000000E+00  0.00000000000E+00  0.45593999997E+02  0.45594000000E+02  0.51100000000E-03 0. -1.
         11   -1    0    0    0    0 -0.00000000000E+00 -0.00000000000E+00 -0.45593999997E+02  0.45594000000E+02  0.51100000000E-03 0.  1.
    9900012    2    1    2    0    0 -0.20340553591E+02  0.22109722279E+02 -0.33563901536E+02  0.46142318454E+02  0.10000006318E+02 0.  0.
         12    1    1    2    0    0  0.20340553591E+02 -0.22109722279E+02  0.33563901536E+02  0.45045681546E+02  0.00000000000E+00 0. -1.
         11    1    3    3    0    0 -0.37693188282E+01  0.44039722434E+01 -0.10514201545E+02  0.12006297112E+02  0.51100000000E-03 0. -1.
        -11    1    3    3    0    0 -0.81063935579E+01  0.10509894097E+02 -0.16725264505E+02  0.21351954559E+02  0.51100000000E-03 0.  1.
         12    1    3    3    0    0 -0.84648412049E+01  0.71958559377E+01 -0.63244354857E+01  0.12784066783E+02  0.00000000000E+00 0. -1.
</event>
<event>
 7    1  0.3766050E-009  0.4614232E+02  0.7816164E-02  0.1320468E+00
        -11   -1    0    0    0    0  0.00000000000E+00  0.00000000000E+00  0.45593999997E+02  0.45594000000E+02  0.51100000000E-03 0. -1.
         11   -1    0    0    0    0 -0.00000000000E+00 -0.00000000000E+00 -0.45593999997E+02  0.45594000000E+02  0.51100000000E-03 0.  1.
    9900012    2    1    2    0    0 -0.32592986064E+02 -0.24498424353E+02  0.19147793668E+02  0.46142317202E+02  0.99999949036E+01 0.  0.
        -12    1    1    2    0    0  0.32592986064E+02  0.24498424353E+02 -0.19147793668E+02  0.45045682798E+02  0.00000000000E+00 0.  1.
         11    1    3    3    0    0 -0.32565262864E+01 -0.48349529725E+01  0.64377956782E+00  0.58648261776E+01  0.51100000000E-03 0. -1.
        -11    1    3    3    0    0 -0.88989766202E+01 -0.44539747591E+01  0.27511404674E+01  0.10324652545E+02  0.51100000000E-03 0.  1.
         12    1    3    3    0    0 -0.20437483158E+02 -0.15209496621E+02  0.15752873633E+02  0.29952838480E+02  0.00000000000E+00 0. -1.
</event>
<event>
 7    1  0.3766050E-009  0.4614231E+02  0.7816164E-02  0.1320468E+00
        -11   -1    0    0    0    0  0.00000000000E+00  0.00000000000E+00  0.45593999997E+02  0.45594000000E+02  0.51100000000E-03 0. -1.
         11   -1    0    0    0    0 -0.00000000000E+00 -0.00000000000E+00 -0.45593999997E+02  0.45594000000E+02  0.51100000000E-03 0.  1.
    9900012    2    1    2    0    0 -0.32274058036E+02 -0.40043456178E+01 -0.31168321056E+02  0.46142313820E+02  0.99999640615E+01 0.  0.
         12    1    1    2    0    0  0.32274058036E+02  0.40043456178E+01  0.31168321056E+02  0.45045686180E+02  0.00000000000E+00 0. -1.
         11    1    3    3    0    0 -0.22368017319E+02  0.15888837607E+01 -0.18998624106E+02  0.29390482619E+02  0.51100000000E-03 0. -1.
        -11    1    3    3    0    0 -0.31289761360E+01 -0.92910542929E+00 -0.39213313843E+01  0.51020161353E+01  0.51100000000E-03 0.  1.
         12    1    3    3    0    0 -0.67770645809E+01 -0.46641239492E+01 -0.82483655665E+01  0.11649815066E+02  0.00000000000E+00 0. -1.
</event>
<event>
 7    1  0.3766050E-009  0.4614232E+02  0.7816164E-02  0.1320468E+00
        -11   -1    0    0    0    0  0.00000000000E+00  0.00000000000E+00  0.45593999997E+02  0.45594000000E+02  0.51100000000E-03 0. -1.
         11   -1    0    0    0    0 -0.00000000000E+00 -0.00000000000E+00 -0.45593999997E+02  0.45594000000E+02  0.51100000000E-03 0.  1.
    9900012    2    1    2    0    0 -0.36942469995E+02  0.13187174078E+02 -0.22146462582E+02  0.46142318138E+02  0.10000003437E+02 0.  0.
         12    1    1    2    0    0  0.36942469995E+02 -0.13187174078E+02  0.22146462582E+02  0.45045681862E+02  0.00000000000E+00 0. -1.
         11    1    3    3    0    0 -0.20258636166E+02  0.90012454456E+01 -0.86201510668E+01  0.23785326643E+02  0.51100000000E-03 0. -1.
        -11    1    3    3    0    0 -0.16510857614E+02  0.39994694779E+01 -0.11974406680E+02  0.20784383341E+02  0.51100000000E-03 0.  1.
         12    1    3    3    0    0 -0.17297621541E+00  0.18645915503E+00 -0.15519048352E+01  0.15726081538E+01  0.00000000000E+00 0. -1.
</event>
<event>
 7    1  0.3766050E-009  0.4614231E+02  0.7816164E-02  0.1320468E+00
        -11   -1    0    0    0    0  0.00000000000E+00  0.00000000000E+00  0.45593999997E+02  0.45594000000E+02  0.51100000000E-03 0. -1.
         11   -1    0    0    0    0 -0.00000000000E+00 -0.00000000000E+00 -0.45593999997E+02  0.45594000000E+02  0.51100000000E-03 0.  1.
    9900012    2    1    2    0    0  0.33886261905E+01 -0.64294931926E+00 -0.44913445393E+02  0.46142314875E+02  0.99999736817E+01 0.  0.
         12    1    1    2    0    0 -0.33886261905E+01  0.64294931926E+00  0.44913445393E+02  0.45045685125E+02  0.00000000000E+00 0. -1.
         11    1    3    3    0    0 -0.44293961038E+00 -0.84267728318E-01 -0.21527212285E+02  0.21531933624E+02  0.51100000000E-03 0. -1.
        -11    1    3    3    0    0  0.42049374720E+01  0.17293594390E+01 -0.19975125527E+02  0.20486039717E+02  0.51100000000E-03 0.  1.
        -12    1    3    3    0    0 -0.37337167106E+00 -0.22880410299E+01 -0.34111075815E+01  0.41243415343E+01  0.00000000000E+00 0.  1.
</event>
<event>
 7    1  0.3766050E-009  0.4614232E+02  0.7816164E-02  0.1320468E+00
        -11   -1    0    0    0    0  0.00000000000E+00  0.00000000000E+00  0.45593999997E+02  0.45594000000E+02  0.51100000000E-03 0. -1.
         11   -1    0    0    0    0 -0.00000000000E+00 -0.00000000000E+00 -0.45593999997E+02  0.45594000000E+02  0.51100000000E-03 0.  1.
    9900012    2    1    2    0    0 -0.28912751982E+02 -0.28775911228E+01 -0.34422169815E+02  0.46142317270E+02  0.99999955258E+01 0.  0.
         12    1    1    2    0    0  0.28912751982E+02  0.28775911228E+01  0.34422169815E+02  0.45045682730E+02  0.00000000000E+00 0. -1.
         11    1    3    3    0    0 -0.45225750579E-01 -0.66625514031E+00 -0.74696293514E+00  0.10019456912E+01  0.51100000000E-03 0. -1.
        -11    1    3    3    0    0 -0.85550261900E+01  0.23731195633E+01 -0.13418035135E+02  0.16089245996E+02  0.51100000000E-03 0.  1.
         12    1    3    3    0    0 -0.20312500041E+02 -0.45844555457E+01 -0.20257171744E+02  0.29051125583E+02  0.00000000000E+00 0. -1.
</event>
<event>
 7    1  0.3766050E-009  0.4614232E+02  0.7816164E-02  0.1320468E+00
        -11   -1    0    0    0    0  0.00000000000E+00  0.00000000000E+00  0.45593999997E+02  0.45594000000E+02  0.51100000000E-03 0. -1.
         11   -1    0    0    0    0 -0.00000000000E+00 -0.00000000000E+00 -0.45593999997E+02  0.45594000000E+02  0.51100000000E-03 0.  1.
    9900012    2    1    2    0    0 -0.14969809544E+01 -0.22882783743E+02 -0.38771778377E+02  0.46142317162E+02  0.99999945371E+01 0.  0.
         12    1    1    2    0    0  0.14969809544E+01  0.22882783743E+02  0.38771778377E+02  0.45045682838E+02  0.00000000000E+00 0. -1.
         11    1    3    3    0    0 -0.20000908834E+01 -0.31642082550E+01 -0.36115794612E+01  0.52015462979E+01  0.51100000000E-03 0. -1.
        -11    1    3    3    0    0  0.22643349158E+01 -0.48179574867E+01 -0.52431866123E+01  0.74720099750E+01  0.51100000000E-03 0.  1.
        -12    1    3    3    0    0 -0.17612249867E+01 -0.14900618001E+02 -0.29917012304E+02  0.33468760889E+02  0.00000000000E+00 0.  1.
</event>
<event>
 7    1  0.3766050E-009  0.4614232E+02  0.7816164E-02  0.1320468E+00
        -11   -1    0    0    0    0  0.00000000000E+00  0.00000000000E+00  0.45593999997E+02  0.45594000000E+02  0.51100000000E-03 0. -1.
         11   -1    0    0    0    0 -0.00000000000E+00 -0.00000000000E+00 -0.45593999997E+02  0.45594000000E+02  0.51100000000E-03 0.  1.
    9900012    2    1    2    0    0 -0.40397075260E+01 -0.20503181056E+02  0.39905059970E+02  0.46142317838E+02  0.10000000698E+02 0.  0.
        -12    1    1    2    0    0  0.40397075260E+01  0.20503181056E+02 -0.39905059970E+02  0.45045682162E+02  0.00000000000E+00 0.  1.
         11    1    3    3    0    0 -0.32780756716E+01 -0.15117748101E+02  0.23944279727E+02  0.28506501358E+02  0.51100000000E-03 0. -1.
        -11    1    3    3    0    0 -0.18846724749E+01 -0.29721246789E+01  0.13695873841E+02  0.14140808887E+02  0.51100000000E-03 0.  1.
         12    1    3    3    0    0  0.11230406205E+01 -0.24133082753E+01  0.22649064020E+01  0.34950075932E+01  0.00000000000E+00 0. -1.
</event>
<event>
 7    1  0.3766050E-009  0.4614232E+02  0.7816164E-02  0.1320468E+00
        -11   -1    0    0    0    0  0.00000000000E+00  0.00000000000E+00  0.45593999997E+02  0.45594000000E+02  0.51100000000E-03 0. -1.
         11   -1    0    0    0    0 -0.00000000000E+00 -0.00000000000E+00 -0.45593999997E+02  0.45594000000E+02  0.51100000000E-03 0.  1.
    9900012    2    1    2    0    0 -0.19885289084E+02  0.18334362921E+02 -0.36021381103E+02  0.46142317829E+02  0.10000000617E+02 0.  0.
         12    1    1    2    0    0  0.19885289084E+02 -0.18334362921E+02  0.36021381103E+02  0.45045682171E+02  0.00000000000E+00 0. -1.
         11    1    3    3    0    0 -0.78763151700E+01  0.28774155126E+01 -0.13483997633E+02  0.15878729581E+02  0.51100000000E-03 0. -1.
        -11    1    3    3    0    0 -0.80543111086E+01  0.67696184988E+01 -0.10089249352E+02  0.14577126424E+02  0.51100000000E-03 0.  1.
        -12    1    3    3    0    0 -0.39546628056E+01  0.86873289094E+01 -0.12448134119E+02  0.15686461823E+02  0.00000000000E+00 0.  1.
</event>
<event>
 7    1  0.3766050E-009  0.4614232E+02  0.7816164E-02  0.1320468E+00
        -11   -1    0    0    0    0  0.00000000000E+00  0.00000000000E+00  0.45593999997E+02  0.45594000000E+02  0.51100000000E-03 0. -1.
         11   -1    0    0    0    0 -0.00000000000E+00 -0.00000000000E+00 -0.45593999997E+02  0.45594000000E+02  0.51100000000E-03 0.  1.
    9900012    2    1    2    0    0  0.26900530959E+02  0.11900517663E+02  0.34115284430E+02  0.46142317429E+02  0.99999969748E+01 0.  0.
        -12    1    1    2    0    0 -0.26900530959E+02 -0.11900517663E+02 -0.34115284430E+02  0.45045682571E+02  0.00000000000E+00 0.  1.
         11    1    3    3    0    0  0.11330830102E+02  0.31246544194E+01  0.14654851772E+02  0.18786054848E+02  0.51100000000E-03 0. -1.
        -11    1    3    3    0    0  0.10329097318E+02  0.52036118991E+01  0.74019853747E+01  0.13731613741E+02  0.51100000000E-03 0.  1.
        -12    1    3    3    0    0  0.52406035395E+01  0.35722513444E+01  0.12058447284E+02  0.13624648840E+02  0.00000000000E+00 0.  1.
</event>
<event>
 7    1  0.3766050E-009  0.4614232E+02  0.7816164E-02  0.1320468E+00
        -11   -1    0    0    0    0  0.00000000000E+00  0.00000000000E+00  0.45593999997E+02  0.45594000000E+02  0.51100000000E-03 0. -1.
         11   -1    0    0    0    0 -0.00000000000E+00 -0.00000000000E+00 -0.45593999997E+02  0.45594000000E+02  0.51100000000E-03 0.  1.
    9900012    2    1    2    0    0 -0.83626327789E+01  0.15740614747E+02  0.41369227771E+02  0.46142316678E+02  0.99999901238E+01 0.  0.
        -12    1    1    2    0    0  0.83626327789E+01 -0.15740614747E+02 -0.41369227771E+02  0.45045683322E+02  0.00000000000E+00 0.  1.
         11    1    3    3    0    0 -0.13739630550E+01  0.46976460825E+01  0.19320787672E+02  0.19931093541E+02  0.51100000000E-03 0. -1.
        -11    1    3    3    0    0 -0.50007892985E+01  0.32583174832E+01  0.11442639380E+02  0.12905755409E+02  0.51100000000E-03 0.  1.
         12    1    3    3    0    0 -0.19878804255E+01  0.77846511810E+01  0.10605800718E+02  0.13305467729E+02  0.00000000000E+00 0. -1.
</event>
<event>
 7    1  0.3766050E-009  0.4614232E+02  0.7816164E-02  0.1320468E+00
        -11   -1    0    0    0    0  0.00000000000E+00  0.00000000000E+00  0.45593999997E+02  0.45594000000E+02  0.51100000000E-03 0. -1.
         11   -1    0    0    0    0 -0.00000000000E+00 -0.00000000000E+00 -0.45593999997E+02  0.45594000000E+02  0.51100000000E-03 0.  1.
    9900012    2    1    2    0    0  0.14999147958E+02 -0.41723346705E+02 -0.79562189142E+01  0.46142317419E+02  0.99999968847E+01 0.  0.
         12    1    1    2    0    0 -0.14999147958E+02  0.41723346705E+02  0.79562189142E+01  0.45045682581E+02  0.00000000000E+00 0. -1.
         11    1    3    3    0    0  0.12600774219E+02 -0.34030478934E+02 -0.91777127855E+01  0.37431048872E+02  0.51100000000E-03 0.  1.
        -11    1    3    3    0    0  0.25197457025E+00 -0.23055265201E+01  0.17247738673E+01  0.28902921778E+01  0.51100000000E-03 0. -1.
         12    1    3    3    0    0  0.21463991684E+01 -0.53873412511E+01 -0.50327999598E+00  0.58209763700E+01  0.00000000000E+00 0. -1.
</event>
<event>
 7    1  0.3766050E-009  0.4614232E+02  0.7816164E-02  0.1320468E+00
        -11   -1    0    0    0    0  0.00000000000E+00  0.00000000000E+00  0.45593999997E+02  0.45594000000E+02  0.51100000000E-03 0. -1.
         11   -1    0    0    0    0 -0.00000000000E+00 -0.00000000000E+00 -0.45593999997E+02  0.45594000000E+02  0.51100000000E-03 0.  1.
    9900012    2    1    2    0    0 -0.17407182755E+02 -0.20185034883E+01 -0.41497338704E+02  0.46142317773E+02  0.10000000108E+02 0.  0.
         12    1    1    2    0    0  0.17407182755E+02  0.20185034883E+01  0.41497338704E+02  0.45045682227E+02  0.00000000000E+00 0. -1.
         11    1    3    3    0    0 -0.54059207080E+00 -0.95345890121E+00 -0.11507339705E+01  0.15891861424E+01  0.51100000000E-03 0. -1.
        -11    1    3    3    0    0 -0.16960479078E+02 -0.26330836869E+01 -0.38326218589E+02  0.41993928274E+02  0.51100000000E-03 0.  1.
        -12    1    3    3    0    0  0.93888394175E-01  0.15680390998E+01 -0.20203861439E+01  0.25592033564E+01  0.00000000000E+00 0.  1.
</event>
<event>
 7    1  0.3766050E-009  0.4614232E+02  0.7816164E-02  0.1320468E+00
        -11   -1    0    0    0    0  0.00000000000E+00  0.00000000000E+00  0.45593999997E+02  0.45594000000E+02  0.51100000000E-03 0. -1.
         11   -1    0    0    0    0 -0.00000000000E+00 -0.00000000000E+00 -0.45593999997E+02  0.45594000000E+02  0.51100000000E-03 0.  1.
    9900012    2    1    2    0    0 -0.11096946405E+01 -0.44587041211E+01 -0.44810735911E+02  0.46142317438E+02  0.99999970492E+01 0.  0.
         12    1    1    2    0    0  0.11096946405E+01  0.44587041211E+01  0.44810735911E+02  0.45045682562E+02  0.00000000000E+00 0. -1.
         11    1    3    3    0    0 -0.12227176719E+01 -0.41350052367E+01 -0.25839455744E+02  0.26196770416E+02  0.51100000000E-03 0. -1.
        -11    1    3    3    0    0  0.24065036310E+00 -0.27923668921E+01 -0.15060095041E+02  0.15318671234E+02  0.51100000000E-03 0.  1.
         12    1    3    3    0    0 -0.12762733176E+00  0.24686680078E+01 -0.39111851259E+01  0.46268757880E+01  0.00000000000E+00 0. -1.
</event>
<event>
 7    1  0.3766050E-009  0.4614232E+02  0.7816164E-02  0.1320468E+00
        -11   -1    0    0    0    0  0.00000000000E+00  0.00000000000E+00  0.45593999997E+02  0.45594000000E+02  0.51100000000E-03 0. -1.
         11   -1    0    0    0    0 -0.00000000000E+00 -0.00000000000E+00 -0.45593999997E+02  0.45594000000E+02  0.51100000000E-03 0.  1.
    9900012    2    1    2    0    0 -0.90433504184E+00  0.29123995472E+01  0.44942336928E+02  0.46142317171E+02  0.99999946200E+01 0.  0.
        -12    1    1    2    0    0  0.90433504184E+00 -0.29123995472E+01 -0.44942336928E+02  0.45045682829E+02  0.00000000000E+00 0.  1.
         11    1    3    3    0    0 -0.20092017649E+01  0.44530131988E+01  0.37514770351E+02  0.37831524064E+02  0.51100000000E-03 0. -1.
        -11    1    3    3    0    0 -0.27021688334E+00 -0.12349799413E+01  0.65055181321E+01  0.66272135206E+01  0.51100000000E-03 0.  1.
         12    1    3    3    0    0  0.13750836063E+01 -0.30563371021E+00  0.92204844505E+00  0.16835795866E+01  0.00000000000E+00 0. -1.
</event>
<event>
 7    1  0.3766050E-009  0.4614232E+02  0.7816164E-02  0.1320468E+00
        -11   -1    0    0    0    0  0.00000000000E+00  0.00000000000E+00  0.45593999997E+02  0.45594000000E+02  0.51100000000E-03 0. -1.
         11   -1    0    0    0    0 -0.00000000000E+00 -0.00000000000E+00 -0.45593999997E+02  0.45594000000E+02  0.51100000000E-03 0.  1.
    9900012    2    1    2    0    0 -0.16152314433E+02  0.54851118891E+01  0.41690883767E+02  0.46142317596E+02  0.99999984939E+01 0.  0.
        -12    1    1    2    0    0  0.16152314433E+02 -0.54851118891E+01 -0.41690883767E+02  0.45045682404E+02  0.00000000000E+00 0.  1.
         11    1    3    3    0    0 -0.87382634239E+01  0.54121404781E+01  0.18478597000E+02  0.21144906232E+02  0.51100000000E-03 0. -1.
        -11    1    3    3    0    0 -0.79962552483E+00  0.55092214892E+00  0.12800885237E+00  0.97944000405E+00  0.51100000000E-03 0.  1.
         12    1    3    3    0    0 -0.66144254838E+01 -0.47795073795E+00  0.23084277915E+02  0.24017971360E+02  0.00000000000E+00 0. -1.
</event>
<event>
 7    1  0.3766050E-009  0.4614232E+02  0.7816164E-02  0.1320468E+00
        -11   -1    0    0    0    0  0.00000000000E+00  0.00000000000E+00  0.45593999997E+02  0.45594000000E+02  0.51100000000E-03 0. -1.
         11   -1    0    0    0    0 -0.00000000000E+00 -0.00000000000E+00 -0.45593999997E+02  0.45594000000E+02  0.51100000000E-03 0.  1.
    9900012    2    1    2    0    0 -0.13983930095E+01 -0.28070186313E+02  0.35202594374E+02  0.46142317485E+02  0.99999974784E+01 0.  0.
        -12    1    1    2    0    0  0.13983930095E+01  0.28070186313E+02 -0.35202594374E+02  0.45045682515E+02  0.00000000000E+00 0.  1.
         11    1    3    3    0    0  0.20656215431E+01 -0.42964596666E+01  0.64252273494E+01  0.80006190247E+01  0.51100000000E-03 0. -1.
        -11    1    3    3    0    0 -0.53039558234E+01 -0.13619723578E+02  0.15191141700E+02  0.21080787560E+02  0.51100000000E-03 0.  1.
        -12    1    3    3    0    0  0.18399412708E+01 -0.10154003068E+02  0.13586225324E+02  0.17060910900E+02  0.00000000000E+00 0.  1.
</event>
<event>
 7    1  0.3766050E-009  0.4614232E+02  0.7816164E-02  0.1320468E+00
        -11   -1    0    0    0    0  0.00000000000E+00  0.00000000000E+00  0.45593999997E+02  0.45594000000E+02  0.51100000000E-03 0. -1.
         11   -1    0    0    0    0 -0.00000000000E+00 -0.00000000000E+00 -0.45593999997E+02  0.45594000000E+02  0.51100000000E-03 0.  1.
    9900012    2    1    2    0    0 -0.10041475351E+01 -0.35432295239E+02 -0.27796721076E+02  0.46142316958E+02  0.99999926723E+01 0.  0.
         12    1    1    2    0    0  0.10041475351E+01  0.35432295239E+02  0.27796721076E+02  0.45045683042E+02  0.00000000000E+00 0. -1.
         11    1    3    3    0    0  0.10747422839E+01 -0.60035162094E+01 -0.25592914886E+01  0.66141704724E+01  0.51100000000E-03 0. -1.
        -11    1    3    3    0    0 -0.39434933400E+01 -0.80662047494E+01 -0.75439947806E+01  0.11727175973E+02  0.51100000000E-03 0.  1.
        -12    1    3    3    0    0  0.18646035210E+01 -0.21362574280E+02 -0.17693434807E+02  0.27800970512E+02  0.00000000000E+00 0.  1.
</event>
<event>
 7    1  0.3766050E-009  0.4614231E+02  0.7816164E-02  0.1320468E+00
        -11   -1    0    0    0    0  0.00000000000E+00  0.00000000000E+00  0.45593999997E+02  0.45594000000E+02  0.51100000000E-03 0. -1.
         11   -1    0    0    0    0 -0.00000000000E+00 -0.00000000000E+00 -0.45593999997E+02  0.45594000000E+02  0.51100000000E-03 0.  1.
    9900012    2    1    2    0    0 -0.14484152598E+02  0.74007966884E+01 -0.42006567604E+02  0.46142309974E+02  0.99999289866E+01 0.  0.
         12    1    1    2    0    0  0.14484152598E+02 -0.74007966884E+01  0.42006567604E+02  0.45045690026E+02  0.00000000000E+00 0. -1.
         11    1    3    3    0    0 -0.15988190506E+01  0.33665793248E+00 -0.70543807900E+01  0.72411221169E+01  0.51100000000E-03 0. -1.
        -11    1    3    3    0    0 -0.11416090246E+02  0.84497753459E+01 -0.25060678535E+02  0.28805614536E+02  0.51100000000E-03 0.  1.
        -12    1    3    3    0    0 -0.14692433005E+01 -0.13856365900E+01 -0.98915082792E+01  0.10095573321E+02  0.00000000000E+00 0.  1.
</event>
<event>
 7    1  0.3766050E-009  0.4614231E+02  0.7816164E-02  0.1320468E+00
        -11   -1    0    0    0    0  0.00000000000E+00  0.00000000000E+00  0.45593999997E+02  0.45594000000E+02  0.51100000000E-03 0. -1.
         11   -1    0    0    0    0 -0.00000000000E+00 -0.00000000000E+00 -0.45593999997E+02  0.45594000000E+02  0.51100000000E-03 0.  1.
    9900012    2    1    2    0    0 -0.25461580435E+02  0.34749683324E+02 -0.13163634772E+02  0.46142313749E+02  0.99999634128E+01 0.  0.
         12    1    1    2    0    0  0.25461580435E+02 -0.34749683324E+02  0.13163634772E+02  0.45045686251E+02  0.00000000000E+00 0. -1.
         11    1    3    3    0    0 -0.23665521635E+02  0.33228745831E+02 -0.13613284250E+02  0.43006138772E+02  0.51100000000E-03 0.  1.
        -11    1    3    3    0    0 -0.14154275486E+01  0.18386567953E+01  0.87803443112E+00  0.24809350413E+01  0.51100000000E-03 0. -1.
        -12    1    3    3    0    0 -0.38063125150E+00 -0.31771930164E+00 -0.42838495384E+00  0.65523993539E+00  0.00000000000E+00 0.  1.
</event>
<event>
 7    1  0.3766050E-009  0.4614232E+02  0.7816164E-02  0.1320468E+00
        -11   -1    0    0    0    0  0.00000000000E+00  0.00000000000E+00  0.45593999997E+02  0.45594000000E+02  0.51100000000E-03 0. -1.
         11   -1    0    0    0    0 -0.00000000000E+00 -0.00000000000E+00 -0.45593999997E+02  0.45594000000E+02  0.51100000000E-03 0.  1.
    9900012    2    1    2    0    0 -0.87646900803E+01  0.31836018887E+02  0.30639216023E+02  0.46142318195E+02  0.10000003958E+02 0.  0.
        -12    1    1    2    0    0  0.87646900803E+01 -0.31836018887E+02 -0.30639216023E+02  0.45045681805E+02  0.00000000000E+00 0.  1.
         11    1    3    3    0    0 -0.42315002241E+01  0.52580701359E+01  0.95013184796E+01  0.11654524821E+02  0.51100000000E-03 0. -1.
        -11    1    3    3    0    0 -0.42480219600E+01  0.13146825284E+02  0.10625702268E+02  0.17429579874E+02  0.51100000000E-03 0.  1.
         12    1    3    3    0    0 -0.28516789615E+00  0.13431123467E+02  0.10512195275E+02  0.17058213500E+02  0.00000000000E+00 0. -1.
</event>
<event>
 7    1  0.3766050E-009  0.4614232E+02  0.7816164E-02  0.1320468E+00
        -11   -1    0    0    0    0  0.00000000000E+00  0.00000000000E+00  0.45593999997E+02  0.45594000000E+02  0.51100000000E-03 0. -1.
         11   -1    0    0    0    0 -0.00000000000E+00 -0.00000000000E+00 -0.45593999997E+02  0.45594000000E+02  0.51100000000E-03 0.  1.
    9900012    2    1    2    0    0 -0.67711965130E+01 -0.84061184821E+01 -0.43733302496E+02  0.46142315664E+02  0.99999808732E+01 0.  0.
         12    1    1    2    0    0  0.67711965130E+01  0.84061184821E+01  0.43733302496E+02  0.45045684336E+02  0.00000000000E+00 0. -1.
         11    1    3    3    0    0 -0.20785465631E+01  0.76298117742E+00 -0.28173453561E+01  0.35832849745E+01  0.51100000000E-03 0. -1.
        -11    1    3    3    0    0 -0.44305370275E+01 -0.77055656872E+01 -0.39561645900E+02  0.40547863415E+02  0.51100000000E-03 0.  1.
         12    1    3    3    0    0 -0.26211292251E+00 -0.14635339722E+01 -0.13543112395E+01  0.20111672744E+01  0.00000000000E+00 0. -1.
</event>
<event>
 7    1  0.3766050E-009  0.4614232E+02  0.7816164E-02  0.1320468E+00
        -11   -1    0    0    0    0  0.00000000000E+00  0.00000000000E+00  0.45593999997E+02  0.45594000000E+02  0.51100000000E-03 0. -1.
         11   -1    0    0    0    0 -0.00000000000E+00 -0.00000000000E+00 -0.45593999997E+02  0.45594000000E+02  0.51100000000E-03 0.  1.
    9900012    2    1    2    0    0 -0.19133945208E+02 -0.15403748026E+02 -0.37758843494E+02  0.46142316805E+02  0.99999912858E+01 0.  0.
         12    1    1    2    0    0  0.19133945208E+02  0.15403748026E+02  0.37758843494E+02  0.45045683195E+02  0.00000000000E+00 0. -1.
         11    1    3    3    0    0 -0.46204512307E+01 -0.34944977330E+01 -0.12472356964E+02  0.13752082478E+02  0.51100000000E-03 0.  1.
        -11    1    3    3    0    0 -0.12280216522E+02 -0.92898521879E+01 -0.14816777813E+02  0.21369182870E+02  0.51100000000E-03 0. -1.
        -12    1    3    3    0    0 -0.22332774558E+01 -0.26193981047E+01 -0.10469708716E+02  0.11021051458E+02  0.00000000000E+00 0.  1.
</event>
<event>
 7    1  0.3766050E-009  0.4614232E+02  0.7816164E-02  0.1320468E+00
        -11   -1    0    0    0    0  0.00000000000E+00  0.00000000000E+00  0.45593999997E+02  0.45594000000E+02  0.51100000000E-03 0.  1.
         11   -1    0    0    0    0 -0.00000000000E+00 -0.00000000000E+00 -0.45593999997E+02  0.45594000000E+02  0.51100000000E-03 0. -1.
    9900012    2    1    2    0    0 -0.37725984420E+01  0.39734361947E+02 -0.20882084012E+02  0.46142318176E+02  0.10000003779E+02 0.  0.
         12    1    1    2    0    0  0.37725984420E+01 -0.39734361947E+02  0.20882084012E+02  0.45045681824E+02  0.00000000000E+00 0. -1.
         11    1    3    3    0    0 -0.15628498551E+01  0.28614221915E+01 -0.10817913813E+01  0.34351869645E+01  0.51100000000E-03 0. -1.
        -11    1    3    3    0    0 -0.39943918571E+01  0.27098018150E+02 -0.11297503137E+02  0.29629231029E+02  0.51100000000E-03 0.  1.
        -12    1    3    3    0    0  0.17846432703E+01  0.97749216051E+01 -0.85027894941E+01  0.13077900182E+02  0.00000000000E+00 0.  1.
</event>
<event>
 7    1  0.3766050E-009  0.4614232E+02  0.7816164E-02  0.1320468E+00
        -11   -1    0    0    0    0  0.00000000000E+00  0.00000000000E+00  0.45593999997E+02  0.45594000000E+02  0.51100000000E-03 0. -1.
         11   -1    0    0    0    0 -0.00000000000E+00 -0.00000000000E+00 -0.45593999997E+02  0.45594000000E+02  0.51100000000E-03 0.  1.
    9900012    2    1    2    0    0 -0.17677598411E+02 -0.99919591491E+01 -0.40209162424E+02  0.46142317898E+02  0.10000001247E+02 0.  0.
         12    1    1    2    0    0  0.17677598411E+02  0.99919591491E+01  0.40209162424E+02  0.45045682102E+02  0.00000000000E+00 0. -1.
         11    1    3    3    0    0 -0.11645369484E+02 -0.33862078928E+01 -0.28650509956E+02  0.31111617691E+02  0.51100000000E-03 0. -1.
        -11    1    3    3    0    0 -0.40396604423E+01 -0.19116897599E+01 -0.47209672614E+01  0.65008419741E+01  0.51100000000E-03 0.  1.
         12    1    3    3    0    0 -0.19925684840E+01 -0.46940614964E+01 -0.68376852065E+01  0.85298582332E+01  0.00000000000E+00 0. -1.
</event>
<event>
 7    1  0.3766050E-009  0.4614232E+02  0.7816164E-02  0.1320468E+00
        -11   -1    0    0    0    0  0.00000000000E+00  0.00000000000E+00  0.45593999997E+02  0.45594000000E+02  0.51100000000E-03 0. -1.
         11   -1    0    0    0    0 -0.00000000000E+00 -0.00000000000E+00 -0.45593999997E+02  0.45594000000E+02  0.51100000000E-03 0.  1.
    9900012    2    1    2    0    0  0.93574624513E+01  0.11860546944E+02  0.42436761395E+02  0.46142318797E+02  0.10000009445E+02 0.  0.
        -12    1    1    2    0    0 -0.93574624513E+01 -0.11860546944E+02 -0.42436761395E+02  0.45045681203E+02  0.00000000000E+00 0.  1.
         11    1    3    3    0    0  0.73381291841E+01  0.72429806785E+01  0.22105269690E+02  0.24391634987E+02  0.51100000000E-03 0.  1.
        -11    1    3    3    0    0  0.25136896458E+01  0.41056006462E+01  0.20467592133E+02  0.21026100929E+02  0.51100000000E-03 0. -1.
        -12    1    3    3    0    0 -0.49435637868E+00  0.51196561929E+00 -0.13610042733E+00  0.72458288056E+00  0.00000000000E+00 0.  1.
</event>
<event>
 7    1  0.3766050E-009  0.4614232E+02  0.7816164E-02  0.1320468E+00
        -11   -1    0    0    0    0  0.00000000000E+00  0.00000000000E+00  0.45593999997E+02  0.45594000000E+02  0.51100000000E-03 0. -1.
         11   -1    0    0    0    0 -0.00000000000E+00 -0.00000000000E+00 -0.45593999997E+02  0.45594000000E+02  0.51100000000E-03 0.  1.
    9900012    2    1    2    0    0 -0.34567427258E+02 -0.21388958534E+02  0.19409248354E+02  0.46142317676E+02  0.99999992233E+01 0.  0.
        -12    1    1    2    0    0  0.34567427258E+02  0.21388958534E+02 -0.19409248354E+02  0.45045682324E+02  0.00000000000E+00 0.  1.
         11    1    3    3    0    0 -0.14010190858E+02 -0.91863145748E+01  0.70296676891E+01  0.18168380539E+02  0.51100000000E-03 0. -1.
        -11    1    3    3    0    0 -0.17743643514E+01  0.37522397729E+00 -0.59635243798E+00  0.19091355049E+01  0.51100000000E-03 0.  1.
        -12    1    3    3    0    0 -0.18782872048E+02 -0.12577867936E+02  0.12975933103E+02  0.26064801632E+02  0.00000000000E+00 0.  1.
</event>
<event>
 7    1  0.3766050E-009  0.4614232E+02  0.7816164E-02  0.1320468E+00
        -11   -1    0    0    0    0  0.00000000000E+00  0.00000000000E+00  0.45593999997E+02  0.45594000000E+02  0.51100000000E-03 0. -1.
         11   -1    0    0    0    0 -0.00000000000E+00 -0.00000000000E+00 -0.45593999997E+02  0.45594000000E+02  0.51100000000E-03 0.  1.
    9900012    2    1    2    0    0  0.34417834217E+02 -0.25597039995E+02  0.13759276087E+02  0.46142318219E+02  0.10000004173E+02 0.  0.
        -12    1    1    2    0    0 -0.34417834217E+02  0.25597039995E+02 -0.13759276087E+02  0.45045681781E+02  0.00000000000E+00 0.  1.
         11    1    3    3    0    0  0.16008212590E+02 -0.14458252572E+02  0.10493727891E+02  0.23987960794E+02  0.51100000000E-03 0. -1.
        -11    1    3    3    0    0  0.46550762055E+01 -0.18073063219E+01 -0.76393856493E+00  0.50517019917E+01  0.51100000000E-03 0.  1.
         12    1    3    3    0    0  0.13754545421E+02 -0.93314811014E+01  0.40294867613E+01  0.17102655433E+02  0.00000000000E+00 0. -1.
</event>
<event>
 7    1  0.3766050E-009  0.4614232E+02  0.7816164E-02  0.1320468E+00
        -11   -1    0    0    0    0  0.00000000000E+00  0.00000000000E+00  0.45593999997E+02  0.45594000000E+02  0.51100000000E-03 0. -1.
         11   -1    0    0    0    0 -0.00000000000E+00 -0.00000000000E+00 -0.45593999997E+02  0.45594000000E+02  0.51100000000E-03 0.  1.
    9900012    2    1    2    0    0 -0.13586957148E+01  0.80906318458E+01  0.44292314846E+02  0.46142317275E+02  0.99999955684E+01 0.  0.
        -12    1    1    2    0    0  0.13586957148E+01 -0.80906318458E+01 -0.44292314846E+02  0.45045682725E+02  0.00000000000E+00 0.  1.
         11    1    3    3    0    0 -0.15237115117E+00  0.93710886682E+00  0.75394297636E-01  0.95240461843E+00  0.51100000000E-03 0. -1.
        -11    1    3    3    0    0 -0.30117545241E+01  0.21446349366E+01  0.12732140631E+02  0.13258111843E+02  0.51100000000E-03 0.  1.
         12    1    3    3    0    0  0.18054299605E+01  0.50088880424E+01  0.31484779917E+02  0.31931800814E+02  0.00000000000E+00 0. -1.
</event>
<event>
 7    1  0.3766050E-009  0.4614232E+02  0.7816164E-02  0.1320468E+00
        -11   -1    0    0    0    0  0.00000000000E+00  0.00000000000E+00  0.45593999997E+02  0.45594000000E+02  0.51100000000E-03 0. -1.
         11   -1    0    0    0    0 -0.00000000000E+00 -0.00000000000E+00 -0.45593999997E+02  0.45594000000E+02  0.51100000000E-03 0.  1.
    9900012    2    1    2    0    0  0.35432281909E+02 -0.27689538936E+02  0.26374969975E+01  0.46142316986E+02  0.99999929283E+01 0.  0.
        -12    1    1    2    0    0 -0.35432281909E+02  0.27689538936E+02 -0.26374969975E+01  0.45045683014E+02  0.00000000000E+00 0.  1.
         11    1    3    3    0    0  0.23913784834E+01 -0.20805282312E+01  0.47045617146E+00  0.32044684492E+01  0.51100000000E-03 0. -1.
        -11    1    3    3    0    0  0.19361202726E+01  0.74791867031E+00 -0.28045981022E+00  0.20944216418E+01  0.51100000000E-03 0.  1.
        -12    1    3    3    0    0  0.31104783153E+02 -0.26356929376E+02  0.24475006362E+01  0.40843426895E+02  0.00000000000E+00 0.  1.
</event>
<event>
 7    1  0.3766050E-009  0.4614232E+02  0.7816164E-02  0.1320468E+00
        -11   -1    0    0    0    0  0.00000000000E+00  0.00000000000E+00  0.45593999997E+02  0.45594000000E+02  0.51100000000E-03 0. -1.
         11   -1    0    0    0    0 -0.00000000000E+00 -0.00000000000E+00 -0.45593999997E+02  0.45594000000E+02  0.51100000000E-03 0.  1.
    9900012    2    1    2    0    0  0.34470095856E+02  0.21618839435E+02 -0.19327486750E+02  0.46142317955E+02  0.10000001767E+02 0.  0.
         12    1    1    2    0    0 -0.34470095856E+02 -0.21618839435E+02  0.19327486750E+02  0.45045682045E+02  0.00000000000E+00 0. -1.
         11    1    3    3    0    0  0.40777522899E+01  0.16484366740E+00 -0.20573331355E+01  0.45703235185E+01  0.51100000000E-03 0. -1.
        -11    1    3    3    0    0 -0.35394689449E+00  0.63209122077E-01 -0.15401463463E+00  0.39114519815E+00  0.51100000000E-03 0.  1.
        -12    1    3    3    0    0  0.30746290461E+02  0.21390786646E+02 -0.17116138980E+02  0.41180849238E+02  0.00000000000E+00 0.  1.
</event>
<event>
 7    1  0.3766050E-009  0.4614232E+02  0.7816164E-02  0.1320468E+00
        -11   -1    0    0    0    0  0.00000000000E+00  0.00000000000E+00  0.45593999997E+02  0.45594000000E+02  0.51100000000E-03 0. -1.
         11   -1    0    0    0    0 -0.00000000000E+00 -0.00000000000E+00 -0.45593999997E+02  0.45594000000E+02  0.51100000000E-03 0.  1.
    9900012    2    1    2    0    0  0.17807891845E+02  0.17889750273E+02  0.37308837126E+02  0.46142317582E+02  0.99999983694E+01 0.  0.
        -12    1    1    2    0    0 -0.17807891845E+02 -0.17889750273E+02 -0.37308837126E+02  0.45045682418E+02  0.00000000000E+00 0.  1.
         11    1    3    3    0    0  0.51272034026E+01  0.36888197585E+01  0.55496903900E+01  0.84080122281E+01  0.51100000000E-03 0. -1.
        -11    1    3    3    0    0  0.95382502660E+01  0.91924696554E+01  0.15259422508E+02  0.20207169323E+02  0.51100000000E-03 0.  1.
        -12    1    3    3    0    0  0.31424381766E+01  0.50084608594E+01  0.16499724228E+02  0.17527136032E+02  0.00000000000E+00 0.  1.
</event>
<event>
 7    1  0.3766050E-009  0.4614232E+02  0.7816164E-02  0.1320468E+00
        -11   -1    0    0    0    0  0.00000000000E+00  0.00000000000E+00  0.45593999997E+02  0.45594000000E+02  0.51100000000E-03 0. -1.
         11   -1    0    0    0    0 -0.00000000000E+00 -0.00000000000E+00 -0.45593999997E+02  0.45594000000E+02  0.51100000000E-03 0.  1.
    9900012    2    1    2    0    0  0.38767159640E+02 -0.19746478012E+02  0.11674654827E+02  0.46142316236E+02  0.99999860939E+01 0.  0.
        -12    1    1    2    0    0 -0.38767159640E+02  0.19746478012E+02 -0.11674654827E+02  0.45045683764E+02  0.00000000000E+00 0.  1.
         11    1    3    3    0    0  0.17395035521E+02 -0.60154908468E+01  0.32693991315E+01  0.18693912428E+02  0.51100000000E-03 0. -1.
        -11    1    3    3    0    0  0.67447811842E+01 -0.34478735757E+01 -0.25938698738E+00  0.75793922769E+01  0.51100000000E-03 0.  1.
         12    1    3    3    0    0  0.14627342935E+02 -0.10283113589E+02  0.86646426830E+01  0.19869011532E+02  0.00000000000E+00 0. -1.
</event>
<event>
 7    1  0.3766050E-009  0.4614232E+02  0.7816164E-02  0.1320468E+00
        -11   -1    0    0    0    0  0.00000000000E+00  0.00000000000E+00  0.45593999997E+02  0.45594000000E+02  0.51100000000E-03 0. -1.
         11   -1    0    0    0    0 -0.00000000000E+00 -0.00000000000E+00 -0.45593999997E+02  0.45594000000E+02  0.51100000000E-03 0.  1.
    9900012    2    1    2    0    0 -0.24564678929E+02  0.28033348754E+01  0.37654101098E+02  0.46142318000E+02  0.10000002177E+02 0.  0.
        -12    1    1    2    0    0  0.24564678929E+02 -0.28033348754E+01 -0.37654101098E+02  0.45045682000E+02  0.00000000000E+00 0.  1.
         11    1    3    3    0    0 -0.44747167982E+01  0.33270786335E+01  0.61021270174E+01  0.82661053135E+01  0.51100000000E-03 0. -1.
        -11    1    3    3    0    0 -0.61021499374E+01 -0.12760205161E+01  0.55763518225E+01  0.83642191581E+01  0.51100000000E-03 0.  1.
         12    1    3    3    0    0 -0.13987812194E+02  0.75227675799E+00  0.25975622259E+02  0.29511993528E+02  0.00000000000E+00 0. -1.
</event>
<event>
 7    1  0.3766050E-009  0.4614232E+02  0.7816164E-02  0.1320468E+00
        -11   -1    0    0    0    0  0.00000000000E+00  0.00000000000E+00  0.45593999997E+02  0.45594000000E+02  0.51100000000E-03 0. -1.
         11   -1    0    0    0    0 -0.00000000000E+00 -0.00000000000E+00 -0.45593999997E+02  0.45594000000E+02  0.51100000000E-03 0.  1.
    9900012    2    1    2    0    0  0.11473212810E+02 -0.26478323671E+01 -0.43479510320E+02  0.46142318230E+02  0.10000004275E+02 0.  0.
         12    1    1    2    0    0 -0.11473212810E+02  0.26478323671E+01  0.43479510320E+02  0.45045681770E+02  0.00000000000E+00 0. -1.
         11    1    3    3    0    0 -0.53302607484E+00 -0.45455315811E+00 -0.46468470405E+01  0.46993534714E+01  0.51100000000E-03 0. -1.
        -11    1    3    3    0    0  0.12564207075E+02 -0.31433005800E+01 -0.31992359334E+02  0.34514499764E+02  0.51100000000E-03 0.  1.
        -12    1    3    3    0    0 -0.55796818984E+00  0.95002137097E+00 -0.68403039462E+01  0.69284649947E+01  0.00000000000E+00 0.  1.
</event>
<event>
 7    1 -0.3766050E-009  0.4614232E+02  0.7816164E-02  0.1320468E+00
        -11   -1    0    0    0    0  0.00000000000E+00  0.00000000000E+00  0.45593999997E+02  0.45594000000E+02  0.51100000000E-03 0. -1.
         11   -1    0    0    0    0 -0.00000000000E+00 -0.00000000000E+00 -0.45593999997E+02  0.45594000000E+02  0.51100000000E-03 0.  1.
    9900012    2    1    2    0    0 -0.14238869973E+02 -0.56765222765E+01 -0.42357350717E+02  0.46142317821E+02  0.10000000542E+02 0.  0.
         12    1    1    2    0    0  0.14238869973E+02  0.56765222765E+01  0.42357350717E+02  0.45045682179E+02  0.00000000000E+00 0. -1.
         11    1    3    3    0    0 -0.30403727282E+01 -0.15051640690E+01 -0.70742647206E+01  0.78456744005E+01  0.51100000000E-03 0. -1.
        -11    1    3    3    0    0 -0.88032366433E+01 -0.42447367101E+01 -0.34369497785E+02  0.35732018462E+02  0.51100000000E-03 0.  1.
         12    1    3    3    0    0 -0.23952606016E+01  0.73378502579E-01 -0.91358821111E+00  0.25646249577E+01  0.00000000000E+00 0. -1.
</event>
<event>
 7    1  0.3766050E-009  0.4614232E+02  0.7816164E-02  0.1320468E+00
        -11   -1    0    0    0    0  0.00000000000E+00  0.00000000000E+00  0.45593999997E+02  0.45594000000E+02  0.51100000000E-03 0. -1.
         11   -1    0    0    0    0 -0.00000000000E+00 -0.00000000000E+00 -0.45593999997E+02  0.45594000000E+02  0.51100000000E-03 0.  1.
    9900012    2    1    2    0    0 -0.36036551683E+02  0.68480825200E+01  0.26145443099E+02  0.46142317784E+02  0.10000000213E+02 0.  0.
        -12    1    1    2    0    0  0.36036551683E+02 -0.68480825200E+01 -0.26145443099E+02  0.45045682216E+02  0.00000000000E+00 0.  1.
         11    1    3    3    0    0 -0.11322221530E+02  0.27466440100E+01  0.63947884045E+01  0.13290224704E+02  0.51100000000E-03 0. -1.
        -11    1    3    3    0    0 -0.89576956198E+01  0.42535544970E+01  0.43833594532E+01  0.10841903755E+02  0.51100000000E-03 0.  1.
        -12    1    3    3    0    0 -0.15756634534E+02 -0.15211598700E+00  0.15367295242E+02  0.22010189326E+02  0.00000000000E+00 0.  1.
</event>
<event>
 7    1  0.3766050E-009  0.4614232E+02  0.7816164E-02  0.1320468E+00
        -11   -1    0    0    0    0  0.00000000000E+00  0.00000000000E+00  0.45593999997E+02  0.45594000000E+02  0.51100000000E-03 0.  1.
         11   -1    0    0    0    0 -0.00000000000E+00 -0.00000000000E+00 -0.45593999997E+02  0.45594000000E+02  0.51100000000E-03 0. -1.
    9900012    2    1    2    0    0  0.60529208387E+01 -0.44560732351E+02  0.26109023756E+01  0.46142317304E+02  0.99999958298E+01 0.  0.
         12    1    1    2    0    0 -0.60529208387E+01  0.44560732351E+02 -0.26109023756E+01  0.45045682696E+02  0.00000000000E+00 0. -1.
         11    1    3    3    0    0  0.68278387070E+01 -0.22380650692E+02  0.37866678411E+01  0.23703412421E+02  0.51100000000E-03 0. -1.
        -11    1    3    3    0    0 -0.42468863484E+00 -0.72397893903E+01  0.10562382989E+01  0.73287482190E+01  0.51100000000E-03 0.  1.
         12    1    3    3    0    0 -0.35022923349E+00 -0.14940292269E+02 -0.22320037645E+01  0.15110156663E+02  0.00000000000E+00 0. -1.
</event>
<event>
 7    1  0.4938296E-009  0.4614232E+02  0.7816164E-02  0.1320468E+00
        -11   -1    0    0    0    0  0.00000000000E+00  0.00000000000E+00  0.45593999997E+02  0.45594000000E+02  0.51100000000E-03 0. -1.
         11   -1    0    0    0    0 -0.00000000000E+00 -0.00000000000E+00 -0.45593999997E+02  0.45594000000E+02  0.51100000000E-03 0.  1.
    9900012    2    1    2    0    0 -0.11721162420E+02  0.89726836126E+01  0.42558416311E+02  0.46142317648E+02  0.99999989672E+01 0.  0.
        -12    1    1    2    0    0  0.11721162420E+02 -0.89726836126E+01 -0.42558416311E+02  0.45045682352E+02  0.00000000000E+00 0.  1.
         11    1    3    3    0    0 -0.10042295052E+02  0.10260590789E+02  0.37224267625E+02  0.39897036403E+02  0.51100000000E-03 0. -1.
        -11    1    3    3    0    0 -0.23213533877E+01 -0.88408239550E+00  0.42320431804E+01  0.49071858508E+01  0.51100000000E-03 0.  1.
         12    1    3    3    0    0  0.64248601964E+00 -0.40382478078E+00  0.11021055053E+01  0.13380953942E+01  0.00000000000E+00 0. -1.
</event>
<event>
 7    1  0.3766050E-009  0.4614232E+02  0.7816164E-02  0.1320468E+00
        -11   -1    0    0    0    0  0.00000000000E+00  0.00000000000E+00  0.45593999997E+02  0.45594000000E+02  0.51100000000E-03 0. -1.
         11   -1    0    0    0    0 -0.00000000000E+00 -0.00000000000E+00 -0.45593999997E+02  0.45594000000E+02  0.51100000000E-03 0.  1.
    9900012    2    1    2    0    0  0.26511744176E+02  0.16379639518E+02  0.32526117490E+02  0.46142317755E+02  0.99999999417E+01 0.  0.
        -12    1    1    2    0    0 -0.26511744176E+02 -0.16379639518E+02 -0.32526117490E+02  0.45045682245E+02  0.00000000000E+00 0.  1.
         11    1    3    3    0    0  0.77634116545E+01  0.26335855702E+01  0.76701091158E+01  0.11226616034E+02  0.51100000000E-03 0. -1.
        -11    1    3    3    0    0  0.12682220614E+02  0.12780479533E+02  0.21005791892E+02  0.27666273151E+02  0.51100000000E-03 0.  1.
        -12    1    3    3    0    0  0.60661119076E+01  0.96557441419E+00  0.38502164823E+01  0.72494285696E+01  0.00000000000E+00 0.  1.
</event>
<event>
 7    1  0.3766050E-009  0.4614232E+02  0.7816164E-02  0.1320468E+00
        -11   -1    0    0    0    0  0.00000000000E+00  0.00000000000E+00  0.45593999997E+02  0.45594000000E+02  0.51100000000E-03 0. -1.
         11   -1    0    0    0    0 -0.00000000000E+00 -0.00000000000E+00 -0.45593999997E+02  0.45594000000E+02  0.51100000000E-03 0.  1.
    9900012    2    1    2    0    0  0.13945185273E+02  0.41515298141E+01 -0.42631093065E+02  0.46142317765E+02  0.10000000034E+02 0.  0.
         12    1    1    2    0    0 -0.13945185273E+02 -0.41515298141E+01  0.42631093065E+02  0.45045682235E+02  0.00000000000E+00 0. -1.
         11    1    3    3    0    0  0.23976146263E+01 -0.16340545277E+01 -0.10734295797E+02  0.11119523219E+02  0.51100000000E-03 0. -1.
        -11    1    3    3    0    0  0.71471735169E+01  0.12164252101E+01 -0.22857445320E+02  0.23979670273E+02  0.51100000000E-03 0.  1.
        -12    1    3    3    0    0  0.44003971302E+01  0.45691591318E+01 -0.90393519485E+01  0.11043124274E+02  0.00000000000E+00 0.  1.
</event>
<event>
 7    1  0.3766050E-009  0.4614232E+02  0.7816164E-02  0.1320468E+00
        -11   -1    0    0    0    0  0.00000000000E+00  0.00000000000E+00  0.45593999997E+02  0.45594000000E+02  0.51100000000E-03 0. -1.
         11   -1    0    0    0    0 -0.00000000000E+00 -0.00000000000E+00 -0.45593999997E+02  0.45594000000E+02  0.51100000000E-03 0.  1.
    9900012    2    1    2    0    0 -0.26492634513E+02 -0.17437785753E+02 -0.31987145740E+02  0.46142317100E+02  0.99999939674E+01 0.  0.
         12    1    1    2    0    0  0.26492634513E+02  0.17437785753E+02  0.31987145740E+02  0.45045682900E+02  0.00000000000E+00 0. -1.
         11    1    3    3    0    0 -0.78583542562E+00 -0.26691749336E+01 -0.12234716272E+01  0.30395583933E+01  0.51100000000E-03 0. -1.
        -11    1    3    3    0    0 -0.21695591285E+02 -0.10569210940E+02 -0.22443281849E+02  0.32956149677E+02  0.51100000000E-03 0.  1.
        -12    1    3    3    0    0 -0.40112078018E+01 -0.41993998790E+01 -0.83203922632E+01  0.10146609029E+02  0.00000000000E+00 0.  1.
</event>
<event>
 7    1  0.3766050E-009  0.4614233E+02  0.7816164E-02  0.1320468E+00
        -11   -1    0    0    0    0  0.00000000000E+00  0.00000000000E+00  0.45593999997E+02  0.45594000000E+02  0.51100000000E-03 0.  1.
         11   -1    0    0    0    0 -0.00000000000E+00 -0.00000000000E+00 -0.45593999997E+02  0.45594000000E+02  0.51100000000E-03 0. -1.
    9900012    2    1    2    0    0  0.35845940590E+02  0.26779230172E+02 -0.52013548572E+01  0.46142326315E+02  0.10000078005E+02 0.  0.
        -12    1    1    2    0    0 -0.35845940590E+02 -0.26779230172E+02  0.52013548572E+01  0.45045673685E+02  0.00000000000E+00 0.  1.
         11    1    3    3    0    0  0.43053516468E+01  0.91203829535E+00 -0.96530696222E+00  0.45055171121E+01  0.51100000000E-03 0.  1.
        -11    1    3    3    0    0  0.24401887845E+02  0.16536177712E+02 -0.48444579904E+01  0.29872497003E+02  0.51100000000E-03 0. -1.
         12    1    3    3    0    0  0.71387010978E+01  0.93310141641E+01  0.60841009540E+00  0.11764312200E+02  0.00000000000E+00 0. -1.
</event>
<event>
 7    1  0.4841918E-009  0.4614232E+02  0.7816164E-02  0.1320468E+00
        -11   -1    0    0    0    0  0.00000000000E+00  0.00000000000E+00  0.45593999997E+02  0.45594000000E+02  0.51100000000E-03 0. -1.
         11   -1    0    0    0    0 -0.00000000000E+00 -0.00000000000E+00 -0.45593999997E+02  0.45594000000E+02  0.51100000000E-03 0.  1.
    9900012    2    1    2    0    0 -0.16465778106E+02  0.19516705536E+02 -0.37109160537E+02  0.46142318305E+02  0.10000004963E+02 0.  0.
         12    1    1    2    0    0  0.16465778106E+02 -0.19516705536E+02  0.37109160537E+02  0.45045681695E+02  0.00000000000E+00 0. -1.
         11    1    3    3    0    0 -0.25811754927E+01  0.22384722926E+01 -0.76073322172E+00  0.35002771926E+01  0.51100000000E-03 0. -1.
        -11    1    3    3    0    0 -0.64105560764E+01  0.61709663472E+01 -0.15162050343E+02  0.17580211197E+02  0.51100000000E-03 0.  1.
         12    1    3    3    0    0 -0.74740465369E+01  0.11107266896E+02 -0.21186376972E+02  0.25061829916E+02  0.00000000000E+00 0. -1.
</event>
<event>
 7    1  0.3766050E-009  0.4614231E+02  0.7816164E-02  0.1320468E+00
        -11   -1    0    0    0    0  0.00000000000E+00  0.00000000000E+00  0.45593999997E+02  0.45594000000E+02  0.51100000000E-03 0.  1.
         11   -1    0    0    0    0 -0.00000000000E+00 -0.00000000000E+00 -0.45593999997E+02  0.45594000000E+02  0.51100000000E-03 0. -1.
    9900012    2    1    2    0    0  0.40989692473E+02  0.18472621067E+02 -0.27787173380E+01  0.46142313324E+02  0.99999595346E+01 0.  0.
        -12    1    1    2    0    0 -0.40989692473E+02 -0.18472621067E+02  0.27787173380E+01  0.45045686676E+02  0.00000000000E+00 0.  1.
         11    1    3    3    0    0  0.32015919272E+02  0.12266232268E+02 -0.58253454119E+01  0.34776632820E+02  0.51100000000E-03 0. -1.
        -11    1    3    3    0    0  0.68484612712E+01  0.48946691933E+01  0.27231860728E+01  0.88473132047E+01  0.51100000000E-03 0.  1.
         12    1    3    3    0    0  0.21253119297E+01  0.13117196053E+01  0.32344200114E+00  0.25183672984E+01  0.00000000000E+00 0. -1.
</event>
<event>
 7    1  0.3766050E-009  0.4614232E+02  0.7816164E-02  0.1320468E+00
        -11   -1    0    0    0    0  0.00000000000E+00  0.00000000000E+00  0.45593999997E+02  0.45594000000E+02  0.51100000000E-03 0.  1.
         11   -1    0    0    0    0 -0.00000000000E+00 -0.00000000000E+00 -0.45593999997E+02  0.45594000000E+02  0.51100000000E-03 0. -1.
    9900012    2    1    2    0    0  0.34842717735E+02  0.28545788038E+02  0.48633878268E+00  0.46142317418E+02  0.99999968701E+01 0.  0.
        -12    1    1    2    0    0 -0.34842717735E+02 -0.28545788038E+02 -0.48633878268E+00  0.45045682582E+02  0.00000000000E+00 0.  1.
         11    1    3    3    0    0  0.11385253075E+02  0.10824015066E+02 -0.23460595561E+01  0.15883553929E+02  0.51100000000E-03 0. -1.
        -11    1    3    3    0    0  0.20512868476E+02  0.16040599455E+02  0.45871562158E+01  0.26440888911E+02  0.51100000000E-03 0.  1.
        -12    1    3    3    0    0  0.29445961839E+01  0.16811735167E+01 -0.17547578770E+01  0.38178745771E+01  0.00000000000E+00 0.  1.
</event>
<event>
 7    1  0.3766050E-009  0.4614233E+02  0.7816164E-02  0.1320468E+00
        -11   -1    0    0    0    0  0.00000000000E+00  0.00000000000E+00  0.45593999997E+02  0.45594000000E+02  0.51100000000E-03 0. -1.
         11   -1    0    0    0    0 -0.00000000000E+00 -0.00000000000E+00 -0.45593999997E+02  0.45594000000E+02  0.51100000000E-03 0.  1.
    9900012    2    1    2    0    0 -0.23398127003E+02 -0.21547676563E+02 -0.31895737611E+02  0.46142325510E+02  0.10000070658E+02 0.  0.
         12    1    1    2    0    0  0.23398127003E+02  0.21547676563E+02  0.31895737611E+02  0.45045674490E+02  0.00000000000E+00 0. -1.
         11    1    3    3    0    0 -0.61180104262E+01 -0.17285506923E+01 -0.72084949963E+01  0.96114691615E+01  0.51100000000E-03 0. -1.
        -11    1    3    3    0    0 -0.15791647435E+02 -0.19929278832E+02 -0.23499689961E+02  0.34623513860E+02  0.51100000000E-03 0.  1.
        -12    1    3    3    0    0 -0.14884691415E+01  0.11015296175E+00 -0.11875526539E+01  0.19073424878E+01  0.00000000000E+00 0.  1.
</event>
<event>
 7    1  0.3986247E-009  0.4614232E+02  0.7816164E-02  0.1320468E+00
        -11   -1    0    0    0    0  0.00000000000E+00  0.00000000000E+00  0.45593999997E+02  0.45594000000E+02  0.51100000000E-03 0. -1.
         11   -1    0    0    0    0 -0.00000000000E+00 -0.00000000000E+00 -0.45593999997E+02  0.45594000000E+02  0.51100000000E-03 0.  1.
    9900012    2    1    2    0    0 -0.28592070473E+02  0.15665055542E+02  0.31083966608E+02  0.46142318307E+02  0.10000004982E+02 0.  0.
        -12    1    1    2    0    0  0.28592070473E+02 -0.15665055542E+02 -0.31083966608E+02  0.45045681693E+02  0.00000000000E+00 0.  1.
         11    1    3    3    0    0 -0.14937826014E+02  0.43150343937E+01  0.10168293894E+02  0.18578276799E+02  0.51100000000E-03 0. -1.
        -11    1    3    3    0    0 -0.55714208126E+01  0.50820971226E+01  0.10852178816E+02  0.13215075723E+02  0.51100000000E-03 0.  1.
         12    1    3    3    0    0 -0.80828236457E+01  0.62679240255E+01  0.10063493898E+02  0.14348965786E+02  0.00000000000E+00 0. -1.
</event>
<event>
 7    1  0.3766050E-009  0.4614232E+02  0.7816164E-02  0.1320468E+00
        -11   -1    0    0    0    0  0.00000000000E+00  0.00000000000E+00  0.45593999997E+02  0.45594000000E+02  0.51100000000E-03 0. -1.
         11   -1    0    0    0    0 -0.00000000000E+00 -0.00000000000E+00 -0.45593999997E+02  0.45594000000E+02  0.51100000000E-03 0.  1.
    9900012    2    1    2    0    0  0.23589891451E+02  0.34698425377E+02 -0.16390540499E+02  0.46142317408E+02  0.99999967816E+01 0.  0.
         12    1    1    2    0    0 -0.23589891451E+02 -0.34698425377E+02  0.16390540499E+02  0.45045682592E+02  0.00000000000E+00 0. -1.
         11    1    3    3    0    0 -0.47682054669E+00  0.40275913411E+01 -0.97150478855E+00  0.41704522129E+01  0.51100000000E-03 0. -1.
        -11    1    3    3    0    0  0.16229855304E+02  0.22072853518E+02 -0.10486363349E+02  0.29335692972E+02  0.51100000000E-03 0.  1.
         12    1    3    3    0    0  0.78368566940E+01  0.85979805180E+01 -0.49326723614E+01  0.12636172223E+02  0.00000000000E+00 0. -1.
</event>
<event>
 7    1  0.3766050E-009  0.4614232E+02  0.7816164E-02  0.1320468E+00
        -11   -1    0    0    0    0  0.00000000000E+00  0.00000000000E+00  0.45593999997E+02  0.45594000000E+02  0.51100000000E-03 0. -1.
         11   -1    0    0    0    0 -0.00000000000E+00 -0.00000000000E+00 -0.45593999997E+02  0.45594000000E+02  0.51100000000E-03 0.  1.
    9900012    2    1    2    0    0  0.64726640394E+01 -0.15231822105E+02 -0.41895222504E+02  0.46142318153E+02  0.10000003575E+02 0.  0.
         12    1    1    2    0    0 -0.64726640394E+01  0.15231822105E+02  0.41895222504E+02  0.45045681847E+02  0.00000000000E+00 0. -1.
         11    1    3    3    0    0  0.54875592301E+01 -0.48667939544E+01 -0.92612673754E+01  0.11813977457E+02  0.51100000000E-03 0. -1.
        -11    1    3    3    0    0  0.10305527269E+01 -0.95317209576E+01 -0.31456976863E+02  0.32885515610E+02  0.51100000000E-03 0.  1.
        -12    1    3    3    0    0 -0.45447917527E-01 -0.83330719252E+00 -0.11769782655E+01  0.14428250856E+01  0.00000000000E+00 0.  1.
</event>
<event>
 7    1  0.3766050E-009  0.4614232E+02  0.7816164E-02  0.1320468E+00
        -11   -1    0    0    0    0  0.00000000000E+00  0.00000000000E+00  0.45593999997E+02  0.45594000000E+02  0.51100000000E-03 0.  1.
         11   -1    0    0    0    0 -0.00000000000E+00 -0.00000000000E+00 -0.45593999997E+02  0.45594000000E+02  0.51100000000E-03 0. -1.
    9900012    2    1    2    0    0  0.89713845461E+01  0.43337177455E+02  0.83974323116E+01  0.46142316967E+02  0.99999927606E+01 0.  0.
        -12    1    1    2    0    0 -0.89713845461E+01 -0.43337177455E+02 -0.83974323116E+01  0.45045683033E+02  0.00000000000E+00 0.  1.
         11    1    3    3    0    0  0.32061412151E+01  0.84451961825E+01  0.11888984921E+01  0.91112106736E+01  0.51100000000E-03 0. -1.
        -11    1    3    3    0    0 -0.15431940054E+00  0.21893299215E+01 -0.15202342275E+01  0.26698487504E+01  0.51100000000E-03 0.  1.
         12    1    3    3    0    0  0.59195627316E+01  0.32702651351E+02  0.87287680470E+01  0.34361257543E+02  0.00000000000E+00 0. -1.
</event>
<event>
 7    1  0.3766050E-009  0.4614232E+02  0.7816164E-02  0.1320468E+00
        -11   -1    0    0    0    0  0.00000000000E+00  0.00000000000E+00  0.45593999997E+02  0.45594000000E+02  0.51100000000E-03 0. -1.
         11   -1    0    0    0    0 -0.00000000000E+00 -0.00000000000E+00 -0.45593999997E+02  0.45594000000E+02  0.51100000000E-03 0.  1.
    9900012    2    1    2    0    0 -0.10754658118E+02  0.43054130977E+02  0.77325439540E+01  0.46142322056E+02  0.10000039167E+02 0.  0.
        -12    1    1    2    0    0  0.10754658118E+02 -0.43054130977E+02 -0.77325439540E+01  0.45045677944E+02  0.00000000000E+00 0.  1.
         11    1    3    3    0    0  0.79444659243E+00  0.21121252719E+01  0.17909535014E+01  0.28809257640E+01  0.51100000000E-03 0. -1.
        -11    1    3    3    0    0 -0.91695455620E+01  0.25490745715E+02  0.21516046763E+01  0.27175137274E+02  0.51100000000E-03 0.  1.
         12    1    3    3    0    0 -0.23795591481E+01  0.15451259990E+02  0.37899857763E+01  0.16086259018E+02  0.00000000000E+00 0. -1.
</event>
<event>
 7    1  0.3766050E-009  0.4614232E+02  0.7816164E-02  0.1320468E+00
        -11   -1    0    0    0    0  0.00000000000E+00  0.00000000000E+00  0.45593999997E+02  0.45594000000E+02  0.51100000000E-03 0. -1.
         11   -1    0    0    0    0 -0.00000000000E+00 -0.00000000000E+00 -0.45593999997E+02  0.45594000000E+02  0.51100000000E-03 0.  1.
    9900012    2    1    2    0    0  0.31404829507E+02  0.12555042209E+02  0.29752664201E+02  0.46142318428E+02  0.10000006081E+02 0.  0.
        -12    1    1    2    0    0 -0.31404829507E+02 -0.12555042209E+02 -0.29752664201E+02  0.45045681572E+02  0.00000000000E+00 0.  1.
         11    1    3    3    0    0  0.94447041994E+01  0.24396804598E+01  0.11255371640E+02  0.14894222678E+02  0.51100000000E-03 0. -1.
        -11    1    3    3    0    0  0.79884010075E+01  0.58660836313E+01  0.11090220827E+02  0.14873415414E+02  0.51100000000E-03 0.  1.
        -12    1    3    3    0    0  0.13971724300E+02  0.42492781181E+01  0.74070717339E+01  0.16374680336E+02  0.00000000000E+00 0.  1.
</event>
<event>
 7    1  0.3766050E-009  0.4614232E+02  0.7816164E-02  0.1320468E+00
        -11   -1    0    0    0    0  0.00000000000E+00  0.00000000000E+00  0.45593999997E+02  0.45594000000E+02  0.51100000000E-03 0.  1.
         11   -1    0    0    0    0 -0.00000000000E+00 -0.00000000000E+00 -0.45593999997E+02  0.45594000000E+02  0.51100000000E-03 0. -1.
    9900012    2    1    2    0    0  0.21363444570E+02 -0.28309415969E+02  0.27772177998E+02  0.46142315777E+02  0.99999819067E+01 0.  0.
        -12    1    1    2    0    0 -0.21363444570E+02  0.28309415969E+02 -0.27772177998E+02  0.45045684223E+02  0.00000000000E+00 0.  1.
         11    1    3    3    0    0  0.12616567273E+02 -0.96009800284E+01  0.12116103456E+02  0.19953860541E+02  0.51100000000E-03 0. -1.
        -11    1    3    3    0    0  0.29055841853E+01 -0.10527046428E+02  0.75795311886E+01  0.13293247130E+02  0.51100000000E-03 0.  1.
        -12    1    3    3    0    0  0.58412931114E+01 -0.81813895121E+01  0.80765433533E+01  0.12895208106E+02  0.00000000000E+00 0.  1.
</event>
<event>
 7    1  0.3766050E-009  0.4614232E+02  0.7816164E-02  0.1320468E+00
        -11   -1    0    0    0    0  0.00000000000E+00  0.00000000000E+00  0.45593999997E+02  0.45594000000E+02  0.51100000000E-03 0. -1.
         11   -1    0    0    0    0 -0.00000000000E+00 -0.00000000000E+00 -0.45593999997E+02  0.45594000000E+02  0.51100000000E-03 0.  1.
    9900012    2    1    2    0    0  0.18319938190E+01  0.32552274832E+02 -0.31082255960E+02  0.46142318368E+02  0.10000005536E+02 0.  0.
         12    1    1    2    0    0 -0.18319938190E+01 -0.32552274832E+02  0.31082255960E+02  0.45045681632E+02  0.00000000000E+00 0. -1.
         11    1    3    3    0    0 -0.13496903757E+01  0.28650108526E+00 -0.62228963034E+00  0.15136022024E+01  0.51100000000E-03 0. -1.
        -11    1    3    3    0    0  0.24444428290E+01  0.29444297318E+02 -0.28862752854E+02  0.41303758278E+02  0.51100000000E-03 0.  1.
        -12    1    3    3    0    0  0.73724136560E+00  0.28214764287E+01 -0.15972134755E+01  0.33249578877E+01  0.00000000000E+00 0.  1.
</event>
<event>
 7    1  0.3766050E-009  0.4614232E+02  0.7816164E-02  0.1320468E+00
        -11   -1    0    0    0    0  0.00000000000E+00  0.00000000000E+00  0.45593999997E+02  0.45594000000E+02  0.51100000000E-03 0. -1.
         11   -1    0    0    0    0 -0.00000000000E+00 -0.00000000000E+00 -0.45593999997E+02  0.45594000000E+02  0.51100000000E-03 0.  1.
    9900012    2    1    2    0    0  0.38031437136E+01 -0.92089978556E+01 -0.43929989091E+02  0.46142317797E+02  0.10000000326E+02 0.  0.
         12    1    1    2    0    0 -0.38031437136E+01  0.92089978556E+01  0.43929989091E+02  0.45045682203E+02  0.00000000000E+00 0. -1.
         11    1    3    3    0    0  0.14883747787E+00 -0.16476836365E+01 -0.22796564251E+02  0.22856516704E+02  0.51100000000E-03 0. -1.
        -11    1    3    3    0    0  0.10074704353E+01 -0.69852562371E+01 -0.15767336616E+02  0.17274770783E+02  0.51100000000E-03 0.  1.
         12    1    3    3    0    0  0.26468358005E+01 -0.57605798202E+00 -0.53660882244E+01  0.60110303098E+01  0.00000000000E+00 0. -1.
</event>
<event>
 7    1  0.3766050E-009  0.4614232E+02  0.7816164E-02  0.1320468E+00
        -11   -1    0    0    0    0  0.00000000000E+00  0.00000000000E+00  0.45593999997E+02  0.45594000000E+02  0.51100000000E-03 0. -1.
         11   -1    0    0    0    0 -0.00000000000E+00 -0.00000000000E+00 -0.45593999997E+02  0.45594000000E+02  0.51100000000E-03 0.  1.
    9900012    2    1    2    0    0  0.31153674649E+02 -0.27881865825E+02 -0.16767921910E+02  0.46142322170E+02  0.10000040204E+02 0.  0.
         12    1    1    2    0    0 -0.31153674649E+02  0.27881865825E+02  0.16767921910E+02  0.45045677830E+02  0.00000000000E+00 0. -1.
         11    1    3    3    0    0  0.60837553725E+01 -0.70345965314E+01 -0.10994692343E+01  0.93651727507E+01  0.51100000000E-03 0. -1.
        -11    1    3    3    0    0  0.20565807245E+02 -0.19262904666E+02 -0.11484461274E+02  0.30428683422E+02  0.51100000000E-03 0.  1.
        -12    1    3    3    0    0  0.45041120319E+01 -0.15843646269E+01 -0.41839914015E+01  0.63484659970E+01  0.00000000000E+00 0.  1.
</event>
<event>
 7    1  0.3766050E-009  0.4614231E+02  0.7816164E-02  0.1320468E+00
        -11   -1    0    0    0    0  0.00000000000E+00  0.00000000000E+00  0.45593999997E+02  0.45594000000E+02  0.51100000000E-03 0. -1.
         11   -1    0    0    0    0 -0.00000000000E+00 -0.00000000000E+00 -0.45593999997E+02  0.45594000000E+02  0.51100000000E-03 0.  1.
    9900012    2    1    2    0    0 -0.14932206334E+02  0.24379163899E+02 -0.34810910507E+02  0.46142313095E+02  0.99999574481E+01 0.  0.
         12    1    1    2    0    0  0.14932206334E+02 -0.24379163899E+02  0.34810910507E+02  0.45045686905E+02  0.00000000000E+00 0. -1.
         11    1    3    3    0    0 -0.87821097380E+01  0.67889034199E+01 -0.14658310960E+02  0.18386972061E+02  0.51100000000E-03 0. -1.
        -11    1    3    3    0    0 -0.37108446376E+01  0.14651084029E+02 -0.17399245655E+02  0.23046873557E+02  0.51100000000E-03 0.  1.
         12    1    3    3    0    0 -0.24392519587E+01  0.29391764506E+01 -0.27533538920E+01  0.47084674769E+01  0.00000000000E+00 0. -1.
</event>
<event>
 7    1  0.3766050E-009  0.4614232E+02  0.7816164E-02  0.1320468E+00
        -11   -1    0    0    0    0  0.00000000000E+00  0.00000000000E+00  0.45593999997E+02  0.45594000000E+02  0.51100000000E-03 0. -1.
         11   -1    0    0    0    0 -0.00000000000E+00 -0.00000000000E+00 -0.45593999997E+02  0.45594000000E+02  0.51100000000E-03 0.  1.
    9900012    2    1    2    0    0  0.42747597925E+02 -0.92191695333E+01  0.10805711208E+02  0.46142316411E+02  0.99999876904E+01 0.  0.
        -12    1    1    2    0    0 -0.42747597925E+02  0.92191695333E+01 -0.10805711208E+02  0.45045683589E+02  0.00000000000E+00 0.  1.
         11    1    3    3    0    0  0.18138123852E+01 -0.24130670422E+00 -0.11661641958E+01  0.21698118552E+01  0.51100000000E-03 0. -1.
        -11    1    3    3    0    0  0.22497184905E+02 -0.19672217577E+01  0.66859073115E+01  0.23551956329E+02  0.51100000000E-03 0.  1.
         12    1    3    3    0    0  0.18436600635E+02 -0.70106410714E+01  0.52859680923E+01  0.20420548227E+02  0.00000000000E+00 0. -1.
</event>
<event>
 7    1  0.3766050E-009  0.4614231E+02  0.7816164E-02  0.1320468E+00
        -11   -1    0    0    0    0  0.00000000000E+00  0.00000000000E+00  0.45593999997E+02  0.45594000000E+02  0.51100000000E-03 0. -1.
         11   -1    0    0    0    0 -0.00000000000E+00 -0.00000000000E+00 -0.45593999997E+02  0.45594000000E+02  0.51100000000E-03 0.  1.
    9900012    2    1    2    0    0  0.24510318036E+02 -0.23194433755E+02 -0.29839176569E+02  0.46142313128E+02  0.99999577551E+01 0.  0.
         12    1    1    2    0    0 -0.24510318036E+02  0.23194433755E+02  0.29839176569E+02  0.45045686872E+02  0.00000000000E+00 0. -1.
         11    1    3    3    0    0  0.10779519111E+02 -0.12469004752E+02 -0.12208875831E+02  0.20511722529E+02  0.51100000000E-03 0. -1.
        -11    1    3    3    0    0  0.73623335251E+01 -0.83006773405E+01 -0.14142540191E+02  0.17975445545E+02  0.51100000000E-03 0.  1.
         12    1    3    3    0    0  0.63684653993E+01 -0.24247516621E+01 -0.34877605470E+01  0.76551450540E+01  0.00000000000E+00 0. -1.
</event>
<event>
 7    1  0.3852959E-009  0.4614232E+02  0.7816164E-02  0.1320468E+00
        -11   -1    0    0    0    0  0.00000000000E+00  0.00000000000E+00  0.45593999997E+02  0.45594000000E+02  0.51100000000E-03 0. -1.
         11   -1    0    0    0    0 -0.00000000000E+00 -0.00000000000E+00 -0.45593999997E+02  0.45594000000E+02  0.51100000000E-03 0.  1.
    9900012    2    1    2    0    0 -0.68512434384E+01 -0.96331570348E+01 -0.43466956234E+02  0.46142317239E+02  0.99999952393E+01 0.  0.
         12    1    1    2    0    0  0.68512434384E+01  0.96331570348E+01  0.43466956234E+02  0.45045682761E+02  0.00000000000E+00 0. -1.
         11    1    3    3    0    0  0.40141234746E+00 -0.24247959941E+01 -0.46758719542E+01  0.52824753931E+01  0.51100000000E-03 0. -1.
        -11    1    3    3    0    0 -0.55366470281E+01 -0.35418871368E+01 -0.11301339484E+02  0.13073626092E+02  0.51100000000E-03 0.  1.
        -12    1    3    3    0    0 -0.17160087578E+01 -0.36664739039E+01 -0.27489744797E+02  0.27786215754E+02  0.00000000000E+00 0.  1.
</event>
<event>
 7    1  0.3766050E-009  0.4614232E+02  0.7816164E-02  0.1320468E+00
        -11   -1    0    0    0    0  0.00000000000E+00  0.00000000000E+00  0.45593999997E+02  0.45594000000E+02  0.51100000000E-03 0. -1.
         11   -1    0    0    0    0 -0.00000000000E+00 -0.00000000000E+00 -0.45593999997E+02  0.45594000000E+02  0.51100000000E-03 0.  1.
    9900012    2    1    2    0    0 -0.34888723181E+02 -0.72495172489E+01 -0.27556032370E+02  0.46142318459E+02  0.10000006361E+02 0.  0.
         12    1    1    2    0    0  0.34888723181E+02  0.72495172489E+01  0.27556032370E+02  0.45045681541E+02  0.00000000000E+00 0. -1.
         11    1    3    3    0    0 -0.14491224985E+01  0.10927151084E+01 -0.20677012493E+00  0.18266736078E+01  0.51100000000E-03 0. -1.
        -11    1    3    3    0    0 -0.25195246613E+02 -0.64966271712E+01 -0.17588402143E+02  0.31406345007E+02  0.51100000000E-03 0.  1.
        -12    1    3    3    0    0 -0.82443540693E+01 -0.18456051860E+01 -0.97608601022E+01  0.12909299844E+02  0.00000000000E+00 0.  1.
</event>
<event>
 7    1  0.3766050E-009  0.4614232E+02  0.7816164E-02  0.1320468E+00
        -11   -1    0    0    0    0  0.00000000000E+00  0.00000000000E+00  0.45593999997E+02  0.45594000000E+02  0.51100000000E-03 0. -1.
         11   -1    0    0    0    0 -0.00000000000E+00 -0.00000000000E+00 -0.45593999997E+02  0.45594000000E+02  0.51100000000E-03 0.  1.
    9900012    2    1    2    0    0  0.11687963779E+02 -0.38411790366E+02 -0.20421542156E+02  0.46142317405E+02  0.99999967537E+01 0.  0.
         12    1    1    2    0    0 -0.11687963779E+02  0.38411790366E+02  0.20421542156E+02  0.45045682595E+02  0.00000000000E+00 0. -1.
         11    1    3    3    0    0  0.61701167228E+01 -0.27418685018E+02 -0.17623159893E+02  0.33172735693E+02  0.51100000000E-03 0. -1.
        -11    1    3    3    0    0  0.22432519489E+01 -0.48565364854E+01  0.29371715469E+00  0.53576483618E+01  0.51100000000E-03 0.  1.
        -12    1    3    3    0    0  0.32745951073E+01 -0.61365688620E+01 -0.30920994184E+01  0.76119333502E+01  0.00000000000E+00 0.  1.
</event>
<event>
 7    1  0.3766050E-009  0.4614232E+02  0.7816164E-02  0.1320468E+00
        -11   -1    0    0    0    0  0.00000000000E+00  0.00000000000E+00  0.45593999997E+02  0.45594000000E+02  0.51100000000E-03 0. -1.
         11   -1    0    0    0    0 -0.00000000000E+00 -0.00000000000E+00 -0.45593999997E+02  0.45594000000E+02  0.51100000000E-03 0.  1.
    9900012    2    1    2    0    0  0.48126352376E+01 -0.14291807264E+02  0.42446394203E+02  0.46142316593E+02  0.99999893458E+01 0.  0.
        -12    1    1    2    0    0 -0.48126352376E+01  0.14291807264E+02 -0.42446394203E+02  0.45045683407E+02  0.00000000000E+00 0.  1.
         11    1    3    3    0    0  0.10085078314E+01 -0.53662798084E+01  0.18096307977E+02  0.18902127121E+02  0.51100000000E-03 0. -1.
        -11    1    3    3    0    0  0.51649099041E+01 -0.66756256710E+01  0.12371824098E+02  0.14976725416E+02  0.51100000000E-03 0.  1.
        -12    1    3    3    0    0 -0.13607824978E+01 -0.22499017849E+01  0.11978262128E+02  0.12263464056E+02  0.00000000000E+00 0.  1.
</event>
<event>
 7    1  0.3766050E-009  0.4614232E+02  0.7816164E-02  0.1320468E+00
        -11   -1    0    0    0    0  0.00000000000E+00  0.00000000000E+00  0.45593999997E+02  0.45594000000E+02  0.51100000000E-03 0. -1.
         11   -1    0    0    0    0 -0.00000000000E+00 -0.00000000000E+00 -0.45593999997E+02  0.45594000000E+02  0.51100000000E-03 0.  1.
    9900012    2    1    2    0    0 -0.18190127164E+02 -0.77829815629E+01  0.40467981879E+02  0.46142322232E+02  0.10000040769E+02 0.  0.
        -12    1    1    2    0    0  0.18190127164E+02  0.77829815629E+01 -0.40467981879E+02  0.45045677768E+02  0.00000000000E+00 0.  1.
         11    1    3    3    0    0 -0.14376593116E+02 -0.67937879669E+01  0.30220894675E+02  0.34148857371E+02  0.51100000000E-03 0. -1.
        -11    1    3    3    0    0 -0.25602467957E+01  0.82951464326E+00  0.17410478226E+01  0.32053402284E+01  0.51100000000E-03 0.  1.
         12    1    3    3    0    0 -0.12532872526E+01 -0.18187082392E+01  0.85060393810E+01  0.87881246320E+01  0.00000000000E+00 0. -1.
</event>
<event>
 7    1  0.3766050E-009  0.4614232E+02  0.7816164E-02  0.1320468E+00
        -11   -1    0    0    0    0  0.00000000000E+00  0.00000000000E+00  0.45593999997E+02  0.45594000000E+02  0.51100000000E-03 0.  1.
         11   -1    0    0    0    0 -0.00000000000E+00 -0.00000000000E+00 -0.45593999997E+02  0.45594000000E+02  0.51100000000E-03 0. -1.
    9900012    2    1    2    0    0 -0.26723796172E+02  0.29323266400E+02  0.21333032462E+02  0.46142317541E+02  0.99999979921E+01 0.  0.
        -12    1    1    2    0    0  0.26723796172E+02 -0.29323266400E+02 -0.21333032462E+02  0.45045682459E+02  0.00000000000E+00 0.  1.
         11    1    3    3    0    0 -0.37197558333E+01  0.68799477721E+01  0.39365478862E+01  0.87559507951E+01  0.51100000000E-03 0. -1.
        -11    1    3    3    0    0 -0.18748980033E+02  0.19161626311E+02  0.10859846583E+02  0.28924530130E+02  0.51100000000E-03 0.  1.
        -12    1    3    3    0    0 -0.42550603053E+01  0.32816923163E+01  0.65366379928E+01  0.84618366157E+01  0.00000000000E+00 0.  1.
</event>
<event>
 7    1  0.4495428E-009  0.4614232E+02  0.7816164E-02  0.1320468E+00
        -11   -1    0    0    0    0  0.00000000000E+00  0.00000000000E+00  0.45593999997E+02  0.45594000000E+02  0.51100000000E-03 0. -1.
         11   -1    0    0    0    0 -0.00000000000E+00 -0.00000000000E+00 -0.45593999997E+02  0.45594000000E+02  0.51100000000E-03 0.  1.
    9900012    2    1    2    0    0  0.13581327386E+02  0.23005780779E+02 -0.36268378014E+02  0.46142316005E+02  0.99999839836E+01 0.  0.
         12    1    1    2    0    0 -0.13581327386E+02 -0.23005780779E+02  0.36268378014E+02  0.45045683995E+02  0.00000000000E+00 0. -1.
         11    1    3    3    0    0  0.21474542245E-01 -0.78950327653E+00 -0.16174169602E+00  0.80618683751E+00  0.51100000000E-03 0. -1.
        -11    1    3    3    0    0  0.65289295722E+01  0.10742997811E+02 -0.17429057327E+02  0.21489787409E+02  0.51100000000E-03 0.  1.
         12    1    3    3    0    0  0.70309232716E+01  0.13052286245E+02 -0.18677578991E+02  0.23846341758E+02  0.00000000000E+00 0. -1.
</event>
<event>
 7    1  0.3766050E-009  0.4614232E+02  0.7816164E-02  0.1320468E+00
        -11   -1    0    0    0    0  0.00000000000E+00  0.00000000000E+00  0.45593999997E+02  0.45594000000E+02  0.51100000000E-03 0. -1.
         11   -1    0    0    0    0 -0.00000000000E+00 -0.00000000000E+00 -0.45593999997E+02  0.45594000000E+02  0.51100000000E-03 0.  1.
    9900012    2    1    2    0    0 -0.31129563633E+02  0.15515626445E+02  0.28623924578E+02  0.46142318140E+02  0.10000003459E+02 0.  0.
        -12    1    1    2    0    0  0.31129563633E+02 -0.15515626445E+02 -0.28623924578E+02  0.45045681860E+02  0.00000000000E+00 0.  1.
         11    1    3    3    0    0 -0.21542145384E+02  0.12482371425E+02  0.18956638958E+02  0.31292615503E+02  0.51100000000E-03 0. -1.
        -11    1    3    3    0    0 -0.74664778009E+01  0.41646833302E+01  0.88640378538E+01  0.12315195708E+02  0.51100000000E-03 0.  1.
        -12    1    3    3    0    0 -0.21209404474E+01 -0.11314283101E+01  0.80324776552E+00  0.25345069293E+01  0.00000000000E+00 0.  1.
</event>
<event>
 7    1  0.3766050E-009  0.4614232E+02  0.7816164E-02  0.1320468E+00
        -11   -1    0    0    0    0  0.00000000000E+00  0.00000000000E+00  0.45593999997E+02  0.45594000000E+02  0.51100000000E-03 0. -1.
         11   -1    0    0    0    0 -0.00000000000E+00 -0.00000000000E+00 -0.45593999997E+02  0.45594000000E+02  0.51100000000E-03 0.  1.
    9900012    2    1    2    0    0 -0.38659075628E+02  0.14198582236E+02  0.18248002705E+02  0.46142317980E+02  0.10000001993E+02 0.  0.
        -12    1    1    2    0    0  0.38659075628E+02 -0.14198582236E+02 -0.18248002705E+02  0.45045682020E+02  0.00000000000E+00 0.  1.
         11    1    3    3    0    0 -0.16483944755E+02  0.32437569212E+01  0.31396673313E+01  0.17090930485E+02  0.51100000000E-03 0. -1.
        -11    1    3    3    0    0 -0.13904222888E+02  0.75616010071E+01  0.10500682852E+02  0.18993934940E+02  0.51100000000E-03 0.  1.
         12    1    3    3    0    0 -0.82709079858E+01  0.33932243077E+01  0.46076525218E+01  0.10057452554E+02  0.00000000000E+00 0. -1.
</event>
<event>
 7    1  0.3766050E-009  0.4614232E+02  0.7816164E-02  0.1320468E+00
        -11   -1    0    0    0    0  0.00000000000E+00  0.00000000000E+00  0.45593999997E+02  0.45594000000E+02  0.51100000000E-03 0.  1.
         11   -1    0    0    0    0 -0.00000000000E+00 -0.00000000000E+00 -0.45593999997E+02  0.45594000000E+02  0.51100000000E-03 0. -1.
    9900012    2    1    2    0    0 -0.41811270503E+02  0.15926856525E+02  0.52217208311E+01  0.46142317984E+02  0.10000002034E+02 0.  0.
        -12    1    1    2    0    0  0.41811270503E+02 -0.15926856525E+02 -0.52217208311E+01  0.45045682016E+02  0.00000000000E+00 0.  1.
         11    1    3    3    0    0 -0.15476533600E+02  0.45826035137E+01  0.18974533922E+01  0.16251882256E+02  0.51100000000E-03 0. -1.
        -11    1    3    3    0    0 -0.18743388062E+01  0.19992373086E+01  0.24738604882E+01  0.36918940603E+01  0.51100000000E-03 0.  1.
        -12    1    3    3    0    0 -0.24460398097E+02  0.93450157026E+01  0.85040695074E+00  0.26198541668E+02  0.00000000000E+00 0.  1.
</event>
<event>
 7    1  0.3766050E-009  0.4614232E+02  0.7816164E-02  0.1320468E+00
        -11   -1    0    0    0    0  0.00000000000E+00  0.00000000000E+00  0.45593999997E+02  0.45594000000E+02  0.51100000000E-03 0. -1.
         11   -1    0    0    0    0 -0.00000000000E+00 -0.00000000000E+00 -0.45593999997E+02  0.45594000000E+02  0.51100000000E-03 0.  1.
    9900012    2    1    2    0    0 -0.23340819279E+02 -0.49281034199E+01  0.38210385506E+02  0.46142316428E+02  0.99999878454E+01 0.  0.
        -12    1    1    2    0    0  0.23340819279E+02  0.49281034199E+01 -0.38210385506E+02  0.45045683572E+02  0.00000000000E+00 0.  1.
         11    1    3    3    0    0 -0.44015543332E+01 -0.14508437656E+01  0.63848507309E+01  0.78895467105E+01  0.51100000000E-03 0. -1.
        -11    1    3    3    0    0 -0.69060646876E+00 -0.27852976872E+01  0.56426703339E+01  0.63304462133E+01  0.51100000000E-03 0.  1.
        -12    1    3    3    0    0 -0.18248658477E+02 -0.69196196711E+00  0.26182864441E+02  0.31922323504E+02  0.00000000000E+00 0.  1.
</event>
<event>
 7    1  0.3766050E-009  0.4614232E+02  0.7816164E-02  0.1320468E+00
        -11   -1    0    0    0    0  0.00000000000E+00  0.00000000000E+00  0.45593999997E+02  0.45594000000E+02  0.51100000000E-03 0. -1.
         11   -1    0    0    0    0 -0.00000000000E+00 -0.00000000000E+00 -0.45593999997E+02  0.45594000000E+02  0.51100000000E-03 0.  1.
    9900012    2    1    2    0    0  0.27820223010E+02 -0.31766463869E+02  0.15685677669E+02  0.46142317421E+02  0.99999969027E+01 0.  0.
        -12    1    1    2    0    0 -0.27820223010E+02  0.31766463869E+02 -0.15685677669E+02  0.45045682579E+02  0.00000000000E+00 0.  1.
         11    1    3    3    0    0  0.13257360077E+01  0.25303165274E+00  0.24452817905E+00  0.13716396287E+01  0.51100000000E-03 0. -1.
        -11    1    3    3    0    0  0.18614985210E+01 -0.26094128354E+01  0.31309729522E+01  0.44807593082E+01  0.51100000000E-03 0.  1.
         12    1    3    3    0    0  0.24632988481E+02 -0.29410082686E+02  0.12310176538E+02  0.40289918485E+02  0.00000000000E+00 0. -1.
</event>
<event>
 7    1  0.3766050E-009  0.4614232E+02  0.7816164E-02  0.1320468E+00
        -11   -1    0    0    0    0  0.00000000000E+00  0.00000000000E+00  0.45593999997E+02  0.45594000000E+02  0.51100000000E-03 0. -1.
         11   -1    0    0    0    0 -0.00000000000E+00 -0.00000000000E+00 -0.45593999997E+02  0.45594000000E+02  0.51100000000E-03 0.  1.
    9900012    2    1    2    0    0 -0.84115637917E+01 -0.90575135273E+01 -0.43316516303E+02  0.46142317173E+02  0.99999946336E+01 0.  0.
         12    1    1    2    0    0  0.84115637917E+01  0.90575135273E+01  0.43316516303E+02  0.45045682827E+02  0.00000000000E+00 0. -1.
         11    1    3    3    0    0 -0.10211787451E+01 -0.11205229770E+01 -0.53884733649E+00  0.16089544694E+01  0.51100000000E-03 0.  1.
        -11    1    3    3    0    0 -0.57984367558E+01 -0.18536382347E+01 -0.21698253384E+02  0.22536016589E+02  0.51100000000E-03 0. -1.
        -12    1    3    3    0    0 -0.15919482908E+01 -0.60833523157E+01 -0.21079415583E+02  0.21997346114E+02  0.00000000000E+00 0.  1.
</event>
<event>
 7    1  0.3766050E-009  0.4614232E+02  0.7816164E-02  0.1320468E+00
        -11   -1    0    0    0    0  0.00000000000E+00  0.00000000000E+00  0.45593999997E+02  0.45594000000E+02  0.51100000000E-03 0. -1.
         11   -1    0    0    0    0 -0.00000000000E+00 -0.00000000000E+00 -0.45593999997E+02  0.45594000000E+02  0.51100000000E-03 0.  1.
    9900012    2    1    2    0    0 -0.58444114847E+01  0.78631134502E+01 -0.43967349641E+02  0.46142317264E+02  0.99999954654E+01 0.  0.
         12    1    1    2    0    0  0.58444114847E+01 -0.78631134502E+01  0.43967349641E+02  0.45045682736E+02  0.00000000000E+00 0. -1.
         11    1    3    3    0    0 -0.43958969891E+01  0.34512181217E+01 -0.10196340340E+02  0.11627560941E+02  0.51100000000E-03 0. -1.
        -11    1    3    3    0    0 -0.16811847873E+01  0.51435486146E+01 -0.19903128393E+02  0.20625639256E+02  0.51100000000E-03 0.  1.
        -12    1    3    3    0    0  0.23267029178E+00 -0.73165328610E+00 -0.13867880908E+02  0.13889117066E+02  0.00000000000E+00 0.  1.
</event>
<event>
 7    1  0.3766050E-009  0.4614232E+02  0.7816164E-02  0.1320468E+00
        -11   -1    0    0    0    0  0.00000000000E+00  0.00000000000E+00  0.45593999997E+02  0.45594000000E+02  0.51100000000E-03 0. -1.
         11   -1    0    0    0    0 -0.00000000000E+00 -0.00000000000E+00 -0.45593999997E+02  0.45594000000E+02  0.51100000000E-03 0.  1.
    9900012    2    1    2    0    0 -0.38520157084E+02 -0.86514660641E+01 -0.21690156767E+02  0.46142320213E+02  0.10000022362E+02 0.  0.
         12    1    1    2    0    0  0.38520157084E+02  0.86514660641E+01  0.21690156767E+02  0.45045679787E+02  0.00000000000E+00 0. -1.
         11    1    3    3    0    0 -0.25323902244E+02 -0.38539056774E+01 -0.11948154124E+02  0.28265013728E+02  0.51100000000E-03 0. -1.
        -11    1    3    3    0    0 -0.51836230216E+01 -0.12632060560E+01 -0.67905805351E+01  0.86358335692E+01  0.51100000000E-03 0.  1.
        -12    1    3    3    0    0 -0.80126318187E+01 -0.35343543307E+01 -0.29514221079E+01  0.92414729159E+01  0.00000000000E+00 0.  1.
</event>
<event>
 7    1  0.3766050E-009  0.4614232E+02  0.7816164E-02  0.1320468E+00
        -11   -1    0    0    0    0  0.00000000000E+00  0.00000000000E+00  0.45593999997E+02  0.45594000000E+02  0.51100000000E-03 0. -1.
         11   -1    0    0    0    0 -0.00000000000E+00 -0.00000000000E+00 -0.45593999997E+02  0.45594000000E+02  0.51100000000E-03 0.  1.
    9900012    2    1    2    0    0 -0.11340746682E+02 -0.29760381334E+02 -0.31856249663E+02  0.46142317909E+02  0.10000001348E+02 0.  0.
         12    1    1    2    0    0  0.11340746682E+02  0.29760381334E+02  0.31856249663E+02  0.45045682091E+02  0.00000000000E+00 0. -1.
         11    1    3    3    0    0 -0.47322980573E+01 -0.15281825448E+02 -0.10929944112E+02  0.19375048709E+02  0.51100000000E-03 0. -1.
        -11    1    3    3    0    0 -0.18677282851E-01 -0.40112304956E+01 -0.30973766329E+01  0.50679444745E+01  0.51100000000E-03 0.  1.
         12    1    3    3    0    0 -0.65897713421E+01 -0.10467325391E+02 -0.17828928918E+02  0.21699324725E+02  0.00000000000E+00 0. -1.
</event>
<event>
 7    1  0.3766050E-009  0.4614232E+02  0.7816164E-02  0.1320468E+00
        -11   -1    0    0    0    0  0.00000000000E+00  0.00000000000E+00  0.45593999997E+02  0.45594000000E+02  0.51100000000E-03 0. -1.
         11   -1    0    0    0    0 -0.00000000000E+00 -0.00000000000E+00 -0.45593999997E+02  0.45594000000E+02  0.51100000000E-03 0.  1.
    9900012    2    1    2    0    0 -0.15655364983E+02 -0.12265773944E+02  0.40417493791E+02  0.46142317993E+02  0.10000002111E+02 0.  0.
        -12    1    1    2    0    0  0.15655364983E+02  0.12265773944E+02 -0.40417493791E+02  0.45045682007E+02  0.00000000000E+00 0.  1.
         11    1    3    3    0    0 -0.51507190803E+00 -0.21063413019E+00  0.23662094942E+01  0.24307639619E+01  0.51100000000E-03 0. -1.
        -11    1    3    3    0    0  0.76182538464E+00 -0.39778932028E+00  0.61425037134E+01  0.62023355593E+01  0.51100000000E-03 0.  1.
        -12    1    3    3    0    0 -0.15902118459E+02 -0.11657350493E+02  0.31908780583E+02  0.37509218471E+02  0.00000000000E+00 0.  1.
</event>
<event>
 7    1  0.3766050E-009  0.4614232E+02  0.7816164E-02  0.1320468E+00
        -11   -1    0    0    0    0  0.00000000000E+00  0.00000000000E+00  0.45593999997E+02  0.45594000000E+02  0.51100000000E-03 0. -1.
         11   -1    0    0    0    0 -0.00000000000E+00 -0.00000000000E+00 -0.45593999997E+02  0.45594000000E+02  0.51100000000E-03 0.  1.
    9900012    2    1    2    0    0  0.56584384246E+01  0.11792495855E+02 -0.43104901215E+02  0.46142318823E+02  0.10000009687E+02 0.  0.
         12    1    1    2    0    0 -0.56584384246E+01 -0.11792495855E+02  0.43104901215E+02  0.45045681177E+02  0.00000000000E+00 0. -1.
         11    1    3    3    0    0 -0.12517247890E+01 -0.83964322765E+00 -0.51760076189E+01  0.53909990566E+01  0.51100000000E-03 0. -1.
        -11    1    3    3    0    0  0.64176108463E+01  0.11330912501E+02 -0.30045709801E+02  0.32746297268E+02  0.51100000000E-03 0.  1.
        -12    1    3    3    0    0  0.49255236729E+00  0.13012265818E+01 -0.78831837952E+01  0.80050224984E+01  0.00000000000E+00 0.  1.
</event>
<event>
 7    1  0.3766050E-009  0.4614232E+02  0.7816164E-02  0.1320468E+00
        -11   -1    0    0    0    0  0.00000000000E+00  0.00000000000E+00  0.45593999997E+02  0.45594000000E+02  0.51100000000E-03 0. -1.
         11   -1    0    0    0    0 -0.00000000000E+00 -0.00000000000E+00 -0.45593999997E+02  0.45594000000E+02  0.51100000000E-03 0.  1.
    9900012    2    1    2    0    0  0.17847037284E+02 -0.32312913049E+02  0.25816126604E+02  0.46142317828E+02  0.10000000607E+02 0.  0.
        -12    1    1    2    0    0 -0.17847037284E+02  0.32312913049E+02 -0.25816126604E+02  0.45045682172E+02  0.00000000000E+00 0.  1.
         11    1    3    3    0    0  0.12689844964E+02 -0.21467945084E+02  0.17019235203E+02  0.30192038661E+02  0.51100000000E-03 0. -1.
        -11    1    3    3    0    0  0.19792417575E+01 -0.45447825088E+01  0.71567777374E+01  0.87058551464E+01  0.51100000000E-03 0.  1.
        -12    1    3    3    0    0  0.31779505620E+01 -0.63001854557E+01  0.16401136636E+01  0.72444240199E+01  0.00000000000E+00 0.  1.
</event>
<event>
 7    1  0.3766050E-009  0.4614232E+02  0.7816164E-02  0.1320468E+00
        -11   -1    0    0    0    0  0.00000000000E+00  0.00000000000E+00  0.45593999997E+02  0.45594000000E+02  0.51100000000E-03 0.  1.
         11   -1    0    0    0    0 -0.00000000000E+00 -0.00000000000E+00 -0.45593999997E+02  0.45594000000E+02  0.51100000000E-03 0. -1.
    9900012    2    1    2    0    0 -0.41762052924E+02 -0.12590561406E+01  0.16836245177E+02  0.46142318315E+02  0.10000005052E+02 0.  0.
         12    1    1    2    0    0  0.41762052924E+02  0.12590561406E+01 -0.16836245177E+02  0.45045681685E+02  0.00000000000E+00 0. -1.
         11    1    3    3    0    0 -0.23074757334E+01 -0.14727402988E+01  0.24419130412E+01  0.36682894937E+01  0.51100000000E-03 0. -1.
        -11    1    3    3    0    0 -0.22126254475E+02  0.86467885058E+00  0.48044412606E+01  0.22658364078E+02  0.51100000000E-03 0.  1.
        -12    1    3    3    0    0 -0.17328322716E+02 -0.65099469243E+00  0.95898908748E+01  0.19815664743E+02  0.00000000000E+00 0.  1.
</event>
<event>
 7    1  0.3766050E-009  0.4614232E+02  0.7816164E-02  0.1320468E+00
        -11   -1    0    0    0    0  0.00000000000E+00  0.00000000000E+00  0.45593999997E+02  0.45594000000E+02  0.51100000000E-03 0. -1.
         11   -1    0    0    0    0 -0.00000000000E+00 -0.00000000000E+00 -0.45593999997E+02  0.45594000000E+02  0.51100000000E-03 0.  1.
    9900012    2    1    2    0    0 -0.26228913935E+02 -0.53151318969E+00  0.36617958645E+02  0.46142319543E+02  0.10000016251E+02 0.  0.
        -12    1    1    2    0    0  0.26228913935E+02  0.53151318969E+00 -0.36617958645E+02  0.45045680457E+02  0.00000000000E+00 0.  1.
         11    1    3    3    0    0 -0.53176783968E+01  0.27825050808E+01  0.12074341442E+02  0.13483684940E+02  0.51100000000E-03 0. -1.
        -11    1    3    3    0    0 -0.15932750019E+02 -0.33579913156E+01  0.16376801017E+02  0.23093900507E+02  0.51100000000E-03 0.  1.
         12    1    3    3    0    0 -0.49784855194E+01  0.43973045093E-01  0.81668161866E+01  0.95647340957E+01  0.00000000000E+00 0. -1.
</event>
<event>
 7    1  0.3766050E-009  0.4614232E+02  0.7816164E-02  0.1320468E+00
        -11   -1    0    0    0    0  0.00000000000E+00  0.00000000000E+00  0.45593999997E+02  0.45594000000E+02  0.51100000000E-03 0. -1.
         11   -1    0    0    0    0 -0.00000000000E+00 -0.00000000000E+00 -0.45593999997E+02  0.45594000000E+02  0.51100000000E-03 0.  1.
    9900012    2    1    2    0    0 -0.35437593954E+01 -0.31667036230E+02  0.31839505419E+02  0.46142317415E+02  0.99999968423E+01 0.  0.
        -12    1    1    2    0    0  0.35437593954E+01  0.31667036230E+02 -0.31839505419E+02  0.45045682585E+02  0.00000000000E+00 0.  1.
         11    1    3    3    0    0 -0.27274055038E+01 -0.18256823944E+02  0.16321900037E+02  0.24640511001E+02  0.51100000000E-03 0. -1.
        -11    1    3    3    0    0  0.21876468990E+01 -0.40554753162E+01  0.75807854095E+01  0.88713576571E+01  0.51100000000E-03 0.  1.
        -12    1    3    3    0    0 -0.30040007906E+01 -0.93547369703E+01  0.79368199725E+01  0.12630448757E+02  0.00000000000E+00 0.  1.
</event>
<event>
 7    1  0.3766050E-009  0.4614232E+02  0.7816164E-02  0.1320468E+00
        -11   -1    0    0    0    0  0.00000000000E+00  0.00000000000E+00  0.45593999997E+02  0.45594000000E+02  0.51100000000E-03 0. -1.
         11   -1    0    0    0    0 -0.00000000000E+00 -0.00000000000E+00 -0.45593999997E+02  0.45594000000E+02  0.51100000000E-03 0.  1.
    9900012    2    1    2    0    0  0.33530308058E+02 -0.37130990184E+01  0.29850371827E+02  0.46142319175E+02  0.10000012892E+02 0.  0.
        -12    1    1    2    0    0 -0.33530308058E+02  0.37130990184E+01 -0.29850371827E+02  0.45045680825E+02  0.00000000000E+00 0.  1.
         11    1    3    3    0    0  0.41755548641E+01 -0.26353590898E+01  0.46759544675E+01  0.68003622255E+01  0.51100000000E-03 0. -1.
        -11    1    3    3    0    0  0.81931784888E+01 -0.24531760139E+01  0.42496150995E+01  0.95501557609E+01  0.51100000000E-03 0.  1.
         12    1    3    3    0    0  0.21161574705E+02  0.13754360853E+01  0.20924802260E+02  0.29791801188E+02  0.00000000000E+00 0. -1.
</event>
<event>
 7    1  0.3766050E-009  0.4614232E+02  0.7816164E-02  0.1320468E+00
        -11   -1    0    0    0    0  0.00000000000E+00  0.00000000000E+00  0.45593999997E+02  0.45594000000E+02  0.51100000000E-03 0. -1.
         11   -1    0    0    0    0 -0.00000000000E+00 -0.00000000000E+00 -0.45593999997E+02  0.45594000000E+02  0.51100000000E-03 0.  1.
    9900012    2    1    2    0    0  0.20724421645E+02 -0.19322718752E+02  0.35017771878E+02  0.46142318079E+02  0.10000002896E+02 0.  0.
        -12    1    1    2    0    0 -0.20724421645E+02  0.19322718752E+02 -0.35017771878E+02  0.45045681921E+02  0.00000000000E+00 0.  1.
         11    1    3    3    0    0  0.88748191306E+01 -0.65870203141E+01  0.12362382611E+02  0.16582513540E+02  0.51100000000E-03 0. -1.
        -11    1    3    3    0    0  0.12565904441E+02 -0.97381251293E+01  0.19280749277E+02  0.24989604407E+02  0.51100000000E-03 0.  1.
        -12    1    3    3    0    0 -0.71630192649E+00 -0.29975733082E+01  0.33746399900E+01  0.45702001324E+01  0.00000000000E+00 0.  1.
</event>
<event>
 7    1  0.3766050E-009  0.4614232E+02  0.7816164E-02  0.1320468E+00
        -11   -1    0    0    0    0  0.00000000000E+00  0.00000000000E+00  0.45593999997E+02  0.45594000000E+02  0.51100000000E-03 0. -1.
         11   -1    0    0    0    0 -0.00000000000E+00 -0.00000000000E+00 -0.45593999997E+02  0.45594000000E+02  0.51100000000E-03 0.  1.
    9900012    2    1    2    0    0 -0.15122169053E+02  0.12518404334E+02  0.40542855289E+02  0.46142316978E+02  0.99999928584E+01 0.  0.
        -12    1    1    2    0    0  0.15122169053E+02 -0.12518404334E+02 -0.40542855289E+02  0.45045683022E+02  0.00000000000E+00 0.  1.
         11    1    3    3    0    0 -0.31657834144E+01  0.44293315876E+01  0.98933694619E+01  0.11292471940E+02  0.51100000000E-03 0. -1.
        -11    1    3    3    0    0 -0.81201799974E+01  0.85156545193E+01  0.27343281090E+02  0.29767578271E+02  0.51100000000E-03 0.  1.
        -12    1    3    3    0    0 -0.38362056408E+01 -0.42658177338E+00  0.33062047372E+01  0.50822667671E+01  0.00000000000E+00 0.  1.
</event>
<event>
 7    1  0.3766050E-009  0.4614232E+02  0.7816164E-02  0.1320468E+00
        -11   -1    0    0    0    0  0.00000000000E+00  0.00000000000E+00  0.45593999997E+02  0.45594000000E+02  0.51100000000E-03 0. -1.
         11   -1    0    0    0    0 -0.00000000000E+00 -0.00000000000E+00 -0.45593999997E+02  0.45594000000E+02  0.51100000000E-03 0.  1.
    9900012    2    1    2    0    0  0.20118309890E+02 -0.22772493034E+02  0.33253281493E+02  0.46142316945E+02  0.99999925594E+01 0.  0.
        -12    1    1    2    0    0 -0.20118309890E+02  0.22772493034E+02 -0.33253281493E+02  0.45045683055E+02  0.00000000000E+00 0.  1.
         11    1    3    3    0    0  0.67318779196E+01 -0.37261931659E+01  0.49007221086E+01  0.91224872311E+01  0.51100000000E-03 0. -1.
        -11    1    3    3    0    0  0.69823918656E+01 -0.11912567366E+02  0.13285944683E+02  0.19161925367E+02  0.51100000000E-03 0.  1.
        -12    1    3    3    0    0  0.64040401046E+01 -0.71337325018E+01  0.15066614702E+02  0.17857904347E+02  0.00000000000E+00 0.  1.
</event>
<event>
 7    1  0.3766050E-009  0.4614232E+02  0.7816164E-02  0.1320468E+00
        -11   -1    0    0    0    0  0.00000000000E+00  0.00000000000E+00  0.45593999997E+02  0.45594000000E+02  0.51100000000E-03 0. -1.
         11   -1    0    0    0    0 -0.00000000000E+00 -0.00000000000E+00 -0.45593999997E+02  0.45594000000E+02  0.51100000000E-03 0.  1.
    9900012    2    1    2    0    0 -0.42728125514E+01 -0.25945217491E+02 -0.36574610696E+02  0.46142318905E+02  0.10000010431E+02 0.  0.
         12    1    1    2    0    0  0.42728125514E+01  0.25945217491E+02  0.36574610696E+02  0.45045681095E+02  0.00000000000E+00 0. -1.
         11    1    3    3    0    0 -0.12905291489E+01 -0.36355406462E+01 -0.19531862969E+01  0.43240673267E+01  0.51100000000E-03 0. -1.
        -11    1    3    3    0    0 -0.35547869773E+01 -0.97391091678E+01 -0.20000278601E+02  0.22527714092E+02  0.51100000000E-03 0.  1.
         12    1    3    3    0    0  0.57250357483E+00 -0.12570567677E+02 -0.14621145798E+02  0.19290537486E+02  0.00000000000E+00 0. -1.
</event>
<event>
 7    1  0.3766050E-009  0.4614231E+02  0.7816164E-02  0.1320468E+00
        -11   -1    0    0    0    0  0.00000000000E+00  0.00000000000E+00  0.45593999997E+02  0.45594000000E+02  0.51100000000E-03 0. -1.
         11   -1    0    0    0    0 -0.00000000000E+00 -0.00000000000E+00 -0.45593999997E+02  0.45594000000E+02  0.51100000000E-03 0.  1.
    9900012    2    1    2    0    0  0.37863411420E+02  0.74155557022E+01 -0.23248356117E+02  0.46142307055E+02  0.99999023703E+01 0.  0.
         12    1    1    2    0    0 -0.37863411420E+02 -0.74155557022E+01  0.23248356117E+02  0.45045692945E+02  0.00000000000E+00 0. -1.
         11    1    3    3    0    0  0.16778260447E+02  0.69634595581E+01 -0.97394608859E+01  0.20612056939E+02  0.51100000000E-03 0. -1.
        -11    1    3    3    0    0  0.92210619870E+01  0.14219748683E+01 -0.84798344303E+01  0.12607838392E+02  0.51100000000E-03 0.  1.
         12    1    3    3    0    0  0.11864088987E+02 -0.96987872418E+00 -0.50290608012E+01  0.12922411724E+02  0.00000000000E+00 0. -1.
</event>
<event>
 7    1  0.3766050E-009  0.4614232E+02  0.7816164E-02  0.1320468E+00
        -11   -1    0    0    0    0  0.00000000000E+00  0.00000000000E+00  0.45593999997E+02  0.45594000000E+02  0.51100000000E-03 0. -1.
         11   -1    0    0    0    0 -0.00000000000E+00 -0.00000000000E+00 -0.45593999997E+02  0.45594000000E+02  0.51100000000E-03 0.  1.
    9900012    2    1    2    0    0  0.17706672320E+02 -0.17920455252E+02 -0.37342261381E+02  0.46142318230E+02  0.10000004272E+02 0.  0.
         12    1    1    2    0    0 -0.17706672320E+02  0.17920455252E+02  0.37342261381E+02  0.45045681770E+02  0.00000000000E+00 0. -1.
         11    1    3    3    0    0  0.56627145479E+01 -0.14742207874E+01 -0.44987608406E+01  0.73809560588E+01  0.51100000000E-03 0. -1.
        -11    1    3    3    0    0  0.10315817836E+02 -0.14680979249E+02 -0.27013315433E+02  0.32429407338E+02  0.51100000000E-03 0.  1.
        -12    1    3    3    0    0  0.17281399359E+01 -0.17652552157E+01 -0.58301851080E+01  0.63319548331E+01  0.00000000000E+00 0.  1.
</event>
<event>
 7    1  0.3766050E-009  0.4614232E+02  0.7816164E-02  0.1320468E+00
        -11   -1    0    0    0    0  0.00000000000E+00  0.00000000000E+00  0.45593999997E+02  0.45594000000E+02  0.51100000000E-03 0. -1.
         11   -1    0    0    0    0 -0.00000000000E+00 -0.00000000000E+00 -0.45593999997E+02  0.45594000000E+02  0.51100000000E-03 0.  1.
    9900012    2    1    2    0    0  0.28949014336E+02 -0.66415581394E+01  0.33866764480E+02  0.46142318055E+02  0.10000002682E+02 0.  0.
        -12    1    1    2    0    0 -0.28949014336E+02  0.66415581394E+01 -0.33866764480E+02  0.45045681945E+02  0.00000000000E+00 0.  1.
         11    1    3    3    0    0  0.32052640568E+01  0.17288937242E+01  0.29341603500E+01  0.46767604604E+01  0.51100000000E-03 0. -1.
        -11    1    3    3    0    0  0.33038485638E+01 -0.23706813857E+00  0.65785917595E+01  0.73654250682E+01  0.51100000000E-03 0.  1.
         12    1    3    3    0    0  0.22439901716E+02 -0.81333837250E+01  0.24354012370E+02  0.34100132527E+02  0.00000000000E+00 0. -1.
</event>
<event>
 7    1  0.3766050E-009  0.4614232E+02  0.7816164E-02  0.1320468E+00
        -11   -1    0    0    0    0  0.00000000000E+00  0.00000000000E+00  0.45593999997E+02  0.45594000000E+02  0.51100000000E-03 0. -1.
         11   -1    0    0    0    0 -0.00000000000E+00 -0.00000000000E+00 -0.45593999997E+02  0.45594000000E+02  0.51100000000E-03 0.  1.
    9900012    2    1    2    0    0  0.43836269621E+02 -0.35238687414E+01  0.97507584025E+01  0.46142317914E+02  0.10000001394E+02 0.  0.
        -12    1    1    2    0    0 -0.43836269621E+02  0.35238687414E+01 -0.97507584025E+01  0.45045682086E+02  0.00000000000E+00 0.  1.
         11    1    3    3    0    0  0.82892675401E+01 -0.20108019596E+01  0.35767247711E+00  0.85371664347E+01  0.51100000000E-03 0. -1.
        -11    1    3    3    0    0  0.91060546595E+01  0.11552154041E+01  0.56214156710E+01  0.10763599235E+02  0.51100000000E-03 0.  1.
        -12    1    3    3    0    0  0.26440947421E+02 -0.26682821858E+01  0.37716702544E+01  0.26841552244E+02  0.00000000000E+00 0.  1.
</event>
<event>
 7    1  0.3766050E-009  0.4614232E+02  0.7816164E-02  0.1320468E+00
        -11   -1    0    0    0    0  0.00000000000E+00  0.00000000000E+00  0.45593999997E+02  0.45594000000E+02  0.51100000000E-03 0. -1.
         11   -1    0    0    0    0 -0.00000000000E+00 -0.00000000000E+00 -0.45593999997E+02  0.45594000000E+02  0.51100000000E-03 0.  1.
    9900012    2    1    2    0    0 -0.34731843877E+01  0.35838733889E+02  0.27067242269E+02  0.46142318069E+02  0.10000002810E+02 0.  0.
        -12    1    1    2    0    0  0.34731843877E+01 -0.35838733889E+02 -0.27067242269E+02  0.45045681931E+02  0.00000000000E+00 0.  1.
         11    1    3    3    0    0  0.11062183101E+01  0.22186698904E+02  0.16947552380E+02  0.27940881503E+02  0.51100000000E-03 0. -1.
        -11    1    3    3    0    0 -0.15231909269E+01  0.47498361879E+01  0.98317242746E+00  0.50840616337E+01  0.51100000000E-03 0.  1.
         12    1    3    3    0    0 -0.30562117709E+01  0.89021987970E+01  0.91365174613E+01  0.13117374933E+02  0.00000000000E+00 0. -1.
</event>
<event>
 7    1  0.3766050E-009  0.4614232E+02  0.7816164E-02  0.1320468E+00
        -11   -1    0    0    0    0  0.00000000000E+00  0.00000000000E+00  0.45593999997E+02  0.45594000000E+02  0.51100000000E-03 0. -1.
         11   -1    0    0    0    0 -0.00000000000E+00 -0.00000000000E+00 -0.45593999997E+02  0.45594000000E+02  0.51100000000E-03 0.  1.
    9900012    2    1    2    0    0 -0.44810088412E+01  0.17545354377E+02 -0.41245540038E+02  0.46142317926E+02  0.10000001508E+02 0.  0.
         12    1    1    2    0    0  0.44810088412E+01 -0.17545354377E+02  0.41245540038E+02  0.45045682074E+02  0.00000000000E+00 0. -1.
         11    1    3    3    0    0 -0.98633381272E+00  0.59247838989E+00 -0.46493510751E+00  0.12409874890E+01  0.51100000000E-03 0. -1.
        -11    1    3    3    0    0 -0.26127373839E+01  0.15942400323E+02 -0.40395179388E+02  0.43505827687E+02  0.51100000000E-03 0.  1.
        -12    1    3    3    0    0 -0.88193764453E+00  0.10104756642E+01 -0.38542554213E+00  0.13955027500E+01  0.00000000000E+00 0.  1.
</event>
<event>
 7    1  0.3766050E-009  0.4614232E+02  0.7816164E-02  0.1320468E+00
        -11   -1    0    0    0    0  0.00000000000E+00  0.00000000000E+00  0.45593999997E+02  0.45594000000E+02  0.51100000000E-03 0. -1.
         11   -1    0    0    0    0 -0.00000000000E+00 -0.00000000000E+00 -0.45593999997E+02  0.45594000000E+02  0.51100000000E-03 0.  1.
    9900012    2    1    2    0    0  0.18089512201E+02  0.31213617964E+02  0.26973933081E+02  0.46142318032E+02  0.10000002474E+02 0.  0.
        -12    1    1    2    0    0 -0.18089512201E+02 -0.31213617964E+02 -0.26973933081E+02  0.45045681968E+02  0.00000000000E+00 0.  1.
         11    1    3    3    0    0  0.94119022722E+00  0.39904118488E+01  0.37832452243E+01  0.55787248055E+01  0.51100000000E-03 0. -1.
        -11    1    3    3    0    0  0.11293183076E+02  0.11292473371E+02  0.83700891202E+01  0.18030927069E+02  0.51100000000E-03 0.  1.
        -12    1    3    3    0    0  0.58551388975E+01  0.15930732743E+02  0.14820598737E+02  0.22532666158E+02  0.00000000000E+00 0.  1.
</event>
<event>
 7    1  0.3766050E-009  0.4614232E+02  0.7816164E-02  0.1320468E+00
        -11   -1    0    0    0    0  0.00000000000E+00  0.00000000000E+00  0.45593999997E+02  0.45594000000E+02  0.51100000000E-03 0. -1.
         11   -1    0    0    0    0 -0.00000000000E+00 -0.00000000000E+00 -0.45593999997E+02  0.45594000000E+02  0.51100000000E-03 0.  1.
    9900012    2    1    2    0    0  0.31194893183E+02  0.25201016808E+02  0.20515867729E+02  0.46142318325E+02  0.10000005141E+02 0.  0.
        -12    1    1    2    0    0 -0.31194893183E+02 -0.25201016808E+02 -0.20515867729E+02  0.45045681675E+02  0.00000000000E+00 0.  1.
         11    1    3    3    0    0  0.84283365137E+00  0.58904744330E+00  0.27181337846E+01  0.29061309307E+01  0.51100000000E-03 0. -1.
        -11    1    3    3    0    0  0.16077925031E+01  0.29998589867E+01  0.10257420515E+01  0.35547570508E+01  0.51100000000E-03 0.  1.
         12    1    3    3    0    0  0.28744267029E+02  0.21612110378E+02  0.16771991893E+02  0.39681430343E+02  0.00000000000E+00 0. -1.
</event>
<event>
 7    1  0.3766050E-009  0.4614232E+02  0.7816164E-02  0.1320468E+00
        -11   -1    0    0    0    0  0.00000000000E+00  0.00000000000E+00  0.45593999997E+02  0.45594000000E+02  0.51100000000E-03 0. -1.
         11   -1    0    0    0    0 -0.00000000000E+00 -0.00000000000E+00 -0.45593999997E+02  0.45594000000E+02  0.51100000000E-03 0.  1.
    9900012    2    1    2    0    0  0.45543582342E+01  0.26223102209E+02 -0.36341714337E+02  0.46142317972E+02  0.10000001923E+02 0.  0.
         12    1    1    2    0    0 -0.45543582342E+01 -0.26223102209E+02  0.36341714337E+02  0.45045682028E+02  0.00000000000E+00 0. -1.
         11    1    3    3    0    0  0.58834252747E+01  0.12646187999E+02 -0.18917112477E+02  0.23503146781E+02  0.51100000000E-03 0.  1.
        -11    1    3    3    0    0 -0.14916745087E+01  0.20358106331E+01 -0.54576177162E+01  0.60129201867E+01  0.51100000000E-03 0. -1.
        -12    1    3    3    0    0  0.16260746810E+00  0.11541103577E+02 -0.11966984144E+02  0.16626251004E+02  0.00000000000E+00 0.  1.
</event>
<event>
 7    1  0.3766050E-009  0.4614232E+02  0.7816164E-02  0.1320468E+00
        -11   -1    0    0    0    0  0.00000000000E+00  0.00000000000E+00  0.45593999997E+02  0.45594000000E+02  0.51100000000E-03 0. -1.
         11   -1    0    0    0    0 -0.00000000000E+00 -0.00000000000E+00 -0.45593999997E+02  0.45594000000E+02  0.51100000000E-03 0.  1.
    9900012    2    1    2    0    0  0.21530587084E+02  0.16671690858E+02  0.35883171865E+02  0.46142317862E+02  0.10000000917E+02 0.  0.
        -12    1    1    2    0    0 -0.21530587084E+02 -0.16671690858E+02 -0.35883171865E+02  0.45045682138E+02  0.00000000000E+00 0.  1.
         11    1    3    3    0    0  0.95424792130E+00  0.31944877007E+01  0.17367482747E+01  0.37592067775E+01  0.51100000000E-03 0. -1.
        -11    1    3    3    0    0  0.20336314342E+02  0.13724291858E+02  0.32609772727E+02  0.40808322014E+02  0.51100000000E-03 0.  1.
        -12    1    3    3    0    0  0.24002482038E+00 -0.24708870124E+00  0.15366508633E+01  0.15747890704E+01  0.00000000000E+00 0.  1.
</event>
<event>
 7    1  0.3766050E-009  0.4614232E+02  0.7816164E-02  0.1320468E+00
        -11   -1    0    0    0    0  0.00000000000E+00  0.00000000000E+00  0.45593999997E+02  0.45594000000E+02  0.51100000000E-03 0. -1.
         11   -1    0    0    0    0 -0.00000000000E+00 -0.00000000000E+00 -0.45593999997E+02  0.45594000000E+02  0.51100000000E-03 0.  1.
    9900012    2    1    2    0    0 -0.23532551160E+02 -0.38343524312E+02 -0.22597876570E+01  0.46142318065E+02  0.10000002768E+02 0.  0.
         12    1    1    2    0    0  0.23532551160E+02  0.38343524312E+02  0.22597876570E+01  0.45045681935E+02  0.00000000000E+00 0. -1.
         11    1    3    3    0    0 -0.16953614413E+01 -0.66900283642E+01 -0.11130810392E+01  0.69906852018E+01  0.51100000000E-03 0. -1.
        -11    1    3    3    0    0 -0.21148450496E+02 -0.29816858669E+02 -0.26921099715E+01  0.36654460515E+02  0.51100000000E-03 0.  1.
        -12    1    3    3    0    0 -0.68873922334E+00 -0.18366372783E+01  0.15454033537E+01  0.24971723479E+01  0.00000000000E+00 0.  1.
</event>
<event>
 7    1  0.3766050E-009  0.4614232E+02  0.7816164E-02  0.1320468E+00
        -11   -1    0    0    0    0  0.00000000000E+00  0.00000000000E+00  0.45593999997E+02  0.45594000000E+02  0.51100000000E-03 0. -1.
         11   -1    0    0    0    0 -0.00000000000E+00 -0.00000000000E+00 -0.45593999997E+02  0.45594000000E+02  0.51100000000E-03 0.  1.
    9900012    2    1    2    0    0 -0.17597739775E+02 -0.26574845783E+02 -0.31830969345E+02  0.46142317820E+02  0.10000000540E+02 0.  0.
         12    1    1    2    0    0  0.17597739775E+02  0.26574845783E+02  0.31830969345E+02  0.45045682180E+02  0.00000000000E+00 0. -1.
         11    1    3    3    0    0 -0.55819875361E+00 -0.10559085104E+01 -0.25784376599E+00  0.12218888246E+01  0.51100000000E-03 0. -1.
        -11    1    3    3    0    0 -0.15713168634E+02 -0.21217957396E+02 -0.30408461391E+02  0.40271328622E+02  0.51100000000E-03 0.  1.
        -12    1    3    3    0    0 -0.13263723876E+01 -0.43009798774E+01 -0.11646641885E+01  0.46491003741E+01  0.00000000000E+00 0.  1.
</event>
<event>
 7    1  0.3766050E-009  0.4614232E+02  0.7816164E-02  0.1320468E+00
        -11   -1    0    0    0    0  0.00000000000E+00  0.00000000000E+00  0.45593999997E+02  0.45594000000E+02  0.51100000000E-03 0. -1.
         11   -1    0    0    0    0 -0.00000000000E+00 -0.00000000000E+00 -0.45593999997E+02  0.45594000000E+02  0.51100000000E-03 0.  1.
    9900012    2    1    2    0    0 -0.20406262140E+02  0.36246248603E+02 -0.17288939013E+02  0.46142317804E+02  0.10000000387E+02 0.  0.
         12    1    1    2    0    0  0.20406262140E+02 -0.36246248603E+02  0.17288939013E+02  0.45045682196E+02  0.00000000000E+00 0. -1.
         11    1    3    3    0    0 -0.65987215672E+01  0.63077154457E+01 -0.92335486973E+00  0.91751286063E+01  0.51100000000E-03 0. -1.
        -11    1    3    3    0    0 -0.52641666223E+01  0.12651078211E+02 -0.86074493413E+01  0.16181761788E+02  0.51100000000E-03 0.  1.
         12    1    3    3    0    0 -0.85433739506E+01  0.17287454947E+02 -0.77581348020E+01  0.20785427410E+02  0.00000000000E+00 0. -1.
</event>
<event>
 7    1  0.3766050E-009  0.4614232E+02  0.7816164E-02  0.1320468E+00
        -11   -1    0    0    0    0  0.00000000000E+00  0.00000000000E+00  0.45593999997E+02  0.45594000000E+02  0.51100000000E-03 0. -1.
         11   -1    0    0    0    0 -0.00000000000E+00 -0.00000000000E+00 -0.45593999997E+02  0.45594000000E+02  0.51100000000E-03 0.  1.
    9900012    2    1    2    0    0  0.62987542877E+01 -0.22652194655E+02  0.38422871179E+02  0.46142320320E+02  0.10000023331E+02 0.  0.
        -12    1    1    2    0    0 -0.62987542877E+01  0.22652194655E+02 -0.38422871179E+02  0.45045679680E+02  0.00000000000E+00 0.  1.
         11    1    3    3    0    0  0.16687703411E+01 -0.35534288817E+00  0.55881792707E+01  0.58428427022E+01  0.51100000000E-03 0. -1.
        -11    1    3    3    0    0  0.47848810890E+01 -0.21481606792E+02  0.29164215221E+02  0.36536364996E+02  0.51100000000E-03 0.  1.
         12    1    3    3    0    0 -0.15489714237E+00 -0.81524497477E+00  0.36704766873E+01  0.37631126220E+01  0.00000000000E+00 0. -1.
</event>
<event>
 7    1  0.3766050E-009  0.4614232E+02  0.7816164E-02  0.1320468E+00
        -11   -1    0    0    0    0  0.00000000000E+00  0.00000000000E+00  0.45593999997E+02  0.45594000000E+02  0.51100000000E-03 0. -1.
         11   -1    0    0    0    0 -0.00000000000E+00 -0.00000000000E+00 -0.45593999997E+02  0.45594000000E+02  0.51100000000E-03 0.  1.
    9900012    2    1    2    0    0 -0.40500888271E+01 -0.35659380189E+02  0.27223497979E+02  0.46142318108E+02  0.10000003160E+02 0.  0.
        -12    1    1    2    0    0  0.40500888271E+01  0.35659380189E+02 -0.27223497979E+02  0.45045681892E+02  0.00000000000E+00 0.  1.
         11    1    3    3    0    0  0.62098830448E+00 -0.39284546570E+01  0.11867875477E+01  0.41505237514E+01  0.51100000000E-03 0. -1.
        -11    1    3    3    0    0 -0.55682280182E+01 -0.26850684697E+02  0.18918464347E+02  0.33314752370E+02  0.51100000000E-03 0.  1.
         12    1    3    3    0    0  0.89715088667E+00 -0.48802408347E+01  0.71182460843E+01  0.86770419865E+01  0.00000000000E+00 0. -1.
</event>
<event>
 7    1  0.3766050E-009  0.4614232E+02  0.7816164E-02  0.1320468E+00
        -11   -1    0    0    0    0  0.00000000000E+00  0.00000000000E+00  0.45593999997E+02  0.45594000000E+02  0.51100000000E-03 0. -1.
         11   -1    0    0    0    0 -0.00000000000E+00 -0.00000000000E+00 -0.45593999997E+02  0.45594000000E+02  0.51100000000E-03 0.  1.
    9900012    2    1    2    0    0  0.83552801526E+01  0.39126877485E+01  0.44090744456E+02  0.46142316760E+02  0.99999908710E+01 0.  0.
        -12    1    1    2    0    0 -0.83552801526E+01 -0.39126877485E+01 -0.44090744456E+02  0.45045683240E+02  0.00000000000E+00 0.  1.
         11    1    3    3    0    0  0.56314056935E+01  0.28786194943E+01  0.16858374378E+02  0.18005664864E+02  0.51100000000E-03 0. -1.
        -11    1    3    3    0    0  0.21115540780E+01 -0.24158248402E+01  0.86295095793E+01  0.92066989808E+01  0.51100000000E-03 0.  1.
         12    1    3    3    0    0  0.61232038120E+00  0.34498930944E+01  0.18602860499E+02  0.18929952915E+02  0.00000000000E+00 0. -1.
</event>
<event>
 7    1  0.3766050E-009  0.4614232E+02  0.7816164E-02  0.1320468E+00
        -11   -1    0    0    0    0  0.00000000000E+00  0.00000000000E+00  0.45593999997E+02  0.45594000000E+02  0.51100000000E-03 0. -1.
         11   -1    0    0    0    0 -0.00000000000E+00 -0.00000000000E+00 -0.45593999997E+02  0.45594000000E+02  0.51100000000E-03 0.  1.
    9900012    2    1    2    0    0  0.16530649223E+02 -0.26332795845E+02  0.32595014305E+02  0.46142318095E+02  0.10000003048E+02 0.  0.
        -12    1    1    2    0    0 -0.16530649223E+02  0.26332795845E+02 -0.32595014305E+02  0.45045681905E+02  0.00000000000E+00 0.  1.
         11    1    3    3    0    0  0.87211911042E+00 -0.88799637896E+01  0.10153201463E+02  0.13516724783E+02  0.51100000000E-03 0. -1.
        -11    1    3    3    0    0  0.11980186182E+02 -0.13957583897E+02  0.19280305129E+02  0.26647123209E+02  0.51100000000E-03 0.  1.
        -12    1    3    3    0    0  0.36783439310E+01 -0.34952481584E+01  0.31615077126E+01  0.59784701036E+01  0.00000000000E+00 0.  1.
</event>
<event>
 7    1  0.3766050E-009  0.4614232E+02  0.7816164E-02  0.1320468E+00
        -11   -1    0    0    0    0  0.00000000000E+00  0.00000000000E+00  0.45593999997E+02  0.45594000000E+02  0.51100000000E-03 0. -1.
         11   -1    0    0    0    0 -0.00000000000E+00 -0.00000000000E+00 -0.45593999997E+02  0.45594000000E+02  0.51100000000E-03 0.  1.
    9900012    2    1    2    0    0  0.19851107485E+02  0.68399556294E+01 -0.39853005098E+02  0.46142317890E+02  0.10000001172E+02 0.  0.
         12    1    1    2    0    0 -0.19851107485E+02 -0.68399556294E+01  0.39853005098E+02  0.45045682110E+02  0.00000000000E+00 0. -1.
         11    1    3    3    0    0  0.11056227433E+02  0.88224544060E+00 -0.13476916010E+02  0.17454105175E+02  0.51100000000E-03 0. -1.
        -11    1    3    3    0    0  0.85614199847E+01  0.63781128561E+01 -0.25888252982E+02  0.28003211932E+02  0.51100000000E-03 0.  1.
         12    1    3    3    0    0  0.23346006815E+00 -0.42040266730E+00 -0.48783610618E+00  0.68500078291E+00  0.00000000000E+00 0. -1.
</event>
<event>
 7    1  0.3766050E-009  0.4614232E+02  0.7816164E-02  0.1320468E+00
        -11   -1    0    0    0    0  0.00000000000E+00  0.00000000000E+00  0.45593999997E+02  0.45594000000E+02  0.51100000000E-03 0. -1.
         11   -1    0    0    0    0 -0.00000000000E+00 -0.00000000000E+00 -0.45593999997E+02  0.45594000000E+02  0.51100000000E-03 0.  1.
    9900012    2    1    2    0    0 -0.44933852031E+01 -0.61929376324E+01  0.44391106523E+02  0.46142319569E+02  0.10000016490E+02 0.  0.
        -12    1    1    2    0    0  0.44933852031E+01  0.61929376324E+01 -0.44391106523E+02  0.45045680431E+02  0.00000000000E+00 0.  1.
         11    1    3    3    0    0  0.55871715582E-01 -0.10721488846E+01  0.67682221738E+01  0.68528429527E+01  0.51100000000E-03 0. -1.
        -11    1    3    3    0    0 -0.46719406646E+01 -0.53370681787E+01  0.14273437818E+02  0.15938706150E+02  0.51100000000E-03 0.  1.
        -12    1    3    3    0    0  0.12268374594E+00  0.21627943088E+00  0.23349446531E+02  0.23350770467E+02  0.00000000000E+00 0.  1.
</event>
<event>
 7    1  0.3766050E-009  0.4614232E+02  0.7816164E-02  0.1320468E+00
        -11   -1    0    0    0    0  0.00000000000E+00  0.00000000000E+00  0.45593999997E+02  0.45594000000E+02  0.51100000000E-03 0. -1.
         11   -1    0    0    0    0 -0.00000000000E+00 -0.00000000000E+00 -0.45593999997E+02  0.45594000000E+02  0.51100000000E-03 0.  1.
    9900012    2    1    2    0    0  0.68586393698E+01  0.22564401600E+02 -0.38378645110E+02  0.46142317032E+02  0.99999933497E+01 0.  0.
         12    1    1    2    0    0 -0.68586393698E+01 -0.22564401600E+02  0.38378645110E+02  0.45045682968E+02  0.00000000000E+00 0. -1.
         11    1    3    3    0    0  0.17558865225E+01  0.15342907575E+02 -0.18435214115E+02  0.24048806001E+02  0.51100000000E-03 0. -1.
        -11    1    3    3    0    0  0.16098623778E+01  0.30369869429E+01 -0.11829250096E+02  0.12318526887E+02  0.51100000000E-03 0.  1.
         12    1    3    3    0    0  0.34928904694E+01  0.41845070817E+01 -0.81141808994E+01  0.97749841441E+01  0.00000000000E+00 0. -1.
</event>
<event>
 7    1  0.3766050E-009  0.4614232E+02  0.7816164E-02  0.1320468E+00
        -11   -1    0    0    0    0  0.00000000000E+00  0.00000000000E+00  0.45593999997E+02  0.45594000000E+02  0.51100000000E-03 0. -1.
         11   -1    0    0    0    0 -0.00000000000E+00 -0.00000000000E+00 -0.45593999997E+02  0.45594000000E+02  0.51100000000E-03 0.  1.
    9900012    2    1    2    0    0  0.24098396903E+02  0.32477694142E+02 -0.19838856096E+02  0.46142316952E+02  0.99999926204E+01 0.  0.
         12    1    1    2    0    0 -0.24098396903E+02 -0.32477694142E+02  0.19838856096E+02  0.45045683048E+02  0.00000000000E+00 0. -1.
         11    1    3    3    0    0  0.39848869055E+01  0.63087770311E+01 -0.26579354596E+00  0.74666349681E+01  0.51100000000E-03 0. -1.
        -11    1    3    3    0    0  0.90819608888E+01  0.12951772351E+02 -0.12061195630E+02  0.19892281440E+02  0.51100000000E-03 0.  1.
        -12    1    3    3    0    0  0.11031549109E+02  0.13217144760E+02 -0.75118669196E+01  0.18783400543E+02  0.00000000000E+00 0.  1.
</event>
<event>
 7    1  0.3766050E-009  0.4614233E+02  0.7816164E-02  0.1320468E+00
        -11   -1    0    0    0    0  0.00000000000E+00  0.00000000000E+00  0.45593999997E+02  0.45594000000E+02  0.51100000000E-03 0. -1.
         11   -1    0    0    0    0 -0.00000000000E+00 -0.00000000000E+00 -0.45593999997E+02  0.45594000000E+02  0.51100000000E-03 0.  1.
    9900012    2    1    2    0    0 -0.27578193360E+01  0.25457421457E+02  0.37059774281E+02  0.46142326018E+02  0.10000075295E+02 0.  0.
        -12    1    1    2    0    0  0.27578193360E+01 -0.25457421457E+02 -0.37059774281E+02  0.45045673982E+02  0.00000000000E+00 0.  1.
         11    1    3    3    0    0 -0.17911046088E+00  0.82577274682E+01  0.71865794997E+01  0.10948473348E+02  0.51100000000E-03 0. -1.
        -11    1    3    3    0    0 -0.34834664571E+00  0.39479983580E+01  0.24616543090E+01  0.46655952052E+01  0.51100000000E-03 0.  1.
         12    1    3    3    0    0 -0.22303622294E+01  0.13251695630E+02  0.27411540472E+02  0.30528257465E+02  0.00000000000E+00 0. -1.
</event>
<event>
 7    1  0.3766050E-009  0.4614232E+02  0.7816164E-02  0.1320468E+00
        -11   -1    0    0    0    0  0.00000000000E+00  0.00000000000E+00  0.45593999997E+02  0.45594000000E+02  0.51100000000E-03 0. -1.
         11   -1    0    0    0    0 -0.00000000000E+00 -0.00000000000E+00 -0.45593999997E+02  0.45594000000E+02  0.51100000000E-03 0.  1.
    9900012    2    1    2    0    0 -0.74213355830E+01  0.25859290412E+02 -0.36129410546E+02  0.46142318421E+02  0.10000006020E+02 0.  0.
         12    1    1    2    0    0  0.74213355830E+01 -0.25859290412E+02  0.36129410546E+02  0.45045681579E+02  0.00000000000E+00 0. -1.
         11    1    3    3    0    0 -0.44976856117E+01  0.21128029743E+02 -0.31410615952E+02  0.38121511138E+02  0.51100000000E-03 0.  1.
        -11    1    3    3    0    0 -0.14034738558E+01  0.21304669026E+00 -0.22290895946E+01  0.26427198940E+01  0.51100000000E-03 0. -1.
         12    1    3    3    0    0 -0.15201761155E+01  0.45182139791E+01 -0.24897049993E+01  0.53780873893E+01  0.00000000000E+00 0. -1.
</event>
<event>
 7    1  0.3766050E-009  0.4614232E+02  0.7816164E-02  0.1320468E+00
        -11   -1    0    0    0    0  0.00000000000E+00  0.00000000000E+00  0.45593999997E+02  0.45594000000E+02  0.51100000000E-03 0. -1.
         11   -1    0    0    0    0 -0.00000000000E+00 -0.00000000000E+00 -0.45593999997E+02  0.45594000000E+02  0.51100000000E-03 0.  1.
    9900012    2    1    2    0    0 -0.22216741139E+02 -0.20535895117E+02  0.33373746567E+02  0.46142317243E+02  0.99999952788E+01 0.  0.
        -12    1    1    2    0    0  0.22216741139E+02  0.20535895117E+02 -0.33373746567E+02  0.45045682757E+02  0.00000000000E+00 0.  1.
         11    1    3    3    0    0 -0.39104850878E+01 -0.86322634762E+01  0.99405681789E+01  0.13734000230E+02  0.51100000000E-03 0. -1.
        -11    1    3    3    0    0 -0.17924919576E+02 -0.12101240299E+02  0.21755172488E+02  0.30676216990E+02  0.51100000000E-03 0.  1.
        -12    1    3    3    0    0 -0.38133647529E+00  0.19760865805E+00  0.16780059004E+01  0.17321000233E+01  0.00000000000E+00 0.  1.
</event>
<event>
 7    1  0.3766050E-009  0.4614232E+02  0.7816164E-02  0.1320468E+00
        -11   -1    0    0    0    0  0.00000000000E+00  0.00000000000E+00  0.45593999997E+02  0.45594000000E+02  0.51100000000E-03 0. -1.
         11   -1    0    0    0    0 -0.00000000000E+00 -0.00000000000E+00 -0.45593999997E+02  0.45594000000E+02  0.51100000000E-03 0.  1.
    9900012    2    1    2    0    0 -0.24851757215E+02  0.30232242857E+02 -0.22305046973E+02  0.46142318017E+02  0.10000002336E+02 0.  0.
         12    1    1    2    0    0  0.24851757215E+02 -0.30232242857E+02  0.22305046973E+02  0.45045681983E+02  0.00000000000E+00 0. -1.
         11    1    3    3    0    0 -0.87805751782E+01  0.90306550517E+01 -0.10060760487E+02  0.16120487987E+02  0.51100000000E-03 0.  1.
        -11    1    3    3    0    0 -0.46720058691E+01  0.11573055181E+02 -0.51839510350E+01  0.13514310698E+02  0.51100000000E-03 0. -1.
        -12    1    3    3    0    0 -0.11399176167E+02  0.96285326249E+01 -0.70603354512E+01  0.16507519332E+02  0.00000000000E+00 0.  1.
</event>
<event>
 7    1  0.3766050E-009  0.4614232E+02  0.7816164E-02  0.1320468E+00
        -11   -1    0    0    0    0  0.00000000000E+00  0.00000000000E+00  0.45593999997E+02  0.45594000000E+02  0.51100000000E-03 0. -1.
         11   -1    0    0    0    0 -0.00000000000E+00 -0.00000000000E+00 -0.45593999997E+02  0.45594000000E+02  0.51100000000E-03 0.  1.
    9900012    2    1    2    0    0 -0.36337257715E+02 -0.51101582283E+01  0.26126684157E+02  0.46142316074E+02  0.99999846132E+01 0.  0.
        -12    1    1    2    0    0  0.36337257715E+02  0.51101582283E+01 -0.26126684157E+02  0.45045683926E+02  0.00000000000E+00 0.  1.
         11    1    3    3    0    0 -0.27497588998E+02 -0.31862834929E+01  0.14823574252E+02  0.31400766822E+02  0.51100000000E-03 0. -1.
        -11    1    3    3    0    0 -0.89487553900E+00 -0.11788166371E+01  0.19188653713E+01  0.24233149751E+01  0.51100000000E-03 0.  1.
         12    1    3    3    0    0 -0.79447931783E+01 -0.74505809839E+00  0.93842445337E+01  0.12318234276E+02  0.00000000000E+00 0. -1.
</event>
<event>
 7    1  0.3766050E-009  0.4614232E+02  0.7816164E-02  0.1320468E+00
        -11   -1    0    0    0    0  0.00000000000E+00  0.00000000000E+00  0.45593999997E+02  0.45594000000E+02  0.51100000000E-03 0. -1.
         11   -1    0    0    0    0 -0.00000000000E+00 -0.00000000000E+00 -0.45593999997E+02  0.45594000000E+02  0.51100000000E-03 0.  1.
    9900012    2    1    2    0    0 -0.42085738925E+01 -0.30986693805E+02 -0.32422618169E+02  0.46142318119E+02  0.10000003263E+02 0.  0.
         12    1    1    2    0    0  0.42085738925E+01  0.30986693805E+02  0.32422618169E+02  0.45045681881E+02  0.00000000000E+00 0. -1.
         11    1    3    3    0    0 -0.16145663960E+01 -0.11901412821E+02 -0.74961407141E+01  0.14157774460E+02  0.51100000000E-03 0. -1.
        -11    1    3    3    0    0 -0.27286903471E+01 -0.40175926123E+01 -0.76354088597E+01  0.90491032773E+01  0.51100000000E-03 0.  1.
        -12    1    3    3    0    0  0.13468285059E+00 -0.15067688372E+02 -0.17291068596E+02  0.22935440382E+02  0.00000000000E+00 0.  1.
</event>
<event>
 7    1  0.3766050E-009  0.4614232E+02  0.7816164E-02  0.1320468E+00
        -11   -1    0    0    0    0  0.00000000000E+00  0.00000000000E+00  0.45593999997E+02  0.45594000000E+02  0.51100000000E-03 0. -1.
         11   -1    0    0    0    0 -0.00000000000E+00 -0.00000000000E+00 -0.45593999997E+02  0.45594000000E+02  0.51100000000E-03 0.  1.
    9900012    2    1    2    0    0  0.62607798609E+01 -0.19385467386E+02 -0.40176110595E+02  0.46142316824E+02  0.99999914541E+01 0.  0.
         12    1    1    2    0    0 -0.62607798609E+01  0.19385467386E+02  0.40176110595E+02  0.45045683176E+02  0.00000000000E+00 0. -1.
         11    1    3    3    0    0 -0.12949136544E+01 -0.27503381341E+00 -0.19279664944E+01  0.23386962256E+01  0.51100000000E-03 0. -1.
        -11    1    3    3    0    0  0.54754409504E+01 -0.13834314740E+02 -0.21701775189E+02  0.26312274029E+02  0.51100000000E-03 0.  1.
        -12    1    3    3    0    0  0.20802525650E+01 -0.52761188329E+01 -0.16546368911E+02  0.17491346570E+02  0.00000000000E+00 0.  1.
</event>
<event>
 7    1  0.3766050E-009  0.4614232E+02  0.7816164E-02  0.1320468E+00
        -11   -1    0    0    0    0  0.00000000000E+00  0.00000000000E+00  0.45593999997E+02  0.45594000000E+02  0.51100000000E-03 0. -1.
         11   -1    0    0    0    0 -0.00000000000E+00 -0.00000000000E+00 -0.45593999997E+02  0.45594000000E+02  0.51100000000E-03 0.  1.
    9900012    2    1    2    0    0 -0.17668124436E+02 -0.23366094595E+02  0.34219530257E+02  0.46142320421E+02  0.10000024256E+02 0.  0.
        -12    1    1    2    0    0  0.17668124436E+02  0.23366094595E+02 -0.34219530257E+02  0.45045679579E+02  0.00000000000E+00 0.  1.
         11    1    3    3    0    0 -0.48395151916E+01 -0.13135009841E+02  0.19109270793E+02  0.23687836991E+02  0.51100000000E-03 0. -1.
        -11    1    3    3    0    0 -0.10757560461E+02 -0.72348271765E+01  0.11979402575E+02  0.17651456531E+02  0.51100000000E-03 0.  1.
         12    1    3    3    0    0 -0.20710487829E+01 -0.29962575776E+01  0.31308568886E+01  0.48030268987E+01  0.00000000000E+00 0. -1.
</event>
<event>
 7    1  0.3766050E-009  0.4614232E+02  0.7816164E-02  0.1320468E+00
        -11   -1    0    0    0    0  0.00000000000E+00  0.00000000000E+00  0.45593999997E+02  0.45594000000E+02  0.51100000000E-03 0. -1.
         11   -1    0    0    0    0 -0.00000000000E+00 -0.00000000000E+00 -0.45593999997E+02  0.45594000000E+02  0.51100000000E-03 0.  1.
    9900012    2    1    2    0    0 -0.29409013859E+02 -0.40826669396E+01  0.33875587029E+02  0.46142315834E+02  0.99999824235E+01 0.  0.
        -12    1    1    2    0    0  0.29409013859E+02  0.40826669396E+01 -0.33875587029E+02  0.45045684166E+02  0.00000000000E+00 0.  1.
         11    1    3    3    0    0 -0.12923128743E+02 -0.51565011687E+01  0.15108666563E+02  0.20539439291E+02  0.51100000000E-03 0. -1.
        -11    1    3    3    0    0 -0.15953556303E+02  0.59599965095E+00  0.15474214396E+02  0.22233364247E+02  0.51100000000E-03 0.  1.
         12    1    3    3    0    0 -0.53232881196E+00  0.47783457813E+00  0.32927060694E+01  0.33695122952E+01  0.00000000000E+00 0. -1.
</event>
<event>
 7    1  0.3766050E-009  0.4614232E+02  0.7816164E-02  0.1320468E+00
        -11   -1    0    0    0    0  0.00000000000E+00  0.00000000000E+00  0.45593999997E+02  0.45594000000E+02  0.51100000000E-03 0. -1.
         11   -1    0    0    0    0 -0.00000000000E+00 -0.00000000000E+00 -0.45593999997E+02  0.45594000000E+02  0.51100000000E-03 0.  1.
    9900012    2    1    2    0    0  0.22927864400E+02 -0.37069866854E+02  0.11368884027E+02  0.46142317426E+02  0.99999969447E+01 0.  0.
        -12    1    1    2    0    0 -0.22927864400E+02  0.37069866854E+02 -0.11368884027E+02  0.45045682574E+02  0.00000000000E+00 0.  1.
         11    1    3    3    0    0  0.41907165026E+01 -0.12281452654E+02  0.59192048177E+01  0.14263000036E+02  0.51100000000E-03 0. -1.
        -11    1    3    3    0    0  0.79508729753E+01 -0.10789034245E+02  0.57837517925E-01  0.13402350034E+02  0.51100000000E-03 0.  1.
         12    1    3    3    0    0  0.10786274922E+02 -0.13999379956E+02  0.53918416914E+01  0.18476967356E+02  0.00000000000E+00 0. -1.
</event>
<event>
 7    1  0.3766050E-009  0.4614231E+02  0.7816164E-02  0.1320468E+00
        -11   -1    0    0    0    0  0.00000000000E+00  0.00000000000E+00  0.45593999997E+02  0.45594000000E+02  0.51100000000E-03 0. -1.
         11   -1    0    0    0    0 -0.00000000000E+00 -0.00000000000E+00 -0.45593999997E+02  0.45594000000E+02  0.51100000000E-03 0.  1.
    9900012    2    1    2    0    0  0.21256780075E+02 -0.30001628061E+02  0.26022401692E+02  0.46142314576E+02  0.99999709599E+01 0.  0.
        -12    1    1    2    0    0 -0.21256780075E+02  0.30001628061E+02 -0.26022401692E+02  0.45045685424E+02  0.00000000000E+00 0.  1.
         11    1    3    3    0    0  0.79141095408E+01 -0.19148752218E+02  0.15485274089E+02  0.25866997414E+02  0.51100000000E-03 0. -1.
        -11    1    3    3    0    0  0.80537906459E+01 -0.76693841684E+01  0.62209225031E+01  0.12742953910E+02  0.51100000000E-03 0.  1.
         12    1    3    3    0    0  0.52888798880E+01 -0.31834916744E+01  0.43162050995E+01  0.75323632528E+01  0.00000000000E+00 0. -1.
</event>
<event>
 7    1  0.3766050E-009  0.4614232E+02  0.7816164E-02  0.1320468E+00
        -11   -1    0    0    0    0  0.00000000000E+00  0.00000000000E+00  0.45593999997E+02  0.45594000000E+02  0.51100000000E-03 0. -1.
         11   -1    0    0    0    0 -0.00000000000E+00 -0.00000000000E+00 -0.45593999997E+02  0.45594000000E+02  0.51100000000E-03 0.  1.
    9900012    2    1    2    0    0 -0.20348919980E+01  0.26940081184E+01  0.44918980455E+02  0.46142320182E+02  0.10000022076E+02 0.  0.
        -12    1    1    2    0    0  0.20348919980E+01 -0.26940081184E+01 -0.44918980455E+02  0.45045679818E+02  0.00000000000E+00 0.  1.
         11    1    3    3    0    0  0.16656672183E+01  0.18836150156E+01  0.30142787661E+01  0.39253445135E+01  0.51100000000E-03 0.  1.
        -11    1    3    3    0    0 -0.34691014730E+01  0.12074631614E+01  0.21820324066E+02  0.22127339988E+02  0.51100000000E-03 0. -1.
         12    1    3    3    0    0 -0.23145774330E+00 -0.39707005857E+00  0.20084377622E+02  0.20089635681E+02  0.00000000000E+00 0. -1.
</event>
<event>
 7    1  0.3766050E-009  0.4614232E+02  0.7816164E-02  0.1320468E+00
        -11   -1    0    0    0    0  0.00000000000E+00  0.00000000000E+00  0.45593999997E+02  0.45594000000E+02  0.51100000000E-03 0. -1.
         11   -1    0    0    0    0 -0.00000000000E+00 -0.00000000000E+00 -0.45593999997E+02  0.45594000000E+02  0.51100000000E-03 0.  1.
    9900012    2    1    2    0    0  0.11791342961E+02 -0.33873995770E+02 -0.27251240238E+02  0.46142318156E+02  0.10000003604E+02 0.  0.
         12    1    1    2    0    0 -0.11791342961E+02  0.33873995770E+02  0.27251240238E+02  0.45045681844E+02  0.00000000000E+00 0. -1.
         11    1    3    3    0    0  0.27067027820E+01 -0.89621037120E+01 -0.12568819045E+02  0.15672292600E+02  0.51100000000E-03 0. -1.
        -11    1    3    3    0    0  0.24958940885E+01 -0.11347304038E+02 -0.62906724598E+01  0.13212242675E+02  0.51100000000E-03 0.  1.
         12    1    3    3    0    0  0.65887460903E+01 -0.13564588020E+02 -0.83917487333E+01  0.17257782882E+02  0.00000000000E+00 0. -1.
</event>
<event>
 7    1  0.3766050E-009  0.4614232E+02  0.7816164E-02  0.1320468E+00
        -11   -1    0    0    0    0  0.00000000000E+00  0.00000000000E+00  0.45593999997E+02  0.45594000000E+02  0.51100000000E-03 0. -1.
         11   -1    0    0    0    0 -0.00000000000E+00 -0.00000000000E+00 -0.45593999997E+02  0.45594000000E+02  0.51100000000E-03 0.  1.
    9900012    2    1    2    0    0  0.24166900140E+02 -0.26575956556E+02  0.27180746423E+02  0.46142317573E+02  0.99999982805E+01 0.  0.
        -12    1    1    2    0    0 -0.24166900140E+02  0.26575956556E+02 -0.27180746423E+02  0.45045682427E+02  0.00000000000E+00 0.  1.
         11    1    3    3    0    0  0.55277148249E+00 -0.26196805226E+01  0.10662070464E+01  0.28818535840E+01  0.51100000000E-03 0. -1.
        -11    1    3    3    0    0  0.11147780612E+02 -0.77439077905E+01  0.70219828346E+01  0.15282321932E+02  0.51100000000E-03 0.  1.
         12    1    3    3    0    0  0.12466348045E+02 -0.16212368243E+02  0.19092556542E+02  0.27978142057E+02  0.00000000000E+00 0. -1.
</event>
<event>
 7    1  0.3766050E-009  0.4614233E+02  0.7816164E-02  0.1320468E+00
        -11   -1    0    0    0    0  0.00000000000E+00  0.00000000000E+00  0.45593999997E+02  0.45594000000E+02  0.51100000000E-03 0. -1.
         11   -1    0    0    0    0 -0.00000000000E+00 -0.00000000000E+00 -0.45593999997E+02  0.45594000000E+02  0.51100000000E-03 0.  1.
    9900012    2    1    2    0    0 -0.55018501952E+01 -0.40678888854E+02  0.18549132461E+02  0.46142326855E+02  0.10000082929E+02 0.  0.
        -12    1    1    2    0    0  0.55018501952E+01  0.40678888854E+02 -0.18549132461E+02  0.45045673145E+02  0.00000000000E+00 0.  1.
         11    1    3    3    0    0 -0.40201747518E+01 -0.27077965442E+02  0.13424165917E+02  0.30489116883E+02  0.51100000000E-03 0. -1.
        -11    1    3    3    0    0 -0.20264809143E+00  0.24136326940E+00 -0.55346659028E+00  0.63690501997E+00  0.51100000000E-03 0.  1.
         12    1    3    3    0    0 -0.12790273519E+01 -0.13842286682E+02  0.56784331345E+01  0.15016304952E+02  0.00000000000E+00 0. -1.
</event>
<event>
 7    1  0.3766050E-009  0.4614232E+02  0.7816164E-02  0.1320468E+00
        -11   -1    0    0    0    0  0.00000000000E+00  0.00000000000E+00  0.45593999997E+02  0.45594000000E+02  0.51100000000E-03 0. -1.
         11   -1    0    0    0    0 -0.00000000000E+00 -0.00000000000E+00 -0.45593999997E+02  0.45594000000E+02  0.51100000000E-03 0.  1.
    9900012    2    1    2    0    0 -0.22255076323E+02 -0.43754449904E+01  0.38918897760E+02  0.46142317145E+02  0.99999943823E+01 0.  0.
        -12    1    1    2    0    0  0.22255076323E+02  0.43754449904E+01 -0.38918897760E+02  0.45045682855E+02  0.00000000000E+00 0.  1.
         11    1    3    3    0    0 -0.18848993436E+01 -0.88610227330E+00  0.15718537394E+01  0.26093576247E+01  0.51100000000E-03 0. -1.
        -11    1    3    3    0    0 -0.14464702132E+02 -0.37986238085E+00  0.31481808532E+02  0.34647888419E+02  0.51100000000E-03 0.  1.
        -12    1    3    3    0    0 -0.59054748475E+01 -0.31094803363E+01  0.58652354886E+01  0.88850711012E+01  0.00000000000E+00 0.  1.
</event>
<event>
 7    1  0.3766050E-009  0.4614232E+02  0.7816164E-02  0.1320468E+00
        -11   -1    0    0    0    0  0.00000000000E+00  0.00000000000E+00  0.45593999997E+02  0.45594000000E+02  0.51100000000E-03 0. -1.
         11   -1    0    0    0    0 -0.00000000000E+00 -0.00000000000E+00 -0.45593999997E+02  0.45594000000E+02  0.51100000000E-03 0.  1.
    9900012    2    1    2    0    0 -0.10409573574E+02 -0.36207124742E+02  0.24694097891E+02  0.46142316802E+02  0.99999912575E+01 0.  0.
        -12    1    1    2    0    0  0.10409573574E+02  0.36207124742E+02 -0.24694097891E+02  0.45045683198E+02  0.00000000000E+00 0.  1.
         11    1    3    3    0    0 -0.13638666602E+01 -0.13929903287E+02  0.10698992493E+02  0.17617343116E+02  0.51100000000E-03 0. -1.
        -11    1    3    3    0    0 -0.82947182941E+01 -0.12694050483E+02  0.96659892159E+01  0.17982564251E+02  0.51100000000E-03 0.  1.
        -12    1    3    3    0    0 -0.75098861987E+00 -0.95831709719E+01  0.43291161825E+01  0.10542409435E+02  0.00000000000E+00 0.  1.
</event>
<event>
 7    1  0.3766050E-009  0.4614232E+02  0.7816164E-02  0.1320468E+00
        -11   -1    0    0    0    0  0.00000000000E+00  0.00000000000E+00  0.45593999997E+02  0.45594000000E+02  0.51100000000E-03 0.  1.
         11   -1    0    0    0    0 -0.00000000000E+00 -0.00000000000E+00 -0.45593999997E+02  0.45594000000E+02  0.51100000000E-03 0. -1.
    9900012    2    1    2    0    0  0.41960777212E+02 -0.63992184148E+00  0.16370621335E+02  0.46142316888E+02  0.99999920342E+01 0.  0.
        -12    1    1    2    0    0 -0.41960777212E+02  0.63992184148E+00 -0.16370621335E+02  0.45045683112E+02  0.00000000000E+00 0.  1.
         11    1    3    3    0    0  0.56600067817E+01  0.68141313243E+00  0.50353103763E+01  0.76062048008E+01  0.51100000000E-03 0. -1.
        -11    1    3    3    0    0  0.36022186702E+02 -0.96176519065E+00  0.10415653640E+02  0.37510115544E+02  0.51100000000E-03 0.  1.
        -12    1    3    3    0    0  0.27858372793E+00 -0.35956978325E+00  0.91965731880E+00  0.10259965431E+01  0.00000000000E+00 0.  1.
</event>
<event>
 7    1  0.3766050E-009  0.4614232E+02  0.7816164E-02  0.1320468E+00
        -11   -1    0    0    0    0  0.00000000000E+00  0.00000000000E+00  0.45593999997E+02  0.45594000000E+02  0.51100000000E-03 0. -1.
         11   -1    0    0    0    0 -0.00000000000E+00 -0.00000000000E+00 -0.45593999997E+02  0.45594000000E+02  0.51100000000E-03 0.  1.
    9900012    2    1    2    0    0  0.57214853848E+01 -0.16827364857E+02  0.41391036322E+02  0.46142317733E+02  0.99999997472E+01 0.  0.
        -12    1    1    2    0    0 -0.57214853848E+01  0.16827364857E+02 -0.41391036322E+02  0.45045682267E+02  0.00000000000E+00 0.  1.
         11    1    3    3    0    0  0.29543340302E+01 -0.12374764393E+02  0.24218002483E+02  0.27356434853E+02  0.51100000000E-03 0. -1.
        -11    1    3    3    0    0  0.39181269487E+01 -0.43010714085E+01  0.16372956430E+02  0.17375978723E+02  0.51100000000E-03 0.  1.
         12    1    3    3    0    0 -0.11509755941E+01 -0.15152905572E+00  0.80007740876E+00  0.14099041574E+01  0.00000000000E+00 0. -1.
</event>
<event>
 7    1  0.3766050E-009  0.4614232E+02  0.7816164E-02  0.1320468E+00
        -11   -1    0    0    0    0  0.00000000000E+00  0.00000000000E+00  0.45593999997E+02  0.45594000000E+02  0.51100000000E-03 0. -1.
         11   -1    0    0    0    0 -0.00000000000E+00 -0.00000000000E+00 -0.45593999997E+02  0.45594000000E+02  0.51100000000E-03 0.  1.
    9900012    2    1    2    0    0  0.15158866681E+01  0.20528161604E+02 -0.40067571601E+02  0.46142316242E+02  0.99999861482E+01 0.  0.
         12    1    1    2    0    0 -0.15158866681E+01 -0.20528161604E+02  0.40067571601E+02  0.45045683758E+02  0.00000000000E+00 0. -1.
         11    1    3    3    0    0 -0.42946724985E+00  0.42380726265E+01 -0.15218074978E+02  0.15803022116E+02  0.51100000000E-03 0.  1.
        -11    1    3    3    0    0  0.38999139691E+01  0.87821898877E+01 -0.14750498696E+02  0.17604357422E+02  0.51100000000E-03 0. -1.
        -12    1    3    3    0    0 -0.19545600512E+01  0.75078990896E+01 -0.10098997927E+02  0.12734936704E+02  0.00000000000E+00 0.  1.
</event>
<event>
 7    1  0.3766050E-009  0.4614232E+02  0.7816164E-02  0.1320468E+00
        -11   -1    0    0    0    0  0.00000000000E+00  0.00000000000E+00  0.45593999997E+02  0.45594000000E+02  0.51100000000E-03 0. -1.
         11   -1    0    0    0    0 -0.00000000000E+00 -0.00000000000E+00 -0.45593999997E+02  0.45594000000E+02  0.51100000000E-03 0.  1.
    9900012    2    1    2    0    0 -0.25088621076E+01 -0.34106971373E+02  0.29317805772E+02  0.46142316293E+02  0.99999866171E+01 0.  0.
        -12    1    1    2    0    0  0.25088621076E+01  0.34106971373E+02 -0.29317805772E+02  0.45045683707E+02  0.00000000000E+00 0.  1.
         11    1    3    3    0    0 -0.50970941919E+00 -0.25550165995E+02  0.18039019060E+02  0.31280616921E+02  0.51100000000E-03 0. -1.
        -11    1    3    3    0    0 -0.17026569480E+01 -0.85496791663E+00  0.15930846233E+01  0.24835316988E+01  0.51100000000E-03 0.  1.
         12    1    3    3    0    0 -0.29649574049E+00 -0.77018374611E+01  0.96857020884E+01  0.12378167673E+02  0.00000000000E+00 0. -1.
</event>
<event>
 7    1  0.3845105E-009  0.4614232E+02  0.7816164E-02  0.1320468E+00
        -11   -1    0    0    0    0  0.00000000000E+00  0.00000000000E+00  0.45593999997E+02  0.45594000000E+02  0.51100000000E-03 0. -1.
         11   -1    0    0    0    0 -0.00000000000E+00 -0.00000000000E+00 -0.45593999997E+02  0.45594000000E+02  0.51100000000E-03 0.  1.
    9900012    2    1    2    0    0 -0.62402585317E+01 -0.26640572214E+02 -0.35783413101E+02  0.46142316882E+02  0.99999919856E+01 0.  0.
         12    1    1    2    0    0  0.62402585317E+01  0.26640572214E+02  0.35783413101E+02  0.45045683118E+02  0.00000000000E+00 0. -1.
         11    1    3    3    0    0  0.37458314573E+00 -0.86746216483E+01 -0.15747050429E+02  0.17982184816E+02  0.51100000000E-03 0. -1.
        -11    1    3    3    0    0 -0.28343260212E+01 -0.63822847179E+01 -0.10838291542E+02  0.12893235669E+02  0.51100000000E-03 0.  1.
         12    1    3    3    0    0 -0.37805156562E+01 -0.11583665848E+02 -0.91980711298E+01  0.15266896397E+02  0.00000000000E+00 0. -1.
</event>
<event>
 7    1  0.3766050E-009  0.4614232E+02  0.7816164E-02  0.1320468E+00
        -11   -1    0    0    0    0  0.00000000000E+00  0.00000000000E+00  0.45593999997E+02  0.45594000000E+02  0.51100000000E-03 0. -1.
         11   -1    0    0    0    0 -0.00000000000E+00 -0.00000000000E+00 -0.45593999997E+02  0.45594000000E+02  0.51100000000E-03 0.  1.
    9900012    2    1    2    0    0 -0.19818229044E+02 -0.31713888065E+02 -0.25111363683E+02  0.46142317802E+02  0.10000000376E+02 0.  0.
         12    1    1    2    0    0  0.19818229044E+02  0.31713888065E+02  0.25111363683E+02  0.45045682198E+02  0.00000000000E+00 0. -1.
         11    1    3    3    0    0 -0.46157692297E+01 -0.97561598482E+01 -0.11956947045E+02  0.16107655430E+02  0.51100000000E-03 0. -1.
        -11    1    3    3    0    0 -0.89460098824E+01 -0.10927385815E+02 -0.51159282682E+01  0.15020372029E+02  0.51100000000E-03 0.  1.
        -12    1    3    3    0    0 -0.62564499321E+01 -0.11030342401E+02 -0.80384883699E+01  0.15014290343E+02  0.00000000000E+00 0.  1.
</event>
<event>
 7    1  0.3766050E-009  0.4614232E+02  0.7816164E-02  0.1320468E+00
        -11   -1    0    0    0    0  0.00000000000E+00  0.00000000000E+00  0.45593999997E+02  0.45594000000E+02  0.51100000000E-03 0.  1.
         11   -1    0    0    0    0 -0.00000000000E+00 -0.00000000000E+00 -0.45593999997E+02  0.45594000000E+02  0.51100000000E-03 0. -1.
    9900012    2    1    2    0    0  0.43980147656E+02  0.93389567684E+01  0.27647807016E+01  0.46142317480E+02  0.99999974387E+01 0.  0.
        -12    1    1    2    0    0 -0.43980147656E+02 -0.93389567684E+01 -0.27647807016E+01  0.45045682520E+02  0.00000000000E+00 0.  1.
         11    1    3    3    0    0  0.26528331264E+02  0.74176415063E+01  0.12074698901E+01  0.27572300393E+02  0.51100000000E-03 0. -1.
        -11    1    3    3    0    0  0.18046158333E+00 -0.45365449429E+00 -0.84050205793E+00  0.97201479091E+00  0.51100000000E-03 0.  1.
        -12    1    3    3    0    0  0.17271354808E+02  0.23749697564E+01  0.23978128695E+01  0.17598002296E+02  0.00000000000E+00 0.  1.
</event>
<event>
 7    1  0.3766050E-009  0.4614232E+02  0.7816164E-02  0.1320468E+00
        -11   -1    0    0    0    0  0.00000000000E+00  0.00000000000E+00  0.45593999997E+02  0.45594000000E+02  0.51100000000E-03 0.  1.
         11   -1    0    0    0    0 -0.00000000000E+00 -0.00000000000E+00 -0.45593999997E+02  0.45594000000E+02  0.51100000000E-03 0. -1.
    9900012    2    1    2    0    0 -0.91414533661E+01 -0.28699313238E+02  0.33494726999E+02  0.46142317780E+02  0.10000000168E+02 0.  0.
        -12    1    1    2    0    0  0.91414533661E+01  0.28699313238E+02 -0.33494726999E+02  0.45045682220E+02  0.00000000000E+00 0.  1.
         11    1    3    3    0    0  0.32021016249E+00 -0.18471838541E+01  0.59719436394E+01  0.62592917996E+01  0.51100000000E-03 0.  1.
        -11    1    3    3    0    0 -0.84500892911E+01 -0.17561607291E+02  0.17739560271E+02  0.26353482854E+02  0.51100000000E-03 0. -1.
        -12    1    3    3    0    0 -0.10115742375E+01 -0.92905220923E+01  0.97832230885E+01  0.13529543126E+02  0.00000000000E+00 0.  1.
</event>
<event>
 7    1  0.3766050E-009  0.4614232E+02  0.7816164E-02  0.1320468E+00
        -11   -1    0    0    0    0  0.00000000000E+00  0.00000000000E+00  0.45593999997E+02  0.45594000000E+02  0.51100000000E-03 0.  1.
         11   -1    0    0    0    0 -0.00000000000E+00 -0.00000000000E+00 -0.45593999997E+02  0.45594000000E+02  0.51100000000E-03 0. -1.
    9900012    2    1    2    0    0 -0.39024995543E+02 -0.21669479408E+02  0.60495116736E+01  0.46142320891E+02  0.10000028540E+02 0.  0.
         12    1    1    2    0    0  0.39024995543E+02  0.21669479408E+02 -0.60495116736E+01  0.45045679109E+02  0.00000000000E+00 0. -1.
         11    1    3    3    0    0 -0.20501487350E+01 -0.10611635463E+01  0.25184728724E+01  0.34164138768E+01  0.51100000000E-03 0. -1.
        -11    1    3    3    0    0 -0.34087251621E+02 -0.17874859925E+02  0.22780656783E+01  0.38556982817E+02  0.51100000000E-03 0.  1.
        -12    1    3    3    0    0 -0.28875951863E+01 -0.27334559360E+01  0.12529731230E+01  0.41689241971E+01  0.00000000000E+00 0.  1.
</event>
<event>
 7    1  0.3766050E-009  0.4614232E+02  0.7816164E-02  0.1320468E+00
        -11   -1    0    0    0    0  0.00000000000E+00  0.00000000000E+00  0.45593999997E+02  0.45594000000E+02  0.51100000000E-03 0. -1.
         11   -1    0    0    0    0 -0.00000000000E+00 -0.00000000000E+00 -0.45593999997E+02  0.45594000000E+02  0.51100000000E-03 0.  1.
    9900012    2    1    2    0    0  0.16434453627E+02 -0.13611786621E+02 -0.39670411176E+02  0.46142317367E+02  0.99999964030E+01 0.  0.
         12    1    1    2    0    0 -0.16434453627E+02  0.13611786621E+02  0.39670411176E+02  0.45045682633E+02  0.00000000000E+00 0. -1.
         11    1    3    3    0    0  0.86575501345E+00 -0.57778486737E+00 -0.21959431486E+00  0.10637617311E+01  0.51100000000E-03 0. -1.
        -11    1    3    3    0    0  0.35645239534E+01  0.61149324679E+00 -0.72906660051E+01  0.81384007068E+01  0.51100000000E-03 0.  1.
        -12    1    3    3    0    0  0.12004174660E+02 -0.13645495001E+02 -0.32160150856E+02  0.36940154929E+02  0.00000000000E+00 0.  1.
</event>
<event>
 7    1  0.3766050E-009  0.4614232E+02  0.7816164E-02  0.1320468E+00
        -11   -1    0    0    0    0  0.00000000000E+00  0.00000000000E+00  0.45593999997E+02  0.45594000000E+02  0.51100000000E-03 0.  1.
         11   -1    0    0    0    0 -0.00000000000E+00 -0.00000000000E+00 -0.45593999997E+02  0.45594000000E+02  0.51100000000E-03 0. -1.
    9900012    2    1    2    0    0 -0.28931392375E+02  0.33345525574E+02  0.89534388740E+01  0.46142316431E+02  0.99999878696E+01 0.  0.
         12    1    1    2    0    0  0.28931392375E+02 -0.33345525574E+02 -0.89534388740E+01  0.45045683569E+02  0.00000000000E+00 0. -1.
         11    1    3    3    0    0 -0.30130973765E+01  0.77539692793E+01  0.26134033287E+01  0.87196715880E+01  0.51100000000E-03 0. -1.
        -11    1    3    3    0    0 -0.11080447454E+02  0.15006818865E+02  0.33527707646E+01  0.18953152780E+02  0.51100000000E-03 0.  1.
        -12    1    3    3    0    0 -0.14837847544E+02  0.10584737430E+02  0.29872647807E+01  0.18469492063E+02  0.00000000000E+00 0.  1.
</event>
<event>
 7    1  0.3766050E-009  0.4614232E+02  0.7816164E-02  0.1320468E+00
        -11   -1    0    0    0    0  0.00000000000E+00  0.00000000000E+00  0.45593999997E+02  0.45594000000E+02  0.51100000000E-03 0. -1.
         11   -1    0    0    0    0 -0.00000000000E+00 -0.00000000000E+00 -0.45593999997E+02  0.45594000000E+02  0.51100000000E-03 0.  1.
    9900012    2    1    2    0    0  0.11916831930E+02 -0.34484542818E+02 -0.26418154907E+02  0.46142317795E+02  0.10000000310E+02 0.  0.
         12    1    1    2    0    0 -0.11916831930E+02  0.34484542818E+02  0.26418154907E+02  0.45045682205E+02  0.00000000000E+00 0. -1.
         11    1    3    3    0    0 -0.51242262550E+00 -0.27211157287E+00 -0.11455826991E+01  0.12841267994E+01  0.51100000000E-03 0. -1.
        -11    1    3    3    0    0  0.92977911317E+01 -0.30295314358E+02 -0.23798436480E+02  0.39631055640E+02  0.51100000000E-03 0.  1.
        -12    1    3    3    0    0  0.31314634240E+01 -0.39171168868E+01 -0.14741357273E+01  0.52271353553E+01  0.00000000000E+00 0.  1.
</event>
<event>
 7    1  0.3766050E-009  0.4614232E+02  0.7816164E-02  0.1320468E+00
        -11   -1    0    0    0    0  0.00000000000E+00  0.00000000000E+00  0.45593999997E+02  0.45594000000E+02  0.51100000000E-03 0. -1.
         11   -1    0    0    0    0 -0.00000000000E+00 -0.00000000000E+00 -0.45593999997E+02  0.45594000000E+02  0.51100000000E-03 0.  1.
    9900012    2    1    2    0    0 -0.99113284520E+01 -0.11582882881E+02 -0.42387685633E+02  0.46142317622E+02  0.99999987339E+01 0.  0.
         12    1    1    2    0    0  0.99113284520E+01  0.11582882881E+02  0.42387685633E+02  0.45045682378E+02  0.00000000000E+00 0. -1.
         11    1    3    3    0    0 -0.34080616873E+01 -0.20588076773E+01 -0.17466610607E+02  0.17914688383E+02  0.51100000000E-03 0. -1.
        -11    1    3    3    0    0 -0.67552110194E+00 -0.61927391397E+00  0.20640922316E+00  0.93937956558E+00  0.51100000000E-03 0.  1.
        -12    1    3    3    0    0 -0.58277456628E+01 -0.89048012898E+01 -0.25127484250E+02  0.27288249674E+02  0.00000000000E+00 0.  1.
</event>
<event>
 7    1  0.3766050E-009  0.4614232E+02  0.7816164E-02  0.1320468E+00
        -11   -1    0    0    0    0  0.00000000000E+00  0.00000000000E+00  0.45593999997E+02  0.45594000000E+02  0.51100000000E-03 0. -1.
         11   -1    0    0    0    0 -0.00000000000E+00 -0.00000000000E+00 -0.45593999997E+02  0.45594000000E+02  0.51100000000E-03 0.  1.
    9900012    2    1    2    0    0 -0.42354806937E+02  0.14346663921E+02 -0.54182188678E+01  0.46142317277E+02  0.99999955832E+01 0.  0.
         12    1    1    2    0    0  0.42354806937E+02 -0.14346663921E+02  0.54182188678E+01  0.45045682723E+02  0.00000000000E+00 0. -1.
         11    1    3    3    0    0 -0.25712470783E+02  0.86933921545E+01 -0.74437046885E+01  0.28144536960E+02  0.51100000000E-03 0. -1.
        -11    1    3    3    0    0 -0.14345573729E+02  0.52448072299E+01  0.64665376269E+00  0.15287957674E+02  0.51100000000E-03 0.  1.
         12    1    3    3    0    0 -0.22967624246E+01  0.40846453654E+00  0.13788320580E+01  0.27098226430E+01  0.00000000000E+00 0. -1.
</event>
<event>
 7    1  0.3766050E-009  0.4614232E+02  0.7816164E-02  0.1320468E+00
        -11   -1    0    0    0    0  0.00000000000E+00  0.00000000000E+00  0.45593999997E+02  0.45594000000E+02  0.51100000000E-03 0. -1.
         11   -1    0    0    0    0 -0.00000000000E+00 -0.00000000000E+00 -0.45593999997E+02  0.45594000000E+02  0.51100000000E-03 0.  1.
    9900012    2    1    2    0    0 -0.41169873489E+01 -0.29785158776E+01 -0.44758153195E+02  0.46142318530E+02  0.10000007015E+02 0.  0.
         12    1    1    2    0    0  0.41169873489E+01  0.29785158776E+01  0.44758153195E+02  0.45045681470E+02  0.00000000000E+00 0. -1.
         11    1    3    3    0    0 -0.15452204728E+00 -0.22264303525E+01 -0.61515499363E+01  0.65438853946E+01  0.51100000000E-03 0. -1.
        -11    1    3    3    0    0 -0.43010768612E+01  0.23586693157E+01 -0.14911862934E+02  0.15697969281E+02  0.51100000000E-03 0.  1.
        -12    1    3    3    0    0  0.33861155959E+00 -0.31107548408E+01 -0.23694740324E+02  0.23900463855E+02  0.00000000000E+00 0.  1.
</event>
<event>
 7    1  0.3766050E-009  0.4614232E+02  0.7816164E-02  0.1320468E+00
        -11   -1    0    0    0    0  0.00000000000E+00  0.00000000000E+00  0.45593999997E+02  0.45594000000E+02  0.51100000000E-03 0. -1.
         11   -1    0    0    0    0 -0.00000000000E+00 -0.00000000000E+00 -0.45593999997E+02  0.45594000000E+02  0.51100000000E-03 0.  1.
    9900012    2    1    2    0    0  0.23856507252E+02  0.15080540553E+02 -0.35107801534E+02  0.46142319073E+02  0.10000011961E+02 0.  0.
         12    1    1    2    0    0 -0.23856507252E+02 -0.15080540553E+02  0.35107801534E+02  0.45045680927E+02  0.00000000000E+00 0. -1.
         11    1    3    3    0    0  0.18873593069E+01  0.97331208361E+00 -0.64487675702E+00  0.22193079683E+01  0.51100000000E-03 0. -1.
        -11    1    3    3    0    0  0.52009402073E+01  0.24754849354E+01 -0.13448337734E+02  0.14629955324E+02  0.51100000000E-03 0.  1.
        -12    1    3    3    0    0  0.16768207738E+02  0.11631743534E+02 -0.21014587043E+02  0.29293055781E+02  0.00000000000E+00 0.  1.
</event>
<event>
 7    1  0.3766050E-009  0.4614232E+02  0.7816164E-02  0.1320468E+00
        -11   -1    0    0    0    0  0.00000000000E+00  0.00000000000E+00  0.45593999997E+02  0.45594000000E+02  0.51100000000E-03 0. -1.
         11   -1    0    0    0    0 -0.00000000000E+00 -0.00000000000E+00 -0.45593999997E+02  0.45594000000E+02  0.51100000000E-03 0.  1.
    9900012    2    1    2    0    0 -0.33132578271E+02 -0.24706165999E+01 -0.30417787983E+02  0.46142317465E+02  0.99999972976E+01 0.  0.
         12    1    1    2    0    0  0.33132578271E+02  0.24706165999E+01  0.30417787983E+02  0.45045682535E+02  0.00000000000E+00 0. -1.
         11    1    3    3    0    0 -0.43311632749E+01 -0.54554394766E+00 -0.53397803317E+01  0.68970898040E+01  0.51100000000E-03 0. -1.
        -11    1    3    3    0    0 -0.60059232599E+01 -0.37965355042E+01 -0.40651529427E+01  0.81859797671E+01  0.51100000000E-03 0.  1.
        -12    1    3    3    0    0 -0.22795491737E+02  0.18714628519E+01 -0.21012854708E+02  0.31059247894E+02  0.00000000000E+00 0.  1.
</event>
<event>
 7    1  0.3766050E-009  0.4614232E+02  0.7816164E-02  0.1320468E+00
        -11   -1    0    0    0    0  0.00000000000E+00  0.00000000000E+00  0.45593999997E+02  0.45594000000E+02  0.51100000000E-03 0. -1.
         11   -1    0    0    0    0 -0.00000000000E+00 -0.00000000000E+00 -0.45593999997E+02  0.45594000000E+02  0.51100000000E-03 0.  1.
    9900012    2    1    2    0    0 -0.39210622909E+02  0.21471969560E+02  0.55312807906E+01  0.46142317711E+02  0.99999995424E+01 0.  0.
        -12    1    1    2    0    0  0.39210622909E+02 -0.21471969560E+02 -0.55312807906E+01  0.45045682289E+02  0.00000000000E+00 0.  1.
         11    1    3    3    0    0 -0.24463553337E+02  0.12048959919E+02  0.23355626797E+01  0.27369649802E+02  0.51100000000E-03 0. -1.
        -11    1    3    3    0    0 -0.25162943514E+01  0.42189510383E+01  0.23726144739E+01  0.54553262807E+01  0.51100000000E-03 0.  1.
        -12    1    3    3    0    0 -0.12230775221E+02  0.52040586026E+01  0.82310363696E+00  0.13317341629E+02  0.00000000000E+00 0.  1.
</event>
<event>
 7    1  0.3766050E-009  0.4614232E+02  0.7816164E-02  0.1320468E+00
        -11   -1    0    0    0    0  0.00000000000E+00  0.00000000000E+00  0.45593999997E+02  0.45594000000E+02  0.51100000000E-03 0. -1.
         11   -1    0    0    0    0 -0.00000000000E+00 -0.00000000000E+00 -0.45593999997E+02  0.45594000000E+02  0.51100000000E-03 0.  1.
    9900012    2    1    2    0    0  0.34511048193E+02 -0.10345823538E+02 -0.27038213857E+02  0.46142317403E+02  0.99999967309E+01 0.  0.
         12    1    1    2    0    0 -0.34511048193E+02  0.10345823538E+02  0.27038213857E+02  0.45045682597E+02  0.00000000000E+00 0. -1.
         11    1    3    3    0    0  0.10273624152E+01 -0.18455331098E+01 -0.20382392300E+01  0.29352828503E+01  0.51100000000E-03 0. -1.
        -11    1    3    3    0    0  0.10555992234E+02  0.50464566583E+00 -0.65829656095E+01  0.12450665676E+02  0.51100000000E-03 0.  1.
        -12    1    3    3    0    0  0.22927693544E+02 -0.90049360943E+01 -0.18417009018E+02  0.30756368876E+02  0.00000000000E+00 0.  1.
</event>
<event>
 7    1  0.3766050E-009  0.4614232E+02  0.7816164E-02  0.1320468E+00
        -11   -1    0    0    0    0  0.00000000000E+00  0.00000000000E+00  0.45593999997E+02  0.45594000000E+02  0.51100000000E-03 0. -1.
         11   -1    0    0    0    0 -0.00000000000E+00 -0.00000000000E+00 -0.45593999997E+02  0.45594000000E+02  0.51100000000E-03 0.  1.
    9900012    2    1    2    0    0 -0.58719482794E+01  0.16483092858E+02 -0.41508328705E+02  0.46142317869E+02  0.10000000981E+02 0.  0.
         12    1    1    2    0    0  0.58719482794E+01 -0.16483092858E+02  0.41508328705E+02  0.45045682131E+02  0.00000000000E+00 0. -1.
         11    1    3    3    0    0  0.10092653973E+01  0.66470519113E+00 -0.21672833676E+01  0.24814445571E+01  0.51100000000E-03 0. -1.
        -11    1    3    3    0    0 -0.85407488486E+01  0.13164647176E+02 -0.30859463381E+02  0.34620208067E+02  0.51100000000E-03 0.  1.
        -12    1    3    3    0    0  0.16595351719E+01  0.26537404905E+01 -0.84815819565E+01  0.90406652444E+01  0.00000000000E+00 0.  1.
</event>
<event>
 7    1  0.3766050E-009  0.4614232E+02  0.7816164E-02  0.1320468E+00
        -11   -1    0    0    0    0  0.00000000000E+00  0.00000000000E+00  0.45593999997E+02  0.45594000000E+02  0.51100000000E-03 0. -1.
         11   -1    0    0    0    0 -0.00000000000E+00 -0.00000000000E+00 -0.45593999997E+02  0.45594000000E+02  0.51100000000E-03 0.  1.
    9900012    2    1    2    0    0  0.20739056756E+02 -0.20128471018E+01 -0.39936868210E+02  0.46142317954E+02  0.10000001755E+02 0.  0.
         12    1    1    2    0    0 -0.20739056756E+02  0.20128471018E+01  0.39936868210E+02  0.45045682046E+02  0.00000000000E+00 0. -1.
         11    1    3    3    0    0  0.19923148082E+01  0.24245656188E+01 -0.35370489202E+01  0.47284830611E+01  0.51100000000E-03 0. -1.
        -11    1    3    3    0    0  0.11117297471E+02 -0.43982937461E+01 -0.19529259969E+02  0.22898281292E+02  0.51100000000E-03 0.  1.
         12    1    3    3    0    0  0.76294444772E+01 -0.39118974518E-01 -0.16870559321E+02  0.18515553600E+02  0.00000000000E+00 0. -1.
</event>
<event>
 7    1  0.3766050E-009  0.4614232E+02  0.7816164E-02  0.1320468E+00
        -11   -1    0    0    0    0  0.00000000000E+00  0.00000000000E+00  0.45593999997E+02  0.45594000000E+02  0.51100000000E-03 0. -1.
         11   -1    0    0    0    0 -0.00000000000E+00 -0.00000000000E+00 -0.45593999997E+02  0.45594000000E+02  0.51100000000E-03 0.  1.
    9900012    2    1    2    0    0 -0.68792166133E+00 -0.43393449679E+02 -0.12068492670E+02  0.46142320667E+02  0.10000026495E+02 0.  0.
         12    1    1    2    0    0  0.68792166133E+00  0.43393449679E+02  0.12068492670E+02  0.45045679333E+02  0.00000000000E+00 0. -1.
         11    1    3    3    0    0 -0.93729467000E+00 -0.44679842045E+01  0.62305735402E+00  0.46075595360E+01  0.51100000000E-03 0. -1.
        -11    1    3    3    0    0  0.16293539369E+01 -0.11323630382E+02 -0.86071147442E+00  0.11472585749E+02  0.51100000000E-03 0.  1.
        -12    1    3    3    0    0 -0.13799809283E+01 -0.27601835093E+02 -0.11830838550E+02  0.30062175381E+02  0.00000000000E+00 0.  1.
</event>
<event>
 7    1  0.3766050E-009  0.4614232E+02  0.7816164E-02  0.1320468E+00
        -11   -1    0    0    0    0  0.00000000000E+00  0.00000000000E+00  0.45593999997E+02  0.45594000000E+02  0.51100000000E-03 0. -1.
         11   -1    0    0    0    0 -0.00000000000E+00 -0.00000000000E+00 -0.45593999997E+02  0.45594000000E+02  0.51100000000E-03 0.  1.
    9900012    2    1    2    0    0  0.18391830713E+02  0.21955724538E+02 -0.34767803360E+02  0.46142318437E+02  0.10000006164E+02 0.  0.
         12    1    1    2    0    0 -0.18391830713E+02 -0.21955724538E+02  0.34767803360E+02  0.45045681563E+02  0.00000000000E+00 0. -1.
         11    1    3    3    0    0  0.62278384120E+01  0.48895164132E+01 -0.57007114485E+01  0.97566107498E+01  0.51100000000E-03 0. -1.
        -11    1    3    3    0    0  0.10807346521E+02  0.15647944070E+02 -0.28637203854E+02  0.34376537599E+02  0.51100000000E-03 0.  1.
        -12    1    3    3    0    0  0.13566457801E+01  0.14182640549E+01 -0.42988805753E+00  0.20091700884E+01  0.00000000000E+00 0.  1.
</event>
<event>
 7    1  0.3766050E-009  0.4614232E+02  0.7816164E-02  0.1320468E+00
        -11   -1    0    0    0    0  0.00000000000E+00  0.00000000000E+00  0.45593999997E+02  0.45594000000E+02  0.51100000000E-03 0. -1.
         11   -1    0    0    0    0 -0.00000000000E+00 -0.00000000000E+00 -0.45593999997E+02  0.45594000000E+02  0.51100000000E-03 0.  1.
    9900012    2    1    2    0    0  0.20879083106E+02 -0.26593850958E+02 -0.29764821424E+02  0.46142316361E+02  0.99999872299E+01 0.  0.
         12    1    1    2    0    0 -0.20879083106E+02  0.26593850958E+02  0.29764821424E+02  0.45045683639E+02  0.00000000000E+00 0. -1.
         11    1    3    3    0    0  0.52323465052E+01 -0.10748890093E+02 -0.72210966260E+01  0.13966399856E+02  0.51100000000E-03 0. -1.
        -11    1    3    3    0    0  0.12038738336E+02 -0.92839429367E+01 -0.17322616720E+02  0.23047686814E+02  0.51100000000E-03 0.  1.
        -12    1    3    3    0    0  0.36079982653E+01 -0.65610179282E+01 -0.52211080772E+01  0.91282296910E+01  0.00000000000E+00 0.  1.
</event>
<event>
 7    1  0.3766050E-009  0.4614232E+02  0.7816164E-02  0.1320468E+00
        -11   -1    0    0    0    0  0.00000000000E+00  0.00000000000E+00  0.45593999997E+02  0.45594000000E+02  0.51100000000E-03 0. -1.
         11   -1    0    0    0    0 -0.00000000000E+00 -0.00000000000E+00 -0.45593999997E+02  0.45594000000E+02  0.51100000000E-03 0.  1.
    9900012    2    1    2    0    0  0.39396565888E+02 -0.14396373228E+02  0.16424632109E+02  0.46142317568E+02  0.99999982383E+01 0.  0.
        -12    1    1    2    0    0 -0.39396565888E+02  0.14396373228E+02 -0.16424632109E+02  0.45045682432E+02  0.00000000000E+00 0.  1.
         11    1    3    3    0    0  0.16926329881E+02 -0.45758497498E+01  0.11022291814E+02  0.20710624357E+02  0.51100000000E-03 0. -1.
        -11    1    3    3    0    0  0.22912340701E+01 -0.19991354245E+01 -0.28786672694E+00  0.30543679417E+01  0.51100000000E-03 0.  1.
         12    1    3    3    0    0  0.20179001937E+02 -0.78213880535E+01  0.56902070214E+01  0.22377325269E+02  0.00000000000E+00 0. -1.
</event>
<event>
 7    1  0.3766050E-009  0.4614232E+02  0.7816164E-02  0.1320468E+00
        -11   -1    0    0    0    0  0.00000000000E+00  0.00000000000E+00  0.45593999997E+02  0.45594000000E+02  0.51100000000E-03 0. -1.
         11   -1    0    0    0    0 -0.00000000000E+00 -0.00000000000E+00 -0.45593999997E+02  0.45594000000E+02  0.51100000000E-03 0.  1.
    9900012    2    1    2    0    0 -0.77998652090E+01  0.12535201638E+02 -0.42557538751E+02  0.46142320052E+02  0.10000020893E+02 0.  0.
         12    1    1    2    0    0  0.77998652090E+01 -0.12535201638E+02  0.42557538751E+02  0.45045679948E+02  0.00000000000E+00 0. -1.
         11    1    3    3    0    0 -0.24995895694E+01  0.94002639861E+00 -0.28502495274E+01  0.39058315728E+01  0.51100000000E-03 0. -1.
        -11    1    3    3    0    0 -0.66872303789E+01  0.85970084923E+01 -0.33162038623E+02  0.34904847959E+02  0.51100000000E-03 0.  1.
         12    1    3    3    0    0  0.13869547393E+01  0.29981667470E+01 -0.65452506008E+01  0.73316405203E+01  0.00000000000E+00 0. -1.
</event>
<event>
 7    1  0.3766050E-009  0.4614232E+02  0.7816164E-02  0.1320468E+00
        -11   -1    0    0    0    0  0.00000000000E+00  0.00000000000E+00  0.45593999997E+02  0.45594000000E+02  0.51100000000E-03 0. -1.
         11   -1    0    0    0    0 -0.00000000000E+00 -0.00000000000E+00 -0.45593999997E+02  0.45594000000E+02  0.51100000000E-03 0.  1.
    9900012    2    1    2    0    0 -0.10295402371E+02 -0.16547591213E+01  0.43822140015E+02  0.46142317707E+02  0.99999995041E+01 0.  0.
        -12    1    1    2    0    0  0.10295402371E+02  0.16547591213E+01 -0.43822140015E+02  0.45045682293E+02  0.00000000000E+00 0.  1.
         11    1    3    3    0    0 -0.76847914606E+01  0.27468173715E+00  0.21495983003E+02  0.22829996833E+02  0.51100000000E-03 0. -1.
        -11    1    3    3    0    0 -0.11821915914E+01  0.20028140709E+01  0.10873598709E+02  0.11119531929E+02  0.51100000000E-03 0.  1.
         12    1    3    3    0    0 -0.14284193190E+01 -0.39322549294E+01  0.11452558303E+02  0.12192788945E+02  0.00000000000E+00 0. -1.
</event>
<event>
 7    1  0.3766050E-009  0.4614232E+02  0.7816164E-02  0.1320468E+00
        -11   -1    0    0    0    0  0.00000000000E+00  0.00000000000E+00  0.45593999997E+02  0.45594000000E+02  0.51100000000E-03 0. -1.
         11   -1    0    0    0    0 -0.00000000000E+00 -0.00000000000E+00 -0.45593999997E+02  0.45594000000E+02  0.51100000000E-03 0.  1.
    9900012    2    1    2    0    0  0.10593831808E+02 -0.24683804481E+02 -0.36160667295E+02  0.46142319460E+02  0.10000015495E+02 0.  0.
         12    1    1    2    0    0 -0.10593831808E+02  0.24683804481E+02  0.36160667295E+02  0.45045680540E+02  0.00000000000E+00 0. -1.
         11    1    3    3    0    0  0.15874367569E+01 -0.51906559422E+01 -0.44053849097E+01  0.69907282190E+01  0.51100000000E-03 0. -1.
        -11    1    3    3    0    0 -0.83290343785E+00  0.18187312088E+00 -0.17463732642E+01  0.19433542672E+01  0.51100000000E-03 0.  1.
        -12    1    3    3    0    0  0.98392984886E+01 -0.19675021660E+02 -0.30008909122E+02  0.37208236974E+02  0.00000000000E+00 0.  1.
</event>
<event>
 7    1  0.3766050E-009  0.4614232E+02  0.7816164E-02  0.1320468E+00
        -11   -1    0    0    0    0  0.00000000000E+00  0.00000000000E+00  0.45593999997E+02  0.45594000000E+02  0.51100000000E-03 0. -1.
         11   -1    0    0    0    0 -0.00000000000E+00 -0.00000000000E+00 -0.45593999997E+02  0.45594000000E+02  0.51100000000E-03 0.  1.
    9900012    2    1    2    0    0 -0.37321908053E+02  0.16679909654E+02 -0.18920081788E+02  0.46142315394E+02  0.99999784104E+01 0.  0.
         12    1    1    2    0    0  0.37321908053E+02 -0.16679909654E+02  0.18920081788E+02  0.45045684606E+02  0.00000000000E+00 0. -1.
         11    1    3    3    0    0 -0.21695144184E+02  0.68248676342E+01 -0.11079534098E+02  0.25298501447E+02  0.51100000000E-03 0. -1.
        -11    1    3    3    0    0 -0.49077314494E+01  0.39421389884E+01 -0.55446424132E+01  0.83886439628E+01  0.51100000000E-03 0.  1.
        -12    1    3    3    0    0 -0.10719032420E+02  0.59129030311E+01 -0.22959052768E+01  0.12455169984E+02  0.00000000000E+00 0.  1.
</event>
<event>
 7    1  0.3766050E-009  0.4614232E+02  0.7816164E-02  0.1320468E+00
        -11   -1    0    0    0    0  0.00000000000E+00  0.00000000000E+00  0.45593999997E+02  0.45594000000E+02  0.51100000000E-03 0. -1.
         11   -1    0    0    0    0 -0.00000000000E+00 -0.00000000000E+00 -0.45593999997E+02  0.45594000000E+02  0.51100000000E-03 0.  1.
    9900012    2    1    2    0    0  0.38907855561E+02 -0.68975726961E+01  0.21626734740E+02  0.46142318865E+02  0.10000010062E+02 0.  0.
        -12    1    1    2    0    0 -0.38907855561E+02  0.68975726961E+01 -0.21626734740E+02  0.45045681135E+02  0.00000000000E+00 0.  1.
         11    1    3    3    0    0  0.74025748038E+01 -0.32192967194E+01  0.12145045743E+01  0.81631493136E+01  0.51100000000E-03 0. -1.
        -11    1    3    3    0    0  0.24653528683E+02 -0.42697905356E+01  0.14557608714E+02  0.28947392965E+02  0.51100000000E-03 0.  1.
        -12    1    3    3    0    0  0.68517520742E+01  0.59151455892E+00  0.58546214511E+01  0.90317765858E+01  0.00000000000E+00 0.  1.
</event>
<event>
 7    1  0.3766050E-009  0.4614232E+02  0.7816164E-02  0.1320468E+00
        -11   -1    0    0    0    0  0.00000000000E+00  0.00000000000E+00  0.45593999997E+02  0.45594000000E+02  0.51100000000E-03 0. -1.
         11   -1    0    0    0    0 -0.00000000000E+00 -0.00000000000E+00 -0.45593999997E+02  0.45594000000E+02  0.51100000000E-03 0.  1.
    9900012    2    1    2    0    0  0.36823529432E+02 -0.12515118957E+02  0.22726921530E+02  0.46142317803E+02  0.10000000385E+02 0.  0.
        -12    1    1    2    0    0 -0.36823529432E+02  0.12515118957E+02 -0.22726921530E+02  0.45045682197E+02  0.00000000000E+00 0.  1.
         11    1    3    3    0    0  0.96084550707E+01 -0.50367991672E+01  0.26160976786E+01  0.11159557429E+02  0.51100000000E-03 0.  1.
        -11    1    3    3    0    0  0.92205188256E+01 -0.48504854203E+01  0.66944002208E+01  0.12383867361E+02  0.51100000000E-03 0. -1.
        -12    1    3    3    0    0  0.17994555536E+02 -0.26278343695E+01  0.13416423630E+02  0.22598893013E+02  0.00000000000E+00 0.  1.
</event>
<event>
 7    1  0.3766050E-009  0.4614232E+02  0.7816164E-02  0.1320468E+00
        -11   -1    0    0    0    0  0.00000000000E+00  0.00000000000E+00  0.45593999997E+02  0.45594000000E+02  0.51100000000E-03 0.  1.
         11   -1    0    0    0    0 -0.00000000000E+00 -0.00000000000E+00 -0.45593999997E+02  0.45594000000E+02  0.51100000000E-03 0. -1.
    9900012    2    1    2    0    0  0.40173507075E+02  0.19302822281E+02  0.65271590550E+01  0.46142318475E+02  0.10000006507E+02 0.  0.
         12    1    1    2    0    0 -0.40173507075E+02 -0.19302822281E+02 -0.65271590550E+01  0.45045681525E+02  0.00000000000E+00 0. -1.
         11    1    3    3    0    0  0.40251134843E+01  0.27460189237E+01 -0.65961634417E+00  0.49170369607E+01  0.51100000000E-03 0. -1.
        -11    1    3    3    0    0  0.28784309467E+02  0.10893441013E+02  0.26608491048E+01  0.30891481784E+02  0.51100000000E-03 0.  1.
        -12    1    3    3    0    0  0.73640841234E+01  0.56633623449E+01  0.45259262944E+01  0.10333799729E+02  0.00000000000E+00 0.  1.
</event>
<event>
 7    1  0.3766050E-009  0.4614232E+02  0.7816164E-02  0.1320468E+00
        -11   -1    0    0    0    0  0.00000000000E+00  0.00000000000E+00  0.45593999997E+02  0.45594000000E+02  0.51100000000E-03 0. -1.
         11   -1    0    0    0    0 -0.00000000000E+00 -0.00000000000E+00 -0.45593999997E+02  0.45594000000E+02  0.51100000000E-03 0.  1.
    9900012    2    1    2    0    0 -0.40677187429E+02 -0.97622711599E+00  0.19326842443E+02  0.46142318350E+02  0.10000005369E+02 0.  0.
        -12    1    1    2    0    0  0.40677187429E+02  0.97622711599E+00 -0.19326842443E+02  0.45045681650E+02  0.00000000000E+00 0.  1.
         11    1    3    3    0    0 -0.19415430836E+02 -0.30644991183E+01  0.78432167736E+01  0.21162848556E+02  0.51100000000E-03 0. -1.
        -11    1    3    3    0    0 -0.20950536381E+02  0.92569818990E+00  0.10696226659E+02  0.23541264978E+02  0.51100000000E-03 0.  1.
        -12    1    3    3    0    0 -0.31122021236E+00  0.11625738124E+01  0.78739901094E+00  0.14382048159E+01  0.00000000000E+00 0.  1.
</event>
<event>
 7    1  0.3766050E-009  0.4614232E+02  0.7816164E-02  0.1320468E+00
        -11   -1    0    0    0    0  0.00000000000E+00  0.00000000000E+00  0.45593999997E+02  0.45594000000E+02  0.51100000000E-03 0.  1.
         11   -1    0    0    0    0 -0.00000000000E+00 -0.00000000000E+00 -0.45593999997E+02  0.45594000000E+02  0.51100000000E-03 0. -1.
    9900012    2    1    2    0    0  0.43246282464E+02  0.32239213688E+01  0.12185192417E+02  0.46142317297E+02  0.99999957668E+01 0.  0.
        -12    1    1    2    0    0 -0.43246282464E+02 -0.32239213688E+01 -0.12185192417E+02  0.45045682703E+02  0.00000000000E+00 0.  1.
         11    1    3    3    0    0  0.37585920878E+02  0.56856929569E+01  0.10711278845E+02  0.39493797582E+02  0.51100000000E-03 0. -1.
        -11    1    3    3    0    0  0.30017552353E+01 -0.23609413637E+01  0.97742261280E+00  0.39420722775E+01  0.51100000000E-03 0.  1.
        -12    1    3    3    0    0  0.26586063502E+01 -0.10083022439E+00  0.49649095940E+00  0.27064474375E+01  0.00000000000E+00 0.  1.
</event>
<event>
 7    1  0.3766050E-009  0.4614231E+02  0.7816164E-02  0.1320468E+00
        -11   -1    0    0    0    0  0.00000000000E+00  0.00000000000E+00  0.45593999997E+02  0.45594000000E+02  0.51100000000E-03 0. -1.
         11   -1    0    0    0    0 -0.00000000000E+00 -0.00000000000E+00 -0.45593999997E+02  0.45594000000E+02  0.51100000000E-03 0.  1.
    9900012    2    1    2    0    0 -0.74848266003E+01 -0.42120823443E+02  0.14104161073E+02  0.46142314787E+02  0.99999728788E+01 0.  0.
        -12    1    1    2    0    0  0.74848266003E+01  0.42120823443E+02 -0.14104161073E+02  0.45045685213E+02  0.00000000000E+00 0.  1.
         11    1    3    3    0    0 -0.20610397926E+01 -0.86191448981E+01  0.63029561859E+01  0.10874962103E+02  0.51100000000E-03 0. -1.
        -11    1    3    3    0    0 -0.62738302271E+01 -0.24247546863E+02  0.65670131406E+01  0.25892665688E+02  0.51100000000E-03 0.  1.
         12    1    3    3    0    0  0.85004341938E+00 -0.92541316817E+01  0.12341917466E+01  0.93746869955E+01  0.00000000000E+00 0. -1.
</event>
<event>
 7    1  0.3766050E-009  0.4614232E+02  0.7816164E-02  0.1320468E+00
        -11   -1    0    0    0    0  0.00000000000E+00  0.00000000000E+00  0.45593999997E+02  0.45594000000E+02  0.51100000000E-03 0. -1.
         11   -1    0    0    0    0 -0.00000000000E+00 -0.00000000000E+00 -0.45593999997E+02  0.45594000000E+02  0.51100000000E-03 0.  1.
    9900012    2    1    2    0    0 -0.39581490976E+02  0.19282591791E+02 -0.95184404222E+01  0.46142317830E+02  0.10000000629E+02 0.  0.
         12    1    1    2    0    0  0.39581490976E+02 -0.19282591791E+02  0.95184404222E+01  0.45045682170E+02  0.00000000000E+00 0. -1.
         11    1    3    3    0    0 -0.85377405567E+01  0.20060705624E+01 -0.45496722351E+01  0.98801240186E+01  0.51100000000E-03 0. -1.
        -11    1    3    3    0    0 -0.20735954420E+02  0.86534294471E+01 -0.35618174802E+01  0.22749685512E+02  0.51100000000E-03 0.  1.
         12    1    3    3    0    0 -0.10307796000E+02  0.86230917811E+01 -0.14069507070E+01  0.13512508299E+02  0.00000000000E+00 0. -1.
</event>
<event>
 7    1  0.3766050E-009  0.4614232E+02  0.7816164E-02  0.1320468E+00
        -11   -1    0    0    0    0  0.00000000000E+00  0.00000000000E+00  0.45593999997E+02  0.45594000000E+02  0.51100000000E-03 0. -1.
         11   -1    0    0    0    0 -0.00000000000E+00 -0.00000000000E+00 -0.45593999997E+02  0.45594000000E+02  0.51100000000E-03 0.  1.
    9900012    2    1    2    0    0 -0.90977818203E+01  0.29914154271E+02 -0.32426643906E+02  0.46142317690E+02  0.99999993480E+01 0.  0.
         12    1    1    2    0    0  0.90977818203E+01 -0.29914154271E+02  0.32426643906E+02  0.45045682310E+02  0.00000000000E+00 0. -1.
         11    1    3    3    0    0 -0.62563398706E+00  0.36244988078E+01 -0.83815199651E+01  0.91530479448E+01  0.51100000000E-03 0. -1.
        -11    1    3    3    0    0 -0.22906406819E+01  0.44011174660E+01 -0.21128147691E+01  0.53926668906E+01  0.51100000000E-03 0.  1.
        -12    1    3    3    0    0 -0.61815071514E+01  0.21888537997E+02 -0.21932309172E+02  0.31596602854E+02  0.00000000000E+00 0.  1.
</event>
<event>
 7    1  0.4698275E-009  0.4614232E+02  0.7816164E-02  0.1320468E+00
        -11   -1    0    0    0    0  0.00000000000E+00  0.00000000000E+00  0.45593999997E+02  0.45594000000E+02  0.51100000000E-03 0. -1.
         11   -1    0    0    0    0 -0.00000000000E+00 -0.00000000000E+00 -0.45593999997E+02  0.45594000000E+02  0.51100000000E-03 0.  1.
    9900012    2    1    2    0    0  0.30989315198E+02  0.36734059136E+00 -0.32690073252E+02  0.46142317801E+02  0.10000000366E+02 0.  0.
         12    1    1    2    0    0 -0.30989315198E+02 -0.36734059136E+00  0.32690073252E+02  0.45045682199E+02  0.00000000000E+00 0. -1.
         11    1    3    3    0    0  0.10708447540E+02  0.33691206568E+01 -0.70971053076E+01  0.13281217065E+02  0.51100000000E-03 0. -1.
        -11    1    3    3    0    0  0.15247023780E+02 -0.21641427539E+01 -0.17693143705E+02  0.23456397473E+02  0.51100000000E-03 0.  1.
         12    1    3    3    0    0  0.50338438778E+01 -0.83763731158E+00 -0.78998242396E+01  0.94047032632E+01  0.00000000000E+00 0. -1.
</event>
<event>
 7    1  0.3766050E-009  0.4614232E+02  0.7816164E-02  0.1320468E+00
        -11   -1    0    0    0    0  0.00000000000E+00  0.00000000000E+00  0.45593999997E+02  0.45594000000E+02  0.51100000000E-03 0. -1.
         11   -1    0    0    0    0 -0.00000000000E+00 -0.00000000000E+00 -0.45593999997E+02  0.45594000000E+02  0.51100000000E-03 0.  1.
    9900012    2    1    2    0    0  0.18031624821E+02  0.20374393117E+02  0.35900670073E+02  0.46142317629E+02  0.99999987957E+01 0.  0.
        -12    1    1    2    0    0 -0.18031624821E+02 -0.20374393117E+02 -0.35900670073E+02  0.45045682371E+02  0.00000000000E+00 0.  1.
         11    1    3    3    0    0  0.10420829025E+02  0.79261633350E+01  0.10992099685E+02  0.17095145467E+02  0.51100000000E-03 0. -1.
        -11    1    3    3    0    0  0.25714977293E+01  0.69905300852E+01  0.11103538834E+02  0.13370440768E+02  0.51100000000E-03 0.  1.
        -12    1    3    3    0    0  0.50392980668E+01  0.54576996969E+01  0.13805031554E+02  0.15676731394E+02  0.00000000000E+00 0.  1.
</event>
<event>
 7    1  0.3766050E-009  0.4614232E+02  0.7816164E-02  0.1320468E+00
        -11   -1    0    0    0    0  0.00000000000E+00  0.00000000000E+00  0.45593999997E+02  0.45594000000E+02  0.51100000000E-03 0. -1.
         11   -1    0    0    0    0 -0.00000000000E+00 -0.00000000000E+00 -0.45593999997E+02  0.45594000000E+02  0.51100000000E-03 0.  1.
    9900012    2    1    2    0    0  0.10674056045E+01 -0.34468075321E+02 -0.28981475965E+02  0.46142317408E+02  0.99999967819E+01 0.  0.
         12    1    1    2    0    0 -0.10674056045E+01  0.34468075321E+02  0.28981475965E+02  0.45045682592E+02  0.00000000000E+00 0. -1.
         11    1    3    3    0    0 -0.25272393113E+01 -0.75957678291E+01 -0.80952064257E+01  0.11384858136E+02  0.51100000000E-03 0.  1.
        -11    1    3    3    0    0  0.49985359514E+01 -0.24657793857E+02 -0.18840409768E+02  0.31431722830E+02  0.51100000000E-03 0. -1.
         12    1    3    3    0    0 -0.14038910356E+01 -0.22145136344E+01 -0.20458597716E+01  0.33257364421E+01  0.00000000000E+00 0. -1.
</event>
<event>
 7    1  0.3766050E-009  0.4614232E+02  0.7816164E-02  0.1320468E+00
        -11   -1    0    0    0    0  0.00000000000E+00  0.00000000000E+00  0.45593999997E+02  0.45594000000E+02  0.51100000000E-03 0.  1.
         11   -1    0    0    0    0 -0.00000000000E+00 -0.00000000000E+00 -0.45593999997E+02  0.45594000000E+02  0.51100000000E-03 0. -1.
    9900012    2    1    2    0    0  0.42555060316E+02 -0.94429426835E+01  0.11358311019E+02  0.46142317030E+02  0.99999933368E+01 0.  0.
        -12    1    1    2    0    0 -0.42555060316E+02  0.94429426835E+01 -0.11358311019E+02  0.45045682970E+02  0.00000000000E+00 0.  1.
         11    1    3    3    0    0  0.17370535487E+02 -0.59310421651E+01  0.13817017477E+01  0.18407114501E+02  0.51100000000E-03 0. -1.
        -11    1    3    3    0    0  0.13995055326E+02  0.43118245161E+00  0.49599051735E+01  0.14854230087E+02  0.51100000000E-03 0.  1.
         12    1    3    3    0    0  0.11189469503E+02 -0.39430829700E+01  0.50167040981E+01  0.12880972443E+02  0.00000000000E+00 0. -1.
</event>
<event>
 7    1  0.3766050E-009  0.4614232E+02  0.7816164E-02  0.1320468E+00
        -11   -1    0    0    0    0  0.00000000000E+00  0.00000000000E+00  0.45593999997E+02  0.45594000000E+02  0.51100000000E-03 0. -1.
         11   -1    0    0    0    0 -0.00000000000E+00 -0.00000000000E+00 -0.45593999997E+02  0.45594000000E+02  0.51100000000E-03 0.  1.
    9900012    2    1    2    0    0 -0.20824357442E+02  0.16555709882E+02 -0.36350626240E+02  0.46142318513E+02  0.10000006860E+02 0.  0.
         12    1    1    2    0    0  0.20824357442E+02 -0.16555709882E+02  0.36350626240E+02  0.45045681487E+02  0.00000000000E+00 0. -1.
         11    1    3    3    0    0 -0.74958172527E+00  0.40234003270E+01 -0.66349571035E+01  0.77956577003E+01  0.51100000000E-03 0. -1.
        -11    1    3    3    0    0 -0.18730537178E+02  0.12221412170E+02 -0.29384835900E+02  0.36927828524E+02  0.51100000000E-03 0.  1.
         12    1    3    3    0    0 -0.13442385389E+01  0.31089738521E+00 -0.33083323643E+00  0.14188322889E+01  0.00000000000E+00 0. -1.
</event>
<event>
 7    1  0.3766050E-009  0.4614232E+02  0.7816164E-02  0.1320468E+00
        -11   -1    0    0    0    0  0.00000000000E+00  0.00000000000E+00  0.45593999997E+02  0.45594000000E+02  0.51100000000E-03 0. -1.
         11   -1    0    0    0    0 -0.00000000000E+00 -0.00000000000E+00 -0.45593999997E+02  0.45594000000E+02  0.51100000000E-03 0.  1.
    9900012    2    1    2    0    0 -0.34647230253E+02  0.28343128060E+02 -0.50348316677E+01  0.46142323156E+02  0.10000049197E+02 0.  0.
         12    1    1    2    0    0  0.34647230253E+02 -0.28343128060E+02  0.50348316677E+01  0.45045676844E+02  0.00000000000E+00 0. -1.
         11    1    3    3    0    0 -0.55648875355E+01  0.10009407172E+02 -0.60110625086E+00  0.11468109443E+02  0.51100000000E-03 0. -1.
        -11    1    3    3    0    0 -0.73490199758E+01  0.50221181700E+01 -0.96575019010E+00  0.89533479330E+01  0.51100000000E-03 0.  1.
         12    1    3    3    0    0 -0.21733322741E+02  0.13311602718E+02 -0.34679752268E+01  0.25720865780E+02  0.00000000000E+00 0. -1.
</event>
<event>
 7    1  0.3766050E-009  0.4614232E+02  0.7816164E-02  0.1320468E+00
        -11   -1    0    0    0    0  0.00000000000E+00  0.00000000000E+00  0.45593999997E+02  0.45594000000E+02  0.51100000000E-03 0.  1.
         11   -1    0    0    0    0 -0.00000000000E+00 -0.00000000000E+00 -0.45593999997E+02  0.45594000000E+02  0.51100000000E-03 0. -1.
    9900012    2    1    2    0    0  0.22403293450E+02 -0.21818045748E+02  0.32421886620E+02  0.46142318635E+02  0.10000007965E+02 0.  0.
        -12    1    1    2    0    0 -0.22403293450E+02  0.21818045748E+02 -0.32421886620E+02  0.45045681365E+02  0.00000000000E+00 0.  1.
         11    1    3    3    0    0  0.45211173367E+01 -0.74217359243E+01  0.11157958157E+02  0.14142938047E+02  0.51100000000E-03 0. -1.
        -11    1    3    3    0    0  0.10439576765E+02 -0.96990220924E+01  0.88227713918E+01  0.16759984722E+02  0.51100000000E-03 0.  1.
         12    1    3    3    0    0  0.74425993478E+01 -0.46972877318E+01  0.12441157071E+02  0.15239395866E+02  0.00000000000E+00 0. -1.
</event>
<event>
 7    1  0.3766050E-009  0.4614232E+02  0.7816164E-02  0.1320468E+00
        -11   -1    0    0    0    0  0.00000000000E+00  0.00000000000E+00  0.45593999997E+02  0.45594000000E+02  0.51100000000E-03 0. -1.
         11   -1    0    0    0    0 -0.00000000000E+00 -0.00000000000E+00 -0.45593999997E+02  0.45594000000E+02  0.51100000000E-03 0.  1.
    9900012    2    1    2    0    0  0.35196797880E+02 -0.23249177058E+02  0.15804262773E+02  0.46142317225E+02  0.99999951109E+01 0.  0.
        -12    1    1    2    0    0 -0.35196797880E+02  0.23249177058E+02 -0.15804262773E+02  0.45045682775E+02  0.00000000000E+00 0.  1.
         11    1    3    3    0    0  0.23161791342E+02 -0.15026867957E+02  0.87918562036E+01  0.28975370137E+02  0.51100000000E-03 0. -1.
        -11    1    3    3    0    0  0.10621601023E+02 -0.67031312615E+01  0.79767516583E+01  0.14878808564E+02  0.51100000000E-03 0.  1.
         12    1    3    3    0    0  0.14134055142E+01 -0.15191778399E+01 -0.96434508888E+00  0.22881385245E+01  0.00000000000E+00 0. -1.
</event>
<event>
 7    1  0.3766050E-009  0.4614232E+02  0.7816164E-02  0.1320468E+00
        -11   -1    0    0    0    0  0.00000000000E+00  0.00000000000E+00  0.45593999997E+02  0.45594000000E+02  0.51100000000E-03 0. -1.
         11   -1    0    0    0    0 -0.00000000000E+00 -0.00000000000E+00 -0.45593999997E+02  0.45594000000E+02  0.51100000000E-03 0.  1.
    9900012    2    1    2    0    0 -0.29791257203E+02 -0.75473894725E+01 -0.32933740939E+02  0.46142318900E+02  0.10000010382E+02 0.  0.
         12    1    1    2    0    0  0.29791257203E+02  0.75473894725E+01  0.32933740939E+02  0.45045681100E+02  0.00000000000E+00 0. -1.
         11    1    3    3    0    0 -0.22271851296E+01 -0.22047105564E+01 -0.75525849843E+00  0.32235877373E+01  0.51100000000E-03 0. -1.
        -11    1    3    3    0    0 -0.82941385882E+01 -0.19544945288E+01 -0.12829502957E+02  0.15401588560E+02  0.51100000000E-03 0.  1.
         12    1    3    3    0    0 -0.19269933485E+02 -0.33881843873E+01 -0.19348979483E+02  0.27517142602E+02  0.00000000000E+00 0. -1.
</event>
<event>
 7    1  0.3766050E-009  0.4614232E+02  0.7816164E-02  0.1320468E+00
        -11   -1    0    0    0    0  0.00000000000E+00  0.00000000000E+00  0.45593999997E+02  0.45594000000E+02  0.51100000000E-03 0. -1.
         11   -1    0    0    0    0 -0.00000000000E+00 -0.00000000000E+00 -0.45593999997E+02  0.45594000000E+02  0.51100000000E-03 0.  1.
    9900012    2    1    2    0    0 -0.15850856433E+02  0.15232806888E+02  0.39316986351E+02  0.46142317954E+02  0.10000001755E+02 0.  0.
        -12    1    1    2    0    0  0.15850856433E+02 -0.15232806888E+02 -0.39316986351E+02  0.45045682046E+02  0.00000000000E+00 0.  1.
         11    1    3    3    0    0 -0.13905133684E+01  0.36781295067E+01  0.55643374049E+01  0.68135170883E+01  0.51100000000E-03 0. -1.
        -11    1    3    3    0    0 -0.13829231842E+01  0.24262365785E+01  0.12209396331E+02  0.12524713949E+02  0.51100000000E-03 0.  1.
        -12    1    3    3    0    0 -0.13077419880E+02  0.91284408028E+01  0.21543252614E+02  0.26804086916E+02  0.00000000000E+00 0.  1.
</event>
<event>
 7    1  0.3766050E-009  0.4614232E+02  0.7816164E-02  0.1320468E+00
        -11   -1    0    0    0    0  0.00000000000E+00  0.00000000000E+00  0.45593999997E+02  0.45594000000E+02  0.51100000000E-03 0. -1.
         11   -1    0    0    0    0 -0.00000000000E+00 -0.00000000000E+00 -0.45593999997E+02  0.45594000000E+02  0.51100000000E-03 0.  1.
    9900012    2    1    2    0    0  0.12540094922E+02  0.14051543090E+02  0.40919599997E+02  0.46142317545E+02  0.99999980312E+01 0.  0.
        -12    1    1    2    0    0 -0.12540094922E+02 -0.14051543090E+02 -0.40919599997E+02  0.45045682455E+02  0.00000000000E+00 0.  1.
         11    1    3    3    0    0  0.51324735977E+01  0.53463359775E+01  0.12593530820E+02  0.14612412956E+02  0.51100000000E-03 0. -1.
        -11    1    3    3    0    0  0.14791974050E+01 -0.14488921899E+01  0.48654362006E+01  0.52877011284E+01  0.51100000000E-03 0.  1.
        -12    1    3    3    0    0  0.59284239198E+01  0.10154099303E+02  0.23460632977E+02  0.26242203461E+02  0.00000000000E+00 0.  1.
</event>
<event>
 7    1  0.3766050E-009  0.4614232E+02  0.7816164E-02  0.1320468E+00
        -11   -1    0    0    0    0  0.00000000000E+00  0.00000000000E+00  0.45593999997E+02  0.45594000000E+02  0.51100000000E-03 0. -1.
         11   -1    0    0    0    0 -0.00000000000E+00 -0.00000000000E+00 -0.45593999997E+02  0.45594000000E+02  0.51100000000E-03 0.  1.
    9900012    2    1    2    0    0  0.14990770453E+02  0.14650620526E+02 -0.39871664649E+02  0.46142317383E+02  0.99999965490E+01 0.  0.
         12    1    1    2    0    0 -0.14990770453E+02 -0.14650620526E+02  0.39871664649E+02  0.45045682617E+02  0.00000000000E+00 0. -1.
         11    1    3    3    0    0  0.33084121368E+00 -0.10356094283E+01 -0.34649751668E+01  0.36315280481E+01  0.51100000000E-03 0. -1.
        -11    1    3    3    0    0  0.49144837463E+01  0.39575694001E+01 -0.14560104764E+02  0.15868558758E+02  0.51100000000E-03 0.  1.
         12    1    3    3    0    0  0.97454454930E+01  0.11728660554E+02 -0.21846584718E+02  0.26642230576E+02  0.00000000000E+00 0. -1.
</event>
<event>
 7    1  0.3766050E-009  0.4614232E+02  0.7816164E-02  0.1320468E+00
        -11   -1    0    0    0    0  0.00000000000E+00  0.00000000000E+00  0.45593999997E+02  0.45594000000E+02  0.51100000000E-03 0. -1.
         11   -1    0    0    0    0 -0.00000000000E+00 -0.00000000000E+00 -0.45593999997E+02  0.45594000000E+02  0.51100000000E-03 0.  1.
    9900012    2    1    2    0    0  0.78722318070E+01  0.29236149861E+02  0.33352495151E+02  0.46142318463E+02  0.10000006398E+02 0.  0.
        -12    1    1    2    0    0 -0.78722318070E+01 -0.29236149861E+02 -0.33352495151E+02  0.45045681537E+02  0.00000000000E+00 0.  1.
         11    1    3    3    0    0  0.39368812610E+01  0.12395914750E+02  0.15508484713E+02  0.20240326947E+02  0.51100000000E-03 0. -1.
        -11    1    3    3    0    0  0.40900377388E+01  0.64606869546E+01  0.40940935286E+01  0.86735509863E+01  0.51100000000E-03 0.  1.
        -12    1    3    3    0    0 -0.15468719286E+00  0.10379548157E+02  0.13749916910E+02  0.17228440530E+02  0.00000000000E+00 0.  1.
</event>
<event>
 7    1  0.3766050E-009  0.4614232E+02  0.7816164E-02  0.1320468E+00
        -11   -1    0    0    0    0  0.00000000000E+00  0.00000000000E+00  0.45593999997E+02  0.45594000000E+02  0.51100000000E-03 0. -1.
         11   -1    0    0    0    0 -0.00000000000E+00 -0.00000000000E+00 -0.45593999997E+02  0.45594000000E+02  0.51100000000E-03 0.  1.
    9900012    2    1    2    0    0 -0.26371907052E+01 -0.26437992539E+02  0.36375694518E+02  0.46142319009E+02  0.10000011381E+02 0.  0.
        -12    1    1    2    0    0  0.26371907052E+01  0.26437992539E+02 -0.36375694518E+02  0.45045680991E+02  0.00000000000E+00 0.  1.
         11    1    3    3    0    0  0.28794881910E+01 -0.11034847306E+02  0.11215567166E+02  0.15995257247E+02  0.51100000000E-03 0. -1.
        -11    1    3    3    0    0 -0.18016777864E+01 -0.37543975953E+01  0.86734411588E+01  0.96213370144E+01  0.51100000000E-03 0.  1.
         12    1    3    3    0    0 -0.37150011098E+01 -0.11648747638E+02  0.16486686193E+02  0.20525724747E+02  0.00000000000E+00 0. -1.
</event>
<event>
 7    1  0.3766050E-009  0.4614232E+02  0.7816164E-02  0.1320468E+00
        -11   -1    0    0    0    0  0.00000000000E+00  0.00000000000E+00  0.45593999997E+02  0.45594000000E+02  0.51100000000E-03 0. -1.
         11   -1    0    0    0    0 -0.00000000000E+00 -0.00000000000E+00 -0.45593999997E+02  0.45594000000E+02  0.51100000000E-03 0.  1.
    9900012    2    1    2    0    0 -0.82974743063E+01  0.33717254062E+02  0.28695160478E+02  0.46142317230E+02  0.99999951560E+01 0.  0.
        -12    1    1    2    0    0  0.82974743063E+01 -0.33717254062E+02 -0.28695160478E+02  0.45045682770E+02  0.00000000000E+00 0.  1.
         11    1    3    3    0    0 -0.60518067581E+01  0.19937734979E+02  0.11978762256E+02  0.24033900778E+02  0.51100000000E-03 0. -1.
        -11    1    3    3    0    0 -0.13337681170E+01  0.76280030178E+01  0.12090730517E+02  0.14357964066E+02  0.51100000000E-03 0.  1.
         12    1    3    3    0    0 -0.91189943113E+00  0.61515160654E+01  0.46256677052E+01  0.77504523864E+01  0.00000000000E+00 0. -1.
</event>
<event>
 7    1  0.3766050E-009  0.4614232E+02  0.7816164E-02  0.1320468E+00
        -11   -1    0    0    0    0  0.00000000000E+00  0.00000000000E+00  0.45593999997E+02  0.45594000000E+02  0.51100000000E-03 0. -1.
         11   -1    0    0    0    0 -0.00000000000E+00 -0.00000000000E+00 -0.45593999997E+02  0.45594000000E+02  0.51100000000E-03 0.  1.
    9900012    2    1    2    0    0 -0.42986978771E+02 -0.59349478031E+01 -0.12083440686E+02  0.46142317765E+02  0.10000000032E+02 0.  0.
         12    1    1    2    0    0  0.42986978771E+02  0.59349478031E+01  0.12083440686E+02  0.45045682235E+02  0.00000000000E+00 0. -1.
         11    1    3    3    0    0 -0.30897823364E+02 -0.73497629464E+01 -0.79943730170E+01  0.32750641279E+02  0.51100000000E-03 0.  1.
        -11    1    3    3    0    0 -0.10216641129E+02  0.21855981628E+01 -0.23188258018E+01  0.10702034790E+02  0.51100000000E-03 0. -1.
        -12    1    3    3    0    0 -0.18725142781E+01 -0.77078301951E+00 -0.17702418670E+01  0.26896416959E+01  0.00000000000E+00 0.  1.
</event>
<event>
 7    1  0.3766050E-009  0.4614232E+02  0.7816164E-02  0.1320468E+00
        -11   -1    0    0    0    0  0.00000000000E+00  0.00000000000E+00  0.45593999997E+02  0.45594000000E+02  0.51100000000E-03 0. -1.
         11   -1    0    0    0    0 -0.00000000000E+00 -0.00000000000E+00 -0.45593999997E+02  0.45594000000E+02  0.51100000000E-03 0.  1.
    9900012    2    1    2    0    0 -0.59926426401E+01 -0.41652368508E+02  0.16071152076E+02  0.46142317663E+02  0.99999991090E+01 0.  0.
        -12    1    1    2    0    0  0.59926426401E+01  0.41652368508E+02 -0.16071152076E+02  0.45045682337E+02  0.00000000000E+00 0.  1.
         11    1    3    3    0    0 -0.26880427577E+01 -0.29245709456E+02  0.10918036656E+02  0.31332740387E+02  0.51100000000E-03 0. -1.
        -11    1    3    3    0    0 -0.29721067396E+01 -0.50483359242E+01  0.67468804401E-01  0.58586403180E+01  0.51100000000E-03 0.  1.
        -12    1    3    3    0    0 -0.33249314275E+00 -0.73583231274E+01  0.50856466157E+01  0.89509369586E+01  0.00000000000E+00 0.  1.
</event>
<event>
 7    1  0.3766050E-009  0.4614232E+02  0.7816164E-02  0.1320468E+00
        -11   -1    0    0    0    0  0.00000000000E+00  0.00000000000E+00  0.45593999997E+02  0.45594000000E+02  0.51100000000E-03 0. -1.
         11   -1    0    0    0    0 -0.00000000000E+00 -0.00000000000E+00 -0.45593999997E+02  0.45594000000E+02  0.51100000000E-03 0.  1.
    9900012    2    1    2    0    0 -0.11276916701E+02 -0.32326623857E+02  0.29273435560E+02  0.46142317745E+02  0.99999998572E+01 0.  0.
        -12    1    1    2    0    0  0.11276916701E+02  0.32326623857E+02 -0.29273435560E+02  0.45045682255E+02  0.00000000000E+00 0.  1.
         11    1    3    3    0    0 -0.11082945297E+02 -0.22822881152E+02  0.19244044031E+02  0.31844133078E+02  0.51100000000E-03 0. -1.
        -11    1    3    3    0    0  0.64904460119E+00 -0.90534620914E+01  0.81907929591E+01  0.12226018334E+02  0.51100000000E-03 0.  1.
         12    1    3    3    0    0 -0.84301600539E+00 -0.45028061402E+00  0.18385985693E+01  0.20721663340E+01  0.00000000000E+00 0. -1.
</event>
<event>
 7    1  0.3766050E-009  0.4614232E+02  0.7816164E-02  0.1320468E+00
        -11   -1    0    0    0    0  0.00000000000E+00  0.00000000000E+00  0.45593999997E+02  0.45594000000E+02  0.51100000000E-03 0. -1.
         11   -1    0    0    0    0 -0.00000000000E+00 -0.00000000000E+00 -0.45593999997E+02  0.45594000000E+02  0.51100000000E-03 0.  1.
    9900012    2    1    2    0    0 -0.33930516135E+02  0.92860590579E+01  0.28135435079E+02  0.46142317354E+02  0.99999962848E+01 0.  0.
        -12    1    1    2    0    0  0.33930516135E+02 -0.92860590579E+01 -0.28135435079E+02  0.45045682646E+02  0.00000000000E+00 0.  1.
         11    1    3    3    0    0 -0.16488309818E+02  0.65196927126E+01  0.16986810187E+02  0.24554479720E+02  0.51100000000E-03 0. -1.
        -11    1    3    3    0    0 -0.16487285308E+02  0.38847897568E+01  0.10757668641E+02  0.20066130747E+02  0.51100000000E-03 0.  1.
        -12    1    3    3    0    0 -0.95492100846E+00 -0.11184234115E+01  0.39095625003E+00  0.15217068868E+01  0.00000000000E+00 0.  1.
</event>
<event>
 7    1  0.3766050E-009  0.4614232E+02  0.7816164E-02  0.1320468E+00
        -11   -1    0    0    0    0  0.00000000000E+00  0.00000000000E+00  0.45593999997E+02  0.45594000000E+02  0.51100000000E-03 0. -1.
         11   -1    0    0    0    0 -0.00000000000E+00 -0.00000000000E+00 -0.45593999997E+02  0.45594000000E+02  0.51100000000E-03 0.  1.
    9900012    2    1    2    0    0  0.69048220975E+01  0.40465475860E+01 -0.44329024961E+02  0.46142316860E+02  0.99999917859E+01 0.  0.
         12    1    1    2    0    0 -0.69048220975E+01 -0.40465475860E+01  0.44329024961E+02  0.45045683140E+02  0.00000000000E+00 0. -1.
         11    1    3    3    0    0  0.55136883209E+01  0.10499671794E+01 -0.30959312110E+02  0.31463982529E+02  0.51100000000E-03 0. -1.
        -11    1    3    3    0    0 -0.47459689166E+00  0.33123142584E+01 -0.44926721767E+01  0.56018542916E+01  0.51100000000E-03 0.  1.
        -12    1    3    3    0    0  0.18657306683E+01 -0.31573385179E+00 -0.88770406738E+01  0.90764800400E+01  0.00000000000E+00 0.  1.
</event>
<event>
 7    1  0.3766050E-009  0.4614232E+02  0.7816164E-02  0.1320468E+00
        -11   -1    0    0    0    0  0.00000000000E+00  0.00000000000E+00  0.45593999997E+02  0.45594000000E+02  0.51100000000E-03 0. -1.
         11   -1    0    0    0    0 -0.00000000000E+00 -0.00000000000E+00 -0.45593999997E+02  0.45594000000E+02  0.51100000000E-03 0.  1.
    9900012    2    1    2    0    0  0.31584096179E+02  0.84272886823E+01  0.30992566758E+02  0.46142317407E+02  0.99999967699E+01 0.  0.
        -12    1    1    2    0    0 -0.31584096179E+02 -0.84272886823E+01 -0.30992566758E+02  0.45045682593E+02  0.00000000000E+00 0.  1.
         11    1    3    3    0    0  0.26338470806E+01  0.31315252087E+01  0.19549973040E+01  0.45349327775E+01  0.51100000000E-03 0. -1.
        -11    1    3    3    0    0  0.88750373452E+01 -0.10260459886E+00  0.69264230141E+01  0.11258425805E+02  0.51100000000E-03 0.  1.
         12    1    3    3    0    0  0.20075211754E+02  0.53983680725E+01  0.22111146440E+02  0.30348958824E+02  0.00000000000E+00 0. -1.
</event>
<event>
 7    1  0.4759783E-009  0.4614232E+02  0.7816164E-02  0.1320468E+00
        -11   -1    0    0    0    0  0.00000000000E+00  0.00000000000E+00  0.45593999997E+02  0.45594000000E+02  0.51100000000E-03 0. -1.
         11   -1    0    0    0    0 -0.00000000000E+00 -0.00000000000E+00 -0.45593999997E+02  0.45594000000E+02  0.51100000000E-03 0.  1.
    9900012    2    1    2    0    0  0.10097890474E+02  0.10028561548E+02 -0.42738437830E+02  0.46142317555E+02  0.99999981232E+01 0.  0.
         12    1    1    2    0    0 -0.10097890474E+02 -0.10028561548E+02  0.42738437830E+02  0.45045682445E+02  0.00000000000E+00 0. -1.
         11    1    3    3    0    0  0.58476711105E+01  0.29914367823E+00 -0.15417418939E+02  0.16491863186E+02  0.51100000000E-03 0. -1.
        -11    1    3    3    0    0  0.38845750658E+01  0.82323886531E+01 -0.26223620766E+02  0.27758610064E+02  0.51100000000E-03 0.  1.
         12    1    3    3    0    0  0.36564429754E+00  0.14970292164E+01 -0.10973981256E+01  0.18918443047E+01  0.00000000000E+00 0. -1.
</event>
<event>
 7    1  0.3766050E-009  0.4614232E+02  0.7816164E-02  0.1320468E+00
        -11   -1    0    0    0    0  0.00000000000E+00  0.00000000000E+00  0.45593999997E+02  0.45594000000E+02  0.51100000000E-03 0. -1.
         11   -1    0    0    0    0 -0.00000000000E+00 -0.00000000000E+00 -0.45593999997E+02  0.45594000000E+02  0.51100000000E-03 0.  1.
    9900012    2    1    2    0    0  0.26548945217E+02  0.20970043619E+02  0.29740952327E+02  0.46142318000E+02  0.10000002179E+02 0.  0.
        -12    1    1    2    0    0 -0.26548945217E+02 -0.20970043619E+02 -0.29740952327E+02  0.45045682000E+02  0.00000000000E+00 0.  1.
         11    1    3    3    0    0  0.88920505840E+01  0.78439516527E+01  0.10148232375E+02  0.15607138165E+02  0.51100000000E-03 0. -1.
        -11    1    3    3    0    0  0.53036953647E+01  0.44467622394E+00  0.70736253330E+01  0.88522933231E+01  0.51100000000E-03 0.  1.
        -12    1    3    3    0    0  0.12353199268E+02  0.12681415742E+02  0.12519094619E+02  0.21682886512E+02  0.00000000000E+00 0.  1.
</event>
<event>
 7    1  0.3766050E-009  0.4614232E+02  0.7816164E-02  0.1320468E+00
        -11   -1    0    0    0    0  0.00000000000E+00  0.00000000000E+00  0.45593999997E+02  0.45594000000E+02  0.51100000000E-03 0. -1.
         11   -1    0    0    0    0 -0.00000000000E+00 -0.00000000000E+00 -0.45593999997E+02  0.45594000000E+02  0.51100000000E-03 0.  1.
    9900012    2    1    2    0    0 -0.22677185624E+01 -0.35497370124E+02  0.27638879131E+02  0.46142317934E+02  0.10000001575E+02 0.  0.
        -12    1    1    2    0    0  0.22677185624E+01  0.35497370124E+02 -0.27638879131E+02  0.45045682066E+02  0.00000000000E+00 0.  1.
         11    1    3    3    0    0  0.11914143287E+01 -0.18131711351E+02  0.15665536087E+02  0.23991403581E+02  0.51100000000E-03 0. -1.
        -11    1    3    3    0    0 -0.37530491588E+01 -0.14858429913E+02  0.76113967515E+01  0.17111156543E+02  0.51100000000E-03 0.  1.
         12    1    3    3    0    0  0.29391626758E+00 -0.25072288601E+01  0.43619462925E+01  0.50397578104E+01  0.00000000000E+00 0. -1.
</event>
<event>
 7    1  0.3766050E-009  0.4614232E+02  0.7816164E-02  0.1320468E+00
        -11   -1    0    0    0    0  0.00000000000E+00  0.00000000000E+00  0.45593999997E+02  0.45594000000E+02  0.51100000000E-03 0. -1.
         11   -1    0    0    0    0 -0.00000000000E+00 -0.00000000000E+00 -0.45593999997E+02  0.45594000000E+02  0.51100000000E-03 0.  1.
    9900012    2    1    2    0    0 -0.45866876732E-01  0.27359575926E+02  0.35784982992E+02  0.46142317561E+02  0.99999981759E+01 0.  0.
        -12    1    1    2    0    0  0.45866876732E-01 -0.27359575926E+02 -0.35784982992E+02  0.45045682439E+02  0.00000000000E+00 0.  1.
         11    1    3    3    0    0  0.33368814126E+01  0.67635965946E+01  0.85086912560E+01  0.11370085471E+02  0.51100000000E-03 0. -1.
        -11    1    3    3    0    0  0.75653923546E-01  0.27881061466E+01  0.12714840661E+01  0.30652783548E+01  0.51100000000E-03 0.  1.
         12    1    3    3    0    0 -0.34584022128E+01  0.17807873185E+02  0.26004807670E+02  0.31706953736E+02  0.00000000000E+00 0. -1.
</event>
<event>
 7    1  0.3766050E-009  0.4614232E+02  0.7816164E-02  0.1320468E+00
        -11   -1    0    0    0    0  0.00000000000E+00  0.00000000000E+00  0.45593999997E+02  0.45594000000E+02  0.51100000000E-03 0. -1.
         11   -1    0    0    0    0 -0.00000000000E+00 -0.00000000000E+00 -0.45593999997E+02  0.45594000000E+02  0.51100000000E-03 0.  1.
    9900012    2    1    2    0    0 -0.69814063532E+01 -0.20794433303E+02  0.39344186273E+02  0.46142317804E+02  0.10000000387E+02 0.  0.
        -12    1    1    2    0    0  0.69814063532E+01  0.20794433303E+02 -0.39344186273E+02  0.45045682196E+02  0.00000000000E+00 0.  1.
         11    1    3    3    0    0 -0.31935343371E+01 -0.12370952464E+02  0.18861951877E+02  0.22781842667E+02  0.51100000000E-03 0. -1.
        -11    1    3    3    0    0 -0.43256879583E+01 -0.74524255504E+01  0.20513695265E+02  0.22249986890E+02  0.51100000000E-03 0.  1.
        -12    1    3    3    0    0  0.53781594217E+00 -0.97105528805E+00 -0.31460869102E-01  0.11104882468E+01  0.00000000000E+00 0.  1.
</event>
<event>
 7    1  0.3766050E-009  0.4614232E+02  0.7816164E-02  0.1320468E+00
        -11   -1    0    0    0    0  0.00000000000E+00  0.00000000000E+00  0.45593999997E+02  0.45594000000E+02  0.51100000000E-03 0. -1.
         11   -1    0    0    0    0 -0.00000000000E+00 -0.00000000000E+00 -0.45593999997E+02  0.45594000000E+02  0.51100000000E-03 0.  1.
    9900012    2    1    2    0    0 -0.36954388362E+02  0.99184091805E+01 -0.23772077155E+02  0.46142319717E+02  0.10000017832E+02 0.  0.
         12    1    1    2    0    0  0.36954388362E+02 -0.99184091805E+01  0.23772077155E+02  0.45045680283E+02  0.00000000000E+00 0. -1.
         11    1    3    3    0    0 -0.12756200980E+01  0.25963361646E+01 -0.11086868817E+01  0.30979598087E+01  0.51100000000E-03 0. -1.
        -11    1    3    3    0    0 -0.20297515114E+02  0.29344379098E+01 -0.14235732448E+02  0.24965098122E+02  0.51100000000E-03 0.  1.
        -12    1    3    3    0    0 -0.15381253150E+02  0.43876351061E+01 -0.84276578259E+01  0.18079261786E+02  0.00000000000E+00 0.  1.
</event>
<event>
 7    1  0.3766050E-009  0.4614232E+02  0.7816164E-02  0.1320468E+00
        -11   -1    0    0    0    0  0.00000000000E+00  0.00000000000E+00  0.45593999997E+02  0.45594000000E+02  0.51100000000E-03 0. -1.
         11   -1    0    0    0    0 -0.00000000000E+00 -0.00000000000E+00 -0.45593999997E+02  0.45594000000E+02  0.51100000000E-03 0.  1.
    9900012    2    1    2    0    0  0.25457584120E+01 -0.38731712852E+02  0.22857976147E+02  0.46142317189E+02  0.99999947824E+01 0.  0.
        -12    1    1    2    0    0 -0.25457584120E+01  0.38731712852E+02 -0.22857976147E+02  0.45045682811E+02  0.00000000000E+00 0.  1.
         11    1    3    3    0    0  0.60173856851E+00 -0.12620235446E+02  0.60813387163E+01  0.14021951108E+02  0.51100000000E-03 0. -1.
        -11    1    3    3    0    0 -0.27816016773E+01 -0.12728024588E+02  0.98147476988E+01  0.16311627462E+02  0.51100000000E-03 0.  1.
        -12    1    3    3    0    0  0.47256215207E+01 -0.13383452818E+02  0.69618897320E+01  0.15808738620E+02  0.00000000000E+00 0.  1.
</event>
<event>
 7    1  0.3766050E-009  0.4614232E+02  0.7816164E-02  0.1320468E+00
        -11   -1    0    0    0    0  0.00000000000E+00  0.00000000000E+00  0.45593999997E+02  0.45594000000E+02  0.51100000000E-03 0. -1.
         11   -1    0    0    0    0 -0.00000000000E+00 -0.00000000000E+00 -0.45593999997E+02  0.45594000000E+02  0.51100000000E-03 0.  1.
    9900012    2    1    2    0    0 -0.11683743960E+02  0.25117004518E+02 -0.35520973607E+02  0.46142319242E+02  0.10000013508E+02 0.  0.
         12    1    1    2    0    0  0.11683743960E+02 -0.25117004518E+02  0.35520973607E+02  0.45045680758E+02  0.00000000000E+00 0. -1.
         11    1    3    3    0    0 -0.68506509134E+01  0.72007205760E+01 -0.10345559194E+02  0.14346162903E+02  0.51100000000E-03 0. -1.
        -11    1    3    3    0    0 -0.31772257835E+01  0.11466650271E+02 -0.20347969705E+02  0.23571565571E+02  0.51100000000E-03 0.  1.
        -12    1    3    3    0    0 -0.16558672634E+01  0.64496336709E+01 -0.48274447086E+01  0.82245907678E+01  0.00000000000E+00 0.  1.
</event>
<event>
 7    1  0.3766050E-009  0.4614232E+02  0.7816164E-02  0.1320468E+00
        -11   -1    0    0    0    0  0.00000000000E+00  0.00000000000E+00  0.45593999997E+02  0.45594000000E+02  0.51100000000E-03 0. -1.
         11   -1    0    0    0    0 -0.00000000000E+00 -0.00000000000E+00 -0.45593999997E+02  0.45594000000E+02  0.51100000000E-03 0.  1.
    9900012    2    1    2    0    0 -0.93996172234E+01 -0.53245889337E+01  0.43731104983E+02  0.46142316585E+02  0.99999892744E+01 0.  0.
        -12    1    1    2    0    0  0.93996172234E+01  0.53245889337E+01 -0.43731104983E+02  0.45045683415E+02  0.00000000000E+00 0.  1.
         11    1    3    3    0    0 -0.76412436965E+00 -0.83236508217E+00  0.95851372633E+01  0.96515063229E+01  0.51100000000E-03 0.  1.
        -11    1    3    3    0    0 -0.25845305445E+01  0.21981493555E+01  0.55420148763E+01  0.64981218728E+01  0.51100000000E-03 0. -1.
         12    1    3    3    0    0 -0.60509623092E+01 -0.66903732071E+01  0.28603952844E+02  0.29992688389E+02  0.00000000000E+00 0. -1.
</event>
<event>
 7    1  0.3766050E-009  0.4614232E+02  0.7816164E-02  0.1320468E+00
        -11   -1    0    0    0    0  0.00000000000E+00  0.00000000000E+00  0.45593999997E+02  0.45594000000E+02  0.51100000000E-03 0. -1.
         11   -1    0    0    0    0 -0.00000000000E+00 -0.00000000000E+00 -0.45593999997E+02  0.45594000000E+02  0.51100000000E-03 0.  1.
    9900012    2    1    2    0    0  0.31928077675E+02  0.29453693405E+02  0.11924399086E+02  0.46142317712E+02  0.99999995535E+01 0.  0.
        -12    1    1    2    0    0 -0.31928077675E+02 -0.29453693405E+02 -0.11924399086E+02  0.45045682288E+02  0.00000000000E+00 0.  1.
         11    1    3    3    0    0  0.10397163084E+02  0.12005873266E+02  0.18246843047E+01  0.15986602709E+02  0.51100000000E-03 0. -1.
        -11    1    3    3    0    0  0.14871175936E+02  0.14624228934E+02  0.94342161544E+01  0.22891578808E+02  0.51100000000E-03 0.  1.
        -12    1    3    3    0    0  0.66597386548E+01  0.28235912052E+01  0.66549862663E+00  0.72641361955E+01  0.00000000000E+00 0.  1.
</event>
<event>
 7    1  0.3766050E-009  0.4614232E+02  0.7816164E-02  0.1320468E+00
        -11   -1    0    0    0    0  0.00000000000E+00  0.00000000000E+00  0.45593999997E+02  0.45594000000E+02  0.51100000000E-03 0. -1.
         11   -1    0    0    0    0 -0.00000000000E+00 -0.00000000000E+00 -0.45593999997E+02  0.45594000000E+02  0.51100000000E-03 0.  1.
    9900012    2    1    2    0    0 -0.63020624536E+01  0.53257364471E+01 -0.44283563781E+02  0.46142317843E+02  0.10000000744E+02 0.  0.
         12    1    1    2    0    0  0.63020624536E+01 -0.53257364471E+01  0.44283563781E+02  0.45045682157E+02  0.00000000000E+00 0. -1.
         11    1    3    3    0    0 -0.41840742027E+00  0.25996419190E+01 -0.17452626939E+02  0.17650138533E+02  0.51100000000E-03 0. -1.
        -11    1    3    3    0    0 -0.42288770791E+01  0.30497295762E+01 -0.26164816966E+02  0.26679240974E+02  0.51100000000E-03 0.  1.
         12    1    3    3    0    0 -0.16547779542E+01 -0.32363504803E+00 -0.66611987613E+00  0.18129383363E+01  0.00000000000E+00 0. -1.
</event>
<event>
 7    1  0.3766050E-009  0.4614232E+02  0.7816164E-02  0.1320468E+00
        -11   -1    0    0    0    0  0.00000000000E+00  0.00000000000E+00  0.45593999997E+02  0.45594000000E+02  0.51100000000E-03 0. -1.
         11   -1    0    0    0    0 -0.00000000000E+00 -0.00000000000E+00 -0.45593999997E+02  0.45594000000E+02  0.51100000000E-03 0.  1.
    9900012    2    1    2    0    0  0.60606553315E+00 -0.25385163760E+02  0.37206715127E+02  0.46142317575E+02  0.99999983060E+01 0.  0.
        -12    1    1    2    0    0 -0.60606553315E+00  0.25385163760E+02 -0.37206715127E+02  0.45045682425E+02  0.00000000000E+00 0.  1.
         11    1    3    3    0    0  0.39889027919E+01 -0.18042652173E+02  0.27920937219E+02  0.33481746943E+02  0.51100000000E-03 0.  1.
        -11    1    3    3    0    0 -0.15635438848E+01 -0.10621213486E+01  0.32625993002E+01  0.37705869163E+01  0.51100000000E-03 0. -1.
        -12    1    3    3    0    0 -0.18192933739E+01 -0.62803902383E+01  0.60231786086E+01  0.88899837164E+01  0.00000000000E+00 0.  1.
</event>
<event>
 7    1  0.3766050E-009  0.4614232E+02  0.7816164E-02  0.1320468E+00
        -11   -1    0    0    0    0  0.00000000000E+00  0.00000000000E+00  0.45593999997E+02  0.45594000000E+02  0.51100000000E-03 0.  1.
         11   -1    0    0    0    0 -0.00000000000E+00 -0.00000000000E+00 -0.45593999997E+02  0.45594000000E+02  0.51100000000E-03 0. -1.
    9900012    2    1    2    0    0 -0.38321492479E+02  0.21677855596E+02 -0.95208891476E+01  0.46142317197E+02  0.99999948537E+01 0.  0.
        -12    1    1    2    0    0  0.38321492479E+02 -0.21677855596E+02  0.95208891476E+01  0.45045682803E+02  0.00000000000E+00 0.  1.
         11    1    3    3    0    0 -0.25486816691E+02  0.15628171610E+02 -0.78822590524E+01  0.30918401979E+02  0.51100000000E-03 0. -1.
        -11    1    3    3    0    0 -0.10941514532E+02  0.38100277005E+01  0.49628293566E+00  0.11596523115E+02  0.51100000000E-03 0.  1.
        -12    1    3    3    0    0 -0.18931612552E+01  0.22396562862E+01 -0.21349130308E+01  0.36273921028E+01  0.00000000000E+00 0.  1.
</event>
<event>
 7    1  0.3766050E-009  0.4614232E+02  0.7816164E-02  0.1320468E+00
        -11   -1    0    0    0    0  0.00000000000E+00  0.00000000000E+00  0.45593999997E+02  0.45594000000E+02  0.51100000000E-03 0. -1.
         11   -1    0    0    0    0 -0.00000000000E+00 -0.00000000000E+00 -0.45593999997E+02  0.45594000000E+02  0.51100000000E-03 0.  1.
    9900012    2    1    2    0    0  0.38527597735E+02  0.27801129405E+00  0.23337960935E+02  0.46142317653E+02  0.99999990119E+01 0.  0.
        -12    1    1    2    0    0 -0.38527597735E+02 -0.27801129405E+00 -0.23337960935E+02  0.45045682347E+02  0.00000000000E+00 0.  1.
         11    1    3    3    0    0  0.15486890361E+02  0.19748858919E+01  0.10843998844E+02  0.19008846849E+02  0.51100000000E-03 0. -1.
        -11    1    3    3    0    0  0.14372859047E+02  0.20757202311E+01  0.88250183571E+01  0.16993193959E+02  0.51100000000E-03 0.  1.
        -12    1    3    3    0    0  0.86678483271E+01 -0.37725948289E+01  0.36689437339E+01  0.10140276845E+02  0.00000000000E+00 0.  1.
</event>
<event>
 7    1  0.3766050E-009  0.4614232E+02  0.7816164E-02  0.1320468E+00
        -11   -1    0    0    0    0  0.00000000000E+00  0.00000000000E+00  0.45593999997E+02  0.45594000000E+02  0.51100000000E-03 0. -1.
         11   -1    0    0    0    0 -0.00000000000E+00 -0.00000000000E+00 -0.45593999997E+02  0.45594000000E+02  0.51100000000E-03 0.  1.
    9900012    2    1    2    0    0  0.26078298486E+02 -0.14252966527E+01 -0.36701559952E+02  0.46142316240E+02  0.99999861289E+01 0.  0.
         12    1    1    2    0    0 -0.26078298486E+02  0.14252966527E+01  0.36701559952E+02  0.45045683760E+02  0.00000000000E+00 0. -1.
         11    1    3    3    0    0  0.66242522215E+01 -0.30415816669E+01 -0.13010002295E+02  0.14912816518E+02  0.51100000000E-03 0. -1.
        -11    1    3    3    0    0  0.16350234585E+02  0.55496442288E+00 -0.22321395651E+02  0.27674588715E+02  0.51100000000E-03 0.  1.
        -12    1    3    3    0    0  0.31038116800E+01  0.10613205913E+01 -0.13701620067E+01  0.35549110069E+01  0.00000000000E+00 0.  1.
</event>
<event>
 7    1  0.3766050E-009  0.4614232E+02  0.7816164E-02  0.1320468E+00
        -11   -1    0    0    0    0  0.00000000000E+00  0.00000000000E+00  0.45593999997E+02  0.45594000000E+02  0.51100000000E-03 0. -1.
         11   -1    0    0    0    0 -0.00000000000E+00 -0.00000000000E+00 -0.45593999997E+02  0.45594000000E+02  0.51100000000E-03 0.  1.
    9900012    2    1    2    0    0  0.26163302953E+02  0.59095325082E+01 -0.36189397884E+02  0.46142317464E+02  0.99999972924E+01 0.  0.
         12    1    1    2    0    0 -0.26163302953E+02 -0.59095325082E+01  0.36189397884E+02  0.45045682536E+02  0.00000000000E+00 0. -1.
         11    1    3    3    0    0  0.87498393513E+01  0.32799503189E+01 -0.18357507510E+02  0.20598928249E+02  0.51100000000E-03 0. -1.
        -11    1    3    3    0    0  0.14593952045E+02  0.39031015686E+00 -0.15258763855E+02  0.21117898876E+02  0.51100000000E-03 0.  1.
         12    1    3    3    0    0  0.28195115567E+01  0.22392720324E+01 -0.25731265198E+01  0.44254903390E+01  0.00000000000E+00 0. -1.
</event>
<event>
 7    1  0.3766050E-009  0.4614232E+02  0.7816164E-02  0.1320468E+00
        -11   -1    0    0    0    0  0.00000000000E+00  0.00000000000E+00  0.45593999997E+02  0.45594000000E+02  0.51100000000E-03 0. -1.
         11   -1    0    0    0    0 -0.00000000000E+00 -0.00000000000E+00 -0.45593999997E+02  0.45594000000E+02  0.51100000000E-03 0.  1.
    9900012    2    1    2    0    0 -0.12082630330E+02  0.39189342714E+02 -0.18636486563E+02  0.46142321301E+02  0.10000032276E+02 0.  0.
         12    1    1    2    0    0  0.12082630330E+02 -0.39189342714E+02  0.18636486563E+02  0.45045678699E+02  0.00000000000E+00 0. -1.
         11    1    3    3    0    0 -0.83097319257E+01  0.26062865573E+02 -0.16061606684E+02  0.31722229053E+02  0.51100000000E-03 0. -1.
        -11    1    3    3    0    0 -0.40624213640E+01  0.93570320479E+01 -0.76737112008E+00  0.10229671294E+02  0.51100000000E-03 0.  1.
        -12    1    3    3    0    0  0.28952295941E+00  0.37694450932E+01 -0.18075087585E+01  0.41904209534E+01  0.00000000000E+00 0.  1.
</event>
<event>
 7    1  0.3766050E-009  0.4614232E+02  0.7816164E-02  0.1320468E+00
        -11   -1    0    0    0    0  0.00000000000E+00  0.00000000000E+00  0.45593999997E+02  0.45594000000E+02  0.51100000000E-03 0. -1.
         11   -1    0    0    0    0 -0.00000000000E+00 -0.00000000000E+00 -0.45593999997E+02  0.45594000000E+02  0.51100000000E-03 0.  1.
    9900012    2    1    2    0    0  0.33305483261E+02 -0.15324214717E+02 -0.26173015345E+02  0.46142317585E+02  0.99999983980E+01 0.  0.
         12    1    1    2    0    0 -0.33305483261E+02  0.15324214717E+02  0.26173015345E+02  0.45045682415E+02  0.00000000000E+00 0. -1.
         11    1    3    3    0    0  0.96841534091E+00  0.64844373222E+00 -0.58990488674E-01  0.11669565910E+01  0.51100000000E-03 0. -1.
        -11    1    3    3    0    0  0.24789920021E+02 -0.12379375312E+02 -0.16558006451E+02  0.32279353241E+02  0.51100000000E-03 0.  1.
        -12    1    3    3    0    0  0.75471478995E+01 -0.35932831366E+01 -0.95560184051E+01  0.12696007753E+02  0.00000000000E+00 0.  1.
</event>
<event>
 7    1  0.3816391E-009  0.4614232E+02  0.7816164E-02  0.1320468E+00
        -11   -1    0    0    0    0  0.00000000000E+00  0.00000000000E+00  0.45593999997E+02  0.45594000000E+02  0.51100000000E-03 0.  1.
         11   -1    0    0    0    0 -0.00000000000E+00 -0.00000000000E+00 -0.45593999997E+02  0.45594000000E+02  0.51100000000E-03 0. -1.
    9900012    2    1    2    0    0 -0.12213458216E+02 -0.38064905300E+02 -0.20760730184E+02  0.46142317689E+02  0.99999993407E+01 0.  0.
         12    1    1    2    0    0  0.12213458216E+02  0.38064905300E+02  0.20760730184E+02  0.45045682311E+02  0.00000000000E+00 0. -1.
         11    1    3    3    0    0 -0.21406181714E+01 -0.82726087511E+00 -0.23679588526E+00  0.23070932499E+01  0.51100000000E-03 0. -1.
        -11    1    3    3    0    0 -0.67251416418E+01 -0.20441315016E+02 -0.99579184548E+01  0.23711495733E+02  0.51100000000E-03 0.  1.
         12    1    3    3    0    0 -0.33476984033E+01 -0.16796329409E+02 -0.10566015844E+02  0.20123728706E+02  0.00000000000E+00 0. -1.
</event>
<event>
 7    1  0.3766050E-009  0.4614232E+02  0.7816164E-02  0.1320468E+00
        -11   -1    0    0    0    0  0.00000000000E+00  0.00000000000E+00  0.45593999997E+02  0.45594000000E+02  0.51100000000E-03 0. -1.
         11   -1    0    0    0    0 -0.00000000000E+00 -0.00000000000E+00 -0.45593999997E+02  0.45594000000E+02  0.51100000000E-03 0.  1.
    9900012    2    1    2    0    0  0.28698033534E+02  0.54667283336E+01  0.34287766328E+02  0.46142321326E+02  0.10000032509E+02 0.  0.
        -12    1    1    2    0    0 -0.28698033534E+02 -0.54667283336E+01 -0.34287766328E+02  0.45045678674E+02  0.00000000000E+00 0.  1.
         11    1    3    3    0    0  0.21633638093E+02  0.47588283774E+01  0.22176149297E+02  0.31343936296E+02  0.51100000000E-03 0. -1.
        -11    1    3    3    0    0  0.57357150430E+00 -0.98876494432E+00  0.45419259718E+01  0.46835597765E+01  0.51100000000E-03 0.  1.
        -12    1    3    3    0    0  0.64908239371E+01  0.16966649005E+01  0.75696910600E+01  0.10114825254E+02  0.00000000000E+00 0.  1.
</event>
<event>
 7    1  0.3766050E-009  0.4614232E+02  0.7816164E-02  0.1320468E+00
        -11   -1    0    0    0    0  0.00000000000E+00  0.00000000000E+00  0.45593999997E+02  0.45594000000E+02  0.51100000000E-03 0. -1.
         11   -1    0    0    0    0 -0.00000000000E+00 -0.00000000000E+00 -0.45593999997E+02  0.45594000000E+02  0.51100000000E-03 0.  1.
    9900012    2    1    2    0    0 -0.25055180315E+02  0.89244232218E+01  0.36355275603E+02  0.46142318135E+02  0.10000003411E+02 0.  0.
        -12    1    1    2    0    0  0.25055180315E+02 -0.89244232218E+01 -0.36355275603E+02  0.45045681865E+02  0.00000000000E+00 0.  1.
         11    1    3    3    0    0 -0.18444916434E+02  0.65162368865E+01  0.30350131312E+02  0.36108264377E+02  0.51100000000E-03 0. -1.
        -11    1    3    3    0    0 -0.29803209225E+00 -0.60524570661E+00 -0.17861793760E+00  0.69788976360E+00  0.51100000000E-03 0.  1.
        -12    1    3    3    0    0 -0.63122317884E+01  0.30134320419E+01  0.61837622295E+01  0.93361639945E+01  0.00000000000E+00 0.  1.
</event>
<event>
 7    1  0.3766050E-009  0.4614232E+02  0.7816164E-02  0.1320468E+00
        -11   -1    0    0    0    0  0.00000000000E+00  0.00000000000E+00  0.45593999997E+02  0.45594000000E+02  0.51100000000E-03 0. -1.
         11   -1    0    0    0    0 -0.00000000000E+00 -0.00000000000E+00 -0.45593999997E+02  0.45594000000E+02  0.51100000000E-03 0.  1.
    9900012    2    1    2    0    0  0.16369410078E+01 -0.28364467666E+02  0.34955556059E+02  0.46142317619E+02  0.99999987038E+01 0.  0.
        -12    1    1    2    0    0 -0.16369410078E+01  0.28364467666E+02 -0.34955556059E+02  0.45045682381E+02  0.00000000000E+00 0.  1.
         11    1    3    3    0    0 -0.40968520135E+00 -0.25997563066E+02  0.30027417578E+02  0.39720107427E+02  0.51100000000E-03 0. -1.
        -11    1    3    3    0    0  0.22753172779E+01 -0.23893717407E+01  0.29351698394E+01  0.44160376218E+01  0.51100000000E-03 0.  1.
         12    1    3    3    0    0 -0.22869106875E+00  0.22467141089E-01  0.19929686411E+01  0.20061725703E+01  0.00000000000E+00 0. -1.
</event>
<event>
 7    1  0.3766050E-009  0.4614232E+02  0.7816164E-02  0.1320468E+00
        -11   -1    0    0    0    0  0.00000000000E+00  0.00000000000E+00  0.45593999997E+02  0.45594000000E+02  0.51100000000E-03 0. -1.
         11   -1    0    0    0    0 -0.00000000000E+00 -0.00000000000E+00 -0.45593999997E+02  0.45594000000E+02  0.51100000000E-03 0.  1.
    9900012    2    1    2    0    0 -0.44620388829E+01 -0.16160751567E+02  0.41809494402E+02  0.46142317584E+02  0.99999983826E+01 0.  0.
        -12    1    1    2    0    0  0.44620388829E+01  0.16160751567E+02 -0.41809494402E+02  0.45045682416E+02  0.00000000000E+00 0.  1.
         11    1    3    3    0    0  0.56898242085E+00 -0.47512921871E+01  0.11789879689E+02  0.12723984509E+02  0.51100000000E-03 0. -1.
        -11    1    3    3    0    0 -0.86800057365E+00  0.11555499671E+01  0.28086047150E+01  0.31586360076E+01  0.51100000000E-03 0.  1.
        -12    1    3    3    0    0 -0.41630207301E+01 -0.12565009347E+02  0.27211009998E+02  0.30259697067E+02  0.00000000000E+00 0.  1.
</event>
<event>
 7    1  0.3766050E-009  0.4614232E+02  0.7816164E-02  0.1320468E+00
        -11   -1    0    0    0    0  0.00000000000E+00  0.00000000000E+00  0.45593999997E+02  0.45594000000E+02  0.51100000000E-03 0. -1.
         11   -1    0    0    0    0 -0.00000000000E+00 -0.00000000000E+00 -0.45593999997E+02  0.45594000000E+02  0.51100000000E-03 0.  1.
    9900012    2    1    2    0    0  0.32912645667E+02 -0.69833463118E+01  0.29951696644E+02  0.46142317605E+02  0.99999985784E+01 0.  0.
        -12    1    1    2    0    0 -0.32912645667E+02  0.69833463118E+01 -0.29951696644E+02  0.45045682395E+02  0.00000000000E+00 0.  1.
         11    1    3    3    0    0  0.15080235494E+02 -0.15432174307E+01  0.96397589187E+01  0.17964408559E+02  0.51100000000E-03 0. -1.
        -11    1    3    3    0    0  0.15848022110E+02 -0.35589851343E+01  0.19385772955E+02  0.25290993917E+02  0.51100000000E-03 0.  1.
        -12    1    3    3    0    0  0.19843880639E+01 -0.18811437468E+01  0.92616477045E+00  0.28869151297E+01  0.00000000000E+00 0.  1.
</event>
<event>
 7    1  0.3766050E-009  0.4614232E+02  0.7816164E-02  0.1320468E+00
        -11   -1    0    0    0    0  0.00000000000E+00  0.00000000000E+00  0.45593999997E+02  0.45594000000E+02  0.51100000000E-03 0.  1.
         11   -1    0    0    0    0 -0.00000000000E+00 -0.00000000000E+00 -0.45593999997E+02  0.45594000000E+02  0.51100000000E-03 0. -1.
    9900012    2    1    2    0    0  0.33180380128E+02 -0.27166351843E+02  0.13790020856E+02  0.46142323481E+02  0.10000052154E+02 0.  0.
         12    1    1    2    0    0 -0.33180380128E+02  0.27166351843E+02 -0.13790020856E+02  0.45045676519E+02  0.00000000000E+00 0. -1.
         11    1    3    3    0    0  0.22356217651E+02 -0.19235531939E+02  0.12025547284E+02  0.31849959880E+02  0.51100000000E-03 0. -1.
        -11    1    3    3    0    0  0.55196835822E+01 -0.40540982952E+01 -0.14152438985E+01  0.69932492725E+01  0.51100000000E-03 0.  1.
        -12    1    3    3    0    0  0.53044788955E+01 -0.38767216083E+01  0.31797174698E+01  0.72991143277E+01  0.00000000000E+00 0.  1.
</event>
<event>
 7    1  0.3766050E-009  0.4614232E+02  0.7816164E-02  0.1320468E+00
        -11   -1    0    0    0    0  0.00000000000E+00  0.00000000000E+00  0.45593999997E+02  0.45594000000E+02  0.51100000000E-03 0. -1.
         11   -1    0    0    0    0 -0.00000000000E+00 -0.00000000000E+00 -0.45593999997E+02  0.45594000000E+02  0.51100000000E-03 0.  1.
    9900012    2    1    2    0    0  0.36498928235E+02 -0.26947648632E+01 -0.26261758244E+02  0.46142318009E+02  0.10000002257E+02 0.  0.
         12    1    1    2    0    0 -0.36498928235E+02  0.26947648632E+01  0.26261758244E+02  0.45045681991E+02  0.00000000000E+00 0. -1.
         11    1    3    3    0    0  0.11986920274E+02 -0.16359061131E+01 -0.56911743076E+01  0.13369813452E+02  0.51100000000E-03 0. -1.
        -11    1    3    3    0    0  0.47294367032E+01 -0.22602747791E+01 -0.19932255383E+01  0.56079730665E+01  0.51100000000E-03 0.  1.
        -12    1    3    3    0    0  0.19782571258E+02  0.12014160290E+01 -0.18577358398E+02  0.27164531490E+02  0.00000000000E+00 0.  1.
</event>
<event>
 7    1  0.3766050E-009  0.4614232E+02  0.7816164E-02  0.1320468E+00
        -11   -1    0    0    0    0  0.00000000000E+00  0.00000000000E+00  0.45593999997E+02  0.45594000000E+02  0.51100000000E-03 0. -1.
         11   -1    0    0    0    0 -0.00000000000E+00 -0.00000000000E+00 -0.45593999997E+02  0.45594000000E+02  0.51100000000E-03 0.  1.
    9900012    2    1    2    0    0  0.20908614205E+02 -0.39686398372E+01 -0.39701300469E+02  0.46142317532E+02  0.99999979073E+01 0.  0.
         12    1    1    2    0    0 -0.20908614205E+02  0.39686398372E+01  0.39701300469E+02  0.45045682468E+02  0.00000000000E+00 0. -1.
         11    1    3    3    0    0  0.99507301281E+01 -0.21089695530E+01 -0.27170599275E+02  0.29012174132E+02  0.51100000000E-03 0.  1.
        -11    1    3    3    0    0  0.10612968501E+01  0.90438337127E+00 -0.17397342400E+01  0.22295595469E+01  0.51100000000E-03 0. -1.
         12    1    3    3    0    0  0.98965872269E+01 -0.27640536555E+01 -0.10790966954E+02  0.14900583853E+02  0.00000000000E+00 0. -1.
</event>
<event>
 7    1  0.3766050E-009  0.4614231E+02  0.7816164E-02  0.1320468E+00
        -11   -1    0    0    0    0  0.00000000000E+00  0.00000000000E+00  0.45593999997E+02  0.45594000000E+02  0.51100000000E-03 0. -1.
         11   -1    0    0    0    0 -0.00000000000E+00 -0.00000000000E+00 -0.45593999997E+02  0.45594000000E+02  0.51100000000E-03 0.  1.
    9900012    2    1    2    0    0 -0.33862837786E+02 -0.43436313922E+01 -0.29386304592E+02  0.46142314145E+02  0.99999670257E+01 0.  0.
         12    1    1    2    0    0  0.33862837786E+02  0.43436313922E+01  0.29386304592E+02  0.45045685855E+02  0.00000000000E+00 0. -1.
         11    1    3    3    0    0 -0.17285250376E+00 -0.10346736774E+01 -0.25155152970E+01  0.27254807057E+01  0.51100000000E-03 0. -1.
        -11    1    3    3    0    0 -0.21957695983E+02 -0.26027071343E+01 -0.15050503097E+02  0.26747563273E+02  0.51100000000E-03 0.  1.
        -12    1    3    3    0    0 -0.11732289299E+02 -0.70625058052E+00 -0.11820286198E+02  0.16669270167E+02  0.00000000000E+00 0.  1.
</event>
<event>
 7    1  0.3922240E-009  0.4614232E+02  0.7816164E-02  0.1320468E+00
        -11   -1    0    0    0    0  0.00000000000E+00  0.00000000000E+00  0.45593999997E+02  0.45594000000E+02  0.51100000000E-03 0. -1.
         11   -1    0    0    0    0 -0.00000000000E+00 -0.00000000000E+00 -0.45593999997E+02  0.45594000000E+02  0.51100000000E-03 0.  1.
    9900012    2    1    2    0    0 -0.20337922488E+02 -0.17194577964E+02 -0.36329449337E+02  0.46142317725E+02  0.99999996751E+01 0.  0.
         12    1    1    2    0    0  0.20337922488E+02  0.17194577964E+02  0.36329449337E+02  0.45045682275E+02  0.00000000000E+00 0. -1.
         11    1    3    3    0    0  0.41142921848E+00 -0.20175298858E+01 -0.37832827467E+01  0.43073111618E+01  0.51100000000E-03 0. -1.
        -11    1    3    3    0    0 -0.15815906424E+02 -0.13923124985E+02 -0.24510705676E+02  0.32322917541E+02  0.51100000000E-03 0.  1.
        -12    1    3    3    0    0 -0.49334452822E+01 -0.12539230928E+01 -0.80354609140E+01  0.95120890227E+01  0.00000000000E+00 0.  1.
</event>
<event>
 7    1  0.3766050E-009  0.4614232E+02  0.7816164E-02  0.1320468E+00
        -11   -1    0    0    0    0  0.00000000000E+00  0.00000000000E+00  0.45593999997E+02  0.45594000000E+02  0.51100000000E-03 0. -1.
         11   -1    0    0    0    0 -0.00000000000E+00 -0.00000000000E+00 -0.45593999997E+02  0.45594000000E+02  0.51100000000E-03 0.  1.
    9900012    2    1    2    0    0  0.38058426696E+02 -0.20326232789E+00  0.24096231601E+02  0.46142317237E+02  0.99999952225E+01 0.  0.
        -12    1    1    2    0    0 -0.38058426696E+02  0.20326232789E+00 -0.24096231601E+02  0.45045682763E+02  0.00000000000E+00 0.  1.
         11    1    3    3    0    0  0.11401847237E+02  0.94145544446E+00  0.60211066370E+01  0.12928348083E+02  0.51100000000E-03 0. -1.
        -11    1    3    3    0    0  0.20740678797E+02 -0.12300501066E+01  0.96244544561E+01  0.22898010920E+02  0.51100000000E-03 0.  1.
        -12    1    3    3    0    0  0.59159006623E+01  0.85332334292E-01  0.84506705082E+01  0.10315958234E+02  0.00000000000E+00 0.  1.
</event>
<event>
 7    1  0.3766050E-009  0.4614232E+02  0.7816164E-02  0.1320468E+00
        -11   -1    0    0    0    0  0.00000000000E+00  0.00000000000E+00  0.45593999997E+02  0.45594000000E+02  0.51100000000E-03 0. -1.
         11   -1    0    0    0    0 -0.00000000000E+00 -0.00000000000E+00 -0.45593999997E+02  0.45594000000E+02  0.51100000000E-03 0.  1.
    9900012    2    1    2    0    0  0.14059351721E+02 -0.14824733336E+01 -0.42769737092E+02  0.46142317533E+02  0.99999979236E+01 0.  0.
         12    1    1    2    0    0 -0.14059351721E+02  0.14824733336E+01  0.42769737092E+02  0.45045682467E+02  0.00000000000E+00 0. -1.
         11    1    3    3    0    0  0.21166746377E+01  0.61859664473E+00 -0.30388507309E+01  0.37546753996E+01  0.51100000000E-03 0. -1.
        -11    1    3    3    0    0  0.77660232435E+01  0.16882507047E+01 -0.30931751623E+02  0.31936414422E+02  0.51100000000E-03 0.  1.
        -12    1    3    3    0    0  0.41766538395E+01 -0.37893206830E+01 -0.87991347382E+01  0.10451227711E+02  0.00000000000E+00 0.  1.
</event>
<event>
 7    1  0.3766050E-009  0.4614232E+02  0.7816164E-02  0.1320468E+00
        -11   -1    0    0    0    0  0.00000000000E+00  0.00000000000E+00  0.45593999997E+02  0.45594000000E+02  0.51100000000E-03 0. -1.
         11   -1    0    0    0    0 -0.00000000000E+00 -0.00000000000E+00 -0.45593999997E+02  0.45594000000E+02  0.51100000000E-03 0.  1.
    9900012    2    1    2    0    0  0.20546417442E+02 -0.86219371208E+01 -0.39148696248E+02  0.46142317772E+02  0.10000000102E+02 0.  0.
         12    1    1    2    0    0 -0.20546417442E+02  0.86219371208E+01  0.39148696248E+02  0.45045682228E+02  0.00000000000E+00 0. -1.
         11    1    3    3    0    0  0.91421954072E+01 -0.64515308635E+01 -0.14381568882E+02  0.18221731837E+02  0.51100000000E-03 0. -1.
        -11    1    3    3    0    0  0.26657867661E+01  0.15913763499E+01 -0.88286122819E+01  0.93585945983E+01  0.51100000000E-03 0.  1.
        -12    1    3    3    0    0  0.87384352688E+01 -0.37617826071E+01 -0.15938515084E+02  0.18561991337E+02  0.00000000000E+00 0.  1.
</event>
<event>
 7    1  0.3766050E-009  0.4614232E+02  0.7816164E-02  0.1320468E+00
        -11   -1    0    0    0    0  0.00000000000E+00  0.00000000000E+00  0.45593999997E+02  0.45594000000E+02  0.51100000000E-03 0. -1.
         11   -1    0    0    0    0 -0.00000000000E+00 -0.00000000000E+00 -0.45593999997E+02  0.45594000000E+02  0.51100000000E-03 0.  1.
    9900012    2    1    2    0    0  0.13883264592E+02  0.25294257285E+02 -0.34591458787E+02  0.46142317540E+02  0.99999979821E+01 0.  0.
         12    1    1    2    0    0 -0.13883264592E+02 -0.25294257285E+02  0.34591458787E+02  0.45045682460E+02  0.00000000000E+00 0. -1.
         11    1    3    3    0    0  0.40724383054E+01  0.15919384197E+02 -0.18271903492E+02  0.24573847978E+02  0.51100000000E-03 0. -1.
        -11    1    3    3    0    0  0.27978786684E+01  0.78482098356E+00 -0.45410318991E+01  0.53912002364E+01  0.51100000000E-03 0.  1.
        -12    1    3    3    0    0  0.70129476179E+01  0.85900521038E+01 -0.11778523395E+02  0.16177269325E+02  0.00000000000E+00 0.  1.
</event>
<event>
 7    1  0.3766050E-009  0.4614231E+02  0.7816164E-02  0.1320468E+00
        -11   -1    0    0    0    0  0.00000000000E+00  0.00000000000E+00  0.45593999997E+02  0.45594000000E+02  0.51100000000E-03 0. -1.
         11   -1    0    0    0    0 -0.00000000000E+00 -0.00000000000E+00 -0.45593999997E+02  0.45594000000E+02  0.51100000000E-03 0.  1.
    9900012    2    1    2    0    0  0.26273097084E+02  0.18411564446E+02  0.31620446904E+02  0.46142312103E+02  0.99999484017E+01 0.  0.
        -12    1    1    2    0    0 -0.26273097084E+02 -0.18411564446E+02 -0.31620446904E+02  0.45045687897E+02  0.00000000000E+00 0.  1.
         11    1    3    3    0    0  0.14055127235E+02  0.14775610646E+02  0.18777907560E+02  0.27721383158E+02  0.51100000000E-03 0. -1.
        -11    1    3    3    0    0  0.85420135395E+01  0.87411535724E+00  0.78560617074E+01  0.11638203417E+02  0.51100000000E-03 0.  1.
        -12    1    3    3    0    0  0.36759563092E+01  0.27618384431E+01  0.49864776359E+01  0.67827255279E+01  0.00000000000E+00 0.  1.
</event>
<event>
 7    1  0.3766050E-009  0.4614232E+02  0.7816164E-02  0.1320468E+00
        -11   -1    0    0    0    0  0.00000000000E+00  0.00000000000E+00  0.45593999997E+02  0.45594000000E+02  0.51100000000E-03 0. -1.
         11   -1    0    0    0    0 -0.00000000000E+00 -0.00000000000E+00 -0.45593999997E+02  0.45594000000E+02  0.51100000000E-03 0.  1.
    9900012    2    1    2    0    0 -0.28672939290E+02 -0.22131256007E+01 -0.34670998652E+02  0.46142317410E+02  0.99999968005E+01 0.  0.
         12    1    1    2    0    0  0.28672939290E+02  0.22131256007E+01  0.34670998652E+02  0.45045682590E+02  0.00000000000E+00 0. -1.
         11    1    3    3    0    0 -0.81923441346E+00  0.32517137531E+00  0.14976018065E+00  0.89404128559E+00  0.51100000000E-03 0. -1.
        -11    1    3    3    0    0 -0.38795922729E+01  0.69941772951E+00 -0.92104245500E+01  0.10018599803E+02  0.51100000000E-03 0.  1.
        -12    1    3    3    0    0 -0.23974112604E+02 -0.32377147055E+01 -0.25610334282E+02  0.35229676321E+02  0.00000000000E+00 0.  1.
</event>
<event>
 7    1  0.3766050E-009  0.4614232E+02  0.7816164E-02  0.1320468E+00
        -11   -1    0    0    0    0  0.00000000000E+00  0.00000000000E+00  0.45593999997E+02  0.45594000000E+02  0.51100000000E-03 0. -1.
         11   -1    0    0    0    0 -0.00000000000E+00 -0.00000000000E+00 -0.45593999997E+02  0.45594000000E+02  0.51100000000E-03 0.  1.
    9900012    2    1    2    0    0  0.26397596130E+02  0.10802381995E+02 -0.34865296756E+02  0.46142318119E+02  0.10000003264E+02 0.  0.
         12    1    1    2    0    0 -0.26397596130E+02 -0.10802381995E+02  0.34865296756E+02  0.45045681881E+02  0.00000000000E+00 0. -1.
         11    1    3    3    0    0  0.41018426246E+01  0.45998668819E+01 -0.43951420255E+01  0.75697530960E+01  0.51100000000E-03 0. -1.
        -11    1    3    3    0    0  0.34512156281E+01 -0.78635730871E+00 -0.50392189308E+01  0.61581632670E+01  0.51100000000E-03 0.  1.
        -12    1    3    3    0    0  0.18844537878E+02  0.69888724214E+01 -0.25430935800E+02  0.32414401756E+02  0.00000000000E+00 0.  1.
</event>
<event>
 7    1  0.3766050E-009  0.4614232E+02  0.7816164E-02  0.1320468E+00
        -11   -1    0    0    0    0  0.00000000000E+00  0.00000000000E+00  0.45593999997E+02  0.45594000000E+02  0.51100000000E-03 0.  1.
         11   -1    0    0    0    0 -0.00000000000E+00 -0.00000000000E+00 -0.45593999997E+02  0.45594000000E+02  0.51100000000E-03 0. -1.
    9900012    2    1    2    0    0  0.27647807453E+02  0.21247385885E+02  0.28517728762E+02  0.46142317436E+02  0.99999970364E+01 0.  0.
        -12    1    1    2    0    0 -0.27647807453E+02 -0.21247385885E+02 -0.28517728762E+02  0.45045682564E+02  0.00000000000E+00 0.  1.
         11    1    3    3    0    0  0.24230272779E+02  0.20220898128E+02  0.22310905556E+02  0.38649286501E+02  0.51100000000E-03 0. -1.
        -11    1    3    3    0    0  0.17237881303E+01 -0.43383281626E+00  0.38690175381E+01  0.42578108697E+01  0.51100000000E-03 0.  1.
        -12    1    3    3    0    0  0.16937465432E+01  0.14603205736E+01  0.23378056678E+01  0.32352200653E+01  0.00000000000E+00 0.  1.
</event>
<event>
 7    1  0.3766050E-009  0.4614232E+02  0.7816164E-02  0.1320468E+00
        -11   -1    0    0    0    0  0.00000000000E+00  0.00000000000E+00  0.45593999997E+02  0.45594000000E+02  0.51100000000E-03 0. -1.
         11   -1    0    0    0    0 -0.00000000000E+00 -0.00000000000E+00 -0.45593999997E+02  0.45594000000E+02  0.51100000000E-03 0.  1.
    9900012    2    1    2    0    0  0.22378955355E+02 -0.38760986119E+02 -0.50874231792E+01  0.46142316941E+02  0.99999925183E+01 0.  0.
         12    1    1    2    0    0 -0.22378955355E+02  0.38760986119E+02  0.50874231792E+01  0.45045683059E+02  0.00000000000E+00 0. -1.
         11    1    3    3    0    0  0.43618502978E+01 -0.33222238178E+01 -0.25546663804E+01  0.60489031809E+01  0.51100000000E-03 0. -1.
        -11    1    3    3    0    0  0.75391012025E+01 -0.11625418484E+02  0.71756572692E+00  0.13874555946E+02  0.51100000000E-03 0.  1.
         12    1    3    3    0    0  0.10478003854E+02 -0.23813343817E+02 -0.32503225257E+01  0.26218857813E+02  0.00000000000E+00 0. -1.
</event>
<event>
 7    1  0.3766050E-009  0.4614232E+02  0.7816164E-02  0.1320468E+00
        -11   -1    0    0    0    0  0.00000000000E+00  0.00000000000E+00  0.45593999997E+02  0.45594000000E+02  0.51100000000E-03 0. -1.
         11   -1    0    0    0    0 -0.00000000000E+00 -0.00000000000E+00 -0.45593999997E+02  0.45594000000E+02  0.51100000000E-03 0.  1.
    9900012    2    1    2    0    0  0.25383911454E+02  0.20402387137E+02  0.31120944274E+02  0.46142317253E+02  0.99999953703E+01 0.  0.
        -12    1    1    2    0    0 -0.25383911454E+02 -0.20402387137E+02 -0.31120944274E+02  0.45045682747E+02  0.00000000000E+00 0.  1.
         11    1    3    3    0    0  0.86457333466E+01  0.27043864752E+01  0.12449840851E+02  0.15396783715E+02  0.51100000000E-03 0. -1.
        -11    1    3    3    0    0  0.88416973223E+01  0.93826746770E+01  0.11018154868E+02  0.16959066383E+02  0.51100000000E-03 0.  1.
         12    1    3    3    0    0  0.78964807850E+01  0.83153259844E+01  0.76529485560E+01  0.13786467155E+02  0.00000000000E+00 0. -1.
</event>
<event>
 7    1  0.3766050E-009  0.4614232E+02  0.7816164E-02  0.1320468E+00
        -11   -1    0    0    0    0  0.00000000000E+00  0.00000000000E+00  0.45593999997E+02  0.45594000000E+02  0.51100000000E-03 0. -1.
         11   -1    0    0    0    0 -0.00000000000E+00 -0.00000000000E+00 -0.45593999997E+02  0.45594000000E+02  0.51100000000E-03 0.  1.
    9900012    2    1    2    0    0  0.11865414370E+02  0.35542912983E+02  0.25000536130E+02  0.46142317318E+02  0.99999959627E+01 0.  0.
        -12    1    1    2    0    0 -0.11865414370E+02 -0.35542912983E+02 -0.25000536130E+02  0.45045682682E+02  0.00000000000E+00 0.  1.
         11    1    3    3    0    0  0.21522483436E+01  0.14307432148E+02  0.13531183006E+02  0.19809788020E+02  0.51100000000E-03 0. -1.
        -11    1    3    3    0    0  0.92164608777E+01  0.19785266741E+02  0.94182755974E+01  0.23771912977E+02  0.51100000000E-03 0.  1.
        -12    1    3    3    0    0  0.49670514846E+00  0.14502140944E+01  0.20510775264E+01  0.25606163210E+01  0.00000000000E+00 0.  1.
</event>
<event>
 7    1  0.3766050E-009  0.4614232E+02  0.7816164E-02  0.1320468E+00
        -11   -1    0    0    0    0  0.00000000000E+00  0.00000000000E+00  0.45593999997E+02  0.45594000000E+02  0.51100000000E-03 0. -1.
         11   -1    0    0    0    0 -0.00000000000E+00 -0.00000000000E+00 -0.45593999997E+02  0.45594000000E+02  0.51100000000E-03 0.  1.
    9900012    2    1    2    0    0  0.27327443057E+02  0.31999828316E+02 -0.16072815173E+02  0.46142317145E+02  0.99999943795E+01 0.  0.
         12    1    1    2    0    0 -0.27327443057E+02 -0.31999828316E+02  0.16072815173E+02  0.45045682855E+02  0.00000000000E+00 0. -1.
         11    1    3    3    0    0  0.18668669357E+00 -0.44464345884E+00 -0.62300958251E+00  0.78784575144E+00  0.51100000000E-03 0. -1.
        -11    1    3    3    0    0  0.23514419753E+02  0.27338140002E+02 -0.15063628659E+02  0.39079594979E+02  0.51100000000E-03 0.  1.
        -12    1    3    3    0    0  0.36263366108E+01  0.51063317736E+01 -0.38617693122E+00  0.62748764146E+01  0.00000000000E+00 0.  1.
</event>
<event>
 7    1  0.5483487E-009  0.4614232E+02  0.7816164E-02  0.1320468E+00
        -11   -1    0    0    0    0  0.00000000000E+00  0.00000000000E+00  0.45593999997E+02  0.45594000000E+02  0.51100000000E-03 0. -1.
         11   -1    0    0    0    0 -0.00000000000E+00 -0.00000000000E+00 -0.45593999997E+02  0.45594000000E+02  0.51100000000E-03 0.  1.
    9900012    2    1    2    0    0  0.16178413732E+02  0.65006268982E+01 -0.41534494498E+02  0.46142318140E+02  0.10000003459E+02 0.  0.
         12    1    1    2    0    0 -0.16178413732E+02 -0.65006268982E+01  0.41534494498E+02  0.45045681860E+02  0.00000000000E+00 0. -1.
         11    1    3    3    0    0  0.82783890716E+01 -0.13886997405E+01 -0.21607082700E+02  0.23180298437E+02  0.51100000000E-03 0. -1.
        -11    1    3    3    0    0  0.57119721893E+01  0.43036596328E+01 -0.13627087129E+02  0.15389789355E+02  0.51100000000E-03 0.  1.
         12    1    3    3    0    0  0.21880524711E+01  0.35856670059E+01 -0.63003246702E+01  0.75722303480E+01  0.00000000000E+00 0. -1.
</event>
<event>
 7    1  0.3766050E-009  0.4614232E+02  0.7816164E-02  0.1320468E+00
        -11   -1    0    0    0    0  0.00000000000E+00  0.00000000000E+00  0.45593999997E+02  0.45594000000E+02  0.51100000000E-03 0. -1.
         11   -1    0    0    0    0 -0.00000000000E+00 -0.00000000000E+00 -0.45593999997E+02  0.45594000000E+02  0.51100000000E-03 0.  1.
    9900012    2    1    2    0    0  0.19067165996E+02 -0.13667871962E+02 -0.38454466305E+02  0.46142317389E+02  0.99999966097E+01 0.  0.
         12    1    1    2    0    0 -0.19067165996E+02  0.13667871962E+02  0.38454466305E+02  0.45045682611E+02  0.00000000000E+00 0. -1.
         11    1    3    3    0    0  0.39298757860E+00  0.91670830353E+00 -0.16318875970E+01  0.19125508467E+01  0.51100000000E-03 0. -1.
        -11    1    3    3    0    0  0.24082239440E+01 -0.17602736631E+01 -0.16438925377E+01  0.34059490411E+01  0.51100000000E-03 0.  1.
        -12    1    3    3    0    0  0.16265954473E+02 -0.12824306602E+02 -0.35178686170E+02  0.40823817502E+02  0.00000000000E+00 0.  1.
</event>
<event>
 7    1  0.3766050E-009  0.4614232E+02  0.7816164E-02  0.1320468E+00
        -11   -1    0    0    0    0  0.00000000000E+00  0.00000000000E+00  0.45593999997E+02  0.45594000000E+02  0.51100000000E-03 0.  1.
         11   -1    0    0    0    0 -0.00000000000E+00 -0.00000000000E+00 -0.45593999997E+02  0.45594000000E+02  0.51100000000E-03 0. -1.
    9900012    2    1    2    0    0 -0.22608496339E+02  0.33826348078E+02  0.19332548176E+02  0.46142319297E+02  0.10000014002E+02 0.  0.
         12    1    1    2    0    0  0.22608496339E+02 -0.33826348078E+02 -0.19332548176E+02  0.45045680703E+02  0.00000000000E+00 0. -1.
         11    1    3    3    0    0 -0.63292801496E+01  0.58649997160E+01  0.52643804529E+01  0.10108002310E+02  0.51100000000E-03 0. -1.
        -11    1    3    3    0    0 -0.93145654286E+01  0.22238330793E+02  0.11110742503E+02  0.26547186005E+02  0.51100000000E-03 0.  1.
        -12    1    3    3    0    0 -0.69646507609E+01  0.57230175697E+01  0.29574252202E+01  0.94871309814E+01  0.00000000000E+00 0.  1.
</event>
<event>
 7    1  0.3766050E-009  0.4614232E+02  0.7816164E-02  0.1320468E+00
        -11   -1    0    0    0    0  0.00000000000E+00  0.00000000000E+00  0.45593999997E+02  0.45594000000E+02  0.51100000000E-03 0. -1.
         11   -1    0    0    0    0 -0.00000000000E+00 -0.00000000000E+00 -0.45593999997E+02  0.45594000000E+02  0.51100000000E-03 0.  1.
    9900012    2    1    2    0    0 -0.42024288335E+00  0.25387824499E+02  0.37207463291E+02  0.46142316950E+02  0.99999926013E+01 0.  0.
        -12    1    1    2    0    0  0.42024288335E+00 -0.25387824499E+02 -0.37207463291E+02  0.45045683050E+02  0.00000000000E+00 0.  1.
         11    1    3    3    0    0 -0.24875524790E+01  0.21586744359E+01  0.27877173274E+01  0.43149925625E+01  0.51100000000E-03 0.  1.
        -11    1    3    3    0    0  0.29224431680E+01  0.99572309686E+01  0.13307455497E+02  0.16875292433E+02  0.51100000000E-03 0. -1.
        -12    1    3    3    0    0 -0.85513357232E+00  0.13271919095E+02  0.21112290467E+02  0.24952031954E+02  0.00000000000E+00 0.  1.
</event>
<event>
 7    1  0.3766050E-009  0.4614232E+02  0.7816164E-02  0.1320468E+00
        -11   -1    0    0    0    0  0.00000000000E+00  0.00000000000E+00  0.45593999997E+02  0.45594000000E+02  0.51100000000E-03 0.  1.
         11   -1    0    0    0    0 -0.00000000000E+00 -0.00000000000E+00 -0.45593999997E+02  0.45594000000E+02  0.51100000000E-03 0. -1.
    9900012    2    1    2    0    0 -0.33065415007E+02 -0.19362252719E+02  0.23683220513E+02  0.46142318367E+02  0.10000005525E+02 0.  0.
        -12    1    1    2    0    0  0.33065415007E+02  0.19362252719E+02 -0.23683220513E+02  0.45045681633E+02  0.00000000000E+00 0.  1.
         11    1    3    3    0    0 -0.13803075366E+01 -0.32183622640E+01  0.18523400412E+01  0.39615992285E+01  0.51100000000E-03 0. -1.
        -11    1    3    3    0    0 -0.13742832607E+01  0.55221734349E+00  0.74876154842E+00  0.16595910920E+01  0.51100000000E-03 0.  1.
         12    1    3    3    0    0 -0.30310824209E+02 -0.16696107799E+02  0.21082118923E+02  0.40521128047E+02  0.00000000000E+00 0. -1.
</event>
<event>
 7    1  0.3766050E-009  0.4614232E+02  0.7816164E-02  0.1320468E+00
        -11   -1    0    0    0    0  0.00000000000E+00  0.00000000000E+00  0.45593999997E+02  0.45594000000E+02  0.51100000000E-03 0. -1.
         11   -1    0    0    0    0 -0.00000000000E+00 -0.00000000000E+00 -0.45593999997E+02  0.45594000000E+02  0.51100000000E-03 0.  1.
    9900012    2    1    2    0    0  0.19520557238E+02 -0.97084425053E+01 -0.39418365315E+02  0.46142317245E+02  0.99999952947E+01 0.  0.
         12    1    1    2    0    0 -0.19520557238E+02  0.97084425053E+01  0.39418365315E+02  0.45045682755E+02  0.00000000000E+00 0. -1.
         11    1    3    3    0    0  0.31386760184E+01 -0.36244352481E+01 -0.58168913410E+01  0.75381724012E+01  0.51100000000E-03 0. -1.
        -11    1    3    3    0    0  0.11298290334E+02 -0.35666592389E+00 -0.21302574893E+02  0.24115933994E+02  0.51100000000E-03 0.  1.
        -12    1    3    3    0    0  0.50835908856E+01 -0.57273413333E+01 -0.12298899080E+02  0.14488210850E+02  0.00000000000E+00 0.  1.
</event>
<event>
 7    1  0.3766050E-009  0.4614232E+02  0.7816164E-02  0.1320468E+00
        -11   -1    0    0    0    0  0.00000000000E+00  0.00000000000E+00  0.45593999997E+02  0.45594000000E+02  0.51100000000E-03 0. -1.
         11   -1    0    0    0    0 -0.00000000000E+00 -0.00000000000E+00 -0.45593999997E+02  0.45594000000E+02  0.51100000000E-03 0.  1.
    9900012    2    1    2    0    0 -0.58232633135E+01  0.32686946143E+02 -0.30442841612E+02  0.46142318196E+02  0.10000003965E+02 0.  0.
         12    1    1    2    0    0  0.58232633135E+01 -0.32686946143E+02  0.30442841612E+02  0.45045681804E+02  0.00000000000E+00 0. -1.
         11    1    3    3    0    0 -0.79036865627E+00  0.80368733019E+00 -0.24877156714E+01  0.27311765707E+01  0.51100000000E-03 0. -1.
        -11    1    3    3    0    0 -0.34412212120E+01  0.91147182586E+01 -0.12492586907E+02  0.15842500442E+02  0.51100000000E-03 0.  1.
        -12    1    3    3    0    0 -0.15916734453E+01  0.22768540554E+02 -0.15462539034E+02  0.27568641183E+02  0.00000000000E+00 0.  1.
</event>
<event>
 7    1  0.3766050E-009  0.4614233E+02  0.7816164E-02  0.1320468E+00
        -11   -1    0    0    0    0  0.00000000000E+00  0.00000000000E+00  0.45593999997E+02  0.45594000000E+02  0.51100000000E-03 0. -1.
         11   -1    0    0    0    0 -0.00000000000E+00 -0.00000000000E+00 -0.45593999997E+02  0.45594000000E+02  0.51100000000E-03 0.  1.
    9900012    2    1    2    0    0  0.42703718533E+02  0.28186325725E+01  0.14055601052E+02  0.46142332206E+02  0.10000131717E+02 0.  0.
        -12    1    1    2    0    0 -0.42703718533E+02 -0.28186325725E+01 -0.14055601052E+02  0.45045667794E+02  0.00000000000E+00 0.  1.
         11    1    3    3    0    0  0.19025443775E+02 -0.14631834240E+01  0.72127126110E+01  0.20399304891E+02  0.51100000000E-03 0. -1.
        -11    1    3    3    0    0  0.17408012255E+02  0.51723713866E+01  0.32095397023E+01  0.18441623079E+02  0.51100000000E-03 0.  1.
        -12    1    3    3    0    0  0.62702625029E+01 -0.89055539017E+00  0.36333487386E+01  0.73014042358E+01  0.00000000000E+00 0.  1.
</event>
<event>
 7    1  0.3766050E-009  0.4614232E+02  0.7816164E-02  0.1320468E+00
        -11   -1    0    0    0    0  0.00000000000E+00  0.00000000000E+00  0.45593999997E+02  0.45594000000E+02  0.51100000000E-03 0. -1.
         11   -1    0    0    0    0 -0.00000000000E+00 -0.00000000000E+00 -0.45593999997E+02  0.45594000000E+02  0.51100000000E-03 0.  1.
    9900012    2    1    2    0    0 -0.72232667960E+01 -0.14558442875E+02  0.42011780043E+02  0.46142317582E+02  0.99999983633E+01 0.  0.
        -12    1    1    2    0    0  0.72232667960E+01  0.14558442875E+02 -0.42011780043E+02  0.45045682418E+02  0.00000000000E+00 0.  1.
         11    1    3    3    0    0 -0.48651993475E+01 -0.18943128284E+01  0.14151422093E+02  0.15083810305E+02  0.51100000000E-03 0. -1.
        -11    1    3    3    0    0 -0.22057895386E+01 -0.65376344761E+01  0.97887530184E+01  0.11976053521E+02  0.51100000000E-03 0.  1.
         12    1    3    3    0    0 -0.15227790987E+00 -0.61264955701E+01  0.18071604932E+02  0.19082453756E+02  0.00000000000E+00 0. -1.
</event>
<event>
 7    1  0.3766050E-009  0.4614232E+02  0.7816164E-02  0.1320468E+00
        -11   -1    0    0    0    0  0.00000000000E+00  0.00000000000E+00  0.45593999997E+02  0.45594000000E+02  0.51100000000E-03 0. -1.
         11   -1    0    0    0    0 -0.00000000000E+00 -0.00000000000E+00 -0.45593999997E+02  0.45594000000E+02  0.51100000000E-03 0.  1.
    9900012    2    1    2    0    0  0.16388796427E+02 -0.29913913422E+02 -0.29422415563E+02  0.46142318719E+02  0.10000008731E+02 0.  0.
         12    1    1    2    0    0 -0.16388796427E+02  0.29913913422E+02  0.29422415563E+02  0.45045681281E+02  0.00000000000E+00 0. -1.
         11    1    3    3    0    0  0.14885141241E+02 -0.21128432479E+02 -0.23682682157E+02  0.35054921526E+02  0.51100000000E-03 0.  1.
        -11    1    3    3    0    0 -0.10306512277E+01 -0.26595955886E+01 -0.18817701082E+01  0.34171259341E+01  0.51100000000E-03 0. -1.
        -12    1    3    3    0    0  0.25343064142E+01 -0.61258853539E+01 -0.38579632976E+01  0.76702712583E+01  0.00000000000E+00 0.  1.
</event>
<event>
 7    1  0.3766050E-009  0.4614232E+02  0.7816164E-02  0.1320468E+00
        -11   -1    0    0    0    0  0.00000000000E+00  0.00000000000E+00  0.45593999997E+02  0.45594000000E+02  0.51100000000E-03 0. -1.
         11   -1    0    0    0    0 -0.00000000000E+00 -0.00000000000E+00 -0.45593999997E+02  0.45594000000E+02  0.51100000000E-03 0.  1.
    9900012    2    1    2    0    0 -0.63142423781E+00 -0.31582191442E+02  0.32113547799E+02  0.46142318020E+02  0.10000002359E+02 0.  0.
        -12    1    1    2    0    0  0.63142423781E+00  0.31582191442E+02 -0.32113547799E+02  0.45045681980E+02  0.00000000000E+00 0.  1.
         11    1    3    3    0    0 -0.17125745127E+00 -0.13806901588E+02  0.13077284911E+02  0.19017761211E+02  0.51100000000E-03 0. -1.
        -11    1    3    3    0    0 -0.32439317665E+01 -0.15108242350E+02  0.14801744648E+02  0.21397984136E+02  0.51100000000E-03 0.  1.
        -12    1    3    3    0    0  0.27837649800E+01 -0.26670475041E+01  0.42345182402E+01  0.57265726730E+01  0.00000000000E+00 0.  1.
</event>
<event>
 7    1  0.3766050E-009  0.4614232E+02  0.7816164E-02  0.1320468E+00
        -11   -1    0    0    0    0  0.00000000000E+00  0.00000000000E+00  0.45593999997E+02  0.45594000000E+02  0.51100000000E-03 0. -1.
         11   -1    0    0    0    0 -0.00000000000E+00 -0.00000000000E+00 -0.45593999997E+02  0.45594000000E+02  0.51100000000E-03 0.  1.
    9900012    2    1    2    0    0 -0.42883678650E+02 -0.13769945617E+02 -0.70156691857E+00  0.46142317709E+02  0.99999995270E+01 0.  0.
         12    1    1    2    0    0  0.42883678650E+02  0.13769945617E+02  0.70156691857E+00  0.45045682291E+02  0.00000000000E+00 0. -1.
         11    1    3    3    0    0 -0.12141348407E+02 -0.73964236724E+01  0.26198607138E-01  0.14216895262E+02  0.51100000000E-03 0. -1.
        -11    1    3    3    0    0 -0.22368586995E+02 -0.45826068606E+01  0.20450181441E+01  0.22924573480E+02  0.51100000000E-03 0.  1.
        -12    1    3    3    0    0 -0.83737432490E+01 -0.17909150843E+01 -0.27727836698E+01  0.90008489666E+01  0.00000000000E+00 0.  1.
</event>
<event>
 7    1  0.3766050E-009  0.4614232E+02  0.7816164E-02  0.1320468E+00
        -11   -1    0    0    0    0  0.00000000000E+00  0.00000000000E+00  0.45593999997E+02  0.45594000000E+02  0.51100000000E-03 0. -1.
         11   -1    0    0    0    0 -0.00000000000E+00 -0.00000000000E+00 -0.45593999997E+02  0.45594000000E+02  0.51100000000E-03 0.  1.
    9900012    2    1    2    0    0 -0.40852784008E+02  0.12255979132E+01  0.18938360983E+02  0.46142316875E+02  0.99999919166E+01 0.  0.
        -12    1    1    2    0    0  0.40852784008E+02 -0.12255979132E+01 -0.18938360983E+02  0.45045683125E+02  0.00000000000E+00 0.  1.
         11    1    3    3    0    0 -0.34409412911E+02  0.27228967189E+01  0.14656169184E+02  0.37499668783E+02  0.51100000000E-03 0. -1.
        -11    1    3    3    0    0 -0.28037026179E+00  0.42357382730E+00 -0.41764750557E+00  0.65761080504E+00  0.51100000000E-03 0.  1.
         12    1    3    3    0    0 -0.61630008352E+01 -0.19208726331E+01  0.46998393055E+01  0.79850372864E+01  0.00000000000E+00 0. -1.
</event>
<event>
 7    1  0.3766050E-009  0.4614232E+02  0.7816164E-02  0.1320468E+00
        -11   -1    0    0    0    0  0.00000000000E+00  0.00000000000E+00  0.45593999997E+02  0.45594000000E+02  0.51100000000E-03 0. -1.
         11   -1    0    0    0    0 -0.00000000000E+00 -0.00000000000E+00 -0.45593999997E+02  0.45594000000E+02  0.51100000000E-03 0.  1.
    9900012    2    1    2    0    0  0.11326555001E+02  0.15628895327E+02 -0.40700860039E+02  0.46142320682E+02  0.10000026634E+02 0.  0.
         12    1    1    2    0    0 -0.11326555001E+02 -0.15628895327E+02  0.40700860039E+02  0.45045679318E+02  0.00000000000E+00 0. -1.
         11    1    3    3    0    0  0.16832904204E+01  0.54268976569E+01 -0.85378107708E+01  0.10255676372E+02  0.51100000000E-03 0.  1.
        -11    1    3    3    0    0  0.36841603312E+01  0.56854407591E+01 -0.23430248734E+02  0.24390035465E+02  0.51100000000E-03 0. -1.
         12    1    3    3    0    0  0.59591042492E+01  0.45165569113E+01 -0.87328005337E+01  0.11496608846E+02  0.00000000000E+00 0. -1.
</event>
<event>
 7    1  0.3766050E-009  0.4614232E+02  0.7816164E-02  0.1320468E+00
        -11   -1    0    0    0    0  0.00000000000E+00  0.00000000000E+00  0.45593999997E+02  0.45594000000E+02  0.51100000000E-03 0. -1.
         11   -1    0    0    0    0 -0.00000000000E+00 -0.00000000000E+00 -0.45593999997E+02  0.45594000000E+02  0.51100000000E-03 0.  1.
    9900012    2    1    2    0    0  0.42844640534E+02  0.86203041282E+01 -0.10915160586E+02  0.46142316562E+02  0.99999890681E+01 0.  0.
         12    1    1    2    0    0 -0.42844640534E+02 -0.86203041282E+01  0.10915160586E+02  0.45045683438E+02  0.00000000000E+00 0. -1.
         11    1    3    3    0    0  0.15692466333E+02  0.47032981039E+01 -0.65234329025E+01  0.17633198512E+02  0.51100000000E-03 0.  1.
        -11    1    3    3    0    0  0.32342677616E+01  0.26149309026E+01 -0.12972233073E+01  0.43567350332E+01  0.51100000000E-03 0. -1.
         12    1    3    3    0    0  0.23917906440E+02  0.13020751217E+01 -0.30945043757E+01  0.24152383018E+02  0.00000000000E+00 0. -1.
</event>
<event>
 7    1  0.3766050E-009  0.4614232E+02  0.7816164E-02  0.1320468E+00
        -11   -1    0    0    0    0  0.00000000000E+00  0.00000000000E+00  0.45593999997E+02  0.45594000000E+02  0.51100000000E-03 0. -1.
         11   -1    0    0    0    0 -0.00000000000E+00 -0.00000000000E+00 -0.45593999997E+02  0.45594000000E+02  0.51100000000E-03 0.  1.
    9900012    2    1    2    0    0 -0.30729312997E+02 -0.31746645525E+02 -0.87734446751E+01  0.46142317512E+02  0.99999977324E+01 0.  0.
         12    1    1    2    0    0  0.30729312997E+02  0.31746645525E+02  0.87734446751E+01  0.45045682488E+02  0.00000000000E+00 0. -1.
         11    1    3    3    0    0 -0.26450518588E+01 -0.56403812044E+00  0.83165341233E+00  0.28295027825E+01  0.51100000000E-03 0. -1.
        -11    1    3    3    0    0 -0.20623368044E+02 -0.21930504140E+02 -0.89614931412E+01  0.31409850061E+02  0.51100000000E-03 0.  1.
         12    1    3    3    0    0 -0.74608930938E+01 -0.92521032645E+01 -0.64360494625E+00  0.11902964669E+02  0.00000000000E+00 0. -1.
</event>
<event>
 7    1  0.3766050E-009  0.4614232E+02  0.7816164E-02  0.1320468E+00
        -11   -1    0    0    0    0  0.00000000000E+00  0.00000000000E+00  0.45593999997E+02  0.45594000000E+02  0.51100000000E-03 0.  1.
         11   -1    0    0    0    0 -0.00000000000E+00 -0.00000000000E+00 -0.45593999997E+02  0.45594000000E+02  0.51100000000E-03 0. -1.
    9900012    2    1    2    0    0 -0.33495727243E+02  0.29701765503E+02 -0.49954848869E+01  0.46142317779E+02  0.10000000160E+02 0.  0.
         12    1    1    2    0    0  0.33495727243E+02 -0.29701765503E+02  0.49954848869E+01  0.45045682221E+02  0.00000000000E+00 0. -1.
         11    1    3    3    0    0 -0.21831606582E+02  0.21586317812E+02 -0.26397760658E+01  0.30814875963E+02  0.51100000000E-03 0. -1.
        -11    1    3    3    0    0  0.29455740107E+00  0.10131746290E+01 -0.81584174629E+00  0.13337484424E+01  0.51100000000E-03 0.  1.
        -12    1    3    3    0    0 -0.11958678062E+02  0.71022730618E+01 -0.15398670748E+01  0.13993693374E+02  0.00000000000E+00 0.  1.
</event>
<event>
 7    1  0.3766050E-009  0.4614232E+02  0.7816164E-02  0.1320468E+00
        -11   -1    0    0    0    0  0.00000000000E+00  0.00000000000E+00  0.45593999997E+02  0.45594000000E+02  0.51100000000E-03 0. -1.
         11   -1    0    0    0    0 -0.00000000000E+00 -0.00000000000E+00 -0.45593999997E+02  0.45594000000E+02  0.51100000000E-03 0.  1.
    9900012    2    1    2    0    0  0.36047529334E+02 -0.21081615454E+02  0.16889481854E+02  0.46142317870E+02  0.10000000993E+02 0.  0.
        -12    1    1    2    0    0 -0.36047529334E+02  0.21081615454E+02 -0.16889481854E+02  0.45045682130E+02  0.00000000000E+00 0.  1.
         11    1    3    3    0    0  0.17735151290E+02 -0.79988937134E+01  0.82601198779E+01  0.21136401599E+02  0.51100000000E-03 0. -1.
        -11    1    3    3    0    0  0.12924248578E+02 -0.11139150465E+02  0.89537347276E+01  0.19268789277E+02  0.51100000000E-03 0.  1.
        -12    1    3    3    0    0  0.53881294671E+01 -0.19435712756E+01 -0.32437275176E+00  0.57371269935E+01  0.00000000000E+00 0.  1.
</event>
<event>
 7    1  0.3766050E-009  0.4614232E+02  0.7816164E-02  0.1320468E+00
        -11   -1    0    0    0    0  0.00000000000E+00  0.00000000000E+00  0.45593999997E+02  0.45594000000E+02  0.51100000000E-03 0. -1.
         11   -1    0    0    0    0 -0.00000000000E+00 -0.00000000000E+00 -0.45593999997E+02  0.45594000000E+02  0.51100000000E-03 0.  1.
    9900012    2    1    2    0    0 -0.15171362772E+01 -0.22603918268E+02  0.38934236110E+02  0.46142316910E+02  0.99999922429E+01 0.  0.
        -12    1    1    2    0    0  0.15171362772E+01  0.22603918268E+02 -0.38934236110E+02  0.45045683090E+02  0.00000000000E+00 0.  1.
         11    1    3    3    0    0  0.19814094840E+01 -0.11557541938E+02  0.14863301222E+02  0.18931996267E+02  0.51100000000E-03 0. -1.
        -11    1    3    3    0    0 -0.45262299688E+01 -0.73026841750E+01  0.18739938844E+02  0.20615558737E+02  0.51100000000E-03 0.  1.
        -12    1    3    3    0    0  0.10276842076E+01 -0.37436921549E+01  0.53309960442E+01  0.65947619066E+01  0.00000000000E+00 0.  1.
</event>
<event>
 7    1  0.3766050E-009  0.4614232E+02  0.7816164E-02  0.1320468E+00
        -11   -1    0    0    0    0  0.00000000000E+00  0.00000000000E+00  0.45593999997E+02  0.45594000000E+02  0.51100000000E-03 0. -1.
         11   -1    0    0    0    0 -0.00000000000E+00 -0.00000000000E+00 -0.45593999997E+02  0.45594000000E+02  0.51100000000E-03 0.  1.
    9900012    2    1    2    0    0  0.61380760927E+01  0.15388535328E+02 -0.41888310641E+02  0.46142316900E+02  0.99999921441E+01 0.  0.
         12    1    1    2    0    0 -0.61380760927E+01 -0.15388535328E+02  0.41888310641E+02  0.45045683100E+02  0.00000000000E+00 0. -1.
         11    1    3    3    0    0  0.21584824747E+01  0.88540508905E+00 -0.99917956683E+01  0.10260554064E+02  0.51100000000E-03 0. -1.
        -11    1    3    3    0    0  0.78172507395E+00  0.10207330973E+02 -0.15028068675E+02  0.18183606574E+02  0.51100000000E-03 0.  1.
        -12    1    3    3    0    0  0.31978685440E+01  0.42957992653E+01 -0.16868446298E+02  0.17698156261E+02  0.00000000000E+00 0.  1.
</event>
<event>
 7    1  0.3766050E-009  0.4614232E+02  0.7816164E-02  0.1320468E+00
        -11   -1    0    0    0    0  0.00000000000E+00  0.00000000000E+00  0.45593999997E+02  0.45594000000E+02  0.51100000000E-03 0. -1.
         11   -1    0    0    0    0 -0.00000000000E+00 -0.00000000000E+00 -0.45593999997E+02  0.45594000000E+02  0.51100000000E-03 0.  1.
    9900012    2    1    2    0    0  0.30464900281E+02 -0.97350173253E+01  0.31721173188E+02  0.46142317190E+02  0.99999947888E+01 0.  0.
        -12    1    1    2    0    0 -0.30464900281E+02  0.97350173253E+01 -0.31721173188E+02  0.45045682810E+02  0.00000000000E+00 0.  1.
         11    1    3    3    0    0  0.16761438622E+02 -0.33918597865E+01  0.12711069335E+02  0.21307787811E+02  0.51100000000E-03 0. -1.
        -11    1    3    3    0    0  0.82272384079E+01 -0.44191706653E+01  0.15364925236E+02  0.17980474102E+02  0.51100000000E-03 0.  1.
        -12    1    3    3    0    0  0.54762232504E+01 -0.19239868734E+01  0.36451786179E+01  0.68540552765E+01  0.00000000000E+00 0.  1.
</event>
<event>
 7    1  0.3766050E-009  0.4614232E+02  0.7816164E-02  0.1320468E+00
        -11   -1    0    0    0    0  0.00000000000E+00  0.00000000000E+00  0.45593999997E+02  0.45594000000E+02  0.51100000000E-03 0. -1.
         11   -1    0    0    0    0 -0.00000000000E+00 -0.00000000000E+00 -0.45593999997E+02  0.45594000000E+02  0.51100000000E-03 0.  1.
    9900012    2    1    2    0    0  0.19872976673E+02 -0.28987437162E+02  0.28176351455E+02  0.46142317672E+02  0.99999991901E+01 0.  0.
        -12    1    1    2    0    0 -0.19872976673E+02  0.28987437162E+02 -0.28176351455E+02  0.45045682328E+02  0.00000000000E+00 0.  1.
         11    1    3    3    0    0 -0.14255934458E+00 -0.34383960276E+01  0.14668223813E+01  0.37409168086E+01  0.51100000000E-03 0. -1.
        -11    1    3    3    0    0  0.47707970968E+01 -0.10178673381E+02  0.81259792609E+01  0.13870740281E+02  0.51100000000E-03 0.  1.
         12    1    3    3    0    0  0.15244738921E+02 -0.15370367753E+02  0.18583549813E+02  0.28530660582E+02  0.00000000000E+00 0. -1.
</event>
<event>
 7    1  0.3766050E-009  0.4614232E+02  0.7816164E-02  0.1320468E+00
        -11   -1    0    0    0    0  0.00000000000E+00  0.00000000000E+00  0.45593999997E+02  0.45594000000E+02  0.51100000000E-03 0. -1.
         11   -1    0    0    0    0 -0.00000000000E+00 -0.00000000000E+00 -0.45593999997E+02  0.45594000000E+02  0.51100000000E-03 0.  1.
    9900012    2    1    2    0    0  0.20788849618E+02 -0.21350005355E+02  0.33780386459E+02  0.46142317561E+02  0.99999981755E+01 0.  0.
        -12    1    1    2    0    0 -0.20788849618E+02  0.21350005355E+02 -0.33780386459E+02  0.45045682439E+02  0.00000000000E+00 0.  1.
         11    1    3    3    0    0  0.79693741307E+01 -0.49957128695E+01  0.12589665182E+02  0.15715207309E+02  0.51100000000E-03 0. -1.
        -11    1    3    3    0    0  0.41231169445E+01 -0.36674666348E+01  0.20840525909E+01  0.58986168140E+01  0.51100000000E-03 0.  1.
         12    1    3    3    0    0  0.86963585425E+01 -0.12686825850E+02  0.19106668686E+02  0.24528493438E+02  0.00000000000E+00 0. -1.
</event>
<event>
 7    1  0.3766050E-009  0.4614232E+02  0.7816164E-02  0.1320468E+00
        -11   -1    0    0    0    0  0.00000000000E+00  0.00000000000E+00  0.45593999997E+02  0.45594000000E+02  0.51100000000E-03 0. -1.
         11   -1    0    0    0    0 -0.00000000000E+00 -0.00000000000E+00 -0.45593999997E+02  0.45594000000E+02  0.51100000000E-03 0.  1.
    9900012    2    1    2    0    0 -0.11592125504E+02 -0.15136392580E+02 -0.40812078444E+02  0.46142317621E+02  0.99999987240E+01 0.  0.
         12    1    1    2    0    0  0.11592125504E+02  0.15136392580E+02  0.40812078444E+02  0.45045682379E+02  0.00000000000E+00 0. -1.
         11    1    3    3    0    0 -0.78136567055E+00  0.51543422193E-01  0.26809342360E+00  0.82768555647E+00  0.51100000000E-03 0. -1.
        -11    1    3    3    0    0 -0.11308620082E+01 -0.25339907142E+00 -0.43215953212E+01  0.44742872452E+01  0.51100000000E-03 0.  1.
         12    1    3    3    0    0 -0.96798978254E+01 -0.14934536931E+02 -0.36758576547E+02  0.40840344820E+02  0.00000000000E+00 0. -1.
</event>
<event>
 7    1  0.3766050E-009  0.4614231E+02  0.7816164E-02  0.1320468E+00
        -11   -1    0    0    0    0  0.00000000000E+00  0.00000000000E+00  0.45593999997E+02  0.45594000000E+02  0.51100000000E-03 0. -1.
         11   -1    0    0    0    0 -0.00000000000E+00 -0.00000000000E+00 -0.45593999997E+02  0.45594000000E+02  0.51100000000E-03 0.  1.
    9900012    2    1    2    0    0  0.85515220559E+01  0.22734363715E+02  0.37935919045E+02  0.46142314560E+02  0.99999708097E+01 0.  0.
        -12    1    1    2    0    0 -0.85515220559E+01 -0.22734363715E+02 -0.37935919045E+02  0.45045685440E+02  0.00000000000E+00 0.  1.
         11    1    3    3    0    0  0.42287115762E+00  0.78339152441E+01  0.57871836497E+01  0.97488739311E+01  0.51100000000E-03 0. -1.
        -11    1    3    3    0    0  0.97888905457E+00  0.28180396282E+01  0.65560815530E+01  0.72029005767E+01  0.51100000000E-03 0.  1.
         12    1    3    3    0    0  0.71497618437E+01  0.12082408842E+02  0.25592653842E+02  0.29190540052E+02  0.00000000000E+00 0. -1.
</event>
<event>
 7    1  0.3766050E-009  0.4614232E+02  0.7816164E-02  0.1320468E+00
        -11   -1    0    0    0    0  0.00000000000E+00  0.00000000000E+00  0.45593999997E+02  0.45594000000E+02  0.51100000000E-03 0. -1.
         11   -1    0    0    0    0 -0.00000000000E+00 -0.00000000000E+00 -0.45593999997E+02  0.45594000000E+02  0.51100000000E-03 0.  1.
    9900012    2    1    2    0    0  0.40058775163E+02 -0.16356444901E+02  0.12524963167E+02  0.46142318079E+02  0.10000002901E+02 0.  0.
        -12    1    1    2    0    0 -0.40058775163E+02  0.16356444901E+02 -0.12524963167E+02  0.45045681921E+02  0.00000000000E+00 0.  1.
         11    1    3    3    0    0  0.31969462767E+02 -0.14380468831E+02  0.88670440406E+01  0.36158939472E+02  0.51100000000E-03 0. -1.
        -11    1    3    3    0    0  0.79615372872E+01 -0.76491646223E+00  0.27261940882E+01  0.84500477891E+01  0.51100000000E-03 0.  1.
         12    1    3    3    0    0  0.12777510865E+00 -0.12110596080E+01  0.93172503825E+00  0.15333308186E+01  0.00000000000E+00 0. -1.
</event>
<event>
 7    1  0.3766050E-009  0.4614232E+02  0.7816164E-02  0.1320468E+00
        -11   -1    0    0    0    0  0.00000000000E+00  0.00000000000E+00  0.45593999997E+02  0.45594000000E+02  0.51100000000E-03 0.  1.
         11   -1    0    0    0    0 -0.00000000000E+00 -0.00000000000E+00 -0.45593999997E+02  0.45594000000E+02  0.51100000000E-03 0. -1.
    9900012    2    1    2    0    0 -0.21704002074E+02 -0.36281409271E+02 -0.15546983699E+02  0.46142322440E+02  0.10000042665E+02 0.  0.
         12    1    1    2    0    0  0.21704002074E+02  0.36281409271E+02  0.15546983699E+02  0.45045677560E+02  0.00000000000E+00 0. -1.
         11    1    3    3    0    0  0.47892698762E+00 -0.33890823672E+01 -0.22425435543E+01  0.40919741208E+01  0.51100000000E-03 0. -1.
        -11    1    3    3    0    0 -0.10251640089E+02 -0.17359424289E+02 -0.49675325968E+01  0.20763480357E+02  0.51100000000E-03 0.  1.
         12    1    3    3    0    0 -0.11931288972E+02 -0.15532902615E+02 -0.83369075484E+01  0.21286867962E+02  0.00000000000E+00 0. -1.
</event>
<event>
 7    1  0.3766050E-009  0.4614232E+02  0.7816164E-02  0.1320468E+00
        -11   -1    0    0    0    0  0.00000000000E+00  0.00000000000E+00  0.45593999997E+02  0.45594000000E+02  0.51100000000E-03 0. -1.
         11   -1    0    0    0    0 -0.00000000000E+00 -0.00000000000E+00 -0.45593999997E+02  0.45594000000E+02  0.51100000000E-03 0.  1.
    9900012    2    1    2    0    0  0.18368159793E+02 -0.13309912575E+02 -0.38917481557E+02  0.46142318324E+02  0.10000005133E+02 0.  0.
         12    1    1    2    0    0 -0.18368159793E+02  0.13309912575E+02  0.38917481557E+02  0.45045681676E+02  0.00000000000E+00 0. -1.
         11    1    3    3    0    0 -0.11035217141E+00  0.19829762861E-01  0.24704918659E+00  0.27130127709E+00  0.51100000000E-03 0. -1.
        -11    1    3    3    0    0  0.10907557059E+02 -0.78293784397E+01 -0.15997063977E+02  0.20884923363E+02  0.51100000000E-03 0.  1.
        -12    1    3    3    0    0  0.75709549051E+01 -0.55003638978E+01 -0.23167466767E+02  0.24986093684E+02  0.00000000000E+00 0.  1.
</event>
<event>
 7    1  0.3766050E-009  0.4614232E+02  0.7816164E-02  0.1320468E+00
        -11   -1    0    0    0    0  0.00000000000E+00  0.00000000000E+00  0.45593999997E+02  0.45594000000E+02  0.51100000000E-03 0. -1.
         11   -1    0    0    0    0 -0.00000000000E+00 -0.00000000000E+00 -0.45593999997E+02  0.45594000000E+02  0.51100000000E-03 0.  1.
    9900012    2    1    2    0    0  0.26516330154E+02  0.11248034995E+02 -0.34633501836E+02  0.46142317571E+02  0.99999982640E+01 0.  0.
         12    1    1    2    0    0 -0.26516330154E+02 -0.11248034995E+02  0.34633501836E+02  0.45045682429E+02  0.00000000000E+00 0. -1.
         11    1    3    3    0    0  0.85002371471E+01  0.18416373262E+01 -0.12023138190E+02  0.14839188381E+02  0.51100000000E-03 0. -1.
        -11    1    3    3    0    0  0.11280252696E+02  0.67054926830E+01 -0.91072639205E+01  0.15973415082E+02  0.51100000000E-03 0.  1.
        -12    1    3    3    0    0  0.67358403114E+01  0.27009049856E+01 -0.13503099725E+02  0.15329714108E+02  0.00000000000E+00 0.  1.
</event>
<event>
 7    1  0.4358010E-009  0.4614232E+02  0.7816164E-02  0.1320468E+00
        -11   -1    0    0    0    0  0.00000000000E+00  0.00000000000E+00  0.45593999997E+02  0.45594000000E+02  0.51100000000E-03 0. -1.
         11   -1    0    0    0    0 -0.00000000000E+00 -0.00000000000E+00 -0.45593999997E+02  0.45594000000E+02  0.51100000000E-03 0.  1.
    9900012    2    1    2    0    0  0.32579310156E+02 -0.62312486294E+01 -0.30477427521E+02  0.46142317654E+02  0.99999990256E+01 0.  0.
         12    1    1    2    0    0 -0.32579310156E+02  0.62312486294E+01  0.30477427521E+02  0.45045682346E+02  0.00000000000E+00 0. -1.
         11    1    3    3    0    0  0.54189609504E+00 -0.48884887491E+00  0.73654841619E+00  0.10368840007E+01  0.51100000000E-03 0. -1.
        -11    1    3    3    0    0  0.23947456246E+02 -0.43236157506E+01 -0.22789083708E+02  0.33339415866E+02  0.51100000000E-03 0.  1.
         12    1    3    3    0    0  0.80899578150E+01 -0.14187840038E+01 -0.84248922292E+01  0.11766017787E+02  0.00000000000E+00 0. -1.
</event>
<event>
 7    1  0.3766050E-009  0.4614232E+02  0.7816164E-02  0.1320468E+00
        -11   -1    0    0    0    0  0.00000000000E+00  0.00000000000E+00  0.45593999997E+02  0.45594000000E+02  0.51100000000E-03 0. -1.
         11   -1    0    0    0    0 -0.00000000000E+00 -0.00000000000E+00 -0.45593999997E+02  0.45594000000E+02  0.51100000000E-03 0.  1.
    9900012    2    1    2    0    0 -0.19687485207E+02 -0.17809717415E+02 -0.36391350990E+02  0.46142317243E+02  0.99999952729E+01 0.  0.
         12    1    1    2    0    0  0.19687485207E+02  0.17809717415E+02  0.36391350990E+02  0.45045682757E+02  0.00000000000E+00 0. -1.
         11    1    3    3    0    0 -0.27292418549E+01 -0.35222115373E+01 -0.19430582566E+01  0.48610915303E+01  0.51100000000E-03 0. -1.
        -11    1    3    3    0    0 -0.38554936407E+01 -0.15142637793E+01 -0.40049326569E+01  0.57617108444E+01  0.51100000000E-03 0.  1.
         12    1    3    3    0    0 -0.13102749711E+02 -0.12773242099E+02 -0.30443360077E+02  0.35519514868E+02  0.00000000000E+00 0. -1.
</event>
<event>
 7    1  0.3766050E-009  0.4614232E+02  0.7816164E-02  0.1320468E+00
        -11   -1    0    0    0    0  0.00000000000E+00  0.00000000000E+00  0.45593999997E+02  0.45594000000E+02  0.51100000000E-03 0. -1.
         11   -1    0    0    0    0 -0.00000000000E+00 -0.00000000000E+00 -0.45593999997E+02  0.45594000000E+02  0.51100000000E-03 0.  1.
    9900012    2    1    2    0    0  0.89470115298E+00 -0.23406121296E+02 -0.38476830621E+02  0.46142317644E+02  0.99999989329E+01 0.  0.
         12    1    1    2    0    0 -0.89470115298E+00  0.23406121296E+02  0.38476830621E+02  0.45045682356E+02  0.00000000000E+00 0. -1.
         11    1    3    3    0    0 -0.13486970110E+01 -0.16046761614E+02 -0.23030666230E+02  0.28102119656E+02  0.51100000000E-03 0. -1.
        -11    1    3    3    0    0  0.38930258019E+01 -0.60083808864E+01 -0.12470016353E+02  0.14379068081E+02  0.51100000000E-03 0.  1.
         12    1    3    3    0    0 -0.16496276380E+01 -0.13509787954E+01 -0.29761480381E+01  0.36611299068E+01  0.00000000000E+00 0. -1.
</event>
<event>
 7    1  0.3766050E-009  0.4614232E+02  0.7816164E-02  0.1320468E+00
        -11   -1    0    0    0    0  0.00000000000E+00  0.00000000000E+00  0.45593999997E+02  0.45594000000E+02  0.51100000000E-03 0. -1.
         11   -1    0    0    0    0 -0.00000000000E+00 -0.00000000000E+00 -0.45593999997E+02  0.45594000000E+02  0.51100000000E-03 0.  1.
    9900012    2    1    2    0    0 -0.13772523610E+02  0.30537851797E+02  0.30114294507E+02  0.46142317270E+02  0.99999955220E+01 0.  0.
        -12    1    1    2    0    0  0.13772523610E+02 -0.30537851797E+02 -0.30114294507E+02  0.45045682730E+02  0.00000000000E+00 0.  1.
         11    1    3    3    0    0 -0.14244338153E+01  0.71631423170E+01  0.27847919637E+01  0.78163089812E+01  0.51100000000E-03 0. -1.
        -11    1    3    3    0    0 -0.34066080387E+01  0.36685467336E+01  0.33387747180E+01  0.60175269293E+01  0.51100000000E-03 0.  1.
         12    1    3    3    0    0 -0.89414817564E+01  0.19706162746E+02  0.23990727825E+02  0.32308481360E+02  0.00000000000E+00 0. -1.
</event>
<event>
 7    1  0.3766050E-009  0.4614232E+02  0.7816164E-02  0.1320468E+00
        -11   -1    0    0    0    0  0.00000000000E+00  0.00000000000E+00  0.45593999997E+02  0.45594000000E+02  0.51100000000E-03 0. -1.
         11   -1    0    0    0    0 -0.00000000000E+00 -0.00000000000E+00 -0.45593999997E+02  0.45594000000E+02  0.51100000000E-03 0.  1.
    9900012    2    1    2    0    0 -0.33312821979E+01 -0.86827168765E+01  0.44075234509E+02  0.46142319736E+02  0.10000018006E+02 0.  0.
        -12    1    1    2    0    0  0.33312821979E+01  0.86827168765E+01 -0.44075234509E+02  0.45045680264E+02  0.00000000000E+00 0.  1.
         11    1    3    3    0    0 -0.28455097571E+01 -0.36109687740E+01  0.17247939770E+02  0.17850138594E+02  0.51100000000E-03 0. -1.
        -11    1    3    3    0    0 -0.24056963792E+01 -0.52169960810E+01  0.11610716178E+02  0.12954271635E+02  0.51100000000E-03 0.  1.
         12    1    3    3    0    0  0.19199239384E+01  0.14524797858E+00  0.15216578561E+02  0.15337909506E+02  0.00000000000E+00 0. -1.
</event>
<event>
 7    1  0.3766050E-009  0.4614232E+02  0.7816164E-02  0.1320468E+00
        -11   -1    0    0    0    0  0.00000000000E+00  0.00000000000E+00  0.45593999997E+02  0.45594000000E+02  0.51100000000E-03 0. -1.
         11   -1    0    0    0    0 -0.00000000000E+00 -0.00000000000E+00 -0.45593999997E+02  0.45594000000E+02  0.51100000000E-03 0.  1.
    9900012    2    1    2    0    0  0.28862981283E+02 -0.15668605412E+02 -0.30830769334E+02  0.46142320719E+02  0.10000026975E+02 0.  0.
         12    1    1    2    0    0 -0.28862981283E+02  0.15668605412E+02  0.30830769334E+02  0.45045679281E+02  0.00000000000E+00 0. -1.
         11    1    3    3    0    0  0.52610647033E+01 -0.51401445313E+01 -0.32756626775E+01  0.80516988178E+01  0.51100000000E-03 0. -1.
        -11    1    3    3    0    0  0.92332360758E+01 -0.55455018891E+01 -0.85625771823E+01  0.13759468300E+02  0.51100000000E-03 0.  1.
        -12    1    3    3    0    0  0.14368680504E+02 -0.49829589915E+01 -0.18992529475E+02  0.24331153602E+02  0.00000000000E+00 0.  1.
</event>
<event>
 7    1  0.3766050E-009  0.4614232E+02  0.7816164E-02  0.1320468E+00
        -11   -1    0    0    0    0  0.00000000000E+00  0.00000000000E+00  0.45593999997E+02  0.45594000000E+02  0.51100000000E-03 0. -1.
         11   -1    0    0    0    0 -0.00000000000E+00 -0.00000000000E+00 -0.45593999997E+02  0.45594000000E+02  0.51100000000E-03 0.  1.
    9900012    2    1    2    0    0 -0.28771574693E+02  0.96665919426E+01 -0.33284636368E+02  0.46142317318E+02  0.99999959626E+01 0.  0.
         12    1    1    2    0    0  0.28771574693E+02 -0.96665919426E+01  0.33284636368E+02  0.45045682682E+02  0.00000000000E+00 0. -1.
         11    1    3    3    0    0 -0.87517854284E+01  0.58732918926E+01 -0.16784120807E+02  0.19819082152E+02  0.51100000000E-03 0. -1.
        -11    1    3    3    0    0 -0.10330831002E+02  0.23402419437E+01 -0.71491345241E+01  0.12779394597E+02  0.51100000000E-03 0.  1.
         12    1    3    3    0    0 -0.96889582618E+01  0.14530581063E+01 -0.93513810379E+01  0.13543840570E+02  0.00000000000E+00 0. -1.
</event>
<event>
 7    1  0.3766050E-009  0.4614232E+02  0.7816164E-02  0.1320468E+00
        -11   -1    0    0    0    0  0.00000000000E+00  0.00000000000E+00  0.45593999997E+02  0.45594000000E+02  0.51100000000E-03 0. -1.
         11   -1    0    0    0    0 -0.00000000000E+00 -0.00000000000E+00 -0.45593999997E+02  0.45594000000E+02  0.51100000000E-03 0.  1.
    9900012    2    1    2    0    0 -0.11017526882E+02  0.37178733040E+02  0.22923121415E+02  0.46142316695E+02  0.99999902761E+01 0.  0.
        -12    1    1    2    0    0  0.11017526882E+02 -0.37178733040E+02 -0.22923121415E+02  0.45045683305E+02  0.00000000000E+00 0.  1.
         11    1    3    3    0    0 -0.31714028006E+01  0.89227155960E+01  0.26845083679E+01  0.98427249667E+01  0.51100000000E-03 0.  1.
        -11    1    3    3    0    0 -0.37514703654E+01  0.14523183866E+02  0.14501339294E+02  0.20863490626E+02  0.51100000000E-03 0. -1.
         12    1    3    3    0    0 -0.40946537158E+01  0.13732833578E+02  0.57372737529E+01  0.15436101102E+02  0.00000000000E+00 0. -1.
</event>
<event>
 7    1  0.3766050E-009  0.4614232E+02  0.7816164E-02  0.1320468E+00
        -11   -1    0    0    0    0  0.00000000000E+00  0.00000000000E+00  0.45593999997E+02  0.45594000000E+02  0.51100000000E-03 0. -1.
         11   -1    0    0    0    0 -0.00000000000E+00 -0.00000000000E+00 -0.45593999997E+02  0.45594000000E+02  0.51100000000E-03 0.  1.
    9900012    2    1    2    0    0 -0.29960621470E+02 -0.16716755121E+02  0.29189465139E+02  0.46142316347E+02  0.99999871082E+01 0.  0.
        -12    1    1    2    0    0  0.29960621470E+02  0.16716755121E+02 -0.29189465139E+02  0.45045683653E+02  0.00000000000E+00 0.  1.
         11    1    3    3    0    0 -0.21598470295E+02 -0.11268089143E+02  0.23832421952E+02  0.34080024771E+02  0.51100000000E-03 0. -1.
        -11    1    3    3    0    0 -0.18795532375E+01 -0.36014380582E+01  0.21818096592E+01  0.46112221927E+01  0.51100000000E-03 0.  1.
         12    1    3    3    0    0 -0.64825979374E+01 -0.18472279194E+01  0.31752335271E+01  0.74510693833E+01  0.00000000000E+00 0. -1.
</event>
<event>
 7    1  0.3766050E-009  0.4614232E+02  0.7816164E-02  0.1320468E+00
        -11   -1    0    0    0    0  0.00000000000E+00  0.00000000000E+00  0.45593999997E+02  0.45594000000E+02  0.51100000000E-03 0. -1.
         11   -1    0    0    0    0 -0.00000000000E+00 -0.00000000000E+00 -0.45593999997E+02  0.45594000000E+02  0.51100000000E-03 0.  1.
    9900012    2    1    2    0    0 -0.31334005252E+02  0.66892678054E+01  0.31663026519E+02  0.46142318329E+02  0.10000005175E+02 0.  0.
        -12    1    1    2    0    0  0.31334005252E+02 -0.66892678054E+01 -0.31663026519E+02  0.45045681671E+02  0.00000000000E+00 0.  1.
         11    1    3    3    0    0 -0.15252809378E+02  0.34433718901E+01  0.12895801395E+02  0.20268366924E+02  0.51100000000E-03 0. -1.
        -11    1    3    3    0    0 -0.16722193453E+02  0.32935098587E+01  0.17365402566E+02  0.24331793349E+02  0.51100000000E-03 0.  1.
        -12    1    3    3    0    0  0.64099757838E+00 -0.47613943467E-01  0.14018225579E+01  0.15421580551E+01  0.00000000000E+00 0.  1.
</event>
<event>
 7    1  0.3766050E-009  0.4614232E+02  0.7816164E-02  0.1320468E+00
        -11   -1    0    0    0    0  0.00000000000E+00  0.00000000000E+00  0.45593999997E+02  0.45594000000E+02  0.51100000000E-03 0. -1.
         11   -1    0    0    0    0 -0.00000000000E+00 -0.00000000000E+00 -0.45593999997E+02  0.45594000000E+02  0.51100000000E-03 0.  1.
    9900012    2    1    2    0    0 -0.13799192851E+02  0.42285325842E+01 -0.42671012439E+02  0.46142317480E+02  0.99999974350E+01 0.  0.
         12    1    1    2    0    0  0.13799192851E+02 -0.42285325842E+01  0.42671012439E+02  0.45045682520E+02  0.00000000000E+00 0. -1.
         11    1    3    3    0    0  0.12194648590E+01 -0.48177683625E+00 -0.26675246355E+01  0.29723545219E+01  0.51100000000E-03 0. -1.
        -11    1    3    3    0    0 -0.83227714933E+01  0.42941990409E+01 -0.26175805075E+02  0.27800745356E+02  0.51100000000E-03 0.  1.
        -12    1    3    3    0    0 -0.66958862168E+01  0.41611037959E+00 -0.13827682728E+02  0.15369217602E+02  0.00000000000E+00 0.  1.
</event>
<event>
 7    1  0.3766050E-009  0.4614232E+02  0.7816164E-02  0.1320468E+00
        -11   -1    0    0    0    0  0.00000000000E+00  0.00000000000E+00  0.45593999997E+02  0.45594000000E+02  0.51100000000E-03 0. -1.
         11   -1    0    0    0    0 -0.00000000000E+00 -0.00000000000E+00 -0.45593999997E+02  0.45594000000E+02  0.51100000000E-03 0.  1.
    9900012    2    1    2    0    0 -0.58084540695E+00  0.18596860758E+02 -0.41023564675E+02  0.46142317965E+02  0.10000001855E+02 0.  0.
         12    1    1    2    0    0  0.58084540695E+00 -0.18596860758E+02  0.41023564675E+02  0.45045682035E+02  0.00000000000E+00 0. -1.
         11    1    3    3    0    0  0.17223775780E+01  0.15461996227E+02 -0.32526382073E+02  0.36055588234E+02  0.51100000000E-03 0.  1.
        -11    1    3    3    0    0 -0.23293026274E+00  0.98320470185E+00  0.71253994292E-01  0.10129291120E+01  0.51100000000E-03 0. -1.
        -12    1    3    3    0    0 -0.20702927222E+01  0.21516598286E+01 -0.85684365960E+01  0.90738006190E+01  0.00000000000E+00 0.  1.
</event>
<event>
 7    1  0.3766050E-009  0.4614232E+02  0.7816164E-02  0.1320468E+00
        -11   -1    0    0    0    0  0.00000000000E+00  0.00000000000E+00  0.45593999997E+02  0.45594000000E+02  0.51100000000E-03 0. -1.
         11   -1    0    0    0    0 -0.00000000000E+00 -0.00000000000E+00 -0.45593999997E+02  0.45594000000E+02  0.51100000000E-03 0.  1.
    9900012    2    1    2    0    0 -0.20871936504E+02  0.33938012986E+02  0.21016354668E+02  0.46142316273E+02  0.99999864321E+01 0.  0.
        -12    1    1    2    0    0  0.20871936504E+02 -0.33938012986E+02 -0.21016354668E+02  0.45045683727E+02  0.00000000000E+00 0.  1.
         11    1    3    3    0    0 -0.10754728366E+02  0.22653999393E+02  0.17298723834E+02  0.30464958842E+02  0.51100000000E-03 0.  1.
        -11    1    3    3    0    0 -0.57005534969E+01  0.74518538742E+01  0.22263268806E+01  0.96427676511E+01  0.51100000000E-03 0. -1.
        -12    1    3    3    0    0 -0.44166546405E+01  0.38321597193E+01  0.14913039538E+01  0.60345897798E+01  0.00000000000E+00 0.  1.
</event>
<event>
 7    1  0.3766050E-009  0.4614232E+02  0.7816164E-02  0.1320468E+00
        -11   -1    0    0    0    0  0.00000000000E+00  0.00000000000E+00  0.45593999997E+02  0.45594000000E+02  0.51100000000E-03 0. -1.
         11   -1    0    0    0    0 -0.00000000000E+00 -0.00000000000E+00 -0.45593999997E+02  0.45594000000E+02  0.51100000000E-03 0.  1.
    9900012    2    1    2    0    0  0.32903841671E+02 -0.26567472200E+00  0.30763290808E+02  0.46142318286E+02  0.10000004783E+02 0.  0.
        -12    1    1    2    0    0 -0.32903841671E+02  0.26567472200E+00 -0.30763290808E+02  0.45045681714E+02  0.00000000000E+00 0.  1.
         11    1    3    3    0    0  0.13171642222E+02  0.48148596534E-02  0.15243267697E+02  0.20145704067E+02  0.51100000000E-03 0. -1.
        -11    1    3    3    0    0  0.14645072063E+02  0.27931417512E+01  0.10770275641E+02  0.18392352058E+02  0.51100000000E-03 0.  1.
        -12    1    3    3    0    0  0.50871273853E+01 -0.30636313328E+01  0.47497474708E+01  0.76042621611E+01  0.00000000000E+00 0.  1.
</event>
<event>
 7    1  0.3766050E-009  0.4614232E+02  0.7816164E-02  0.1320468E+00
        -11   -1    0    0    0    0  0.00000000000E+00  0.00000000000E+00  0.45593999997E+02  0.45594000000E+02  0.51100000000E-03 0. -1.
         11   -1    0    0    0    0 -0.00000000000E+00 -0.00000000000E+00 -0.45593999997E+02  0.45594000000E+02  0.51100000000E-03 0.  1.
    9900012    2    1    2    0    0  0.11723346444E+01  0.19654696051E+02  0.40514589786E+02  0.46142318399E+02  0.10000005814E+02 0.  0.
        -12    1    1    2    0    0 -0.11723346444E+01 -0.19654696051E+02 -0.40514589786E+02  0.45045681601E+02  0.00000000000E+00 0.  1.
         11    1    3    3    0    0  0.17563511109E+01  0.52050547945E+01  0.13761338151E+02  0.14817280203E+02  0.51100000000E-03 0. -1.
        -11    1    3    3    0    0  0.23870759615E+01  0.11330940839E+01  0.47233757226E+01  0.54122372756E+01  0.51100000000E-03 0.  1.
        -12    1    3    3    0    0 -0.29710924279E+01  0.13316547173E+02  0.22029875912E+02  0.25912800920E+02  0.00000000000E+00 0.  1.
</event>
<event>
 7    1  0.3766050E-009  0.4614232E+02  0.7816164E-02  0.1320468E+00
        -11   -1    0    0    0    0  0.00000000000E+00  0.00000000000E+00  0.45593999997E+02  0.45594000000E+02  0.51100000000E-03 0. -1.
         11   -1    0    0    0    0 -0.00000000000E+00 -0.00000000000E+00 -0.45593999997E+02  0.45594000000E+02  0.51100000000E-03 0.  1.
    9900012    2    1    2    0    0  0.93918256502E+01 -0.21828609398E+02  0.38267727210E+02  0.46142317375E+02  0.99999964814E+01 0.  0.
        -12    1    1    2    0    0 -0.93918256502E+01  0.21828609398E+02 -0.38267727210E+02  0.45045682625E+02  0.00000000000E+00 0.  1.
         11    1    3    3    0    0  0.42927587301E+01 -0.23844849827E+01  0.10544467428E+02  0.11631824438E+02  0.51100000000E-03 0. -1.
        -11    1    3    3    0    0  0.91124185310E+00 -0.11731955657E+02  0.16386735604E+02  0.20174098475E+02  0.51100000000E-03 0.  1.
        -12    1    3    3    0    0  0.41878250670E+01 -0.77121687587E+01  0.11336524178E+02  0.14336394463E+02  0.00000000000E+00 0.  1.
</event>
<event>
 7    1  0.3766050E-009  0.4614232E+02  0.7816164E-02  0.1320468E+00
        -11   -1    0    0    0    0  0.00000000000E+00  0.00000000000E+00  0.45593999997E+02  0.45594000000E+02  0.51100000000E-03 0. -1.
         11   -1    0    0    0    0 -0.00000000000E+00 -0.00000000000E+00 -0.45593999997E+02  0.45594000000E+02  0.51100000000E-03 0.  1.
    9900012    2    1    2    0    0  0.15483209649E+02 -0.19356983383E+01  0.42256795684E+02  0.46142317737E+02  0.99999997760E+01 0.  0.
        -12    1    1    2    0    0 -0.15483209649E+02  0.19356983383E+01 -0.42256795684E+02  0.45045682263E+02  0.00000000000E+00 0.  1.
         11    1    3    3    0    0  0.10130926375E+02 -0.78679232153E+00  0.26531343300E+02  0.28410682655E+02  0.51100000000E-03 0. -1.
        -11    1    3    3    0    0  0.47027469070E+01  0.10007330750E+01  0.56965562414E+01  0.74543979254E+01  0.51100000000E-03 0.  1.
         12    1    3    3    0    0  0.64953636718E+00 -0.21496390918E+01  0.10028896143E+02  0.10277237156E+02  0.00000000000E+00 0. -1.
</event>
<event>
 7    1  0.3766050E-009  0.4614232E+02  0.7816164E-02  0.1320468E+00
        -11   -1    0    0    0    0  0.00000000000E+00  0.00000000000E+00  0.45593999997E+02  0.45594000000E+02  0.51100000000E-03 0. -1.
         11   -1    0    0    0    0 -0.00000000000E+00 -0.00000000000E+00 -0.45593999997E+02  0.45594000000E+02  0.51100000000E-03 0.  1.
    9900012    2    1    2    0    0  0.11340329062E+02 -0.51042134479E+01  0.43295004713E+02  0.46142317729E+02  0.99999997084E+01 0.  0.
        -12    1    1    2    0    0 -0.11340329062E+02  0.51042134479E+01 -0.43295004713E+02  0.45045682271E+02  0.00000000000E+00 0.  1.
         11    1    3    3    0    0  0.10244245166E+02 -0.25508952811E+01  0.35987588083E+02  0.37504108069E+02  0.51100000000E-03 0. -1.
        -11    1    3    3    0    0  0.24215921909E+01 -0.17555285221E+01  0.40772834135E+01  0.50567014373E+01  0.51100000000E-03 0.  1.
         12    1    3    3    0    0 -0.13255082943E+01 -0.79778964467E+00  0.32301332159E+01  0.35815082225E+01  0.00000000000E+00 0. -1.
</event>
<event>
 7    1  0.3766050E-009  0.4614232E+02  0.7816164E-02  0.1320468E+00
        -11   -1    0    0    0    0  0.00000000000E+00  0.00000000000E+00  0.45593999997E+02  0.45594000000E+02  0.51100000000E-03 0. -1.
         11   -1    0    0    0    0 -0.00000000000E+00 -0.00000000000E+00 -0.45593999997E+02  0.45594000000E+02  0.51100000000E-03 0.  1.
    9900012    2    1    2    0    0  0.88129026657E+01 -0.10711692600E+02 -0.42856807156E+02  0.46142317284E+02  0.99999956526E+01 0.  0.
         12    1    1    2    0    0 -0.88129026657E+01  0.10711692600E+02  0.42856807156E+02  0.45045682716E+02  0.00000000000E+00 0. -1.
         11    1    3    3    0    0  0.80650478674E+01 -0.57395943023E+01 -0.18133631940E+02  0.20659538897E+02  0.51100000000E-03 0. -1.
        -11    1    3    3    0    0  0.18929060032E+01 -0.44039177470E+01 -0.17367992313E+02  0.18017345585E+02  0.51100000000E-03 0.  1.
         12    1    3    3    0    0 -0.11450512049E+01 -0.56818055078E+00 -0.73551829024E+01  0.74654328025E+01  0.00000000000E+00 0. -1.
</event>
<event>
 7    1  0.3766050E-009  0.4614232E+02  0.7816164E-02  0.1320468E+00
        -11   -1    0    0    0    0  0.00000000000E+00  0.00000000000E+00  0.45593999997E+02  0.45594000000E+02  0.51100000000E-03 0. -1.
         11   -1    0    0    0    0 -0.00000000000E+00 -0.00000000000E+00 -0.45593999997E+02  0.45594000000E+02  0.51100000000E-03 0.  1.
    9900012    2    1    2    0    0  0.25252768988E+02 -0.22131712333E+01  0.37235910474E+02  0.46142317662E+02  0.99999990963E+01 0.  0.
        -12    1    1    2    0    0 -0.25252768988E+02  0.22131712333E+01 -0.37235910474E+02  0.45045682338E+02  0.00000000000E+00 0.  1.
         11    1    3    3    0    0  0.13911687759E+02  0.23184735118E+01  0.18787625368E+02  0.23492237930E+02  0.51100000000E-03 0. -1.
        -11    1    3    3    0    0  0.55280422171E+01 -0.39787576879E+01  0.12938438423E+02  0.14621660390E+02  0.51100000000E-03 0.  1.
        -12    1    3    3    0    0  0.58130390119E+01 -0.55288705726E+00  0.55098466831E+01  0.80284193415E+01  0.00000000000E+00 0.  1.
</event>
<event>
 7    1  0.3766050E-009  0.4614232E+02  0.7816164E-02  0.1320468E+00
        -11   -1    0    0    0    0  0.00000000000E+00  0.00000000000E+00  0.45593999997E+02  0.45594000000E+02  0.51100000000E-03 0. -1.
         11   -1    0    0    0    0 -0.00000000000E+00 -0.00000000000E+00 -0.45593999997E+02  0.45594000000E+02  0.51100000000E-03 0.  1.
    9900012    2    1    2    0    0 -0.10210699879E+02 -0.18041414381E+02  0.39992030094E+02  0.46142317677E+02  0.99999992347E+01 0.  0.
        -12    1    1    2    0    0  0.10210699879E+02  0.18041414381E+02 -0.39992030094E+02  0.45045682323E+02  0.00000000000E+00 0.  1.
         11    1    3    3    0    0 -0.26529767889E+01 -0.81242308325E+01  0.23085571716E+02  0.24616763276E+02  0.51100000000E-03 0. -1.
        -11    1    3    3    0    0 -0.28167679944E+00 -0.12550144900E+01  0.13199597154E+00  0.12929912556E+01  0.51100000000E-03 0.  1.
        -12    1    3    3    0    0 -0.72760462906E+01 -0.86621690588E+01  0.16774462407E+02  0.20232563146E+02  0.00000000000E+00 0.  1.
</event>
<event>
 7    1  0.3766050E-009  0.4614232E+02  0.7816164E-02  0.1320468E+00
        -11   -1    0    0    0    0  0.00000000000E+00  0.00000000000E+00  0.45593999997E+02  0.45594000000E+02  0.51100000000E-03 0. -1.
         11   -1    0    0    0    0 -0.00000000000E+00 -0.00000000000E+00 -0.45593999997E+02  0.45594000000E+02  0.51100000000E-03 0.  1.
    9900012    2    1    2    0    0 -0.23161980822E+02  0.64097304324E+01  0.38099232849E+02  0.46142317149E+02  0.99999944155E+01 0.  0.
        -12    1    1    2    0    0  0.23161980822E+02 -0.64097304324E+01 -0.38099232849E+02  0.45045682851E+02  0.00000000000E+00 0.  1.
         11    1    3    3    0    0 -0.35275645343E+01  0.12578933654E+01  0.59863049749E+01  0.70612927128E+01  0.51100000000E-03 0. -1.
        -11    1    3    3    0    0 -0.43778726703E+01  0.51005453003E+01  0.12911236812E+02  0.14556145361E+02  0.51100000000E-03 0.  1.
        -12    1    3    3    0    0 -0.15256543618E+02  0.51291766725E-01  0.19201691062E+02  0.24524879075E+02  0.00000000000E+00 0.  1.
</event>
<event>
 7    1  0.4893746E-009  0.4614232E+02  0.7816164E-02  0.1320468E+00
        -11   -1    0    0    0    0  0.00000000000E+00  0.00000000000E+00  0.45593999997E+02  0.45594000000E+02  0.51100000000E-03 0. -1.
         11   -1    0    0    0    0 -0.00000000000E+00 -0.00000000000E+00 -0.45593999997E+02  0.45594000000E+02  0.51100000000E-03 0.  1.
    9900012    2    1    2    0    0 -0.23896476302E+02  0.12845175036E+02 -0.35959329662E+02  0.46142317732E+02  0.99999997303E+01 0.  0.
         12    1    1    2    0    0  0.23896476302E+02 -0.12845175036E+02  0.35959329662E+02  0.45045682268E+02  0.00000000000E+00 0. -1.
         11    1    3    3    0    0 -0.46860303541E+01  0.10468886159E+01 -0.18162373511E+01  0.51335732809E+01  0.51100000000E-03 0. -1.
        -11    1    3    3    0    0 -0.90762762658E+01  0.71364140051E+01 -0.16645421920E+02  0.20257770530E+02  0.51100000000E-03 0.  1.
         12    1    3    3    0    0 -0.10134169682E+02  0.46618724145E+01 -0.17497670391E+02  0.20750973920E+02  0.00000000000E+00 0. -1.
</event>
<event>
 7    1  0.3766050E-009  0.4614232E+02  0.7816164E-02  0.1320468E+00
        -11   -1    0    0    0    0  0.00000000000E+00  0.00000000000E+00  0.45593999997E+02  0.45594000000E+02  0.51100000000E-03 0. -1.
         11   -1    0    0    0    0 -0.00000000000E+00 -0.00000000000E+00 -0.45593999997E+02  0.45594000000E+02  0.51100000000E-03 0.  1.
    9900012    2    1    2    0    0 -0.39310904010E+02 -0.84517530461E+01  0.20306013957E+02  0.46142317560E+02  0.99999981691E+01 0.  0.
        -12    1    1    2    0    0  0.39310904010E+02  0.84517530461E+01 -0.20306013957E+02  0.45045682440E+02  0.00000000000E+00 0.  1.
         11    1    3    3    0    0 -0.18653713837E+02 -0.58007812310E+01  0.81501475394E+01  0.21166837458E+02  0.51100000000E-03 0. -1.
        -11    1    3    3    0    0 -0.13607831148E+02 -0.44176541946E+01  0.62567666821E+01  0.15615244689E+02  0.51100000000E-03 0.  1.
        -12    1    3    3    0    0 -0.70493590250E+01  0.17666823795E+01  0.58990997358E+01  0.93602354130E+01  0.00000000000E+00 0.  1.
</event>
<event>
 7    1  0.3766050E-009  0.4614232E+02  0.7816164E-02  0.1320468E+00
        -11   -1    0    0    0    0  0.00000000000E+00  0.00000000000E+00  0.45593999997E+02  0.45594000000E+02  0.51100000000E-03 0. -1.
         11   -1    0    0    0    0 -0.00000000000E+00 -0.00000000000E+00 -0.45593999997E+02  0.45594000000E+02  0.51100000000E-03 0.  1.
    9900012    2    1    2    0    0 -0.10076718862E+02  0.42062283478E+02  0.12583216752E+02  0.46142319871E+02  0.10000019241E+02 0.  0.
        -12    1    1    2    0    0  0.10076718862E+02 -0.42062283478E+02 -0.12583216752E+02  0.45045680129E+02  0.00000000000E+00 0.  1.
         11    1    3    3    0    0 -0.80842460074E+01  0.33336278470E+02  0.10343148094E+02  0.35827966849E+02  0.51100000000E-03 0. -1.
        -11    1    3    3    0    0 -0.31646339689E+01  0.39037764098E+01  0.17763708685E+01  0.53300911942E+01  0.51100000000E-03 0.  1.
         12    1    3    3    0    0  0.11721611141E+01  0.48222285982E+01  0.46369778912E+00  0.49842618280E+01  0.00000000000E+00 0. -1.
</event>
<event>
 7    1  0.3766050E-009  0.4614232E+02  0.7816164E-02  0.1320468E+00
        -11   -1    0    0    0    0  0.00000000000E+00  0.00000000000E+00  0.45593999997E+02  0.45594000000E+02  0.51100000000E-03 0. -1.
         11   -1    0    0    0    0 -0.00000000000E+00 -0.00000000000E+00 -0.45593999997E+02  0.45594000000E+02  0.51100000000E-03 0.  1.
    9900012    2    1    2    0    0 -0.18735205383E+01 -0.17566697339E+02  0.41436874144E+02  0.46142317927E+02  0.10000001516E+02 0.  0.
        -12    1    1    2    0    0  0.18735205383E+01  0.17566697339E+02 -0.41436874144E+02  0.45045682073E+02  0.00000000000E+00 0.  1.
         11    1    3    3    0    0  0.22698154917E+01 -0.11751941307E+02  0.19246406242E+02  0.22664605453E+02  0.51100000000E-03 0. -1.
        -11    1    3    3    0    0 -0.24450029305E+01 -0.17876000625E+01  0.61933353866E+01  0.68942698515E+01  0.51100000000E-03 0.  1.
        -12    1    3    3    0    0 -0.16983330996E+01 -0.40271559694E+01  0.15997132515E+02  0.16583442623E+02  0.00000000000E+00 0.  1.
</event>
<event>
 7    1  0.3766050E-009  0.4614232E+02  0.7816164E-02  0.1320468E+00
        -11   -1    0    0    0    0  0.00000000000E+00  0.00000000000E+00  0.45593999997E+02  0.45594000000E+02  0.51100000000E-03 0. -1.
         11   -1    0    0    0    0 -0.00000000000E+00 -0.00000000000E+00 -0.45593999997E+02  0.45594000000E+02  0.51100000000E-03 0.  1.
    9900012    2    1    2    0    0  0.27311157909E+02 -0.32033617419E+02 -0.16033139851E+02  0.46142316913E+02  0.99999922667E+01 0.  0.
         12    1    1    2    0    0 -0.27311157909E+02  0.32033617419E+02  0.16033139851E+02  0.45045683087E+02  0.00000000000E+00 0. -1.
         11    1    3    3    0    0  0.13085778008E+02 -0.11426942656E+02 -0.28578443733E+01  0.17606245461E+02  0.51100000000E-03 0. -1.
        -11    1    3    3    0    0  0.12745739229E+02 -0.16921967699E+02 -0.12202062394E+02  0.24447846250E+02  0.51100000000E-03 0.  1.
        -12    1    3    3    0    0  0.14796406721E+01 -0.36847070642E+01 -0.97323308383E+00  0.40882252021E+01  0.00000000000E+00 0.  1.
</event>
<event>
 7    1  0.3766050E-009  0.4614232E+02  0.7816164E-02  0.1320468E+00
        -11   -1    0    0    0    0  0.00000000000E+00  0.00000000000E+00  0.45593999997E+02  0.45594000000E+02  0.51100000000E-03 0. -1.
         11   -1    0    0    0    0 -0.00000000000E+00 -0.00000000000E+00 -0.45593999997E+02  0.45594000000E+02  0.51100000000E-03 0.  1.
    9900012    2    1    2    0    0  0.22867281687E+02  0.25996624903E+02  0.28816252426E+02  0.46142317832E+02  0.10000000647E+02 0.  0.
        -12    1    1    2    0    0 -0.22867281687E+02 -0.25996624903E+02 -0.28816252426E+02  0.45045682168E+02  0.00000000000E+00 0.  1.
         11    1    3    3    0    0  0.69746275983E+01  0.10865740747E+02  0.13216752739E+02  0.18476804522E+02  0.51100000000E-03 0. -1.
        -11    1    3    3    0    0  0.37366413379E+01  0.71530945543E+01  0.37051667503E+01  0.88801751728E+01  0.51100000000E-03 0.  1.
        -12    1    3    3    0    0  0.12156012751E+02  0.79777896013E+01  0.11894332937E+02  0.18785338137E+02  0.00000000000E+00 0.  1.
</event>
<event>
 7    1  0.3766050E-009  0.4614232E+02  0.7816164E-02  0.1320468E+00
        -11   -1    0    0    0    0  0.00000000000E+00  0.00000000000E+00  0.45593999997E+02  0.45594000000E+02  0.51100000000E-03 0. -1.
         11   -1    0    0    0    0 -0.00000000000E+00 -0.00000000000E+00 -0.45593999997E+02  0.45594000000E+02  0.51100000000E-03 0.  1.
    9900012    2    1    2    0    0 -0.88321469617E+01 -0.34682549580E+02 -0.27353748483E+02  0.46142316285E+02  0.99999865357E+01 0.  0.
         12    1    1    2    0    0  0.88321469617E+01  0.34682549580E+02  0.27353748483E+02  0.45045683715E+02  0.00000000000E+00 0. -1.
         11    1    3    3    0    0 -0.15107237897E+00 -0.29251279146E+01 -0.49048159088E-01  0.29294371752E+01  0.51100000000E-03 0. -1.
        -11    1    3    3    0    0 -0.84505959721E+01 -0.27520094838E+02 -0.21087315135E+02  0.35685333851E+02  0.51100000000E-03 0.  1.
        -12    1    3    3    0    0 -0.23047861053E+00 -0.42373268271E+01 -0.62173851889E+01  0.75275452584E+01  0.00000000000E+00 0.  1.
</event>
<event>
 7    1  0.3766050E-009  0.4614232E+02  0.7816164E-02  0.1320468E+00
        -11   -1    0    0    0    0  0.00000000000E+00  0.00000000000E+00  0.45593999997E+02  0.45594000000E+02  0.51100000000E-03 0. -1.
         11   -1    0    0    0    0 -0.00000000000E+00 -0.00000000000E+00 -0.45593999997E+02  0.45594000000E+02  0.51100000000E-03 0.  1.
    9900012    2    1    2    0    0  0.22474189699E+02  0.23154985770E+02 -0.31430414525E+02  0.46142317345E+02  0.99999962082E+01 0.  0.
         12    1    1    2    0    0 -0.22474189699E+02 -0.23154985770E+02  0.31430414525E+02  0.45045682655E+02  0.00000000000E+00 0. -1.
         11    1    3    3    0    0  0.15348806424E+02  0.11084135045E+02 -0.22318064171E+02  0.29266702871E+02  0.51100000000E-03 0. -1.
        -11    1    3    3    0    0  0.35534701317E+01  0.70838384956E+01 -0.39336908822E+01  0.88477026411E+01  0.51100000000E-03 0.  1.
        -12    1    3    3    0    0  0.35719131428E+01  0.49870122293E+01 -0.51786594719E+01  0.80279118332E+01  0.00000000000E+00 0.  1.
</event>
<event>
 7    1  0.3766050E-009  0.4614232E+02  0.7816164E-02  0.1320468E+00
        -11   -1    0    0    0    0  0.00000000000E+00  0.00000000000E+00  0.45593999997E+02  0.45594000000E+02  0.51100000000E-03 0. -1.
         11   -1    0    0    0    0 -0.00000000000E+00 -0.00000000000E+00 -0.45593999997E+02  0.45594000000E+02  0.51100000000E-03 0.  1.
    9900012    2    1    2    0    0  0.14659063583E+02 -0.24378110569E+02  0.34927540743E+02  0.46142317383E+02  0.99999965562E+01 0.  0.
        -12    1    1    2    0    0 -0.14659063583E+02  0.24378110569E+02 -0.34927540743E+02  0.45045682617E+02  0.00000000000E+00 0.  1.
         11    1    3    3    0    0  0.68491953368E+01 -0.13455243781E+02  0.16069077740E+02  0.22049270320E+02  0.51100000000E-03 0. -1.
        -11    1    3    3    0    0 -0.82307470559E+00 -0.18842990486E+01  0.97755637250E+00  0.22767634041E+01  0.51100000000E-03 0.  1.
        -12    1    3    3    0    0  0.86329429514E+01 -0.90385677400E+01  0.17880906630E+02  0.21816283660E+02  0.00000000000E+00 0.  1.
</event>
<event>
 7    1  0.3766050E-009  0.4614232E+02  0.7816164E-02  0.1320468E+00
        -11   -1    0    0    0    0  0.00000000000E+00  0.00000000000E+00  0.45593999997E+02  0.45594000000E+02  0.51100000000E-03 0. -1.
         11   -1    0    0    0    0 -0.00000000000E+00 -0.00000000000E+00 -0.45593999997E+02  0.45594000000E+02  0.51100000000E-03 0.  1.
    9900012    2    1    2    0    0  0.32523550124E+01  0.44226991669E+02  0.79062555289E+01  0.46142317835E+02  0.10000000675E+02 0.  0.
        -12    1    1    2    0    0 -0.32523550124E+01 -0.44226991669E+02 -0.79062555289E+01  0.45045682165E+02  0.00000000000E+00 0.  1.
         11    1    3    3    0    0  0.21773465159E+01  0.21272872347E+01  0.31249863545E+00  0.30600399487E+01  0.51100000000E-03 0.  1.
        -11    1    3    3    0    0  0.28039463285E+01  0.32958804644E+02  0.52886802220E+01  0.33497985870E+02  0.51100000000E-03 0. -1.
         12    1    3    3    0    0 -0.17289378321E+01  0.91408997900E+01  0.23050766714E+01  0.95842920166E+01  0.00000000000E+00 0. -1.
</event>
<event>
 7    1  0.3766050E-009  0.4614232E+02  0.7816164E-02  0.1320468E+00
        -11   -1    0    0    0    0  0.00000000000E+00  0.00000000000E+00  0.45593999997E+02  0.45594000000E+02  0.51100000000E-03 0. -1.
         11   -1    0    0    0    0 -0.00000000000E+00 -0.00000000000E+00 -0.45593999997E+02  0.45594000000E+02  0.51100000000E-03 0.  1.
    9900012    2    1    2    0    0  0.37439326509E+01 -0.18724724197E+02 -0.40798053266E+02  0.46142317874E+02  0.10000001029E+02 0.  0.
         12    1    1    2    0    0 -0.37439326509E+01  0.18724724197E+02  0.40798053266E+02  0.45045682126E+02  0.00000000000E+00 0. -1.
         11    1    3    3    0    0 -0.15973798469E+01 -0.68976342238E+01 -0.17318998132E+02  0.18710336096E+02  0.51100000000E-03 0.  1.
        -11    1    3    3    0    0  0.81855113170E-01 -0.32594150227E+00  0.33099819866E+00  0.47169713916E+00  0.51100000000E-03 0. -1.
         12    1    3    3    0    0  0.52594573846E+01 -0.11501148471E+02 -0.23810053332E+02  0.26960284639E+02  0.00000000000E+00 0. -1.
</event>
<event>
 7    1  0.3766050E-009  0.4614232E+02  0.7816164E-02  0.1320468E+00
        -11   -1    0    0    0    0  0.00000000000E+00  0.00000000000E+00  0.45593999997E+02  0.45594000000E+02  0.51100000000E-03 0. -1.
         11   -1    0    0    0    0 -0.00000000000E+00 -0.00000000000E+00 -0.45593999997E+02  0.45594000000E+02  0.51100000000E-03 0.  1.
    9900012    2    1    2    0    0  0.12663223978E+02  0.41508106489E+02 -0.12076149099E+02  0.46142317378E+02  0.99999965062E+01 0.  0.
         12    1    1    2    0    0 -0.12663223978E+02 -0.41508106489E+02  0.12076149099E+02  0.45045682622E+02  0.00000000000E+00 0. -1.
         11    1    3    3    0    0  0.20705666308E+01  0.19083448913E+02 -0.37761979834E+01  0.19563357075E+02  0.51100000000E-03 0. -1.
        -11    1    3    3    0    0  0.80625561305E+01  0.15539047788E+02 -0.36171090726E+01  0.17875969787E+02  0.51100000000E-03 0.  1.
        -12    1    3    3    0    0  0.25301012162E+01  0.68856097886E+01 -0.46828420428E+01  0.87029905160E+01  0.00000000000E+00 0.  1.
</event>
<event>
 7    1  0.3766050E-009  0.4614231E+02  0.7816164E-02  0.1320468E+00
        -11   -1    0    0    0    0  0.00000000000E+00  0.00000000000E+00  0.45593999997E+02  0.45594000000E+02  0.51100000000E-03 0. -1.
         11   -1    0    0    0    0 -0.00000000000E+00 -0.00000000000E+00 -0.45593999997E+02  0.45594000000E+02  0.51100000000E-03 0.  1.
    9900012    2    1    2    0    0 -0.46145907669E+01 -0.23693092145E+02  0.38032311288E+02  0.46142314688E+02  0.99999719776E+01 0.  0.
        -12    1    1    2    0    0  0.46145907669E+01  0.23693092145E+02 -0.38032311288E+02  0.45045685312E+02  0.00000000000E+00 0.  1.
         11    1    3    3    0    0  0.10423910956E+00 -0.16614351167E+02  0.30400878936E+02  0.34644782736E+02  0.51100000000E-03 0.  1.
        -11    1    3    3    0    0 -0.39162982247E+01 -0.53198211641E+01  0.64454994114E+01  0.92294285807E+01  0.51100000000E-03 0. -1.
        -12    1    3    3    0    0 -0.80253165175E+00 -0.17589198136E+01  0.11859329401E+01  0.22681033709E+01  0.00000000000E+00 0.  1.
</event>
<event>
 7    1  0.3766050E-009  0.4614232E+02  0.7816164E-02  0.1320468E+00
        -11   -1    0    0    0    0  0.00000000000E+00  0.00000000000E+00  0.45593999997E+02  0.45594000000E+02  0.51100000000E-03 0. -1.
         11   -1    0    0    0    0 -0.00000000000E+00 -0.00000000000E+00 -0.45593999997E+02  0.45594000000E+02  0.51100000000E-03 0.  1.
    9900012    2    1    2    0    0 -0.11428942620E+02 -0.10665700182E+02  0.42246133464E+02  0.46142315607E+02  0.99999803535E+01 0.  0.
        -12    1    1    2    0    0  0.11428942620E+02  0.10665700182E+02 -0.42246133464E+02  0.45045684393E+02  0.00000000000E+00 0.  1.
         11    1    3    3    0    0 -0.43670312122E+01 -0.46875892069E+01  0.18399409815E+02  0.19482883154E+02  0.51100000000E-03 0. -1.
        -11    1    3    3    0    0 -0.43323667562E+01 -0.28020816037E+01  0.20928599412E+02  0.21555215996E+02  0.51100000000E-03 0.  1.
        -12    1    3    3    0    0 -0.27295446517E+01 -0.31760293713E+01  0.29181242370E+01  0.51042164566E+01  0.00000000000E+00 0.  1.
</event>
<event>
 7    1  0.3766050E-009  0.4614232E+02  0.7816164E-02  0.1320468E+00
        -11   -1    0    0    0    0  0.00000000000E+00  0.00000000000E+00  0.45593999997E+02  0.45594000000E+02  0.51100000000E-03 0. -1.
         11   -1    0    0    0    0 -0.00000000000E+00 -0.00000000000E+00 -0.45593999997E+02  0.45594000000E+02  0.51100000000E-03 0.  1.
    9900012    2    1    2    0    0  0.20472787258E+02  0.20849180665E+01  0.40070330776E+02  0.46142319742E+02  0.10000018062E+02 0.  0.
        -12    1    1    2    0    0 -0.20472787258E+02 -0.20849180665E+01 -0.40070330776E+02  0.45045680258E+02  0.00000000000E+00 0.  1.
         11    1    3    3    0    0  0.97568341307E+01  0.47837946948E+01  0.14900955220E+02  0.18442314678E+02  0.51100000000E-03 0. -1.
        -11    1    3    3    0    0 -0.16857101017E+00  0.61047044943E-02  0.28775449804E-01  0.17111908286E+00  0.51100000000E-03 0.  1.
         12    1    3    3    0    0  0.10884524137E+02 -0.27049813327E+01  0.25140600105E+02  0.27528885981E+02  0.00000000000E+00 0. -1.
</event>
<event>
 7    1  0.3766050E-009  0.4614232E+02  0.7816164E-02  0.1320468E+00
        -11   -1    0    0    0    0  0.00000000000E+00  0.00000000000E+00  0.45593999997E+02  0.45594000000E+02  0.51100000000E-03 0. -1.
         11   -1    0    0    0    0 -0.00000000000E+00 -0.00000000000E+00 -0.45593999997E+02  0.45594000000E+02  0.51100000000E-03 0.  1.
    9900012    2    1    2    0    0 -0.36526506456E+02 -0.97798219834E+01  0.24480254820E+02  0.46142317988E+02  0.10000002065E+02 0.  0.
        -12    1    1    2    0    0  0.36526506456E+02  0.97798219834E+01 -0.24480254820E+02  0.45045682012E+02  0.00000000000E+00 0.  1.
         11    1    3    3    0    0 -0.13069395813E+02 -0.55499543828E+01  0.12013990605E+02  0.18599652445E+02  0.51100000000E-03 0. -1.
        -11    1    3    3    0    0 -0.23797967205E+02 -0.43591867894E+01  0.12244171205E+02  0.27115779195E+02  0.51100000000E-03 0.  1.
         12    1    3    3    0    0  0.34085656235E+00  0.12931918877E+00  0.22209300955E+00  0.42688634737E+00  0.00000000000E+00 0. -1.
</event>
<event>
 7    1  0.3766050E-009  0.4614232E+02  0.7816164E-02  0.1320468E+00
        -11   -1    0    0    0    0  0.00000000000E+00  0.00000000000E+00  0.45593999997E+02  0.45594000000E+02  0.51100000000E-03 0. -1.
         11   -1    0    0    0    0 -0.00000000000E+00 -0.00000000000E+00 -0.45593999997E+02  0.45594000000E+02  0.51100000000E-03 0.  1.
    9900012    2    1    2    0    0 -0.76395468856E+01 -0.19865088127E+02 -0.39700490567E+02  0.46142319251E+02  0.10000013582E+02 0.  0.
         12    1    1    2    0    0  0.76395468856E+01  0.19865088127E+02  0.39700490567E+02  0.45045680749E+02  0.00000000000E+00 0. -1.
         11    1    3    3    0    0 -0.66365540477E+01 -0.17361479656E+02 -0.28324065840E+02  0.33877980038E+02  0.51100000000E-03 0.  1.
        -11    1    3    3    0    0 -0.22452895518E+01 -0.15860637822E+01 -0.50244134367E+01  0.57272728359E+01  0.51100000000E-03 0. -1.
        -12    1    3    3    0    0  0.12422967139E+01 -0.91754468867E+00 -0.63520112906E+01  0.65370663770E+01  0.00000000000E+00 0.  1.
</event>
<event>
 7    1  0.3766050E-009  0.4614232E+02  0.7816164E-02  0.1320468E+00
        -11   -1    0    0    0    0  0.00000000000E+00  0.00000000000E+00  0.45593999997E+02  0.45594000000E+02  0.51100000000E-03 0. -1.
         11   -1    0    0    0    0 -0.00000000000E+00 -0.00000000000E+00 -0.45593999997E+02  0.45594000000E+02  0.51100000000E-03 0.  1.
    9900012    2    1    2    0    0  0.34996630874E+02 -0.17712152778E+02  0.22150148653E+02  0.46142316367E+02  0.99999872911E+01 0.  0.
        -12    1    1    2    0    0 -0.34996630874E+02  0.17712152778E+02 -0.22150148653E+02  0.45045683633E+02  0.00000000000E+00 0.  1.
         11    1    3    3    0    0  0.26123357385E+02 -0.91440080885E+01  0.13495749714E+02  0.30792498203E+02  0.51100000000E-03 0. -1.
        -11    1    3    3    0    0  0.88185056334E+01 -0.74158135939E+01  0.79375679632E+01  0.13991616000E+02  0.51100000000E-03 0.  1.
        -12    1    3    3    0    0  0.54767856216E-01 -0.11523310952E+01  0.71683097577E+00  0.13582021642E+01  0.00000000000E+00 0.  1.
</event>
<event>
 7    1  0.3766050E-009  0.4614232E+02  0.7816164E-02  0.1320468E+00
        -11   -1    0    0    0    0  0.00000000000E+00  0.00000000000E+00  0.45593999997E+02  0.45594000000E+02  0.51100000000E-03 0. -1.
         11   -1    0    0    0    0 -0.00000000000E+00 -0.00000000000E+00 -0.45593999997E+02  0.45594000000E+02  0.51100000000E-03 0.  1.
    9900012    2    1    2    0    0 -0.78358330323E+01 -0.87903621804E+00 -0.44350202288E+02  0.46142318443E+02  0.10000006218E+02 0.  0.
         12    1    1    2    0    0  0.78358330323E+01  0.87903621804E+00  0.44350202288E+02  0.45045681557E+02  0.00000000000E+00 0. -1.
         11    1    3    3    0    0 -0.31308543556E+01  0.88498023557E-01 -0.39003471693E+01  0.50022784008E+01  0.51100000000E-03 0. -1.
        -11    1    3    3    0    0 -0.43362949249E+01  0.16681054865E+01 -0.20921070971E+02  0.21430754546E+02  0.51100000000E-03 0.  1.
        -12    1    3    3    0    0 -0.36868375185E+00 -0.26356397281E+01 -0.19528784148E+02  0.19709285496E+02  0.00000000000E+00 0.  1.
</event>
<event>
 7    1  0.3766050E-009  0.4614233E+02  0.7816164E-02  0.1320468E+00
        -11   -1    0    0    0    0  0.00000000000E+00  0.00000000000E+00  0.45593999997E+02  0.45594000000E+02  0.51100000000E-03 0. -1.
         11   -1    0    0    0    0 -0.00000000000E+00 -0.00000000000E+00 -0.45593999997E+02  0.45594000000E+02  0.51100000000E-03 0.  1.
    9900012    2    1    2    0    0 -0.46449768367E+01  0.15179619653E+02  0.42155853746E+02  0.46142326871E+02  0.10000083068E+02 0.  0.
        -12    1    1    2    0    0  0.46449768367E+01 -0.15179619653E+02 -0.42155853746E+02  0.45045673129E+02  0.00000000000E+00 0.  1.
         11    1    3    3    0    0 -0.21280774456E+01  0.71149904536E+01  0.31055577023E+02  0.31931186437E+02  0.51100000000E-03 0. -1.
        -11    1    3    3    0    0  0.41538704272E+00  0.22774306946E+01  0.21699973727E+01  0.31730310151E+01  0.51100000000E-03 0.  1.
         12    1    3    3    0    0 -0.29322864338E+01  0.57871985051E+01  0.89302793500E+01  0.11038109419E+02  0.00000000000E+00 0. -1.
</event>
<event>
 7    1  0.3766050E-009  0.4614232E+02  0.7816164E-02  0.1320468E+00
        -11   -1    0    0    0    0  0.00000000000E+00  0.00000000000E+00  0.45593999997E+02  0.45594000000E+02  0.51100000000E-03 0. -1.
         11   -1    0    0    0    0 -0.00000000000E+00 -0.00000000000E+00 -0.45593999997E+02  0.45594000000E+02  0.51100000000E-03 0.  1.
    9900012    2    1    2    0    0  0.27511093895E+02  0.12333475322E+02 -0.33468470988E+02  0.46142318175E+02  0.10000003772E+02 0.  0.
         12    1    1    2    0    0 -0.27511093895E+02 -0.12333475322E+02  0.33468470988E+02  0.45045681825E+02  0.00000000000E+00 0. -1.
         11    1    3    3    0    0  0.17700294636E+02  0.33886236186E+01 -0.17351831781E+02  0.25017379292E+02  0.51100000000E-03 0. -1.
        -11    1    3    3    0    0  0.51106804047E+01  0.34671147027E+01 -0.95143881632E+01  0.11342994355E+02  0.51100000000E-03 0.  1.
         12    1    3    3    0    0  0.47001188542E+01  0.54777370004E+01 -0.66022510443E+01  0.97819445276E+01  0.00000000000E+00 0. -1.
</event>
<event>
 7    1  0.3766050E-009  0.4614232E+02  0.7816164E-02  0.1320468E+00
        -11   -1    0    0    0    0  0.00000000000E+00  0.00000000000E+00  0.45593999997E+02  0.45594000000E+02  0.51100000000E-03 0. -1.
         11   -1    0    0    0    0 -0.00000000000E+00 -0.00000000000E+00 -0.45593999997E+02  0.45594000000E+02  0.51100000000E-03 0.  1.
    9900012    2    1    2    0    0  0.10942024713E+02 -0.21807997864E+02 -0.37865510085E+02  0.46142317303E+02  0.99999958181E+01 0.  0.
         12    1    1    2    0    0 -0.10942024713E+02  0.21807997864E+02  0.37865510085E+02  0.45045682697E+02  0.00000000000E+00 0. -1.
         11    1    3    3    0    0  0.95806370269E-01  0.44322335662E+00 -0.29459070772E+01  0.29806030552E+01  0.51100000000E-03 0. -1.
        -11    1    3    3    0    0  0.89006889060E+01 -0.13480636146E+02 -0.19564574516E+02  0.25371684811E+02  0.51100000000E-03 0.  1.
        -12    1    3    3    0    0  0.19455294366E+01 -0.87705850752E+01 -0.15355028492E+02  0.17790029437E+02  0.00000000000E+00 0.  1.
</event>
<event>
 7    1  0.3766050E-009  0.4614232E+02  0.7816164E-02  0.1320468E+00
        -11   -1    0    0    0    0  0.00000000000E+00  0.00000000000E+00  0.45593999997E+02  0.45594000000E+02  0.51100000000E-03 0. -1.
         11   -1    0    0    0    0 -0.00000000000E+00 -0.00000000000E+00 -0.45593999997E+02  0.45594000000E+02  0.51100000000E-03 0.  1.
    9900012    2    1    2    0    0 -0.25587273617E+02  0.34349247203E+02 -0.13947540752E+02  0.46142320433E+02  0.10000024368E+02 0.  0.
         12    1    1    2    0    0  0.25587273617E+02 -0.34349247203E+02  0.13947540752E+02  0.45045679567E+02  0.00000000000E+00 0. -1.
         11    1    3    3    0    0 -0.21021377108E+02  0.26658368319E+02 -0.11716336619E+02  0.35914334756E+02  0.51100000000E-03 0. -1.
        -11    1    3    3    0    0 -0.49470765218E+01  0.45688219967E+01 -0.83099600439E+00  0.67851496056E+01  0.51100000000E-03 0.  1.
         12    1    3    3    0    0  0.38118001289E+00  0.31220568877E+01 -0.14002081291E+01  0.34428360718E+01  0.00000000000E+00 0. -1.
</event>
<event>
 7    1  0.3766050E-009  0.4614232E+02  0.7816164E-02  0.1320468E+00
        -11   -1    0    0    0    0  0.00000000000E+00  0.00000000000E+00  0.45593999997E+02  0.45594000000E+02  0.51100000000E-03 0. -1.
         11   -1    0    0    0    0 -0.00000000000E+00 -0.00000000000E+00 -0.45593999997E+02  0.45594000000E+02  0.51100000000E-03 0.  1.
    9900012    2    1    2    0    0  0.11921642629E+02 -0.56857286901E+01  0.43065769045E+02  0.46142317219E+02  0.99999950582E+01 0.  0.
        -12    1    1    2    0    0 -0.11921642629E+02  0.56857286901E+01 -0.43065769045E+02  0.45045682781E+02  0.00000000000E+00 0.  1.
         11    1    3    3    0    0  0.51783271226E+01 -0.47994095187E+01  0.26490529061E+02  0.27415279202E+02  0.51100000000E-03 0. -1.
        -11    1    3    3    0    0  0.49678398462E+01  0.53335708998E+00  0.55407617147E+01  0.74608272439E+01  0.51100000000E-03 0.  1.
        -12    1    3    3    0    0  0.17754756603E+01 -0.14196762614E+01  0.11034478270E+02  0.11266210773E+02  0.00000000000E+00 0.  1.
</event>
<event>
 7    1  0.3766050E-009  0.4614232E+02  0.7816164E-02  0.1320468E+00
        -11   -1    0    0    0    0  0.00000000000E+00  0.00000000000E+00  0.45593999997E+02  0.45594000000E+02  0.51100000000E-03 0. -1.
         11   -1    0    0    0    0 -0.00000000000E+00 -0.00000000000E+00 -0.45593999997E+02  0.45594000000E+02  0.51100000000E-03 0.  1.
    9900012    2    1    2    0    0 -0.26140428521E+02  0.57542151830E+01 -0.36230932640E+02  0.46142317903E+02  0.10000001292E+02 0.  0.
         12    1    1    2    0    0  0.26140428521E+02 -0.57542151830E+01  0.36230932640E+02  0.45045682097E+02  0.00000000000E+00 0. -1.
         11    1    3    3    0    0 -0.15026556840E+02  0.62372696366E+01 -0.22497162488E+02  0.27763704062E+02  0.51100000000E-03 0. -1.
        -11    1    3    3    0    0 -0.71818603876E+01  0.21293129780E+01 -0.82887445392E+01  0.11172125075E+02  0.51100000000E-03 0.  1.
         12    1    3    3    0    0 -0.39320112940E+01 -0.26123674316E+01 -0.54450256128E+01  0.72064887662E+01  0.00000000000E+00 0. -1.
</event>
<event>
 7    1  0.3766050E-009  0.4614232E+02  0.7816164E-02  0.1320468E+00
        -11   -1    0    0    0    0  0.00000000000E+00  0.00000000000E+00  0.45593999997E+02  0.45594000000E+02  0.51100000000E-03 0. -1.
         11   -1    0    0    0    0 -0.00000000000E+00 -0.00000000000E+00 -0.45593999997E+02  0.45594000000E+02  0.51100000000E-03 0.  1.
    9900012    2    1    2    0    0  0.10744303805E+02  0.42906751367E+02 -0.85254970695E+01  0.46142317883E+02  0.10000001109E+02 0.  0.
         12    1    1    2    0    0 -0.10744303805E+02 -0.42906751367E+02  0.85254970695E+01  0.45045682117E+02  0.00000000000E+00 0. -1.
         11    1    3    3    0    0 -0.68600107219E-01  0.84047833440E+01  0.33892059906E+00  0.84118937504E+01  0.51100000000E-03 0. -1.
        -11    1    3    3    0    0  0.64656699116E+01  0.13574480894E+02 -0.14444039366E+01  0.15104890663E+02  0.51100000000E-03 0.  1.
        -12    1    3    3    0    0  0.43472340008E+01  0.20927487129E+02 -0.74200137319E+01  0.22625533469E+02  0.00000000000E+00 0.  1.
</event>
<event>
 7    1  0.3766050E-009  0.4614232E+02  0.7816164E-02  0.1320468E+00
        -11   -1    0    0    0    0  0.00000000000E+00  0.00000000000E+00  0.45593999997E+02  0.45594000000E+02  0.51100000000E-03 0. -1.
         11   -1    0    0    0    0 -0.00000000000E+00 -0.00000000000E+00 -0.45593999997E+02  0.45594000000E+02  0.51100000000E-03 0.  1.
    9900012    2    1    2    0    0  0.34495803026E+02  0.14667403813E+02 -0.24980398226E+02  0.46142318114E+02  0.10000003218E+02 0.  0.
         12    1    1    2    0    0 -0.34495803026E+02 -0.14667403813E+02  0.24980398226E+02  0.45045681886E+02  0.00000000000E+00 0. -1.
         11    1    3    3    0    0  0.10382158147E+02  0.62697306459E+01 -0.11407695706E+02  0.16650352901E+02  0.51100000000E-03 0. -1.
        -11    1    3    3    0    0  0.11233141352E+02  0.19664780251E+01 -0.35274548708E+01  0.11937061555E+02  0.51100000000E-03 0.  1.
         12    1    3    3    0    0  0.12880503528E+02  0.64311951422E+01 -0.10045247649E+02  0.17554903657E+02  0.00000000000E+00 0. -1.
</event>
<event>
 7    1  0.3766050E-009  0.4614232E+02  0.7816164E-02  0.1320468E+00
        -11   -1    0    0    0    0  0.00000000000E+00  0.00000000000E+00  0.45593999997E+02  0.45594000000E+02  0.51100000000E-03 0. -1.
         11   -1    0    0    0    0 -0.00000000000E+00 -0.00000000000E+00 -0.45593999997E+02  0.45594000000E+02  0.51100000000E-03 0.  1.
    9900012    2    1    2    0    0  0.19038289226E+02 -0.16025388104E+02 -0.37547890765E+02  0.46142316284E+02  0.99999865348E+01 0.  0.
         12    1    1    2    0    0 -0.19038289226E+02  0.16025388104E+02  0.37547890765E+02  0.45045683716E+02  0.00000000000E+00 0. -1.
         11    1    3    3    0    0  0.58826732987E+01 -0.93359107796E+01 -0.17664222133E+02  0.20827621541E+02  0.51100000000E-03 0. -1.
        -11    1    3    3    0    0  0.10758920079E+02 -0.73415367188E+01 -0.15233544001E+02  0.20042788872E+02  0.51100000000E-03 0.  1.
         12    1    3    3    0    0  0.23966958484E+01  0.65205939479E+00 -0.46501246300E+01  0.52719058716E+01  0.00000000000E+00 0. -1.
</event>
<event>
 7    1  0.3766050E-009  0.4614232E+02  0.7816164E-02  0.1320468E+00
        -11   -1    0    0    0    0  0.00000000000E+00  0.00000000000E+00  0.45593999997E+02  0.45594000000E+02  0.51100000000E-03 0.  1.
         11   -1    0    0    0    0 -0.00000000000E+00 -0.00000000000E+00 -0.45593999997E+02  0.45594000000E+02  0.51100000000E-03 0. -1.
    9900012    2    1    2    0    0 -0.37933734820E+02 -0.23868857437E+02  0.45191670534E+01  0.46142318036E+02  0.10000002503E+02 0.  0.
         12    1    1    2    0    0  0.37933734820E+02  0.23868857437E+02 -0.45191670534E+01  0.45045681964E+02  0.00000000000E+00 0. -1.
         11    1    3    3    0    0 -0.36697019129E+01 -0.28327416386E+00  0.58263988152E+00  0.37264494997E+01  0.51100000000E-03 0. -1.
        -11    1    3    3    0    0 -0.26414659685E+02 -0.14920944826E+02  0.96577109128E+00  0.30352949689E+02  0.51100000000E-03 0.  1.
         12    1    3    3    0    0 -0.78493732226E+01 -0.86646384478E+01  0.29707560806E+01  0.12062918847E+02  0.00000000000E+00 0. -1.
</event>
<event>
 7    1  0.3766050E-009  0.4614232E+02  0.7816164E-02  0.1320468E+00
        -11   -1    0    0    0    0  0.00000000000E+00  0.00000000000E+00  0.45593999997E+02  0.45594000000E+02  0.51100000000E-03 0. -1.
         11   -1    0    0    0    0 -0.00000000000E+00 -0.00000000000E+00 -0.45593999997E+02  0.45594000000E+02  0.51100000000E-03 0.  1.
    9900012    2    1    2    0    0  0.62629926921E+01  0.16438884812E+02  0.41468680485E+02  0.46142317938E+02  0.10000001610E+02 0.  0.
        -12    1    1    2    0    0 -0.62629926921E+01 -0.16438884812E+02 -0.41468680485E+02  0.45045682062E+02  0.00000000000E+00 0.  1.
         11    1    3    3    0    0  0.58917031224E+01  0.16961697389E+02  0.34139186126E+02  0.38573246863E+02  0.51100000000E-03 0. -1.
        -11    1    3    3    0    0 -0.49919105407E+00  0.37227961431E+00  0.29537657958E+01  0.30186944955E+01  0.51100000000E-03 0.  1.
         12    1    3    3    0    0  0.87048062378E+00 -0.89509219177E+00  0.43757285634E+01  0.45503765788E+01  0.00000000000E+00 0. -1.
</event>
<event>
 7    1  0.3766050E-009  0.4614232E+02  0.7816164E-02  0.1320468E+00
        -11   -1    0    0    0    0  0.00000000000E+00  0.00000000000E+00  0.45593999997E+02  0.45594000000E+02  0.51100000000E-03 0.  1.
         11   -1    0    0    0    0 -0.00000000000E+00 -0.00000000000E+00 -0.45593999997E+02  0.45594000000E+02  0.51100000000E-03 0. -1.
    9900012    2    1    2    0    0  0.26041990872E+02  0.34066920755E+02 -0.13797574246E+02  0.46142318372E+02  0.10000005567E+02 0.  0.
         12    1    1    2    0    0 -0.26041990872E+02 -0.34066920755E+02  0.13797574246E+02  0.45045681628E+02  0.00000000000E+00 0. -1.
         11    1    3    3    0    0  0.18698971310E+01  0.19320019447E+01 -0.24747139272E+01  0.36542244153E+01  0.51100000000E-03 0. -1.
        -11    1    3    3    0    0  0.12966839463E+02  0.22720466591E+02 -0.90268931176E+01  0.27673874456E+02  0.51100000000E-03 0.  1.
         12    1    3    3    0    0  0.11205254278E+02  0.94144522189E+01 -0.22959672014E+01  0.14814219501E+02  0.00000000000E+00 0. -1.
</event>
<event>
 7    1  0.3766050E-009  0.4614232E+02  0.7816164E-02  0.1320468E+00
        -11   -1    0    0    0    0  0.00000000000E+00  0.00000000000E+00  0.45593999997E+02  0.45594000000E+02  0.51100000000E-03 0. -1.
         11   -1    0    0    0    0 -0.00000000000E+00 -0.00000000000E+00 -0.45593999997E+02  0.45594000000E+02  0.51100000000E-03 0.  1.
    9900012    2    1    2    0    0  0.10007415504E+02 -0.99692944831E+00  0.43908669865E+02  0.46142317380E+02  0.99999965259E+01 0.  0.
        -12    1    1    2    0    0 -0.10007415504E+02  0.99692944831E+00 -0.43908669865E+02  0.45045682620E+02  0.00000000000E+00 0.  1.
         11    1    3    3    0    0  0.46896509182E+01  0.55607142328E+00  0.25681027712E+02  0.26111630087E+02  0.51100000000E-03 0. -1.
        -11    1    3    3    0    0  0.34128025769E+01 -0.37542260258E+01  0.87334024258E+01  0.10100185774E+02  0.51100000000E-03 0.  1.
        -12    1    3    3    0    0  0.19049620086E+01  0.22012251542E+01  0.94942397267E+01  0.99305015191E+01  0.00000000000E+00 0.  1.
</event>
<event>
 7    1  0.3766050E-009  0.4614232E+02  0.7816164E-02  0.1320468E+00
        -11   -1    0    0    0    0  0.00000000000E+00  0.00000000000E+00  0.45593999997E+02  0.45594000000E+02  0.51100000000E-03 0.  1.
         11   -1    0    0    0    0 -0.00000000000E+00 -0.00000000000E+00 -0.45593999997E+02  0.45594000000E+02  0.51100000000E-03 0. -1.
    9900012    2    1    2    0    0  0.65934047545E+01  0.42743448147E+02  0.12595172666E+02  0.46142315188E+02  0.99999765347E+01 0.  0.
        -12    1    1    2    0    0 -0.65934047545E+01 -0.42743448147E+02 -0.12595172666E+02  0.45045684812E+02  0.00000000000E+00 0.  1.
         11    1    3    3    0    0  0.40884336914E+01  0.95319571861E+01  0.29324168224E+01  0.10778337837E+02  0.51100000000E-03 0. -1.
        -11    1    3    3    0    0  0.36704253097E+00  0.22632157808E+01 -0.10801374356E+01  0.25344749024E+01  0.51100000000E-03 0.  1.
         12    1    3    3    0    0  0.21379285321E+01  0.30948275180E+02  0.10742893279E+02  0.32829502448E+02  0.00000000000E+00 0. -1.
</event>
<event>
 7    1  0.3766050E-009  0.4614232E+02  0.7816164E-02  0.1320468E+00
        -11   -1    0    0    0    0  0.00000000000E+00  0.00000000000E+00  0.45593999997E+02  0.45594000000E+02  0.51100000000E-03 0. -1.
         11   -1    0    0    0    0 -0.00000000000E+00 -0.00000000000E+00 -0.45593999997E+02  0.45594000000E+02  0.51100000000E-03 0.  1.
    9900012    2    1    2    0    0 -0.25725726937E+02 -0.45514118503E+01  0.36695843339E+02  0.46142319912E+02  0.10000019614E+02 0.  0.
        -12    1    1    2    0    0  0.25725726937E+02  0.45514118503E+01 -0.36695843339E+02  0.45045680088E+02  0.00000000000E+00 0.  1.
         11    1    3    3    0    0 -0.79623044037E+01  0.14800539007E+01  0.12329370971E+02  0.14751347050E+02  0.51100000000E-03 0. -1.
        -11    1    3    3    0    0 -0.18237706610E+02 -0.60950086971E+01  0.24136939997E+02  0.30860248639E+02  0.51100000000E-03 0.  1.
        -12    1    3    3    0    0  0.47428407714E+00  0.63542945989E-01  0.22953237047E+00  0.53072422302E+00  0.00000000000E+00 0.  1.
</event>
<event>
 7    1  0.3766050E-009  0.4614232E+02  0.7816164E-02  0.1320468E+00
        -11   -1    0    0    0    0  0.00000000000E+00  0.00000000000E+00  0.45593999997E+02  0.45594000000E+02  0.51100000000E-03 0. -1.
         11   -1    0    0    0    0 -0.00000000000E+00 -0.00000000000E+00 -0.45593999997E+02  0.45594000000E+02  0.51100000000E-03 0.  1.
    9900012    2    1    2    0    0 -0.31530609308E+02  0.14943202863E+01  0.32135670763E+02  0.46142315947E+02  0.99999834531E+01 0.  0.
        -12    1    1    2    0    0  0.31530609308E+02 -0.14943202863E+01 -0.32135670763E+02  0.45045684053E+02  0.00000000000E+00 0.  1.
         11    1    3    3    0    0 -0.99802173615E+01 -0.72507420749E+00  0.10583959630E+02  0.14565392988E+02  0.51100000000E-03 0. -1.
        -11    1    3    3    0    0 -0.20758758428E+02  0.20138679580E+01  0.16871836301E+02  0.26826117424E+02  0.51100000000E-03 0.  1.
        -12    1    3    3    0    0 -0.79163351897E+00  0.20552653573E+00  0.46798748312E+01  0.47508055339E+01  0.00000000000E+00 0.  1.
</event>
<event>
 7    1  0.3766050E-009  0.4614232E+02  0.7816164E-02  0.1320468E+00
        -11   -1    0    0    0    0  0.00000000000E+00  0.00000000000E+00  0.45593999997E+02  0.45594000000E+02  0.51100000000E-03 0. -1.
         11   -1    0    0    0    0 -0.00000000000E+00 -0.00000000000E+00 -0.45593999997E+02  0.45594000000E+02  0.51100000000E-03 0.  1.
    9900012    2    1    2    0    0  0.10918852149E+02 -0.30661633325E+02 -0.31140902810E+02  0.46142324090E+02  0.10000057712E+02 0.  0.
         12    1    1    2    0    0 -0.10918852149E+02  0.30661633325E+02  0.31140902810E+02  0.45045675910E+02  0.00000000000E+00 0. -1.
         11    1    3    3    0    0  0.69081003582E+01 -0.93593489367E+01 -0.13868379570E+02  0.18101138507E+02  0.51100000000E-03 0. -1.
        -11    1    3    3    0    0  0.18513963418E+01 -0.46105208974E+01 -0.59723254215E+01  0.77687349396E+01  0.51100000000E-03 0.  1.
         12    1    3    3    0    0  0.21593554488E+01 -0.16691763491E+02 -0.11300197818E+02  0.20272450644E+02  0.00000000000E+00 0. -1.
</event>
<event>
 7    1  0.3766050E-009  0.4614232E+02  0.7816164E-02  0.1320468E+00
        -11   -1    0    0    0    0  0.00000000000E+00  0.00000000000E+00  0.45593999997E+02  0.45594000000E+02  0.51100000000E-03 0. -1.
         11   -1    0    0    0    0 -0.00000000000E+00 -0.00000000000E+00 -0.45593999997E+02  0.45594000000E+02  0.51100000000E-03 0.  1.
    9900012    2    1    2    0    0 -0.35024070516E+02 -0.24582335003E+02  0.14076105328E+02  0.46142318177E+02  0.10000003791E+02 0.  0.
        -12    1    1    2    0    0  0.35024070516E+02  0.24582335003E+02 -0.14076105328E+02  0.45045681823E+02  0.00000000000E+00 0.  1.
         11    1    3    3    0    0 -0.10534620590E+02 -0.91351575795E+01  0.63946009345E+01  0.15340151770E+02  0.51100000000E-03 0. -1.
        -11    1    3    3    0    0 -0.20005888570E+02 -0.15011055099E+02  0.48377042354E+01  0.25474904027E+02  0.51100000000E-03 0.  1.
        -12    1    3    3    0    0 -0.44835613560E+01 -0.43612232449E+00  0.28438001582E+01  0.53272623790E+01  0.00000000000E+00 0.  1.
</event>
<event>
 7    1  0.3766050E-009  0.4614231E+02  0.7816164E-02  0.1320468E+00
        -11   -1    0    0    0    0  0.00000000000E+00  0.00000000000E+00  0.45593999997E+02  0.45594000000E+02  0.51100000000E-03 0. -1.
         11   -1    0    0    0    0 -0.00000000000E+00 -0.00000000000E+00 -0.45593999997E+02  0.45594000000E+02  0.51100000000E-03 0.  1.
    9900012    2    1    2    0    0 -0.10343069419E+02 -0.39991992989E+02 -0.17965947678E+02  0.46142313589E+02  0.99999619559E+01 0.  0.
         12    1    1    2    0    0  0.10343069419E+02  0.39991992989E+02  0.17965947678E+02  0.45045686411E+02  0.00000000000E+00 0. -1.
         11    1    3    3    0    0 -0.24851401163E+01 -0.47721469750E+01 -0.44733002877E+01  0.69971225425E+01  0.51100000000E-03 0. -1.
        -11    1    3    3    0    0 -0.55776198783E+01 -0.18817154128E+02 -0.10691340225E+02  0.22349494157E+02  0.51100000000E-03 0.  1.
         12    1    3    3    0    0 -0.22803094244E+01 -0.16402691886E+02 -0.28013071649E+01  0.16795696890E+02  0.00000000000E+00 0. -1.
</event>
<event>
 7    1  0.3766050E-009  0.4614232E+02  0.7816164E-02  0.1320468E+00
        -11   -1    0    0    0    0  0.00000000000E+00  0.00000000000E+00  0.45593999997E+02  0.45594000000E+02  0.51100000000E-03 0. -1.
         11   -1    0    0    0    0 -0.00000000000E+00 -0.00000000000E+00 -0.45593999997E+02  0.45594000000E+02  0.51100000000E-03 0.  1.
    9900012    2    1    2    0    0 -0.41123249512E+02  0.16846157280E+02 -0.73619775811E+01  0.46142318971E+02  0.10000011031E+02 0.  0.
         12    1    1    2    0    0  0.41123249512E+02 -0.16846157280E+02  0.73619775811E+01  0.45045681029E+02  0.00000000000E+00 0. -1.
         11    1    3    3    0    0 -0.78252966352E+01 -0.13689113992E+00  0.71235672273E+00  0.78588459060E+01  0.51100000000E-03 0. -1.
        -11    1    3    3    0    0 -0.24846005650E+02  0.11976762615E+02 -0.64592577252E+01  0.28328234151E+02  0.51100000000E-03 0.  1.
         12    1    3    3    0    0 -0.84519472265E+01  0.50062858044E+01 -0.16150765786E+01  0.99552389137E+01  0.00000000000E+00 0. -1.
</event>
<event>
 7    1  0.3766050E-009  0.4614232E+02  0.7816164E-02  0.1320468E+00
        -11   -1    0    0    0    0  0.00000000000E+00  0.00000000000E+00  0.45593999997E+02  0.45594000000E+02  0.51100000000E-03 0.  1.
         11   -1    0    0    0    0 -0.00000000000E+00 -0.00000000000E+00 -0.45593999997E+02  0.45594000000E+02  0.51100000000E-03 0. -1.
    9900012    2    1    2    0    0  0.46279412139E+01  0.44803025737E+02 -0.62004729806E+00  0.46142318590E+02  0.10000007556E+02 0.  0.
         12    1    1    2    0    0 -0.46279412139E+01 -0.44803025737E+02  0.62004729806E+00  0.45045681410E+02  0.00000000000E+00 0. -1.
         11    1    3    3    0    0 -0.35460125667E+00  0.10811523332E+00 -0.44150315551E+00  0.57650347124E+00  0.51100000000E-03 0. -1.
        -11    1    3    3    0    0 -0.14685592931E+01  0.10313716875E+02  0.15977825603E+01  0.10539560311E+02  0.51100000000E-03 0.  1.
        -12    1    3    3    0    0  0.64511017637E+01  0.34381193628E+02 -0.17763267028E+01  0.35026254807E+02  0.00000000000E+00 0.  1.
</event>
<event>
 7    1  0.4239425E-009  0.4614232E+02  0.7816164E-02  0.1320468E+00
        -11   -1    0    0    0    0  0.00000000000E+00  0.00000000000E+00  0.45593999997E+02  0.45594000000E+02  0.51100000000E-03 0. -1.
         11   -1    0    0    0    0 -0.00000000000E+00 -0.00000000000E+00 -0.45593999997E+02  0.45594000000E+02  0.51100000000E-03 0.  1.
    9900012    2    1    2    0    0  0.36032342711E+02  0.72909493725E+01 -0.26031250710E+02  0.46142315661E+02  0.99999808535E+01 0.  0.
         12    1    1    2    0    0 -0.36032342711E+02 -0.72909493725E+01  0.26031250710E+02  0.45045684339E+02  0.00000000000E+00 0. -1.
         11    1    3    3    0    0  0.40323360859E+00 -0.97134663952E+00 -0.18642491297E+01  0.21404524559E+01  0.51100000000E-03 0. -1.
        -11    1    3    3    0    0  0.31439955939E+02  0.62599519555E+01 -0.21985354612E+02  0.38871758973E+02  0.51100000000E-03 0.  1.
         12    1    3    3    0    0  0.41891531632E+01  0.20023440565E+01 -0.21816469678E+01  0.51301042326E+01  0.00000000000E+00 0. -1.
</event>
<event>
 7    1  0.3766050E-009  0.4614232E+02  0.7816164E-02  0.1320468E+00
        -11   -1    0    0    0    0  0.00000000000E+00  0.00000000000E+00  0.45593999997E+02  0.45594000000E+02  0.51100000000E-03 0. -1.
         11   -1    0    0    0    0 -0.00000000000E+00 -0.00000000000E+00 -0.45593999997E+02  0.45594000000E+02  0.51100000000E-03 0.  1.
    9900012    2    1    2    0    0 -0.16778187331E+02 -0.36094869804E+02  0.21089484051E+02  0.46142317256E+02  0.99999953983E+01 0.  0.
        -12    1    1    2    0    0  0.16778187331E+02  0.36094869804E+02 -0.21089484051E+02  0.45045682744E+02  0.00000000000E+00 0.  1.
         11    1    3    3    0    0 -0.14297623118E+02 -0.28851094443E+02  0.16965464743E+02  0.36395530929E+02  0.51100000000E-03 0. -1.
        -11    1    3    3    0    0 -0.87889350835E+00 -0.36701891220E+01  0.44289938648E+01  0.58188253888E+01  0.51100000000E-03 0.  1.
         12    1    3    3    0    0 -0.16016707037E+01 -0.35735862398E+01 -0.30497455710E+00  0.39279609388E+01  0.00000000000E+00 0. -1.
</event>
<event>
 7    1  0.3766050E-009  0.4614233E+02  0.7816164E-02  0.1320468E+00
        -11   -1    0    0    0    0  0.00000000000E+00  0.00000000000E+00  0.45593999997E+02  0.45594000000E+02  0.51100000000E-03 0. -1.
         11   -1    0    0    0    0 -0.00000000000E+00 -0.00000000000E+00 -0.45593999997E+02  0.45594000000E+02  0.51100000000E-03 0.  1.
    9900012    2    1    2    0    0  0.15535285404E+02  0.35177608729E+02  0.23458540208E+02  0.46142330317E+02  0.10000114492E+02 0.  0.
        -12    1    1    2    0    0 -0.15535285404E+02 -0.35177608729E+02 -0.23458540208E+02  0.45045669683E+02  0.00000000000E+00 0.  1.
         11    1    3    3    0    0  0.74801660387E+01  0.91579451123E+01  0.81897566796E+01  0.14383774101E+02  0.51100000000E-03 0. -1.
        -11    1    3    3    0    0  0.61857183042E+01  0.18440262655E+02  0.78037150487E+01  0.20957203214E+02  0.51100000000E-03 0.  1.
        -12    1    3    3    0    0  0.18694010613E+01  0.75794009619E+01  0.74650684797E+01  0.10801353002E+02  0.00000000000E+00 0.  1.
</event>
<event>
 7    1  0.3766050E-009  0.4614232E+02  0.7816164E-02  0.1320468E+00
        -11   -1    0    0    0    0  0.00000000000E+00  0.00000000000E+00  0.45593999997E+02  0.45594000000E+02  0.51100000000E-03 0. -1.
         11   -1    0    0    0    0 -0.00000000000E+00 -0.00000000000E+00 -0.45593999997E+02  0.45594000000E+02  0.51100000000E-03 0.  1.
    9900012    2    1    2    0    0  0.26921200434E+02  0.27173995662E+02  0.23789420928E+02  0.46142316287E+02  0.99999865587E+01 0.  0.
        -12    1    1    2    0    0 -0.26921200434E+02 -0.27173995662E+02 -0.23789420928E+02  0.45045683713E+02  0.00000000000E+00 0.  1.
         11    1    3    3    0    0  0.37202356664E+01  0.53341056247E+01  0.11112303097E+01  0.65975502492E+01  0.51100000000E-03 0. -1.
        -11    1    3    3    0    0  0.12473470312E+02  0.13738103559E+02  0.16152970728E+02  0.24601654713E+02  0.51100000000E-03 0.  1.
         12    1    3    3    0    0  0.10727494456E+02  0.81017864790E+01  0.65252198900E+01  0.14943111325E+02  0.00000000000E+00 0. -1.
</event>
<event>
 7    1  0.3766050E-009  0.4614232E+02  0.7816164E-02  0.1320468E+00
        -11   -1    0    0    0    0  0.00000000000E+00  0.00000000000E+00  0.45593999997E+02  0.45594000000E+02  0.51100000000E-03 0. -1.
         11   -1    0    0    0    0 -0.00000000000E+00 -0.00000000000E+00 -0.45593999997E+02  0.45594000000E+02  0.51100000000E-03 0.  1.
    9900012    2    1    2    0    0 -0.37750070903E+00  0.28160372758E+02 -0.35156285305E+02  0.46142317664E+02  0.99999991158E+01 0.  0.
         12    1    1    2    0    0  0.37750070903E+00 -0.28160372758E+02  0.35156285305E+02  0.45045682336E+02  0.00000000000E+00 0. -1.
         11    1    3    3    0    0  0.68932535850E+00  0.59601121723E+00 -0.19824759449E+01  0.21818822045E+01  0.51100000000E-03 0. -1.
        -11    1    3    3    0    0 -0.10416104796E+01 -0.20275281014E+00 -0.15190229659E+01  0.18529684631E+01  0.51100000000E-03 0.  1.
        -12    1    3    3    0    0 -0.25215587979E-01  0.27767114351E+02 -0.31654786394E+02  0.42107466997E+02  0.00000000000E+00 0.  1.
</event>
<event>
 7    1  0.3766050E-009  0.4614232E+02  0.7816164E-02  0.1320468E+00
        -11   -1    0    0    0    0  0.00000000000E+00  0.00000000000E+00  0.45593999997E+02  0.45594000000E+02  0.51100000000E-03 0. -1.
         11   -1    0    0    0    0 -0.00000000000E+00 -0.00000000000E+00 -0.45593999997E+02  0.45594000000E+02  0.51100000000E-03 0.  1.
    9900012    2    1    2    0    0  0.37502821989E+02 -0.19597502517E+02  0.15446350215E+02  0.46142317665E+02  0.99999991237E+01 0.  0.
        -12    1    1    2    0    0 -0.37502821989E+02  0.19597502517E+02 -0.15446350215E+02  0.45045682335E+02  0.00000000000E+00 0.  1.
         11    1    3    3    0    0  0.31418391164E+02 -0.18946324188E+02  0.12267118286E+02  0.38685406743E+02  0.51100000000E-03 0. -1.
        -11    1    3    3    0    0  0.24706465337E+00 -0.55734156704E+00  0.11035935272E+01  0.12607892368E+01  0.51100000000E-03 0.  1.
         12    1    3    3    0    0  0.58373661719E+01 -0.93836762055E-01  0.20756384019E+01  0.61961216853E+01  0.00000000000E+00 0. -1.
</event>
<event>
 7    1  0.3766050E-009  0.4614232E+02  0.7816164E-02  0.1320468E+00
        -11   -1    0    0    0    0  0.00000000000E+00  0.00000000000E+00  0.45593999997E+02  0.45594000000E+02  0.51100000000E-03 0. -1.
         11   -1    0    0    0    0 -0.00000000000E+00 -0.00000000000E+00 -0.45593999997E+02  0.45594000000E+02  0.51100000000E-03 0.  1.
    9900012    2    1    2    0    0  0.33071007487E+02 -0.12296990072E+02 -0.28003680369E+02  0.46142316353E+02  0.99999871552E+01 0.  0.
         12    1    1    2    0    0 -0.33071007487E+02  0.12296990072E+02  0.28003680369E+02  0.45045683647E+02  0.00000000000E+00 0. -1.
         11    1    3    3    0    0  0.13888832248E+02 -0.37214390687E+00 -0.11717199070E+02  0.18175007748E+02  0.51100000000E-03 0. -1.
        -11    1    3    3    0    0  0.18802251629E+02 -0.11797968902E+02 -0.16340440847E+02  0.27563141038E+02  0.51100000000E-03 0.  1.
         12    1    3    3    0    0  0.37992361014E+00 -0.12687726379E+00  0.53959548564E-01  0.40416756734E+00  0.00000000000E+00 0. -1.
</event>
<event>
 7    1  0.3766050E-009  0.4614232E+02  0.7816164E-02  0.1320468E+00
        -11   -1    0    0    0    0  0.00000000000E+00  0.00000000000E+00  0.45593999997E+02  0.45594000000E+02  0.51100000000E-03 0. -1.
         11   -1    0    0    0    0 -0.00000000000E+00 -0.00000000000E+00 -0.45593999997E+02  0.45594000000E+02  0.51100000000E-03 0.  1.
    9900012    2    1    2    0    0 -0.20245895618E+02  0.19885282050E+02 -0.34982749839E+02  0.46142317434E+02  0.99999970155E+01 0.  0.
         12    1    1    2    0    0  0.20245895618E+02 -0.19885282050E+02  0.34982749839E+02  0.45045682566E+02  0.00000000000E+00 0. -1.
         11    1    3    3    0    0 -0.10636091283E+01  0.68336060923E+00 -0.58295052771E+01  0.59650128363E+01  0.51100000000E-03 0. -1.
        -11    1    3    3    0    0 -0.12493471350E+02  0.90000808321E+01 -0.17451081801E+02  0.23272914250E+02  0.51100000000E-03 0.  1.
         12    1    3    3    0    0 -0.66888151387E+01  0.10201840609E+02 -0.11702162760E+02  0.16904390348E+02  0.00000000000E+00 0. -1.
</event>
<event>
 7    1  0.3766050E-009  0.4614232E+02  0.7816164E-02  0.1320468E+00
        -11   -1    0    0    0    0  0.00000000000E+00  0.00000000000E+00  0.45593999997E+02  0.45594000000E+02  0.51100000000E-03 0. -1.
         11   -1    0    0    0    0 -0.00000000000E+00 -0.00000000000E+00 -0.45593999997E+02  0.45594000000E+02  0.51100000000E-03 0.  1.
    9900012    2    1    2    0    0  0.11516580679E+02  0.42441327318E+02  0.97578489834E+01  0.46142317501E+02  0.99999976242E+01 0.  0.
        -12    1    1    2    0    0 -0.11516580679E+02 -0.42441327318E+02 -0.97578489834E+01  0.45045682499E+02  0.00000000000E+00 0.  1.
         11    1    3    3    0    0  0.10328076560E+02  0.28597527675E+02  0.10637658852E+02  0.32212537011E+02  0.51100000000E-03 0. -1.
        -11    1    3    3    0    0  0.40419563835E+00  0.55890633129E+01 -0.14761735993E+00  0.56056038012E+01  0.51100000000E-03 0.  1.
         12    1    3    3    0    0  0.78430848058E+00  0.82547363297E+01 -0.73219250894E+00  0.83241766882E+01  0.00000000000E+00 0. -1.
</event>
<event>
 7    1  0.5362695E-009  0.4614232E+02  0.7816164E-02  0.1320468E+00
        -11   -1    0    0    0    0  0.00000000000E+00  0.00000000000E+00  0.45593999997E+02  0.45594000000E+02  0.51100000000E-03 0. -1.
         11   -1    0    0    0    0 -0.00000000000E+00 -0.00000000000E+00 -0.45593999997E+02  0.45594000000E+02  0.51100000000E-03 0.  1.
    9900012    2    1    2    0    0 -0.11367765454E+02  0.11005970178E+00 -0.43587558928E+02  0.46142317656E+02  0.99999990391E+01 0.  0.
         12    1    1    2    0    0  0.11367765454E+02 -0.11005970178E+00  0.43587558928E+02  0.45045682344E+02  0.00000000000E+00 0. -1.
         11    1    3    3    0    0  0.60639826669E+00  0.27215017873E+00 -0.63199115672E+01  0.63547672700E+01  0.51100000000E-03 0. -1.
        -11    1    3    3    0    0 -0.27386026620E+01 -0.21537536063E+00 -0.21863856341E+01  0.35109277247E+01  0.51100000000E-03 0.  1.
        -12    1    3    3    0    0 -0.92355610586E+01  0.53284883681E-01 -0.35081261727E+02  0.36276622661E+02  0.00000000000E+00 0.  1.
</event>
<event>
 7    1  0.3766050E-009  0.4614232E+02  0.7816164E-02  0.1320468E+00
        -11   -1    0    0    0    0  0.00000000000E+00  0.00000000000E+00  0.45593999997E+02  0.45594000000E+02  0.51100000000E-03 0. -1.
         11   -1    0    0    0    0 -0.00000000000E+00 -0.00000000000E+00 -0.45593999997E+02  0.45594000000E+02  0.51100000000E-03 0.  1.
    9900012    2    1    2    0    0 -0.63287600259E+01 -0.82809221753E+01  0.43823354562E+02  0.46142320068E+02  0.10000021032E+02 0.  0.
        -12    1    1    2    0    0  0.63287600259E+01  0.82809221753E+01 -0.43823354562E+02  0.45045679932E+02  0.00000000000E+00 0.  1.
         11    1    3    3    0    0 -0.17726334517E+01  0.15699776176E+01  0.46942400626E+01  0.52576562365E+01  0.51100000000E-03 0. -1.
        -11    1    3    3    0    0 -0.14035728416E+01 -0.34872892656E+01  0.66570991774E+01  0.76451404737E+01  0.51100000000E-03 0.  1.
         12    1    3    3    0    0 -0.31525537326E+01 -0.63636105273E+01  0.32472015322E+02  0.33239523357E+02  0.00000000000E+00 0. -1.
</event>
<event>
 7    1  0.3766050E-009  0.4614232E+02  0.7816164E-02  0.1320468E+00
        -11   -1    0    0    0    0  0.00000000000E+00  0.00000000000E+00  0.45593999997E+02  0.45594000000E+02  0.51100000000E-03 0. -1.
         11   -1    0    0    0    0 -0.00000000000E+00 -0.00000000000E+00 -0.45593999997E+02  0.45594000000E+02  0.51100000000E-03 0.  1.
    9900012    2    1    2    0    0  0.47049221656E+01 -0.14174083883E+02  0.42497912257E+02  0.46142317713E+02  0.99999995586E+01 0.  0.
        -12    1    1    2    0    0 -0.47049221656E+01  0.14174083883E+02 -0.42497912257E+02  0.45045682287E+02  0.00000000000E+00 0.  1.
         11    1    3    3    0    0  0.64651612158E+01 -0.53724540318E+01  0.22475773660E+02  0.23996290833E+02  0.51100000000E-03 0. -1.
        -11    1    3    3    0    0 -0.21188474517E+01 -0.31358539839E+01  0.77898308169E+01  0.86605172564E+01  0.51100000000E-03 0.  1.
         12    1    3    3    0    0  0.35860840150E+00 -0.56657758674E+01  0.12232307780E+02  0.13485509623E+02  0.00000000000E+00 0. -1.
</event>
<event>
 7    1  0.3766050E-009  0.4614232E+02  0.7816164E-02  0.1320468E+00
        -11   -1    0    0    0    0  0.00000000000E+00  0.00000000000E+00  0.45593999997E+02  0.45594000000E+02  0.51100000000E-03 0. -1.
         11   -1    0    0    0    0 -0.00000000000E+00 -0.00000000000E+00 -0.45593999997E+02  0.45594000000E+02  0.51100000000E-03 0.  1.
    9900012    2    1    2    0    0 -0.16572466613E+02 -0.25808353761E+02  0.32990842476E+02  0.46142318067E+02  0.10000002792E+02 0.  0.
        -12    1    1    2    0    0  0.16572466613E+02  0.25808353761E+02 -0.32990842476E+02  0.45045681933E+02  0.00000000000E+00 0.  1.
         11    1    3    3    0    0 -0.84403029821E+01 -0.68350691228E+01  0.11332865322E+02  0.15696837930E+02  0.51100000000E-03 0. -1.
        -11    1    3    3    0    0 -0.33248963412E-01  0.30378951197E+00  0.10266805842E+01  0.10711987884E+01  0.51100000000E-03 0.  1.
        -12    1    3    3    0    0 -0.80989146671E+01 -0.19277074150E+02  0.20631296571E+02  0.29374281349E+02  0.00000000000E+00 0.  1.
</event>
<event>
 7    1  0.3766050E-009  0.4614232E+02  0.7816164E-02  0.1320468E+00
        -11   -1    0    0    0    0  0.00000000000E+00  0.00000000000E+00  0.45593999997E+02  0.45594000000E+02  0.51100000000E-03 0. -1.
         11   -1    0    0    0    0 -0.00000000000E+00 -0.00000000000E+00 -0.45593999997E+02  0.45594000000E+02  0.51100000000E-03 0.  1.
    9900012    2    1    2    0    0  0.16092070460E+02  0.17839460266E+02  0.38103961001E+02  0.46142324089E+02  0.10000057704E+02 0.  0.
        -12    1    1    2    0    0 -0.16092070460E+02 -0.17839460266E+02 -0.38103961001E+02  0.45045675911E+02  0.00000000000E+00 0.  1.
         11    1    3    3    0    0  0.42313034527E+01  0.30411168117E+01  0.10801625137E+02  0.11992807270E+02  0.51100000000E-03 0. -1.
        -11    1    3    3    0    0  0.19572593183E+01  0.57199369125E+01  0.13970320202E+02  0.15222299075E+02  0.51100000000E-03 0.  1.
        -12    1    3    3    0    0  0.99035076893E+01  0.90784065416E+01  0.13332015663E+02  0.18927217744E+02  0.00000000000E+00 0.  1.
</event>
<event>
 7    1  0.3766050E-009  0.4614232E+02  0.7816164E-02  0.1320468E+00
        -11   -1    0    0    0    0  0.00000000000E+00  0.00000000000E+00  0.45593999997E+02  0.45594000000E+02  0.51100000000E-03 0. -1.
         11   -1    0    0    0    0 -0.00000000000E+00 -0.00000000000E+00 -0.45593999997E+02  0.45594000000E+02  0.51100000000E-03 0.  1.
    9900012    2    1    2    0    0  0.77062693396E+01 -0.10447111913E+02 -0.43134495828E+02  0.46142318023E+02  0.10000002386E+02 0.  0.
         12    1    1    2    0    0 -0.77062693396E+01  0.10447111913E+02  0.43134495828E+02  0.45045681977E+02  0.00000000000E+00 0. -1.
         11    1    3    3    0    0  0.74840458734E+00 -0.39237461173E+01 -0.73648045805E+01  0.83783196280E+01  0.51100000000E-03 0. -1.
        -11    1    3    3    0    0  0.50391297550E+01  0.25841420773E+00 -0.13970994616E+02  0.14854235000E+02  0.51100000000E-03 0.  1.
        -12    1    3    3    0    0  0.19187349972E+01 -0.67817800033E+01 -0.21798696631E+02  0.22909763395E+02  0.00000000000E+00 0.  1.
</event>
<event>
 7    1  0.3766050E-009  0.4614232E+02  0.7816164E-02  0.1320468E+00
        -11   -1    0    0    0    0  0.00000000000E+00  0.00000000000E+00  0.45593999997E+02  0.45594000000E+02  0.51100000000E-03 0. -1.
         11   -1    0    0    0    0 -0.00000000000E+00 -0.00000000000E+00 -0.45593999997E+02  0.45594000000E+02  0.51100000000E-03 0.  1.
    9900012    2    1    2    0    0  0.65889619207E+01  0.12618399672E+02 -0.42737280363E+02  0.46142316940E+02  0.99999925140E+01 0.  0.
         12    1    1    2    0    0 -0.65889619207E+01 -0.12618399672E+02  0.42737280363E+02  0.45045683060E+02  0.00000000000E+00 0. -1.
         11    1    3    3    0    0  0.88012177395E+01  0.85672968202E+01 -0.28798799395E+02  0.31308638669E+02  0.51100000000E-03 0. -1.
        -11    1    3    3    0    0 -0.58621259038E+00 -0.51888846931E-01 -0.26171638506E+01  0.26825145918E+01  0.51100000000E-03 0.  1.
         12    1    3    3    0    0 -0.16260432284E+01  0.41029916990E+01 -0.11321317118E+02  0.12151163679E+02  0.00000000000E+00 0. -1.
</event>
<event>
 7    1  0.3766050E-009  0.4614232E+02  0.7816164E-02  0.1320468E+00
        -11   -1    0    0    0    0  0.00000000000E+00  0.00000000000E+00  0.45593999997E+02  0.45594000000E+02  0.51100000000E-03 0. -1.
         11   -1    0    0    0    0 -0.00000000000E+00 -0.00000000000E+00 -0.45593999997E+02  0.45594000000E+02  0.51100000000E-03 0.  1.
    9900012    2    1    2    0    0 -0.33363867838E+02 -0.96049312819E+01 -0.28700368265E+02  0.46142317403E+02  0.99999967377E+01 0.  0.
         12    1    1    2    0    0  0.33363867838E+02  0.96049312819E+01  0.28700368265E+02  0.45045682597E+02  0.00000000000E+00 0. -1.
         11    1    3    3    0    0 -0.12597462286E+02 -0.31142967054E+01 -0.58890621530E+01  0.14250472039E+02  0.51100000000E-03 0. -1.
        -11    1    3    3    0    0 -0.16875319527E+01 -0.19276477942E+01 -0.37326556133E+01  0.45272848705E+01  0.51100000000E-03 0.  1.
        -12    1    3    3    0    0 -0.19078873599E+02 -0.45629867823E+01 -0.19078650499E+02  0.27364560494E+02  0.00000000000E+00 0.  1.
</event>
<event>
 7    1  0.3766050E-009  0.4614232E+02  0.7816164E-02  0.1320468E+00
        -11   -1    0    0    0    0  0.00000000000E+00  0.00000000000E+00  0.45593999997E+02  0.45594000000E+02  0.51100000000E-03 0. -1.
         11   -1    0    0    0    0 -0.00000000000E+00 -0.00000000000E+00 -0.45593999997E+02  0.45594000000E+02  0.51100000000E-03 0.  1.
    9900012    2    1    2    0    0 -0.10563281184E+02 -0.16043647801E+02  0.40744714219E+02  0.46142320064E+02  0.10000020998E+02 0.  0.
        -12    1    1    2    0    0  0.10563281184E+02  0.16043647801E+02 -0.40744714219E+02  0.45045679936E+02  0.00000000000E+00 0.  1.
         11    1    3    3    0    0 -0.19343568520E+01 -0.75731074064E+01  0.21008415826E+02  0.22415334662E+02  0.51100000000E-03 0. -1.
        -11    1    3    3    0    0 -0.18888230470E+01 -0.35504450357E+01  0.29720758608E+01  0.50006547209E+01  0.51100000000E-03 0.  1.
         12    1    3    3    0    0 -0.67401012852E+01 -0.49200953587E+01  0.16764222532E+02  0.18726330681E+02  0.00000000000E+00 0. -1.
</event>
<event>
 7    1  0.3766050E-009  0.4614232E+02  0.7816164E-02  0.1320468E+00
        -11   -1    0    0    0    0  0.00000000000E+00  0.00000000000E+00  0.45593999997E+02  0.45594000000E+02  0.51100000000E-03 0. -1.
         11   -1    0    0    0    0 -0.00000000000E+00 -0.00000000000E+00 -0.45593999997E+02  0.45594000000E+02  0.51100000000E-03 0.  1.
    9900012    2    1    2    0    0 -0.17585654349E+01  0.43769572885E+02 -0.10499778727E+02  0.46142318562E+02  0.10000007299E+02 0.  0.
         12    1    1    2    0    0  0.17585654349E+01 -0.43769572885E+02  0.10499778727E+02  0.45045681438E+02  0.00000000000E+00 0. -1.
         11    1    3    3    0    0 -0.91452186946E+00  0.31113098321E+02 -0.86178113123E+01  0.32297490761E+02  0.51100000000E-03 0.  1.
        -11    1    3    3    0    0  0.14402285991E+01  0.57859806278E+01 -0.27248466953E+01  0.65556555749E+01  0.51100000000E-03 0. -1.
         12    1    3    3    0    0 -0.22842721645E+01  0.68704939366E+01  0.84287928078E+00  0.72891722257E+01  0.00000000000E+00 0. -1.
</event>
<event>
 7    1  0.3766050E-009  0.4614232E+02  0.7816164E-02  0.1320468E+00
        -11   -1    0    0    0    0  0.00000000000E+00  0.00000000000E+00  0.45593999997E+02  0.45594000000E+02  0.51100000000E-03 0. -1.
         11   -1    0    0    0    0 -0.00000000000E+00 -0.00000000000E+00 -0.45593999997E+02  0.45594000000E+02  0.51100000000E-03 0.  1.
    9900012    2    1    2    0    0 -0.14369327011E+02  0.68934428484E+01  0.42132129766E+02  0.46142317946E+02  0.10000001687E+02 0.  0.
        -12    1    1    2    0    0  0.14369327011E+02 -0.68934428484E+01 -0.42132129766E+02  0.45045682054E+02  0.00000000000E+00 0.  1.
         11    1    3    3    0    0 -0.10512766821E+02  0.29274070363E+01  0.28157746058E+02  0.30198454290E+02  0.51100000000E-03 0. -1.
        -11    1    3    3    0    0 -0.22452561241E+01 -0.71679481258E+00  0.24457359179E+01  0.33965562423E+01  0.51100000000E-03 0.  1.
         12    1    3    3    0    0 -0.16113040652E+01  0.46828306247E+01  0.11528647791E+02  0.12547307414E+02  0.00000000000E+00 0. -1.
</event>
<event>
 7    1  0.3766050E-009  0.4614232E+02  0.7816164E-02  0.1320468E+00
        -11   -1    0    0    0    0  0.00000000000E+00  0.00000000000E+00  0.45593999997E+02  0.45594000000E+02  0.51100000000E-03 0. -1.
         11   -1    0    0    0    0 -0.00000000000E+00 -0.00000000000E+00 -0.45593999997E+02  0.45594000000E+02  0.51100000000E-03 0.  1.
    9900012    2    1    2    0    0  0.13593819489E+01 -0.20247034335E+02  0.40215955583E+02  0.46142318718E+02  0.10000008726E+02 0.  0.
        -12    1    1    2    0    0 -0.13593819489E+01  0.20247034335E+02 -0.40215955583E+02  0.45045681282E+02  0.00000000000E+00 0.  1.
         11    1    3    3    0    0  0.22531218813E+01 -0.13116224887E+02  0.18339407115E+02  0.22659341718E+02  0.51100000000E-03 0. -1.
        -11    1    3    3    0    0 -0.22635805756E+01 -0.53556855636E+01  0.18782615623E+02  0.19661989085E+02  0.51100000000E-03 0.  1.
        -12    1    3    3    0    0  0.13698406432E+01 -0.17751238843E+01  0.30939328449E+01  0.38209879143E+01  0.00000000000E+00 0.  1.
</event>
<event>
 7    1  0.4714494E-009  0.4614232E+02  0.7816164E-02  0.1320468E+00
        -11   -1    0    0    0    0  0.00000000000E+00  0.00000000000E+00  0.45593999997E+02  0.45594000000E+02  0.51100000000E-03 0. -1.
         11   -1    0    0    0    0 -0.00000000000E+00 -0.00000000000E+00 -0.45593999997E+02  0.45594000000E+02  0.51100000000E-03 0.  1.
    9900012    2    1    2    0    0 -0.15333611522E+02 -0.17820795107E+02  0.38424120612E+02  0.46142318460E+02  0.10000006377E+02 0.  0.
        -12    1    1    2    0    0  0.15333611522E+02  0.17820795107E+02 -0.38424120612E+02  0.45045681540E+02  0.00000000000E+00 0.  1.
         11    1    3    3    0    0 -0.14464461073E+02 -0.11926800396E+02  0.25174275940E+02  0.31388108754E+02  0.51100000000E-03 0. -1.
        -11    1    3    3    0    0  0.18303376097E+00 -0.25177128403E+01  0.82679980319E+01  0.86447770949E+01  0.51100000000E-03 0.  1.
         12    1    3    3    0    0 -0.10521842095E+01 -0.33762818705E+01  0.49818466405E+01  0.61094326111E+01  0.00000000000E+00 0. -1.
</event>
<event>
 7    1  0.3766050E-009  0.4614232E+02  0.7816164E-02  0.1320468E+00
        -11   -1    0    0    0    0  0.00000000000E+00  0.00000000000E+00  0.45593999997E+02  0.45594000000E+02  0.51100000000E-03 0. -1.
         11   -1    0    0    0    0 -0.00000000000E+00 -0.00000000000E+00 -0.45593999997E+02  0.45594000000E+02  0.51100000000E-03 0.  1.
    9900012    2    1    2    0    0 -0.14346139154E+02  0.35165741571E+02  0.24221321412E+02  0.46142317635E+02  0.99999988462E+01 0.  0.
        -12    1    1    2    0    0  0.14346139154E+02 -0.35165741571E+02 -0.24221321412E+02  0.45045682365E+02  0.00000000000E+00 0.  1.
         11    1    3    3    0    0 -0.28127279558E+01  0.10253890354E+02  0.91936368857E+01  0.14056196690E+02  0.51100000000E-03 0.  1.
        -11    1    3    3    0    0 -0.16825461393E+01  0.26012400005E+01 -0.55095821331E+00  0.31465800903E+01  0.51100000000E-03 0. -1.
         12    1    3    3    0    0 -0.98508650589E+01  0.22310611216E+02  0.15578642739E+02  0.28939540854E+02  0.00000000000E+00 0. -1.
</event>
<event>
 7    1  0.3766050E-009  0.4614232E+02  0.7816164E-02  0.1320468E+00
        -11   -1    0    0    0    0  0.00000000000E+00  0.00000000000E+00  0.45593999997E+02  0.45594000000E+02  0.51100000000E-03 0.  1.
         11   -1    0    0    0    0 -0.00000000000E+00 -0.00000000000E+00 -0.45593999997E+02  0.45594000000E+02  0.51100000000E-03 0. -1.
    9900012    2    1    2    0    0 -0.43832690639E+02 -0.75568808755E+01  0.71205541459E+01  0.46142317536E+02  0.99999979514E+01 0.  0.
        -12    1    1    2    0    0  0.43832690639E+02  0.75568808755E+01 -0.71205541459E+01  0.45045682464E+02  0.00000000000E+00 0.  1.
         11    1    3    3    0    0 -0.33506621593E+01  0.12476607031E+01 -0.79863780522E+00  0.36635251795E+01  0.51100000000E-03 0. -1.
        -11    1    3    3    0    0 -0.87154646046E+01 -0.18185851951E+01 -0.37912058011E+00  0.89112461565E+01  0.51100000000E-03 0.  1.
         12    1    3    3    0    0 -0.31766563876E+02 -0.69859563835E+01  0.82983125313E+01  0.33567546200E+02  0.00000000000E+00 0. -1.
</event>
<event>
 7    1  0.3766050E-009  0.4614232E+02  0.7816164E-02  0.1320468E+00
        -11   -1    0    0    0    0  0.00000000000E+00  0.00000000000E+00  0.45593999997E+02  0.45594000000E+02  0.51100000000E-03 0. -1.
         11   -1    0    0    0    0 -0.00000000000E+00 -0.00000000000E+00 -0.45593999997E+02  0.45594000000E+02  0.51100000000E-03 0.  1.
    9900012    2    1    2    0    0 -0.51977457076E+00 -0.33690067078E+02  0.29896869792E+02  0.46142316426E+02  0.99999878215E+01 0.  0.
        -12    1    1    2    0    0  0.51977457076E+00  0.33690067078E+02 -0.29896869792E+02  0.45045683574E+02  0.00000000000E+00 0.  1.
         11    1    3    3    0    0  0.17037164053E+01 -0.37043262356E+01  0.16159934434E+01  0.43858998529E+01  0.51100000000E-03 0. -1.
        -11    1    3    3    0    0 -0.37525895372E+01 -0.23153012067E+02  0.23956248593E+02  0.33526791420E+02  0.51100000000E-03 0.  1.
        -12    1    3    3    0    0  0.15290985611E+01 -0.68327287757E+01  0.43246277555E+01  0.82296251528E+01  0.00000000000E+00 0.  1.
</event>
<event>
 7    1  0.3766050E-009  0.4614232E+02  0.7816164E-02  0.1320468E+00
        -11   -1    0    0    0    0  0.00000000000E+00  0.00000000000E+00  0.45593999997E+02  0.45594000000E+02  0.51100000000E-03 0. -1.
         11   -1    0    0    0    0 -0.00000000000E+00 -0.00000000000E+00 -0.45593999997E+02  0.45594000000E+02  0.51100000000E-03 0.  1.
    9900012    2    1    2    0    0 -0.62767243741E+01  0.40593838282E+02 -0.18489362049E+02  0.46142317807E+02  0.10000000414E+02 0.  0.
         12    1    1    2    0    0  0.62767243741E+01 -0.40593838282E+02  0.18489362049E+02  0.45045682193E+02  0.00000000000E+00 0. -1.
         11    1    3    3    0    0 -0.38211361552E+01  0.75186375135E+01 -0.12854861650E+01  0.85313226711E+01  0.51100000000E-03 0. -1.
        -11    1    3    3    0    0  0.11433463829E+01  0.13012706053E+02 -0.66735277181E+01  0.14668801323E+02  0.51100000000E-03 0.  1.
        -12    1    3    3    0    0 -0.35989346018E+01  0.20062494715E+02 -0.10530348166E+02  0.22942193813E+02  0.00000000000E+00 0.  1.
</event>
<event>
 7    1  0.3766050E-009  0.4614232E+02  0.7816164E-02  0.1320468E+00
        -11   -1    0    0    0    0  0.00000000000E+00  0.00000000000E+00  0.45593999997E+02  0.45594000000E+02  0.51100000000E-03 0. -1.
         11   -1    0    0    0    0 -0.00000000000E+00 -0.00000000000E+00 -0.45593999997E+02  0.45594000000E+02  0.51100000000E-03 0.  1.
    9900012    2    1    2    0    0  0.95966167698E+01  0.26276413215E+00 -0.44010787331E+02  0.46142317633E+02  0.99999988324E+01 0.  0.
         12    1    1    2    0    0 -0.95966167698E+01 -0.26276413215E+00  0.44010787331E+02  0.45045682367E+02  0.00000000000E+00 0. -1.
         11    1    3    3    0    0  0.31937318917E+00 -0.24308252530E+00 -0.42150914568E+01  0.42341568935E+01  0.51100000000E-03 0. -1.
        -11    1    3    3    0    0  0.43075641933E+01  0.48851354188E+01 -0.19942350114E+02  0.20978965315E+02  0.51100000000E-03 0.  1.
        -12    1    3    3    0    0  0.49696793873E+01 -0.43792887614E+01 -0.19853345760E+02  0.20929195425E+02  0.00000000000E+00 0.  1.
</event>
<event>
 7    1  0.3766050E-009  0.4614232E+02  0.7816164E-02  0.1320468E+00
        -11   -1    0    0    0    0  0.00000000000E+00  0.00000000000E+00  0.45593999997E+02  0.45594000000E+02  0.51100000000E-03 0. -1.
         11   -1    0    0    0    0 -0.00000000000E+00 -0.00000000000E+00 -0.45593999997E+02  0.45594000000E+02  0.51100000000E-03 0.  1.
    9900012    2    1    2    0    0  0.64237650236E+01  0.35198926692E+02  0.27365751796E+02  0.46142316869E+02  0.99999918647E+01 0.  0.
        -12    1    1    2    0    0 -0.64237650236E+01 -0.35198926692E+02 -0.27365751796E+02  0.45045683131E+02  0.00000000000E+00 0.  1.
         11    1    3    3    0    0  0.60496314912E+01  0.14945809343E+02  0.15617199149E+02  0.22447097087E+02  0.51100000000E-03 0. -1.
        -11    1    3    3    0    0 -0.71583610223E+00  0.15329291676E+01  0.28154425850E+00  0.17150978365E+01  0.51100000000E-03 0.  1.
        -12    1    3    3    0    0  0.10899696346E+01  0.18720188182E+02  0.11467008388E+02  0.21980121946E+02  0.00000000000E+00 0.  1.
</event>
<event>
 7    1  0.3766050E-009  0.4614232E+02  0.7816164E-02  0.1320468E+00
        -11   -1    0    0    0    0  0.00000000000E+00  0.00000000000E+00  0.45593999997E+02  0.45594000000E+02  0.51100000000E-03 0. -1.
         11   -1    0    0    0    0 -0.00000000000E+00 -0.00000000000E+00 -0.45593999997E+02  0.45594000000E+02  0.51100000000E-03 0.  1.
    9900012    2    1    2    0    0 -0.35572790808E+02 -0.91640631568E+01 -0.26071246523E+02  0.46142318801E+02  0.10000009482E+02 0.  0.
         12    1    1    2    0    0  0.35572790808E+02  0.91640631568E+01  0.26071246523E+02  0.45045681199E+02  0.00000000000E+00 0. -1.
         11    1    3    3    0    0 -0.60219955421E+01 -0.40235458929E+01 -0.47123503729E+01  0.86405785778E+01  0.51100000000E-03 0. -1.
        -11    1    3    3    0    0 -0.27276777596E+02 -0.51255390070E+01 -0.16895263126E+02  0.32492209258E+02  0.51100000000E-03 0.  1.
        -12    1    3    3    0    0 -0.22740176702E+01 -0.14978256898E-01 -0.44636330245E+01  0.50095309651E+01  0.00000000000E+00 0.  1.
</event>
<event>
 7    1  0.3766050E-009  0.4614232E+02  0.7816164E-02  0.1320468E+00
        -11   -1    0    0    0    0  0.00000000000E+00  0.00000000000E+00  0.45593999997E+02  0.45594000000E+02  0.51100000000E-03 0. -1.
         11   -1    0    0    0    0 -0.00000000000E+00 -0.00000000000E+00 -0.45593999997E+02  0.45594000000E+02  0.51100000000E-03 0.  1.
    9900012    2    1    2    0    0  0.21587442635E+02 -0.13949110658E+02  0.36993488694E+02  0.46142316817E+02  0.99999913926E+01 0.  0.
        -12    1    1    2    0    0 -0.21587442635E+02  0.13949110658E+02 -0.36993488694E+02  0.45045683183E+02  0.00000000000E+00 0.  1.
         11    1    3    3    0    0  0.13412167913E+02 -0.45214173964E+01  0.15392137706E+02  0.20910460703E+02  0.51100000000E-03 0. -1.
        -11    1    3    3    0    0  0.28582527962E+01 -0.44516803004E+01  0.12516392982E+02  0.13588493665E+02  0.51100000000E-03 0.  1.
         12    1    3    3    0    0  0.53170219255E+01 -0.49760129609E+01  0.90849580063E+01  0.11643362449E+02  0.00000000000E+00 0. -1.
</event>
<event>
 7    1  0.3766050E-009  0.4614232E+02  0.7816164E-02  0.1320468E+00
        -11   -1    0    0    0    0  0.00000000000E+00  0.00000000000E+00  0.45593999997E+02  0.45594000000E+02  0.51100000000E-03 0. -1.
         11   -1    0    0    0    0 -0.00000000000E+00 -0.00000000000E+00 -0.45593999997E+02  0.45594000000E+02  0.51100000000E-03 0.  1.
    9900012    2    1    2    0    0  0.44545852825E+01 -0.33040846320E+02  0.30291461136E+02  0.46142317928E+02  0.10000001522E+02 0.  0.
        -12    1    1    2    0    0 -0.44545852825E+01  0.33040846320E+02 -0.30291461136E+02  0.45045682072E+02  0.00000000000E+00 0.  1.
         11    1    3    3    0    0  0.68405644382E+00 -0.16556368357E+02  0.19500485955E+02  0.25590041405E+02  0.51100000000E-03 0. -1.
        -11    1    3    3    0    0  0.46606599568E+01 -0.13172683932E+02  0.94584087504E+01  0.16873139884E+02  0.51100000000E-03 0.  1.
         12    1    3    3    0    0 -0.89013111808E+00 -0.33117940314E+01  0.13325664304E+01  0.36791366386E+01  0.00000000000E+00 0. -1.
</event>
<event>
 7    1  0.3766050E-009  0.4614232E+02  0.7816164E-02  0.1320468E+00
        -11   -1    0    0    0    0  0.00000000000E+00  0.00000000000E+00  0.45593999997E+02  0.45594000000E+02  0.51100000000E-03 0. -1.
         11   -1    0    0    0    0 -0.00000000000E+00 -0.00000000000E+00 -0.45593999997E+02  0.45594000000E+02  0.51100000000E-03 0.  1.
    9900012    2    1    2    0    0 -0.35773564277E+01 -0.32652062836E+02  0.30824646112E+02  0.46142317694E+02  0.99999993908E+01 0.  0.
        -12    1    1    2    0    0  0.35773564277E+01  0.32652062836E+02 -0.30824646112E+02  0.45045682306E+02  0.00000000000E+00 0.  1.
         11    1    3    3    0    0 -0.74544190287E+00 -0.12681466423E+01  0.17363169826E+01  0.22756705522E+01  0.51100000000E-03 0. -1.
        -11    1    3    3    0    0  0.13907813801E+00 -0.12585716744E+02  0.17596664284E+02  0.21634745270E+02  0.51100000000E-03 0.  1.
        -12    1    3    3    0    0 -0.29709926628E+01 -0.18798199450E+02  0.11491664845E+02  0.22231901872E+02  0.00000000000E+00 0.  1.
</event>
<event>
 7    1  0.3766050E-009  0.4614232E+02  0.7816164E-02  0.1320468E+00
        -11   -1    0    0    0    0  0.00000000000E+00  0.00000000000E+00  0.45593999997E+02  0.45594000000E+02  0.51100000000E-03 0. -1.
         11   -1    0    0    0    0 -0.00000000000E+00 -0.00000000000E+00 -0.45593999997E+02  0.45594000000E+02  0.51100000000E-03 0.  1.
    9900012    2    1    2    0    0 -0.11039702248E+02 -0.99035497869E+01  0.42534198560E+02  0.46142319061E+02  0.10000011853E+02 0.  0.
        -12    1    1    2    0    0  0.11039702248E+02  0.99035497869E+01 -0.42534198560E+02  0.45045680939E+02  0.00000000000E+00 0.  1.
         11    1    3    3    0    0 -0.91096256890E+01 -0.43464929173E+01  0.22935733910E+02  0.25058435129E+02  0.51100000000E-03 0. -1.
        -11    1    3    3    0    0 -0.51075956674E+00 -0.32891501784E+01  0.17107711703E+02  0.17428516409E+02  0.51100000000E-03 0.  1.
        -12    1    3    3    0    0 -0.14193169923E+01 -0.22679066912E+01  0.24907529473E+01  0.36553675231E+01  0.00000000000E+00 0.  1.
</event>
<event>
 7    1  0.3766050E-009  0.4614232E+02  0.7816164E-02  0.1320468E+00
        -11   -1    0    0    0    0  0.00000000000E+00  0.00000000000E+00  0.45593999997E+02  0.45594000000E+02  0.51100000000E-03 0. -1.
         11   -1    0    0    0    0 -0.00000000000E+00 -0.00000000000E+00 -0.45593999997E+02  0.45594000000E+02  0.51100000000E-03 0.  1.
    9900012    2    1    2    0    0 -0.13717888311E+02  0.20920448785E+02  0.37460217046E+02  0.46142317652E+02  0.99999990028E+01 0.  0.
        -12    1    1    2    0    0  0.13717888311E+02 -0.20920448785E+02 -0.37460217046E+02  0.45045682348E+02  0.00000000000E+00 0.  1.
         11    1    3    3    0    0 -0.97817502495E+01  0.19952159685E+02  0.31746127150E+02  0.38750327783E+02  0.51100000000E-03 0. -1.
        -11    1    3    3    0    0 -0.37748045418E+01  0.13545960310E+01  0.57045578401E+01  0.69732388563E+01  0.51100000000E-03 0.  1.
         12    1    3    3    0    0 -0.16133351986E+00 -0.38630693159E+00  0.95320564689E-02  0.41875101209E+00  0.00000000000E+00 0. -1.
</event>
<event>
 7    1  0.3766050E-009  0.4614232E+02  0.7816164E-02  0.1320468E+00
        -11   -1    0    0    0    0  0.00000000000E+00  0.00000000000E+00  0.45593999997E+02  0.45594000000E+02  0.51100000000E-03 0. -1.
         11   -1    0    0    0    0 -0.00000000000E+00 -0.00000000000E+00 -0.45593999997E+02  0.45594000000E+02  0.51100000000E-03 0.  1.
    9900012    2    1    2    0    0  0.35707532740E+02 -0.73782672975E+01 -0.26450837366E+02  0.46142317409E+02  0.99999967909E+01 0.  0.
         12    1    1    2    0    0 -0.35707532740E+02  0.73782672975E+01  0.26450837366E+02  0.45045682591E+02  0.00000000000E+00 0. -1.
         11    1    3    3    0    0 -0.53370952521E-01  0.46774084417E+00  0.34039362160E+00  0.58094581040E+00  0.51100000000E-03 0. -1.
        -11    1    3    3    0    0  0.27748159860E+02 -0.42629675263E+01 -0.20274071513E+02  0.34629052019E+02  0.51100000000E-03 0.  1.
        -12    1    3    3    0    0  0.80127438327E+01 -0.35830406154E+01 -0.65171594747E+01  0.10932319580E+02  0.00000000000E+00 0.  1.
</event>
<event>
 7    1  0.3838040E-009  0.4614232E+02  0.7816164E-02  0.1320468E+00
        -11   -1    0    0    0    0  0.00000000000E+00  0.00000000000E+00  0.45593999997E+02  0.45594000000E+02  0.51100000000E-03 0. -1.
         11   -1    0    0    0    0 -0.00000000000E+00 -0.00000000000E+00 -0.45593999997E+02  0.45594000000E+02  0.51100000000E-03 0.  1.
    9900012    2    1    2    0    0  0.75253805039E+01  0.15100562675E+02 -0.41766674723E+02  0.46142318051E+02  0.10000002645E+02 0.  0.
         12    1    1    2    0    0 -0.75253805039E+01 -0.15100562675E+02  0.41766674723E+02  0.45045681949E+02  0.00000000000E+00 0. -1.
         11    1    3    3    0    0 -0.76689979367E+00  0.48437642713E+00  0.97156554779E-01  0.91224748503E+00  0.51100000000E-03 0. -1.
        -11    1    3    3    0    0  0.35159200497E+01  0.40940133243E+01 -0.10507866469E+02  0.11812616006E+02  0.51100000000E-03 0.  1.
         12    1    3    3    0    0  0.47763602479E+01  0.10522172924E+02 -0.31355964808E+02  0.33417454561E+02  0.00000000000E+00 0. -1.
</event>
<event>
 7    1  0.3766050E-009  0.4614232E+02  0.7816164E-02  0.1320468E+00
        -11   -1    0    0    0    0  0.00000000000E+00  0.00000000000E+00  0.45593999997E+02  0.45594000000E+02  0.51100000000E-03 0. -1.
         11   -1    0    0    0    0 -0.00000000000E+00 -0.00000000000E+00 -0.45593999997E+02  0.45594000000E+02  0.51100000000E-03 0.  1.
    9900012    2    1    2    0    0  0.73914664999E+01  0.14047964843E+02 -0.42156073751E+02  0.46142315996E+02  0.99999839045E+01 0.  0.
         12    1    1    2    0    0 -0.73914664999E+01 -0.14047964843E+02  0.42156073751E+02  0.45045684004E+02  0.00000000000E+00 0. -1.
         11    1    3    3    0    0  0.31139592280E+01  0.57488687652E+01 -0.65695846453E+01  0.92685315356E+01  0.51100000000E-03 0. -1.
        -11    1    3    3    0    0  0.31320596702E+01  0.76815596513E+01 -0.29168427325E+02  0.30325126700E+02  0.51100000000E-03 0.  1.
         12    1    3    3    0    0  0.11454476017E+01  0.61753642655E+00 -0.64180617807E+01  0.65486577607E+01  0.00000000000E+00 0. -1.
</event>
<event>
 7    1  0.3766050E-009  0.4614232E+02  0.7816164E-02  0.1320468E+00
        -11   -1    0    0    0    0  0.00000000000E+00  0.00000000000E+00  0.45593999997E+02  0.45594000000E+02  0.51100000000E-03 0. -1.
         11   -1    0    0    0    0 -0.00000000000E+00 -0.00000000000E+00 -0.45593999997E+02  0.45594000000E+02  0.51100000000E-03 0.  1.
    9900012    2    1    2    0    0 -0.21982776696E+02 -0.26534003133E+01  0.39227932107E+02  0.46142315835E+02  0.99999824361E+01 0.  0.
        -12    1    1    2    0    0  0.21982776696E+02  0.26534003133E+01 -0.39227932107E+02  0.45045684165E+02  0.00000000000E+00 0.  1.
         11    1    3    3    0    0 -0.89325765247E+01 -0.37718127937E+01  0.10540019340E+02  0.14321644566E+02  0.51100000000E-03 0. -1.
        -11    1    3    3    0    0 -0.12979281315E+01  0.39513221832E-01  0.70971178764E+01  0.72149332043E+01  0.51100000000E-03 0.  1.
         12    1    3    3    0    0 -0.11752272040E+02  0.10788992586E+01  0.21590794890E+02  0.24605738065E+02  0.00000000000E+00 0. -1.
</event>
<event>
 7    1  0.3766050E-009  0.4614232E+02  0.7816164E-02  0.1320468E+00
        -11   -1    0    0    0    0  0.00000000000E+00  0.00000000000E+00  0.45593999997E+02  0.45594000000E+02  0.51100000000E-03 0. -1.
         11   -1    0    0    0    0 -0.00000000000E+00 -0.00000000000E+00 -0.45593999997E+02  0.45594000000E+02  0.51100000000E-03 0.  1.
    9900012    2    1    2    0    0 -0.10660248637E+01  0.51473077647E+01  0.44737928842E+02  0.46142318040E+02  0.10000002540E+02 0.  0.
        -12    1    1    2    0    0  0.10660248637E+01 -0.51473077647E+01 -0.44737928842E+02  0.45045681960E+02  0.00000000000E+00 0.  1.
         11    1    3    3    0    0 -0.34968562448E-01 -0.18558003751E+01  0.11111356356E+02  0.11265321041E+02  0.51100000000E-03 0. -1.
        -11    1    3    3    0    0  0.17354353599E+01  0.74767197105E+00  0.13226331681E+02  0.13360636184E+02  0.51100000000E-03 0.  1.
        -12    1    3    3    0    0 -0.27664916611E+01  0.62554361688E+01  0.20400240805E+02  0.21516360814E+02  0.00000000000E+00 0.  1.
</event>
<event>
 7    1  0.3766050E-009  0.4614232E+02  0.7816164E-02  0.1320468E+00
        -11   -1    0    0    0    0  0.00000000000E+00  0.00000000000E+00  0.45593999997E+02  0.45594000000E+02  0.51100000000E-03 0. -1.
         11   -1    0    0    0    0 -0.00000000000E+00 -0.00000000000E+00 -0.45593999997E+02  0.45594000000E+02  0.51100000000E-03 0.  1.
    9900012    2    1    2    0    0 -0.16789594599E+01 -0.10268317950E+02 -0.43827574662E+02  0.46142316976E+02  0.99999928414E+01 0.  0.
         12    1    1    2    0    0  0.16789594599E+01  0.10268317950E+02  0.43827574662E+02  0.45045683024E+02  0.00000000000E+00 0. -1.
         11    1    3    3    0    0 -0.13124612645E+00 -0.51811993098E+00 -0.34650688455E+00  0.63697809283E+00  0.51100000000E-03 0. -1.
        -11    1    3    3    0    0 -0.96343065493E+00 -0.54697111666E+00 -0.23196701275E+02  0.23223142043E+02  0.51100000000E-03 0.  1.
        -12    1    3    3    0    0 -0.58428267849E+00 -0.92032269020E+01 -0.20284366502E+02  0.22282196841E+02  0.00000000000E+00 0.  1.
</event>
<event>
 7    1  0.3766050E-009  0.4614232E+02  0.7816164E-02  0.1320468E+00
        -11   -1    0    0    0    0  0.00000000000E+00  0.00000000000E+00  0.45593999997E+02  0.45594000000E+02  0.51100000000E-03 0. -1.
         11   -1    0    0    0    0 -0.00000000000E+00 -0.00000000000E+00 -0.45593999997E+02  0.45594000000E+02  0.51100000000E-03 0.  1.
    9900012    2    1    2    0    0 -0.96854477683E+01  0.43419832091E+02  0.70727169821E+01  0.46142322707E+02  0.10000045099E+02 0.  0.
        -12    1    1    2    0    0  0.96854477683E+01 -0.43419832091E+02 -0.70727169821E+01  0.45045677293E+02  0.00000000000E+00 0.  1.
         11    1    3    3    0    0  0.75070714000E+00  0.10310566074E+02  0.88255404365E+00  0.10375463165E+02  0.51100000000E-03 0. -1.
        -11    1    3    3    0    0 -0.26565545519E+01  0.42173261577E+01 -0.77941002259E+00  0.50448589923E+01  0.51100000000E-03 0.  1.
         12    1    3    3    0    0 -0.77796003564E+01  0.28891939859E+02  0.69695729610E+01  0.30722000550E+02  0.00000000000E+00 0. -1.
</event>
<event>
 7    1  0.3766050E-009  0.4614232E+02  0.7816164E-02  0.1320468E+00
        -11   -1    0    0    0    0  0.00000000000E+00  0.00000000000E+00  0.45593999997E+02  0.45594000000E+02  0.51100000000E-03 0. -1.
         11   -1    0    0    0    0 -0.00000000000E+00 -0.00000000000E+00 -0.45593999997E+02  0.45594000000E+02  0.51100000000E-03 0.  1.
    9900012    2    1    2    0    0  0.10611754043E+02  0.90115633595E+01  0.42840352603E+02  0.46142318640E+02  0.10000008017E+02 0.  0.
        -12    1    1    2    0    0 -0.10611754043E+02 -0.90115633595E+01 -0.42840352603E+02  0.45045681360E+02  0.00000000000E+00 0.  1.
         11    1    3    3    0    0  0.10567132096E+01  0.13481176629E+01  0.52598123035E+00  0.17918483630E+01  0.51100000000E-03 0. -1.
        -11    1    3    3    0    0 -0.83857739058E-01 -0.55286471015E+00  0.11014920319E+01  0.12353041996E+01  0.51100000000E-03 0.  1.
         12    1    3    3    0    0  0.96388985723E+01  0.82163104068E+01  0.41212879340E+02  0.43115166078E+02  0.00000000000E+00 0. -1.
</event>
<event>
 7    1  0.3766050E-009  0.4614232E+02  0.7816164E-02  0.1320468E+00
        -11   -1    0    0    0    0  0.00000000000E+00  0.00000000000E+00  0.45593999997E+02  0.45594000000E+02  0.51100000000E-03 0. -1.
         11   -1    0    0    0    0 -0.00000000000E+00 -0.00000000000E+00 -0.45593999997E+02  0.45594000000E+02  0.51100000000E-03 0.  1.
    9900012    2    1    2    0    0  0.13381126793E+02  0.27983734122E+02 -0.32664500472E+02  0.46142317402E+02  0.99999967237E+01 0.  0.
         12    1    1    2    0    0 -0.13381126793E+02 -0.27983734122E+02  0.32664500472E+02  0.45045682598E+02  0.00000000000E+00 0. -1.
         11    1    3    3    0    0  0.18441995769E+01  0.58947332433E+00 -0.66547719631E+00  0.20472935890E+01  0.51100000000E-03 0. -1.
        -11    1    3    3    0    0  0.10151090413E+02  0.23125325740E+02 -0.23568296197E+02  0.34544028616E+02  0.51100000000E-03 0.  1.
         12    1    3    3    0    0  0.13858368035E+01  0.42689350577E+01 -0.84307270788E+01  0.95509951969E+01  0.00000000000E+00 0. -1.
</event>
<event>
 7    1  0.3766050E-009  0.4614232E+02  0.7816164E-02  0.1320468E+00
        -11   -1    0    0    0    0  0.00000000000E+00  0.00000000000E+00  0.45593999997E+02  0.45594000000E+02  0.51100000000E-03 0. -1.
         11   -1    0    0    0    0 -0.00000000000E+00 -0.00000000000E+00 -0.45593999997E+02  0.45594000000E+02  0.51100000000E-03 0.  1.
    9900012    2    1    2    0    0  0.12391113200E+02  0.41195199464E+02 -0.13361490291E+02  0.46142316877E+02  0.99999919369E+01 0.  0.
         12    1    1    2    0    0 -0.12391113200E+02 -0.41195199464E+02  0.13361490291E+02  0.45045683123E+02  0.00000000000E+00 0. -1.
         11    1    3    3    0    0  0.24930566164E+00  0.14922235791E+01 -0.15485388024E+01  0.21649150576E+01  0.51100000000E-03 0. -1.
        -11    1    3    3    0    0  0.11541807325E+02  0.31544490652E+02 -0.64714582358E+01  0.34207425784E+02  0.51100000000E-03 0.  1.
        -12    1    3    3    0    0  0.60000021284E+00  0.81584852335E+01 -0.53414932526E+01  0.97699760352E+01  0.00000000000E+00 0.  1.
</event>
<event>
 7    1  0.3766050E-009  0.4614232E+02  0.7816164E-02  0.1320468E+00
        -11   -1    0    0    0    0  0.00000000000E+00  0.00000000000E+00  0.45593999997E+02  0.45594000000E+02  0.51100000000E-03 0. -1.
         11   -1    0    0    0    0 -0.00000000000E+00 -0.00000000000E+00 -0.45593999997E+02  0.45594000000E+02  0.51100000000E-03 0.  1.
    9900012    2    1    2    0    0  0.17066122326E+02  0.36989968558E+02 -0.19225065859E+02  0.46142318049E+02  0.10000002626E+02 0.  0.
         12    1    1    2    0    0 -0.17066122326E+02 -0.36989968558E+02  0.19225065859E+02  0.45045681951E+02  0.00000000000E+00 0. -1.
         11    1    3    3    0    0  0.14535011686E+02  0.34315804259E+02 -0.14386090854E+02  0.39947472974E+02  0.51100000000E-03 0.  1.
        -11    1    3    3    0    0  0.92497207976E+00  0.81371368643E+00 -0.80681652958E+00  0.14726358971E+01  0.51100000000E-03 0. -1.
        -12    1    3    3    0    0  0.16061385601E+01  0.18604506120E+01 -0.40321584748E+01  0.47222091779E+01  0.00000000000E+00 0.  1.
</event>
<event>
 7    1  0.3766050E-009  0.4614232E+02  0.7816164E-02  0.1320468E+00
        -11   -1    0    0    0    0  0.00000000000E+00  0.00000000000E+00  0.45593999997E+02  0.45594000000E+02  0.51100000000E-03 0. -1.
         11   -1    0    0    0    0 -0.00000000000E+00 -0.00000000000E+00 -0.45593999997E+02  0.45594000000E+02  0.51100000000E-03 0.  1.
    9900012    2    1    2    0    0 -0.31904390363E+02  0.35999174710E+01 -0.31595314312E+02  0.46142318557E+02  0.10000007257E+02 0.  0.
         12    1    1    2    0    0  0.31904390363E+02 -0.35999174710E+01  0.31595314312E+02  0.45045681443E+02  0.00000000000E+00 0. -1.
         11    1    3    3    0    0 -0.63494751635E+01 -0.23083649531E+01 -0.69048191494E+01  0.96602749110E+01  0.51100000000E-03 0. -1.
        -11    1    3    3    0    0 -0.40377941426E+01  0.14745803797E+01 -0.72636392273E+01  0.84402976203E+01  0.51100000000E-03 0.  1.
        -12    1    3    3    0    0 -0.21517121056E+02  0.44337020444E+01 -0.17426855935E+02  0.28041746026E+02  0.00000000000E+00 0.  1.
</event>
<event>
 7    1  0.3766050E-009  0.4614231E+02  0.7816164E-02  0.1320468E+00
        -11   -1    0    0    0    0  0.00000000000E+00  0.00000000000E+00  0.45593999997E+02  0.45594000000E+02  0.51100000000E-03 0. -1.
         11   -1    0    0    0    0 -0.00000000000E+00 -0.00000000000E+00 -0.45593999997E+02  0.45594000000E+02  0.51100000000E-03 0.  1.
    9900012    2    1    2    0    0  0.15323487049E+02  0.14361814079E+02  0.39850254762E+02  0.46142314707E+02  0.99999721468E+01 0.  0.
        -12    1    1    2    0    0 -0.15323487049E+02 -0.14361814079E+02 -0.39850254762E+02  0.45045685293E+02  0.00000000000E+00 0.  1.
         11    1    3    3    0    0  0.10256657986E+02  0.92891898207E+01  0.24621553428E+02  0.28243742210E+02  0.51100000000E-03 0. -1.
        -11    1    3    3    0    0  0.20116223415E+01 -0.31761098769E+00  0.85469596143E+01  0.87862403845E+01  0.51100000000E-03 0.  1.
        -12    1    3    3    0    0  0.30552067219E+01  0.53902352456E+01  0.66817417200E+01  0.91123321125E+01  0.00000000000E+00 0.  1.
</event>
<event>
 7    1  0.3766050E-009  0.4614232E+02  0.7816164E-02  0.1320468E+00
        -11   -1    0    0    0    0  0.00000000000E+00  0.00000000000E+00  0.45593999997E+02  0.45594000000E+02  0.51100000000E-03 0. -1.
         11   -1    0    0    0    0 -0.00000000000E+00 -0.00000000000E+00 -0.45593999997E+02  0.45594000000E+02  0.51100000000E-03 0.  1.
    9900012    2    1    2    0    0 -0.25922039557E+02 -0.35006244685E+02  0.11477109541E+02  0.46142319351E+02  0.10000014499E+02 0.  0.
        -12    1    1    2    0    0  0.25922039557E+02  0.35006244685E+02 -0.11477109541E+02  0.45045680649E+02  0.00000000000E+00 0.  1.
         11    1    3    3    0    0 -0.91391190039E+01 -0.95248775676E+01  0.67264872557E+01  0.14815276572E+02  0.51100000000E-03 0. -1.
        -11    1    3    3    0    0 -0.14078020899E+02 -0.18182344408E+02  0.20450762761E+01  0.23086157277E+02  0.51100000000E-03 0.  1.
         12    1    3    3    0    0 -0.27048996541E+01 -0.72990227091E+01  0.27055460091E+01  0.82408855018E+01  0.00000000000E+00 0. -1.
</event>
<event>
 7    1  0.3766050E-009  0.4614232E+02  0.7816164E-02  0.1320468E+00
        -11   -1    0    0    0    0  0.00000000000E+00  0.00000000000E+00  0.45593999997E+02  0.45594000000E+02  0.51100000000E-03 0. -1.
         11   -1    0    0    0    0 -0.00000000000E+00 -0.00000000000E+00 -0.45593999997E+02  0.45594000000E+02  0.51100000000E-03 0.  1.
    9900012    2    1    2    0    0 -0.16944370004E+02  0.15055412709E+01  0.41710132099E+02  0.46142318197E+02  0.10000003973E+02 0.  0.
        -12    1    1    2    0    0  0.16944370004E+02 -0.15055412709E+01 -0.41710132099E+02  0.45045681803E+02  0.00000000000E+00 0.  1.
         11    1    3    3    0    0 -0.44888662307E+01  0.22934373327E+01  0.16692942567E+02  0.17437434061E+02  0.51100000000E-03 0. -1.
        -11    1    3    3    0    0  0.26689761663E+00  0.16126035795E+00  0.47261906250E+01  0.47364667554E+01  0.51100000000E-03 0.  1.
         12    1    3    3    0    0 -0.12722401390E+02 -0.94915641973E+00  0.20290998907E+02  0.23968417380E+02  0.00000000000E+00 0. -1.
</event>
<event>
 7    1  0.3766050E-009  0.4614232E+02  0.7816164E-02  0.1320468E+00
        -11   -1    0    0    0    0  0.00000000000E+00  0.00000000000E+00  0.45593999997E+02  0.45594000000E+02  0.51100000000E-03 0. -1.
         11   -1    0    0    0    0 -0.00000000000E+00 -0.00000000000E+00 -0.45593999997E+02  0.45594000000E+02  0.51100000000E-03 0.  1.
    9900012    2    1    2    0    0 -0.49702774281E+01 -0.17062502643E+02  0.41391794918E+02  0.46142319400E+02  0.10000014945E+02 0.  0.
        -12    1    1    2    0    0  0.49702774281E+01  0.17062502643E+02 -0.41391794918E+02  0.45045680600E+02  0.00000000000E+00 0.  1.
         11    1    3    3    0    0 -0.21388672344E+00 -0.33123873567E+01  0.10699337243E+02  0.11202387033E+02  0.51100000000E-03 0. -1.
        -11    1    3    3    0    0 -0.61540982081E+00 -0.11542033523E+02  0.25140923043E+02  0.27670621222E+02  0.51100000000E-03 0.  1.
        -12    1    3    3    0    0 -0.41409808839E+01 -0.22080817631E+01  0.55515346323E+01  0.72693111453E+01  0.00000000000E+00 0.  1.
</event>
<event>
 7    1  0.3766050E-009  0.4614232E+02  0.7816164E-02  0.1320468E+00
        -11   -1    0    0    0    0  0.00000000000E+00  0.00000000000E+00  0.45593999997E+02  0.45594000000E+02  0.51100000000E-03 0. -1.
         11   -1    0    0    0    0 -0.00000000000E+00 -0.00000000000E+00 -0.45593999997E+02  0.45594000000E+02  0.51100000000E-03 0.  1.
    9900012    2    1    2    0    0  0.10218776494E+02  0.19477397115E+02 -0.39310571417E+02  0.46142318558E+02  0.10000007271E+02 0.  0.
         12    1    1    2    0    0 -0.10218776494E+02 -0.19477397115E+02  0.39310571417E+02  0.45045681442E+02  0.00000000000E+00 0. -1.
         11    1    3    3    0    0  0.18005743082E+01  0.67666556722E+00 -0.56837641918E+00  0.20057407969E+01  0.51100000000E-03 0. -1.
        -11    1    3    3    0    0  0.20582923128E+01  0.97357686851E+01 -0.20691204557E+02  0.22959697415E+02  0.51100000000E-03 0.  1.
         12    1    3    3    0    0  0.63599098731E+01  0.90649628631E+01 -0.18050990441E+02  0.21176880346E+02  0.00000000000E+00 0. -1.
</event>
<event>
 7    1  0.3766050E-009  0.4614232E+02  0.7816164E-02  0.1320468E+00
        -11   -1    0    0    0    0  0.00000000000E+00  0.00000000000E+00  0.45593999997E+02  0.45594000000E+02  0.51100000000E-03 0. -1.
         11   -1    0    0    0    0 -0.00000000000E+00 -0.00000000000E+00 -0.45593999997E+02  0.45594000000E+02  0.51100000000E-03 0.  1.
    9900012    2    1    2    0    0  0.10080173690E+02 -0.39807374281E+02 -0.18516926395E+02  0.46142317500E+02  0.99999976180E+01 0.  0.
         12    1    1    2    0    0 -0.10080173690E+02  0.39807374281E+02  0.18516926395E+02  0.45045682500E+02  0.00000000000E+00 0. -1.
         11    1    3    3    0    0  0.84494939512E+00 -0.32304553972E+01 -0.32468066890E+01  0.46574172554E+01  0.51100000000E-03 0. -1.
        -11    1    3    3    0    0  0.45728847453E+01 -0.24170458223E+02 -0.60278243220E+01  0.25327001242E+02  0.51100000000E-03 0.  1.
        -12    1    3    3    0    0  0.46623395492E+01 -0.12406460661E+02 -0.92422953835E+01  0.16157899002E+02  0.00000000000E+00 0.  1.
</event>
<event>
 7    1  0.3766050E-009  0.4614232E+02  0.7816164E-02  0.1320468E+00
        -11   -1    0    0    0    0  0.00000000000E+00  0.00000000000E+00  0.45593999997E+02  0.45594000000E+02  0.51100000000E-03 0. -1.
         11   -1    0    0    0    0 -0.00000000000E+00 -0.00000000000E+00 -0.45593999997E+02  0.45594000000E+02  0.51100000000E-03 0.  1.
    9900012    2    1    2    0    0 -0.25449058838E+02  0.47003864437E+01  0.36869569580E+02  0.46142318859E+02  0.10000010009E+02 0.  0.
        -12    1    1    2    0    0  0.25449058838E+02 -0.47003864437E+01 -0.36869569580E+02  0.45045681141E+02  0.00000000000E+00 0.  1.
         11    1    3    3    0    0 -0.18044295686E+02  0.43970894564E+01  0.23865032000E+02  0.30240217511E+02  0.51100000000E-03 0. -1.
        -11    1    3    3    0    0 -0.53304991940E+01  0.99654363563E+00  0.12545551819E+02  0.13667413492E+02  0.51100000000E-03 0.  1.
         12    1    3    3    0    0 -0.20742639577E+01 -0.69324664836E+00  0.45898576153E+00  0.22346878554E+01  0.00000000000E+00 0. -1.
</event>
<event>
 7    1  0.3766050E-009  0.4614232E+02  0.7816164E-02  0.1320468E+00
        -11   -1    0    0    0    0  0.00000000000E+00  0.00000000000E+00  0.45593999997E+02  0.45594000000E+02  0.51100000000E-03 0.  1.
         11   -1    0    0    0    0 -0.00000000000E+00 -0.00000000000E+00 -0.45593999997E+02  0.45594000000E+02  0.51100000000E-03 0. -1.
    9900012    2    1    2    0    0  0.44429882663E+02 -0.66437404780E+01 -0.33105479141E+01  0.46142317760E+02  0.99999999904E+01 0.  0.
        -12    1    1    2    0    0 -0.44429882663E+02  0.66437404780E+01  0.33105479141E+01  0.45045682240E+02  0.00000000000E+00 0.  1.
         11    1    3    3    0    0  0.33034937647E+02 -0.54616565128E+01 -0.27643877221E+01  0.33597301037E+02  0.51100000000E-03 0. -1.
        -11    1    3    3    0    0  0.82815162411E+01 -0.13121366097E+00  0.18394589577E+01  0.84843584197E+01  0.51100000000E-03 0.  1.
         12    1    3    3    0    0  0.31134287744E+01 -0.10508703042E+01 -0.23856191497E+01  0.40606583034E+01  0.00000000000E+00 0. -1.
</event>
<event>
 7    1  0.3766050E-009  0.4614232E+02  0.7816164E-02  0.1320468E+00
        -11   -1    0    0    0    0  0.00000000000E+00  0.00000000000E+00  0.45593999997E+02  0.45594000000E+02  0.51100000000E-03 0. -1.
         11   -1    0    0    0    0 -0.00000000000E+00 -0.00000000000E+00 -0.45593999997E+02  0.45594000000E+02  0.51100000000E-03 0.  1.
    9900012    2    1    2    0    0  0.21264311420E+01 -0.34923474352E+02 -0.28371512064E+02  0.46142317998E+02  0.10000002161E+02 0.  0.
         12    1    1    2    0    0 -0.21264311420E+01  0.34923474352E+02  0.28371512064E+02  0.45045682002E+02  0.00000000000E+00 0. -1.
         11    1    3    3    0    0 -0.92625154208E+00 -0.83414896751E+00 -0.54494875903E+00  0.13604101699E+01  0.51100000000E-03 0. -1.
        -11    1    3    3    0    0 -0.62341215082E+00 -0.11048383283E+01 -0.32363896876E+01  0.34761370676E+01  0.51100000000E-03 0.  1.
        -12    1    3    3    0    0  0.36760948349E+01 -0.32984487056E+02 -0.24590173617E+02  0.41305770761E+02  0.00000000000E+00 0.  1.
</event>
<event>
 7    1  0.3900383E-009  0.4614232E+02  0.7816164E-02  0.1320468E+00
        -11   -1    0    0    0    0  0.00000000000E+00  0.00000000000E+00  0.45593999997E+02  0.45594000000E+02  0.51100000000E-03 0. -1.
         11   -1    0    0    0    0 -0.00000000000E+00 -0.00000000000E+00 -0.45593999997E+02  0.45594000000E+02  0.51100000000E-03 0.  1.
    9900012    2    1    2    0    0  0.21031907147E+02 -0.10619621980E+02 -0.38392655597E+02  0.46142317710E+02  0.99999995319E+01 0.  0.
         12    1    1    2    0    0 -0.21031907147E+02  0.10619621980E+02  0.38392655597E+02  0.45045682290E+02  0.00000000000E+00 0. -1.
         11    1    3    3    0    0 -0.18225426739E+00  0.62487575330E+00 -0.25994269033E+01  0.26796840880E+01  0.51100000000E-03 0. -1.
        -11    1    3    3    0    0  0.18766804032E+02 -0.75711087072E+01 -0.29077865272E+02  0.35426499540E+02  0.51100000000E-03 0.  1.
        -12    1    3    3    0    0  0.24473573817E+01 -0.36733890265E+01 -0.67153634217E+01  0.80361340817E+01  0.00000000000E+00 0.  1.
</event>
<event>
 7    1  0.3766050E-009  0.4614232E+02  0.7816164E-02  0.1320468E+00
        -11   -1    0    0    0    0  0.00000000000E+00  0.00000000000E+00  0.45593999997E+02  0.45594000000E+02  0.51100000000E-03 0. -1.
         11   -1    0    0    0    0 -0.00000000000E+00 -0.00000000000E+00 -0.45593999997E+02  0.45594000000E+02  0.51100000000E-03 0.  1.
    9900012    2    1    2    0    0  0.84169816902E+01 -0.35313951069E+02  0.26668196714E+02  0.46142318333E+02  0.10000005215E+02 0.  0.
        -12    1    1    2    0    0 -0.84169816902E+01  0.35313951069E+02 -0.26668196714E+02  0.45045681667E+02  0.00000000000E+00 0.  1.
         11    1    3    3    0    0 -0.80866899513E+00 -0.52878625340E+01  0.29968259569E+01  0.61315904788E+01  0.51100000000E-03 0. -1.
        -11    1    3    3    0    0  0.16855946788E+01 -0.44241226727E+01  0.72987919331E+01  0.86997962498E+01  0.51100000000E-03 0.  1.
        -12    1    3    3    0    0  0.75400560065E+01 -0.25601965862E+02  0.16372578824E+02  0.31310931604E+02  0.00000000000E+00 0.  1.
</event>
<event>
 7    1  0.3766050E-009  0.4614232E+02  0.7816164E-02  0.1320468E+00
        -11   -1    0    0    0    0  0.00000000000E+00  0.00000000000E+00  0.45593999997E+02  0.45594000000E+02  0.51100000000E-03 0.  1.
         11   -1    0    0    0    0 -0.00000000000E+00 -0.00000000000E+00 -0.45593999997E+02  0.45594000000E+02  0.51100000000E-03 0. -1.
    9900012    2    1    2    0    0  0.22110671522E+02  0.39239636699E+02 -0.69473341986E+00  0.46142317211E+02  0.99999949807E+01 0.  0.
        -12    1    1    2    0    0 -0.22110671522E+02 -0.39239636699E+02  0.69473341986E+00  0.45045682789E+02  0.00000000000E+00 0.  1.
         11    1    3    3    0    0  0.24478899247E+01  0.52208080015E+01 -0.27992290126E+01  0.64097335825E+01  0.51100000000E-03 0. -1.
        -11    1    3    3    0    0  0.59887148208E+01  0.85455678331E+01  0.28302428083E+01  0.10812109388E+02  0.51100000000E-03 0.  1.
         12    1    3    3    0    0  0.13674066777E+02  0.25473260864E+02 -0.72574721548E+00  0.28920474241E+02  0.00000000000E+00 0. -1.
</event>
<event>
 7    1  0.5000448E-009  0.4614232E+02  0.7816164E-02  0.1320468E+00
        -11   -1    0    0    0    0  0.00000000000E+00  0.00000000000E+00  0.45593999997E+02  0.45594000000E+02  0.51100000000E-03 0. -1.
         11   -1    0    0    0    0 -0.00000000000E+00 -0.00000000000E+00 -0.45593999997E+02  0.45594000000E+02  0.51100000000E-03 0.  1.
    9900012    2    1    2    0    0 -0.50671170519E+01 -0.55929740921E+00 -0.44756286435E+02  0.46142315809E+02  0.99999821969E+01 0.  0.
         12    1    1    2    0    0  0.50671170519E+01  0.55929740921E+00  0.44756286435E+02  0.45045684191E+02  0.00000000000E+00 0. -1.
         11    1    3    3    0    0  0.90838950559E+00 -0.19023390590E+01 -0.30880432546E+01  0.37389940884E+01  0.51100000000E-03 0. -1.
        -11    1    3    3    0    0 -0.10766928424E+01  0.23510089469E+01 -0.19935456304E+02  0.20102460766E+02  0.51100000000E-03 0.  1.
         12    1    3    3    0    0 -0.48988137151E+01 -0.10079672971E+01 -0.21732786876E+02  0.22300860954E+02  0.00000000000E+00 0. -1.
</event>
<event>
 7    1  0.3766050E-009  0.4614232E+02  0.7816164E-02  0.1320468E+00
        -11   -1    0    0    0    0  0.00000000000E+00  0.00000000000E+00  0.45593999997E+02  0.45594000000E+02  0.51100000000E-03 0. -1.
         11   -1    0    0    0    0 -0.00000000000E+00 -0.00000000000E+00 -0.45593999997E+02  0.45594000000E+02  0.51100000000E-03 0.  1.
    9900012    2    1    2    0    0  0.41182884454E+01  0.40227582994E+02 -0.19846779918E+02  0.46142318671E+02  0.10000008300E+02 0.  0.
         12    1    1    2    0    0 -0.41182884454E+01 -0.40227582994E+02  0.19846779918E+02  0.45045681329E+02  0.00000000000E+00 0. -1.
         11    1    3    3    0    0  0.55035266654E+01  0.18113672442E+02 -0.12453325321E+02  0.22660080470E+02  0.51100000000E-03 0. -1.
        -11    1    3    3    0    0  0.32961595272E+00  0.11755850597E+02 -0.44974402194E+01  0.12591093627E+02  0.51100000000E-03 0.  1.
         12    1    3    3    0    0 -0.17148541727E+01  0.10358059955E+02 -0.28960143775E+01  0.10891144574E+02  0.00000000000E+00 0. -1.
</event>
<event>
 7    1  0.3766050E-009  0.4614232E+02  0.7816164E-02  0.1320468E+00
        -11   -1    0    0    0    0  0.00000000000E+00  0.00000000000E+00  0.45593999997E+02  0.45594000000E+02  0.51100000000E-03 0. -1.
         11   -1    0    0    0    0 -0.00000000000E+00 -0.00000000000E+00 -0.45593999997E+02  0.45594000000E+02  0.51100000000E-03 0.  1.
    9900012    2    1    2    0    0 -0.27832584931E+02 -0.55988946528E+01  0.34973029978E+02  0.46142320617E+02  0.10000026043E+02 0.  0.
        -12    1    1    2    0    0  0.27832584931E+02  0.55988946528E+01 -0.34973029978E+02  0.45045679383E+02  0.00000000000E+00 0.  1.
         11    1    3    3    0    0 -0.29917332951E+01 -0.12852778755E+01  0.11809774710E+01  0.34636852303E+01  0.51100000000E-03 0. -1.
        -11    1    3    3    0    0 -0.15027838120E+02 -0.11855823190E+01  0.24718180562E+02  0.28952201549E+02  0.51100000000E-03 0.  1.
         12    1    3    3    0    0 -0.98130135158E+01 -0.31280344583E+01  0.90738719451E+01  0.13726433838E+02  0.00000000000E+00 0. -1.
</event>
<event>
 7    1  0.3766050E-009  0.4614232E+02  0.7816164E-02  0.1320468E+00
        -11   -1    0    0    0    0  0.00000000000E+00  0.00000000000E+00  0.45593999997E+02  0.45594000000E+02  0.51100000000E-03 0. -1.
         11   -1    0    0    0    0 -0.00000000000E+00 -0.00000000000E+00 -0.45593999997E+02  0.45594000000E+02  0.51100000000E-03 0.  1.
    9900012    2    1    2    0    0 -0.33555816654E+02 -0.19675235449E+02  0.22715758700E+02  0.46142318580E+02  0.10000007470E+02 0.  0.
        -12    1    1    2    0    0  0.33555816654E+02  0.19675235449E+02 -0.22715758700E+02  0.45045681420E+02  0.00000000000E+00 0.  1.
         11    1    3    3    0    0 -0.15330567926E+02 -0.57011499179E+01  0.67147328129E+01  0.17680980186E+02  0.51100000000E-03 0. -1.
        -11    1    3    3    0    0 -0.68191062914E+01 -0.84264674971E+01  0.78604196011E+01  0.13389987366E+02  0.51100000000E-03 0.  1.
        -12    1    3    3    0    0 -0.11406142436E+02 -0.55476180336E+01  0.81406062859E+01  0.15071351028E+02  0.00000000000E+00 0.  1.
</event>
<event>
 7    1  0.3766050E-009  0.4614232E+02  0.7816164E-02  0.1320468E+00
        -11   -1    0    0    0    0  0.00000000000E+00  0.00000000000E+00  0.45593999997E+02  0.45594000000E+02  0.51100000000E-03 0. -1.
         11   -1    0    0    0    0 -0.00000000000E+00 -0.00000000000E+00 -0.45593999997E+02  0.45594000000E+02  0.51100000000E-03 0.  1.
    9900012    2    1    2    0    0 -0.31981129619E+02  0.23675549084E+02 -0.21113721065E+02  0.46142317706E+02  0.99999994972E+01 0.  0.
         12    1    1    2    0    0  0.31981129619E+02 -0.23675549084E+02  0.21113721065E+02  0.45045682294E+02  0.00000000000E+00 0. -1.
         11    1    3    3    0    0 -0.51428802472E+01  0.90059824258E+00 -0.29626211634E+01  0.60031174277E+01  0.51100000000E-03 0. -1.
        -11    1    3    3    0    0 -0.16644122567E+02  0.11556097627E+02 -0.13240828563E+02  0.24205159567E+02  0.51100000000E-03 0.  1.
         12    1    3    3    0    0 -0.10194126805E+02  0.11218853214E+02 -0.49102713380E+01  0.15934040711E+02  0.00000000000E+00 0. -1.
</event>
<event>
 7    1  0.3766050E-009  0.4614232E+02  0.7816164E-02  0.1320468E+00
        -11   -1    0    0    0    0  0.00000000000E+00  0.00000000000E+00  0.45593999997E+02  0.45594000000E+02  0.51100000000E-03 0. -1.
         11   -1    0    0    0    0 -0.00000000000E+00 -0.00000000000E+00 -0.45593999997E+02  0.45594000000E+02  0.51100000000E-03 0.  1.
    9900012    2    1    2    0    0 -0.66995595092E+01 -0.25023973348E+02 -0.36851454004E+02  0.46142323161E+02  0.10000049238E+02 0.  0.
         12    1    1    2    0    0  0.66995595092E+01  0.25023973348E+02  0.36851454004E+02  0.45045676839E+02  0.00000000000E+00 0. -1.
         11    1    3    3    0    0 -0.25655538168E+01 -0.75822658596E+01 -0.67691785273E+01  0.10483062537E+02  0.51100000000E-03 0.  1.
        -11    1    3    3    0    0  0.36285890017E+00 -0.19509851510E+01 -0.63496965280E+00  0.20835537819E+01  0.51100000000E-03 0. -1.
        -12    1    3    3    0    0 -0.44968645926E+01 -0.15490722337E+02 -0.29447305824E+02  0.33575706842E+02  0.00000000000E+00 0.  1.
</event>
<event>
 7    1  0.3766050E-009  0.4614232E+02  0.7816164E-02  0.1320468E+00
        -11   -1    0    0    0    0  0.00000000000E+00  0.00000000000E+00  0.45593999997E+02  0.45594000000E+02  0.51100000000E-03 0.  1.
         11   -1    0    0    0    0 -0.00000000000E+00 -0.00000000000E+00 -0.45593999997E+02  0.45594000000E+02  0.51100000000E-03 0. -1.
    9900012    2    1    2    0    0  0.32009214924E+02 -0.21051220101E+02 -0.23693242622E+02  0.46142318146E+02  0.10000003507E+02 0.  0.
         12    1    1    2    0    0 -0.32009214924E+02  0.21051220101E+02  0.23693242622E+02  0.45045681854E+02  0.00000000000E+00 0. -1.
         11    1    3    3    0    0  0.61419834297E+01 -0.26825552859E+01 -0.29726142841E+00  0.67088320840E+01  0.51100000000E-03 0. -1.
        -11    1    3    3    0    0  0.18010597947E+02 -0.13225542240E+02 -0.16069951591E+02  0.27523443650E+02  0.51100000000E-03 0.  1.
         12    1    3    3    0    0  0.78566335468E+01 -0.51431225751E+01 -0.73260296023E+01  0.11910042412E+02  0.00000000000E+00 0. -1.
</event>
<event>
 7    1  0.3766050E-009  0.4614232E+02  0.7816164E-02  0.1320468E+00
        -11   -1    0    0    0    0  0.00000000000E+00  0.00000000000E+00  0.45593999997E+02  0.45594000000E+02  0.51100000000E-03 0. -1.
         11   -1    0    0    0    0 -0.00000000000E+00 -0.00000000000E+00 -0.45593999997E+02  0.45594000000E+02  0.51100000000E-03 0.  1.
    9900012    2    1    2    0    0 -0.18160866104E+02 -0.24447702936E+01  0.41149963828E+02  0.46142317826E+02  0.10000000596E+02 0.  0.
        -12    1    1    2    0    0  0.18160866104E+02  0.24447702936E+01 -0.41149963828E+02  0.45045682174E+02  0.00000000000E+00 0.  1.
         11    1    3    3    0    0 -0.51442839191E+01 -0.20485595691E+01  0.12512885343E+02  0.13683294677E+02  0.51100000000E-03 0. -1.
        -11    1    3    3    0    0 -0.63350125532E+01  0.22327228031E+01  0.71782181004E+01  0.98307807687E+01  0.51100000000E-03 0.  1.
        -12    1    3    3    0    0 -0.66815696315E+01 -0.26289335275E+01  0.21458860384E+02  0.22628242380E+02  0.00000000000E+00 0.  1.
</event>
<event>
 7    1  0.3766050E-009  0.4614232E+02  0.7816164E-02  0.1320468E+00
        -11   -1    0    0    0    0  0.00000000000E+00  0.00000000000E+00  0.45593999997E+02  0.45594000000E+02  0.51100000000E-03 0. -1.
         11   -1    0    0    0    0 -0.00000000000E+00 -0.00000000000E+00 -0.45593999997E+02  0.45594000000E+02  0.51100000000E-03 0.  1.
    9900012    2    1    2    0    0 -0.37515532573E+01  0.26069767493E+02  0.36543216693E+02  0.46142316353E+02  0.99999871579E+01 0.  0.
        -12    1    1    2    0    0  0.37515532573E+01 -0.26069767493E+02 -0.36543216693E+02  0.45045683647E+02  0.00000000000E+00 0.  1.
         11    1    3    3    0    0 -0.12431725621E+01  0.36826080773E-01  0.19507445743E+01  0.23134906170E+01  0.51100000000E-03 0. -1.
        -11    1    3    3    0    0  0.20508153799E+01  0.58231518689E+01  0.72129185816E+01  0.94942685941E+01  0.51100000000E-03 0.  1.
        -12    1    3    3    0    0 -0.45591960750E+01  0.20209789544E+02  0.27379553537E+02  0.34334557142E+02  0.00000000000E+00 0.  1.
</event>
<event>
 7    1  0.3766050E-009  0.4614232E+02  0.7816164E-02  0.1320468E+00
        -11   -1    0    0    0    0  0.00000000000E+00  0.00000000000E+00  0.45593999997E+02  0.45594000000E+02  0.51100000000E-03 0. -1.
         11   -1    0    0    0    0 -0.00000000000E+00 -0.00000000000E+00 -0.45593999997E+02  0.45594000000E+02  0.51100000000E-03 0.  1.
    9900012    2    1    2    0    0  0.21299211912E+02 -0.36720389531E+02  0.15068841967E+02  0.46142318369E+02  0.10000005542E+02 0.  0.
        -12    1    1    2    0    0 -0.21299211912E+02  0.36720389531E+02 -0.15068841967E+02  0.45045681631E+02  0.00000000000E+00 0.  1.
         11    1    3    3    0    0  0.19071905228E+01 -0.45664601883E+01  0.48859493342E+01  0.69543105696E+01  0.51100000000E-03 0. -1.
        -11    1    3    3    0    0  0.47515871471E+01 -0.74155816358E+01  0.37617257931E+00  0.88153240148E+01  0.51100000000E-03 0.  1.
         12    1    3    3    0    0  0.14640434242E+02 -0.24738347707E+02  0.98067200539E+01  0.30372683784E+02  0.00000000000E+00 0. -1.
</event>
<event>
 7    1  0.3766050E-009  0.4614232E+02  0.7816164E-02  0.1320468E+00
        -11   -1    0    0    0    0  0.00000000000E+00  0.00000000000E+00  0.45593999997E+02  0.45594000000E+02  0.51100000000E-03 0. -1.
         11   -1    0    0    0    0 -0.00000000000E+00 -0.00000000000E+00 -0.45593999997E+02  0.45594000000E+02  0.51100000000E-03 0.  1.
    9900012    2    1    2    0    0 -0.31811839324E+02  0.22139410546E+02 -0.22955759439E+02  0.46142317499E+02  0.99999976134E+01 0.  0.
         12    1    1    2    0    0  0.31811839324E+02 -0.22139410546E+02  0.22955759439E+02  0.45045682501E+02  0.00000000000E+00 0. -1.
         11    1    3    3    0    0 -0.76629884219E+01  0.90539982737E+01 -0.51056382104E+01  0.12913706598E+02  0.51100000000E-03 0. -1.
        -11    1    3    3    0    0 -0.15908022365E+02  0.11430326088E+02 -0.13220313099E+02  0.23632482068E+02  0.51100000000E-03 0.  1.
         12    1    3    3    0    0 -0.82408285372E+01  0.16550861847E+01 -0.46298081305E+01  0.95961288332E+01  0.00000000000E+00 0. -1.
</event>
<event>
 7    1  0.3766050E-009  0.4614231E+02  0.7816164E-02  0.1320468E+00
        -11   -1    0    0    0    0  0.00000000000E+00  0.00000000000E+00  0.45593999997E+02  0.45594000000E+02  0.51100000000E-03 0. -1.
         11   -1    0    0    0    0 -0.00000000000E+00 -0.00000000000E+00 -0.45593999997E+02  0.45594000000E+02  0.51100000000E-03 0.  1.
    9900012    2    1    2    0    0 -0.27602418343E+02 -0.14915897117E+01  0.35566776323E+02  0.46142313012E+02  0.99999566902E+01 0.  0.
        -12    1    1    2    0    0  0.27602418343E+02  0.14915897117E+01 -0.35566776323E+02  0.45045686988E+02  0.00000000000E+00 0.  1.
         11    1    3    3    0    0 -0.92647997235E+01  0.13192401758E+00  0.12239259128E+02  0.15351005900E+02  0.51100000000E-03 0. -1.
        -11    1    3    3    0    0 -0.29126045920E+01  0.12880680176E+01  0.71442531556E+00  0.32638609835E+01  0.51100000000E-03 0.  1.
        -12    1    3    3    0    0 -0.15425014028E+02 -0.29115817469E+01  0.22613091879E+02  0.27527446128E+02  0.00000000000E+00 0.  1.
</event>
<event>
 7    1  0.3766050E-009  0.4614232E+02  0.7816164E-02  0.1320468E+00
        -11   -1    0    0    0    0  0.00000000000E+00  0.00000000000E+00  0.45593999997E+02  0.45594000000E+02  0.51100000000E-03 0.  1.
         11   -1    0    0    0    0 -0.00000000000E+00 -0.00000000000E+00 -0.45593999997E+02  0.45594000000E+02  0.51100000000E-03 0. -1.
    9900012    2    1    2    0    0  0.28114544601E+02 -0.35053717552E+02 -0.31500342392E+01  0.46142318209E+02  0.10000004082E+02 0.  0.
        -12    1    1    2    0    0 -0.28114544601E+02  0.35053717552E+02  0.31500342392E+01  0.45045681791E+02  0.00000000000E+00 0.  1.
         11    1    3    3    0    0  0.19164349971E+02 -0.24694077242E+02 -0.59816678430E+01  0.31825306143E+02  0.51100000000E-03 0. -1.
        -11    1    3    3    0    0  0.10591934602E+01 -0.95895915557E-01  0.44243301055E+00  0.11518828250E+01  0.51100000000E-03 0.  1.
         12    1    3    3    0    0  0.78910011691E+01 -0.10263744394E+02  0.23892005932E+01  0.13165129240E+02  0.00000000000E+00 0. -1.
</event>
<event>
 7    1  0.3766050E-009  0.4614232E+02  0.7816164E-02  0.1320468E+00
        -11   -1    0    0    0    0  0.00000000000E+00  0.00000000000E+00  0.45593999997E+02  0.45594000000E+02  0.51100000000E-03 0.  1.
         11   -1    0    0    0    0 -0.00000000000E+00 -0.00000000000E+00 -0.45593999997E+02  0.45594000000E+02  0.51100000000E-03 0. -1.
    9900012    2    1    2    0    0  0.11969395024E+02  0.34910960680E+02 -0.25827734022E+02  0.46142318325E+02  0.10000005142E+02 0.  0.
         12    1    1    2    0    0 -0.11969395024E+02 -0.34910960680E+02  0.25827734022E+02  0.45045681675E+02  0.00000000000E+00 0. -1.
         11    1    3    3    0    0  0.23791531709E+00  0.27836379588E+01 -0.48707619296E+01  0.56151194128E+01  0.51100000000E-03 0. -1.
        -11    1    3    3    0    0  0.11011842426E+02  0.26308947550E+02 -0.15233314758E+02  0.32333810069E+02  0.51100000000E-03 0.  1.
         12    1    3    3    0    0  0.71963728114E+00  0.58183751709E+01 -0.57236573349E+01  0.81933888430E+01  0.00000000000E+00 0. -1.
</event>
<event>
 7    1  0.3766050E-009  0.4614232E+02  0.7816164E-02  0.1320468E+00
        -11   -1    0    0    0    0  0.00000000000E+00  0.00000000000E+00  0.45593999997E+02  0.45594000000E+02  0.51100000000E-03 0. -1.
         11   -1    0    0    0    0 -0.00000000000E+00 -0.00000000000E+00 -0.45593999997E+02  0.45594000000E+02  0.51100000000E-03 0.  1.
    9900012    2    1    2    0    0  0.25973050406E+02  0.19962772013E+02 -0.30919278901E+02  0.46142318502E+02  0.10000006758E+02 0.  0.
         12    1    1    2    0    0 -0.25973050406E+02 -0.19962772013E+02  0.30919278901E+02  0.45045681498E+02  0.00000000000E+00 0. -1.
         11    1    3    3    0    0  0.26863714076E+01  0.74322038770E+00 -0.42439600156E+01  0.50774171347E+01  0.51100000000E-03 0. -1.
        -11    1    3    3    0    0  0.23152286718E+02  0.19849694910E+02 -0.26488492761E+02  0.40394046805E+02  0.51100000000E-03 0.  1.
        -12    1    3    3    0    0  0.13439228059E+00 -0.63014328400E+00 -0.18682612411E+00  0.67085456256E+00  0.00000000000E+00 0.  1.
</event>
<event>
 7    1  0.3766050E-009  0.4614232E+02  0.7816164E-02  0.1320468E+00
        -11   -1    0    0    0    0  0.00000000000E+00  0.00000000000E+00  0.45593999997E+02  0.45594000000E+02  0.51100000000E-03 0. -1.
         11   -1    0    0    0    0 -0.00000000000E+00 -0.00000000000E+00 -0.45593999997E+02  0.45594000000E+02  0.51100000000E-03 0.  1.
    9900012    2    1    2    0    0 -0.43296439856E+02  0.18214629552E+01 -0.12296909843E+02  0.46142318485E+02  0.10000006599E+02 0.  0.
         12    1    1    2    0    0  0.43296439856E+02 -0.18214629552E+01  0.12296909843E+02  0.45045681515E+02  0.00000000000E+00 0. -1.
         11    1    3    3    0    0 -0.12609930579E+02  0.20703009863E+00 -0.48150603893E+01  0.13499556196E+02  0.51100000000E-03 0. -1.
        -11    1    3    3    0    0 -0.22753415540E+02 -0.24044589211E+01 -0.52938336288E+01  0.23484548456E+02  0.51100000000E-03 0.  1.
        -12    1    3    3    0    0 -0.79330937366E+01  0.40188917776E+01 -0.21880158244E+01  0.91582138325E+01  0.00000000000E+00 0.  1.
</event>
<event>
 7    1  0.3766050E-009  0.4614232E+02  0.7816164E-02  0.1320468E+00
        -11   -1    0    0    0    0  0.00000000000E+00  0.00000000000E+00  0.45593999997E+02  0.45594000000E+02  0.51100000000E-03 0.  1.
         11   -1    0    0    0    0 -0.00000000000E+00 -0.00000000000E+00 -0.45593999997E+02  0.45594000000E+02  0.51100000000E-03 0. -1.
    9900012    2    1    2    0    0 -0.36586964698E+02  0.10028619372E+02  0.24288562644E+02  0.46142317991E+02  0.10000002100E+02 0.  0.
        -12    1    1    2    0    0  0.36586964698E+02 -0.10028619372E+02 -0.24288562644E+02  0.45045682009E+02  0.00000000000E+00 0.  1.
         11    1    3    3    0    0 -0.85272228785E+01  0.63823744329E+01  0.62823668407E+01  0.12365935743E+02  0.51100000000E-03 0. -1.
        -11    1    3    3    0    0 -0.14594790954E+02 -0.11750426425E+00  0.91285918435E+01  0.17214903995E+02  0.51100000000E-03 0.  1.
         12    1    3    3    0    0 -0.13464950865E+02  0.37637492037E+01  0.88776039601E+01  0.16561478254E+02  0.00000000000E+00 0. -1.
</event>
<event>
 7    1  0.3766050E-009  0.4614232E+02  0.7816164E-02  0.1320468E+00
        -11   -1    0    0    0    0  0.00000000000E+00  0.00000000000E+00  0.45593999997E+02  0.45594000000E+02  0.51100000000E-03 0. -1.
         11   -1    0    0    0    0 -0.00000000000E+00 -0.00000000000E+00 -0.45593999997E+02  0.45594000000E+02  0.51100000000E-03 0.  1.
    9900012    2    1    2    0    0  0.16745490888E+02  0.13403631175E+02 -0.39611167947E+02  0.46142318521E+02  0.10000006928E+02 0.  0.
         12    1    1    2    0    0 -0.16745490888E+02 -0.13403631175E+02  0.39611167947E+02  0.45045681479E+02  0.00000000000E+00 0. -1.
         11    1    3    3    0    0  0.13824469485E+01 -0.53180375972E+00 -0.56228045887E+01  0.58146286646E+01  0.51100000000E-03 0. -1.
        -11    1    3    3    0    0  0.24230438697E+01  0.25851030915E+01 -0.21780528216E+01  0.41590640705E+01  0.51100000000E-03 0.  1.
        -12    1    3    3    0    0  0.12940000070E+02  0.11350331844E+02 -0.31810310537E+02  0.36168625786E+02  0.00000000000E+00 0.  1.
</event>
<event>
 7    1  0.3766050E-009  0.4614232E+02  0.7816164E-02  0.1320468E+00
        -11   -1    0    0    0    0  0.00000000000E+00  0.00000000000E+00  0.45593999997E+02  0.45594000000E+02  0.51100000000E-03 0. -1.
         11   -1    0    0    0    0 -0.00000000000E+00 -0.00000000000E+00 -0.45593999997E+02  0.45594000000E+02  0.51100000000E-03 0.  1.
    9900012    2    1    2    0    0 -0.22114317618E+02  0.17192427803E+02  0.35277342050E+02  0.46142317859E+02  0.10000000889E+02 0.  0.
        -12    1    1    2    0    0  0.22114317618E+02 -0.17192427803E+02 -0.35277342050E+02  0.45045682141E+02  0.00000000000E+00 0.  1.
         11    1    3    3    0    0 -0.81015828632E+01  0.55714840830E+01  0.14880292455E+02  0.17835363287E+02  0.51100000000E-03 0. -1.
        -11    1    3    3    0    0 -0.31073647080E+01  0.60978409096E+01  0.42559294948E+01  0.80592999270E+01  0.51100000000E-03 0.  1.
        -12    1    3    3    0    0 -0.10905370046E+02  0.55231028099E+01  0.16141120101E+02  0.20247654645E+02  0.00000000000E+00 0.  1.
</event>
<event>
 7    1  0.3766050E-009  0.4614232E+02  0.7816164E-02  0.1320468E+00
        -11   -1    0    0    0    0  0.00000000000E+00  0.00000000000E+00  0.45593999997E+02  0.45594000000E+02  0.51100000000E-03 0. -1.
         11   -1    0    0    0    0 -0.00000000000E+00 -0.00000000000E+00 -0.45593999997E+02  0.45594000000E+02  0.51100000000E-03 0.  1.
    9900012    2    1    2    0    0 -0.31469477556E+02 -0.98181790074E+01 -0.30698353263E+02  0.46142317080E+02  0.99999937903E+01 0.  0.
         12    1    1    2    0    0  0.31469477556E+02  0.98181790074E+01  0.30698353263E+02  0.45045682920E+02  0.00000000000E+00 0. -1.
         11    1    3    3    0    0 -0.51293697101E+01 -0.45203179807E+01 -0.98209335362E+01  0.11966388096E+02  0.51100000000E-03 0. -1.
        -11    1    3    3    0    0 -0.81935087119E+01 -0.31435038160E+01 -0.63866512993E+01  0.10853778896E+02  0.51100000000E-03 0.  1.
         12    1    3    3    0    0 -0.18146599134E+02 -0.21543572107E+01 -0.14490768428E+02  0.23322150088E+02  0.00000000000E+00 0. -1.
</event>
<event>
 7    1  0.3766050E-009  0.4614233E+02  0.7816164E-02  0.1320468E+00
        -11   -1    0    0    0    0  0.00000000000E+00  0.00000000000E+00  0.45593999997E+02  0.45594000000E+02  0.51100000000E-03 0. -1.
         11   -1    0    0    0    0 -0.00000000000E+00 -0.00000000000E+00 -0.45593999997E+02  0.45594000000E+02  0.51100000000E-03 0.  1.
    9900012    2    1    2    0    0  0.22201610061E+02 -0.20585768510E+02 -0.33353066335E+02  0.46142329971E+02  0.10000111337E+02 0.  0.
         12    1    1    2    0    0 -0.22201610061E+02  0.20585768510E+02  0.33353066335E+02  0.45045670029E+02  0.00000000000E+00 0. -1.
         11    1    3    3    0    0 -0.67173491348E+00 -0.14785216125E+01 -0.16108179856E+01  0.22873541039E+01  0.51100000000E-03 0. -1.
        -11    1    3    3    0    0  0.22432398660E+02 -0.18507647013E+02 -0.29221759539E+02  0.41226893388E+02  0.51100000000E-03 0.  1.
        -12    1    3    3    0    0  0.44094631416E+00 -0.59959988437E+00 -0.25204888105E+01  0.26280824791E+01  0.00000000000E+00 0.  1.
</event>
<event>
 7    1  0.3766050E-009  0.4614232E+02  0.7816164E-02  0.1320468E+00
        -11   -1    0    0    0    0  0.00000000000E+00  0.00000000000E+00  0.45593999997E+02  0.45594000000E+02  0.51100000000E-03 0. -1.
         11   -1    0    0    0    0 -0.00000000000E+00 -0.00000000000E+00 -0.45593999997E+02  0.45594000000E+02  0.51100000000E-03 0.  1.
    9900012    2    1    2    0    0  0.11432734616E+00  0.85870555271E+01  0.44219485286E+02  0.46142317939E+02  0.10000001625E+02 0.  0.
        -12    1    1    2    0    0 -0.11432734616E+00 -0.85870555271E+01 -0.44219485286E+02  0.45045682061E+02  0.00000000000E+00 0.  1.
         11    1    3    3    0    0 -0.38838353832E+01  0.16092807494E+01  0.21944162061E+02  0.22343236351E+02  0.51100000000E-03 0. -1.
        -11    1    3    3    0    0  0.69861503050E+00  0.73019151534E+00  0.11884001037E+01  0.15599800247E+01  0.51100000000E-03 0.  1.
         12    1    3    3    0    0  0.32995476989E+01  0.62475832624E+01  0.21086923121E+02  0.22239101563E+02  0.00000000000E+00 0. -1.
</event>
<event>
 7    1  0.3766050E-009  0.4614232E+02  0.7816164E-02  0.1320468E+00
        -11   -1    0    0    0    0  0.00000000000E+00  0.00000000000E+00  0.45593999997E+02  0.45594000000E+02  0.51100000000E-03 0. -1.
         11   -1    0    0    0    0 -0.00000000000E+00 -0.00000000000E+00 -0.45593999997E+02  0.45594000000E+02  0.51100000000E-03 0.  1.
    9900012    2    1    2    0    0 -0.24327580924E+02 -0.17922353807E+02 -0.33407656048E+02  0.46142318274E+02  0.10000004675E+02 0.  0.
         12    1    1    2    0    0  0.24327580924E+02  0.17922353807E+02  0.33407656048E+02  0.45045681726E+02  0.00000000000E+00 0. -1.
         11    1    3    3    0    0 -0.84352032151E+01 -0.22910946665E+01 -0.51547363544E+01  0.10147564988E+02  0.51100000000E-03 0. -1.
        -11    1    3    3    0    0 -0.28478352863E+01 -0.31876023786E+01 -0.54263249453E+01  0.69076752541E+01  0.51100000000E-03 0.  1.
         12    1    3    3    0    0 -0.13044542423E+02 -0.12443656761E+02 -0.22826594748E+02  0.29087078031E+02  0.00000000000E+00 0. -1.
</event>
<event>
 7    1  0.3766050E-009  0.4614232E+02  0.7816164E-02  0.1320468E+00
        -11   -1    0    0    0    0  0.00000000000E+00  0.00000000000E+00  0.45593999997E+02  0.45594000000E+02  0.51100000000E-03 0. -1.
         11   -1    0    0    0    0 -0.00000000000E+00 -0.00000000000E+00 -0.45593999997E+02  0.45594000000E+02  0.51100000000E-03 0.  1.
    9900012    2    1    2    0    0  0.68943987308E+01  0.24447084535E+02 -0.37201085844E+02  0.46142318031E+02  0.10000002457E+02 0.  0.
         12    1    1    2    0    0 -0.68943987308E+01 -0.24447084535E+02  0.37201085844E+02  0.45045681969E+02  0.00000000000E+00 0. -1.
         11    1    3    3    0    0  0.22304764122E+01  0.21675167902E+01 -0.90382749583E+01  0.95584291881E+01  0.51100000000E-03 0. -1.
        -11    1    3    3    0    0  0.56327931457E+01  0.18494460902E+02 -0.22009287594E+02  0.29294746685E+02  0.51100000000E-03 0.  1.
         12    1    3    3    0    0 -0.96887082711E+00  0.37851068430E+01 -0.61535232913E+01  0.72891421573E+01  0.00000000000E+00 0. -1.
</event>
<event>
 7    1  0.3766050E-009  0.4614232E+02  0.7816164E-02  0.1320468E+00
        -11   -1    0    0    0    0  0.00000000000E+00  0.00000000000E+00  0.45593999997E+02  0.45594000000E+02  0.51100000000E-03 0. -1.
         11   -1    0    0    0    0 -0.00000000000E+00 -0.00000000000E+00 -0.45593999997E+02  0.45594000000E+02  0.51100000000E-03 0.  1.
    9900012    2    1    2    0    0 -0.25281739799E+02  0.29108329071E+01  0.37168187596E+02  0.46142317802E+02  0.10000000373E+02 0.  0.
        -12    1    1    2    0    0  0.25281739799E+02 -0.29108329071E+01 -0.37168187596E+02  0.45045682198E+02  0.00000000000E+00 0.  1.
         11    1    3    3    0    0 -0.11189998097E+02  0.93026909091E+00  0.17452912878E+02  0.20752966684E+02  0.51100000000E-03 0. -1.
        -11    1    3    3    0    0  0.75637500528E-01 -0.12837721409E+01  0.28232063730E+01  0.31023034066E+01  0.51100000000E-03 0.  1.
        -12    1    3    3    0    0 -0.14167379203E+02  0.32643359571E+01  0.16892068345E+02  0.22287047711E+02  0.00000000000E+00 0.  1.
</event>
<event>
 7    1  0.3766050E-009  0.4614232E+02  0.7816164E-02  0.1320468E+00
        -11   -1    0    0    0    0  0.00000000000E+00  0.00000000000E+00  0.45593999997E+02  0.45594000000E+02  0.51100000000E-03 0. -1.
         11   -1    0    0    0    0 -0.00000000000E+00 -0.00000000000E+00 -0.45593999997E+02  0.45594000000E+02  0.51100000000E-03 0.  1.
    9900012    2    1    2    0    0 -0.40549233387E+02  0.13084577473E+02  0.14617353795E+02  0.46142317322E+02  0.99999960000E+01 0.  0.
        -12    1    1    2    0    0  0.40549233387E+02 -0.13084577473E+02 -0.14617353795E+02  0.45045682678E+02  0.00000000000E+00 0.  1.
         11    1    3    3    0    0 -0.16839392864E+02  0.27819781974E+01  0.62077880161E+01  0.18161530416E+02  0.51100000000E-03 0. -1.
        -11    1    3    3    0    0 -0.70151109898E+01  0.56366080587E+01  0.50650908726E+01  0.10326581158E+02  0.51100000000E-03 0.  1.
        -12    1    3    3    0    0 -0.16694729533E+02  0.46659912173E+01  0.33444749058E+01  0.17654205748E+02  0.00000000000E+00 0.  1.
</event>
<event>
 7    1  0.3766050E-009  0.4614232E+02  0.7816164E-02  0.1320468E+00
        -11   -1    0    0    0    0  0.00000000000E+00  0.00000000000E+00  0.45593999997E+02  0.45594000000E+02  0.51100000000E-03 0. -1.
         11   -1    0    0    0    0 -0.00000000000E+00 -0.00000000000E+00 -0.45593999997E+02  0.45594000000E+02  0.51100000000E-03 0.  1.
    9900012    2    1    2    0    0 -0.43335523341E+02  0.10204713567E+02  0.68563642584E+01  0.46142317709E+02  0.99999995240E+01 0.  0.
         12    1    1    2    0    0  0.43335523341E+02 -0.10204713567E+02 -0.68563642584E+01  0.45045682291E+02  0.00000000000E+00 0. -1.
         11    1    3    3    0    0 -0.95407298268E+01  0.30020757403E+01 -0.12323295369E+01  0.10077530488E+02  0.51100000000E-03 0. -1.
        -11    1    3    3    0    0 -0.22707761858E+02  0.68699503516E+01  0.31846083401E+01  0.23937008939E+02  0.51100000000E-03 0.  1.
        -12    1    3    3    0    0 -0.11087031656E+02  0.33268747544E+00  0.49040854551E+01  0.12127778282E+02  0.00000000000E+00 0.  1.
</event>
<event>
 7    1  0.3766050E-009  0.4614232E+02  0.7816164E-02  0.1320468E+00
        -11   -1    0    0    0    0  0.00000000000E+00  0.00000000000E+00  0.45593999997E+02  0.45594000000E+02  0.51100000000E-03 0. -1.
         11   -1    0    0    0    0 -0.00000000000E+00 -0.00000000000E+00 -0.45593999997E+02  0.45594000000E+02  0.51100000000E-03 0.  1.
    9900012    2    1    2    0    0  0.35249392332E+02  0.19766256303E+02  0.19896959196E+02  0.46142317263E+02  0.99999954581E+01 0.  0.
        -12    1    1    2    0    0 -0.35249392332E+02 -0.19766256303E+02 -0.19896959196E+02  0.45045682737E+02  0.00000000000E+00 0.  1.
         11    1    3    3    0    0  0.23185105520E+02  0.12561276328E+02  0.17923874300E+02  0.31884166151E+02  0.51100000000E-03 0. -1.
        -11    1    3    3    0    0  0.83848589009E+01  0.56278998189E+01  0.10754403449E+01  0.10155574201E+02  0.51100000000E-03 0.  1.
         12    1    3    3    0    0  0.36794279110E+01  0.15770801557E+01  0.89764455159E+00  0.41025769110E+01  0.00000000000E+00 0. -1.
</event>
<event>
 7    1  0.3766050E-009  0.4614232E+02  0.7816164E-02  0.1320468E+00
        -11   -1    0    0    0    0  0.00000000000E+00  0.00000000000E+00  0.45593999997E+02  0.45594000000E+02  0.51100000000E-03 0. -1.
         11   -1    0    0    0    0 -0.00000000000E+00 -0.00000000000E+00 -0.45593999997E+02  0.45594000000E+02  0.51100000000E-03 0.  1.
    9900012    2    1    2    0    0 -0.30468112514E+02 -0.28447164282E+02  0.17075306527E+02  0.46142321752E+02  0.10000036394E+02 0.  0.
        -12    1    1    2    0    0  0.30468112514E+02  0.28447164282E+02 -0.17075306527E+02  0.45045678248E+02  0.00000000000E+00 0.  1.
         11    1    3    3    0    0 -0.21600161382E+02 -0.23238966199E+02  0.12424611610E+02  0.34073266583E+02  0.51100000000E-03 0. -1.
        -11    1    3    3    0    0 -0.50649770367E+01 -0.20167013875E+01  0.28707658379E+00  0.54592572842E+01  0.51100000000E-03 0.  1.
         12    1    3    3    0    0 -0.38029740952E+01 -0.31914966953E+01  0.43636183329E+01  0.66097978849E+01  0.00000000000E+00 0. -1.
</event>
<event>
 7    1  0.3766050E-009  0.4614232E+02  0.7816164E-02  0.1320468E+00
        -11   -1    0    0    0    0  0.00000000000E+00  0.00000000000E+00  0.45593999997E+02  0.45594000000E+02  0.51100000000E-03 0. -1.
         11   -1    0    0    0    0 -0.00000000000E+00 -0.00000000000E+00 -0.45593999997E+02  0.45594000000E+02  0.51100000000E-03 0.  1.
    9900012    2    1    2    0    0 -0.65460191291E+01  0.10165589211E+02 -0.43392669740E+02  0.46142319212E+02  0.10000013231E+02 0.  0.
         12    1    1    2    0    0  0.65460191291E+01 -0.10165589211E+02  0.43392669740E+02  0.45045680788E+02  0.00000000000E+00 0. -1.
         11    1    3    3    0    0 -0.94745293566E+00  0.33886247573E+01 -0.39986263514E+01  0.53262986934E+01  0.51100000000E-03 0. -1.
        -11    1    3    3    0    0 -0.58412473233E+01  0.51530082107E+01 -0.21879721596E+02  0.23224897875E+02  0.51100000000E-03 0.  1.
        -12    1    3    3    0    0  0.24268112991E+00  0.16239562432E+01 -0.17514321793E+02  0.17591122644E+02  0.00000000000E+00 0.  1.
</event>
<event>
 7    1  0.3766050E-009  0.4614232E+02  0.7816164E-02  0.1320468E+00
        -11   -1    0    0    0    0  0.00000000000E+00  0.00000000000E+00  0.45593999997E+02  0.45594000000E+02  0.51100000000E-03 0. -1.
         11   -1    0    0    0    0 -0.00000000000E+00 -0.00000000000E+00 -0.45593999997E+02  0.45594000000E+02  0.51100000000E-03 0.  1.
    9900012    2    1    2    0    0  0.42186900164E+01 -0.23884791355E+01 -0.44784050740E+02  0.46142318978E+02  0.10000011101E+02 0.  0.
         12    1    1    2    0    0 -0.42186900164E+01  0.23884791355E+01  0.44784050740E+02  0.45045681022E+02  0.00000000000E+00 0. -1.
         11    1    3    3    0    0 -0.18535779658E+01 -0.35784767067E+01 -0.19162243661E+02  0.19581440938E+02  0.51100000000E-03 0. -1.
        -11    1    3    3    0    0  0.12370183041E+01  0.12270981119E+01 -0.11568112895E+02  0.11698599073E+02  0.51100000000E-03 0.  1.
        -12    1    3    3    0    0  0.48352496782E+01 -0.37100540709E-01 -0.14053694184E+02  0.14862278968E+02  0.00000000000E+00 0.  1.
</event>
<event>
 7    1  0.3766050E-009  0.4614232E+02  0.7816164E-02  0.1320468E+00
        -11   -1    0    0    0    0  0.00000000000E+00  0.00000000000E+00  0.45593999997E+02  0.45594000000E+02  0.51100000000E-03 0. -1.
         11   -1    0    0    0    0 -0.00000000000E+00 -0.00000000000E+00 -0.45593999997E+02  0.45594000000E+02  0.51100000000E-03 0.  1.
    9900012    2    1    2    0    0  0.15128340835E+02 -0.36657928861E+02  0.21364531437E+02  0.46142315986E+02  0.99999838123E+01 0.  0.
        -12    1    1    2    0    0 -0.15128340835E+02  0.36657928861E+02 -0.21364531437E+02  0.45045684014E+02  0.00000000000E+00 0.  1.
         11    1    3    3    0    0  0.57266025744E+01 -0.64282623621E+01  0.45394997624E+01  0.97326046049E+01  0.51100000000E-03 0. -1.
        -11    1    3    3    0    0  0.70413098313E+00  0.11646939493E+00  0.49078341189E+00  0.86616059704E+00  0.51100000000E-03 0.  1.
         12    1    3    3    0    0  0.86976072770E+01 -0.30346135894E+02  0.16334248263E+02  0.35543550784E+02  0.00000000000E+00 0. -1.
</event>
<event>
 7    1  0.3890696E-009  0.4614231E+02  0.7816164E-02  0.1320468E+00
        -11   -1    0    0    0    0  0.00000000000E+00  0.00000000000E+00  0.45593999997E+02  0.45594000000E+02  0.51100000000E-03 0. -1.
         11   -1    0    0    0    0 -0.00000000000E+00 -0.00000000000E+00 -0.45593999997E+02  0.45594000000E+02  0.51100000000E-03 0.  1.
    9900012    2    1    2    0    0 -0.94958352725E+01  0.32382175048E+02  0.29838531791E+02  0.46142310664E+02  0.99999352802E+01 0.  0.
        -12    1    1    2    0    0  0.94958352725E+01 -0.32382175048E+02 -0.29838531791E+02  0.45045689336E+02  0.00000000000E+00 0.  1.
         11    1    3    3    0    0 -0.91618546272E+01  0.32547622572E+02  0.29676769543E+02  0.44988864912E+02  0.51100000000E-03 0. -1.
        -11    1    3    3    0    0 -0.25010785350E+00 -0.59769747411E+00  0.26693021064E+00  0.70074831959E+00  0.51100000000E-03 0.  1.
         12    1    3    3    0    0 -0.83872791742E-01  0.43224995040E+00 -0.10516796303E+00  0.45269743236E+00  0.00000000000E+00 0. -1.
</event>
<event>
 7    1  0.3766050E-009  0.4614232E+02  0.7816164E-02  0.1320468E+00
        -11   -1    0    0    0    0  0.00000000000E+00  0.00000000000E+00  0.45593999997E+02  0.45594000000E+02  0.51100000000E-03 0. -1.
         11   -1    0    0    0    0 -0.00000000000E+00 -0.00000000000E+00 -0.45593999997E+02  0.45594000000E+02  0.51100000000E-03 0.  1.
    9900012    2    1    2    0    0 -0.12283851398E+01 -0.47082346639E+01 -0.44782107979E+02  0.46142316536E+02  0.99999888286E+01 0.  0.
         12    1    1    2    0    0  0.12283851398E+01  0.47082346639E+01  0.44782107979E+02  0.45045683464E+02  0.00000000000E+00 0. -1.
         11    1    3    3    0    0  0.15708836081E+01 -0.13018332807E+01 -0.64487189715E+01  0.67637579669E+01  0.51100000000E-03 0. -1.
        -11    1    3    3    0    0 -0.36660407784E+00 -0.40994635593E+01 -0.85617808043E+01  0.94996889858E+01  0.51100000000E-03 0.  1.
        -12    1    3    3    0    0 -0.24326646701E+01  0.69306217616E+00 -0.29771608203E+02  0.29878869583E+02  0.00000000000E+00 0.  1.
</event>
<event>
 7    1  0.3766050E-009  0.4614232E+02  0.7816164E-02  0.1320468E+00
        -11   -1    0    0    0    0  0.00000000000E+00  0.00000000000E+00  0.45593999997E+02  0.45594000000E+02  0.51100000000E-03 0. -1.
         11   -1    0    0    0    0 -0.00000000000E+00 -0.00000000000E+00 -0.45593999997E+02  0.45594000000E+02  0.51100000000E-03 0.  1.
    9900012    2    1    2    0    0 -0.15095731398E+02  0.27940779763E+02 -0.31945975918E+02  0.46142315884E+02  0.99999828802E+01 0.  0.
         12    1    1    2    0    0  0.15095731398E+02 -0.27940779763E+02  0.31945975918E+02  0.45045684116E+02  0.00000000000E+00 0. -1.
         11    1    3    3    0    0 -0.81154493347E+00  0.12142447993E+00 -0.15913155259E+01  0.17904285653E+01  0.51100000000E-03 0. -1.
        -11    1    3    3    0    0 -0.21687234181E+01  0.15562785804E+01 -0.59018680041E+01  0.64774540124E+01  0.51100000000E-03 0.  1.
        -12    1    3    3    0    0 -0.12115463046E+02  0.26263076702E+02 -0.24452792388E+02  0.37874433306E+02  0.00000000000E+00 0.  1.
</event>
<event>
 7    1  0.3766050E-009  0.4614232E+02  0.7816164E-02  0.1320468E+00
        -11   -1    0    0    0    0  0.00000000000E+00  0.00000000000E+00  0.45593999997E+02  0.45594000000E+02  0.51100000000E-03 0. -1.
         11   -1    0    0    0    0 -0.00000000000E+00 -0.00000000000E+00 -0.45593999997E+02  0.45594000000E+02  0.51100000000E-03 0.  1.
    9900012    2    1    2    0    0  0.13576855000E+02 -0.68649229083E+01  0.42398765558E+02  0.46142317864E+02  0.10000000941E+02 0.  0.
        -12    1    1    2    0    0 -0.13576855000E+02  0.68649229083E+01 -0.42398765558E+02  0.45045682136E+02  0.00000000000E+00 0.  1.
         11    1    3    3    0    0  0.74428488495E+01 -0.38073640845E+01  0.21427020611E+02  0.23000200712E+02  0.51100000000E-03 0. -1.
        -11    1    3    3    0    0  0.64218355719E+01 -0.21854323505E+01  0.21145928494E+02  0.22207349657E+02  0.51100000000E-03 0.  1.
        -12    1    3    3    0    0 -0.28782942191E+00 -0.87212647333E+00 -0.17418354672E+00  0.93476749491E+00  0.00000000000E+00 0.  1.
</event>
<event>
 7    1  0.3766050E-009  0.4614232E+02  0.7816164E-02  0.1320468E+00
        -11   -1    0    0    0    0  0.00000000000E+00  0.00000000000E+00  0.45593999997E+02  0.45594000000E+02  0.51100000000E-03 0. -1.
         11   -1    0    0    0    0 -0.00000000000E+00 -0.00000000000E+00 -0.45593999997E+02  0.45594000000E+02  0.51100000000E-03 0.  1.
    9900012    2    1    2    0    0 -0.24659917917E+02  0.94180288784E+01  0.36500715361E+02  0.46142322721E+02  0.10000045229E+02 0.  0.
        -12    1    1    2    0    0  0.24659917917E+02 -0.94180288784E+01 -0.36500715361E+02  0.45045677279E+02  0.00000000000E+00 0.  1.
         11    1    3    3    0    0 -0.20889120650E+02  0.88824569604E+01  0.33103932932E+02  0.40138806397E+02  0.51100000000E-03 0. -1.
        -11    1    3    3    0    0 -0.29910826693E+01  0.36143399086E+00  0.57036314868E+00  0.30663536076E+01  0.51100000000E-03 0.  1.
         12    1    3    3    0    0 -0.77971459831E+00  0.17413792710E+00  0.28264192803E+01  0.29371627161E+01  0.00000000000E+00 0. -1.
</event>
<event>
 7    1  0.4091246E-009  0.4614232E+02  0.7816164E-02  0.1320468E+00
        -11   -1    0    0    0    0  0.00000000000E+00  0.00000000000E+00  0.45593999997E+02  0.45594000000E+02  0.51100000000E-03 0. -1.
         11   -1    0    0    0    0 -0.00000000000E+00 -0.00000000000E+00 -0.45593999997E+02  0.45594000000E+02  0.51100000000E-03 0.  1.
    9900012    2    1    2    0    0 -0.63215108043E+01 -0.34339341837E+02 -0.28459824943E+02  0.46142317272E+02  0.99999955368E+01 0.  0.
         12    1    1    2    0    0  0.63215108043E+01  0.34339341837E+02  0.28459824943E+02  0.45045682728E+02  0.00000000000E+00 0. -1.
         11    1    3    3    0    0  0.20732089117E+01 -0.83001248962E+01 -0.93712151855E+01  0.12688969335E+02  0.51100000000E-03 0. -1.
        -11    1    3    3    0    0 -0.70666897243E+01 -0.21078538810E+02 -0.16608811878E+02  0.27750595206E+02  0.51100000000E-03 0.  1.
         12    1    3    3    0    0 -0.13280299918E+01 -0.49606781310E+01 -0.24797978804E+01  0.57027527306E+01  0.00000000000E+00 0. -1.
</event>
<event>
 7    1  0.3766050E-009  0.4614232E+02  0.7816164E-02  0.1320468E+00
        -11   -1    0    0    0    0  0.00000000000E+00  0.00000000000E+00  0.45593999997E+02  0.45594000000E+02  0.51100000000E-03 0. -1.
         11   -1    0    0    0    0 -0.00000000000E+00 -0.00000000000E+00 -0.45593999997E+02  0.45594000000E+02  0.51100000000E-03 0.  1.
    9900012    2    1    2    0    0 -0.40594064018E+02 -0.17855530982E+02 -0.79003410122E+01  0.46142318650E+02  0.10000008107E+02 0.  0.
         12    1    1    2    0    0  0.40594064018E+02  0.17855530982E+02  0.79003410122E+01  0.45045681350E+02  0.00000000000E+00 0. -1.
         11    1    3    3    0    0 -0.40399314330E+01  0.41779813594E+00 -0.21973255627E+01  0.46177744808E+01  0.51100000000E-03 0. -1.
        -11    1    3    3    0    0 -0.80918618791E+01 -0.56815171788E+01 -0.27440952889E+01  0.10260990466E+02  0.51100000000E-03 0.  1.
         12    1    3    3    0    0 -0.28462270706E+02 -0.12591811939E+02 -0.29589201605E+01  0.31263553704E+02  0.00000000000E+00 0. -1.
</event>
<event>
 7    1  0.3835634E-009  0.4614232E+02  0.7816164E-02  0.1320468E+00
        -11   -1    0    0    0    0  0.00000000000E+00  0.00000000000E+00  0.45593999997E+02  0.45594000000E+02  0.51100000000E-03 0. -1.
         11   -1    0    0    0    0 -0.00000000000E+00 -0.00000000000E+00 -0.45593999997E+02  0.45594000000E+02  0.51100000000E-03 0.  1.
    9900012    2    1    2    0    0 -0.14811028629E+02  0.17295099388E+01 -0.42505949716E+02  0.46142317244E+02  0.99999952837E+01 0.  0.
         12    1    1    2    0    0  0.14811028629E+02 -0.17295099388E+01  0.42505949716E+02  0.45045682756E+02  0.00000000000E+00 0. -1.
         11    1    3    3    0    0 -0.29643428939E+01  0.44782912364E+01 -0.16923410703E+02  0.17755119016E+02  0.51100000000E-03 0. -1.
        -11    1    3    3    0    0 -0.55337779701E+01 -0.97848901425E+00 -0.97985745138E+01  0.11295671832E+02  0.51100000000E-03 0.  1.
         12    1    3    3    0    0 -0.63129077648E+01 -0.17702922834E+01 -0.15783964500E+02  0.17091526396E+02  0.00000000000E+00 0. -1.
</event>
<event>
 7    1  0.3766050E-009  0.4614232E+02  0.7816164E-02  0.1320468E+00
        -11   -1    0    0    0    0  0.00000000000E+00  0.00000000000E+00  0.45593999997E+02  0.45594000000E+02  0.51100000000E-03 0. -1.
         11   -1    0    0    0    0 -0.00000000000E+00 -0.00000000000E+00 -0.45593999997E+02  0.45594000000E+02  0.51100000000E-03 0.  1.
    9900012    2    1    2    0    0 -0.79727884577E+01  0.40593803293E+02 -0.17823896009E+02  0.46142317738E+02  0.99999997850E+01 0.  0.
         12    1    1    2    0    0  0.79727884577E+01 -0.40593803293E+02  0.17823896009E+02  0.45045682262E+02  0.00000000000E+00 0. -1.
         11    1    3    3    0    0 -0.38339458868E+01  0.67557269199E+01 -0.67105865189E+01  0.10265035751E+02  0.51100000000E-03 0. -1.
        -11    1    3    3    0    0 -0.14121082793E+01  0.16386352436E+02 -0.51586977452E+01  0.17237133133E+02  0.51100000000E-03 0.  1.
         12    1    3    3    0    0 -0.27267342916E+01  0.17451723937E+02 -0.59546117447E+01  0.18640148854E+02  0.00000000000E+00 0. -1.
</event>
<event>
 7    1  0.3766050E-009  0.4614232E+02  0.7816164E-02  0.1320468E+00
        -11   -1    0    0    0    0  0.00000000000E+00  0.00000000000E+00  0.45593999997E+02  0.45594000000E+02  0.51100000000E-03 0. -1.
         11   -1    0    0    0    0 -0.00000000000E+00 -0.00000000000E+00 -0.45593999997E+02  0.45594000000E+02  0.51100000000E-03 0.  1.
    9900012    2    1    2    0    0  0.18028557147E+02  0.14856412020E+01  0.41253818265E+02  0.46142317366E+02  0.99999963939E+01 0.  0.
        -12    1    1    2    0    0 -0.18028557147E+02 -0.14856412020E+01 -0.41253818265E+02  0.45045682634E+02  0.00000000000E+00 0.  1.
         11    1    3    3    0    0  0.94669615622E+01  0.43903335157E-01  0.15903897151E+02  0.18508355777E+02  0.51100000000E-03 0. -1.
        -11    1    3    3    0    0 -0.88333475683E-01 -0.97983067987E+00  0.83414931524E+01  0.83993082594E+01  0.51100000000E-03 0.  1.
        -12    1    3    3    0    0  0.86499290603E+01  0.24215685467E+01  0.17008427962E+02  0.19234653330E+02  0.00000000000E+00 0.  1.
</event>
<event>
 7    1  0.4176522E-009  0.4614232E+02  0.7816164E-02  0.1320468E+00
        -11   -1    0    0    0    0  0.00000000000E+00  0.00000000000E+00  0.45593999997E+02  0.45594000000E+02  0.51100000000E-03 0. -1.
         11   -1    0    0    0    0 -0.00000000000E+00 -0.00000000000E+00 -0.45593999997E+02  0.45594000000E+02  0.51100000000E-03 0.  1.
    9900012    2    1    2    0    0  0.10645492932E+02 -0.33218298654E+02 -0.28501431601E+02  0.46142317759E+02  0.99999999823E+01 0.  0.
         12    1    1    2    0    0 -0.10645492932E+02  0.33218298654E+02  0.28501431601E+02  0.45045682241E+02  0.00000000000E+00 0. -1.
         11    1    3    3    0    0 -0.17538446740E+01 -0.44934305618E+01 -0.27630649746E+01  0.55589043587E+01  0.51100000000E-03 0. -1.
        -11    1    3    3    0    0  0.83128148583E+01 -0.18869825888E+02 -0.15489735891E+02  0.25789632377E+02  0.51100000000E-03 0.  1.
         12    1    3    3    0    0  0.40865227476E+01 -0.98550422039E+01 -0.10248630736E+02  0.14793781023E+02  0.00000000000E+00 0. -1.
</event>
<event>
 7    1  0.3766050E-009  0.4614233E+02  0.7816164E-02  0.1320468E+00
        -11   -1    0    0    0    0  0.00000000000E+00  0.00000000000E+00  0.45593999997E+02  0.45594000000E+02  0.51100000000E-03 0. -1.
         11   -1    0    0    0    0 -0.00000000000E+00 -0.00000000000E+00 -0.45593999997E+02  0.45594000000E+02  0.51100000000E-03 0.  1.
    9900012    2    1    2    0    0 -0.35992020895E+02  0.22112122252E+02  0.15644202106E+02  0.46142327864E+02  0.10000092129E+02 0.  0.
        -12    1    1    2    0    0  0.35992020895E+02 -0.22112122252E+02 -0.15644202106E+02  0.45045672136E+02  0.00000000000E+00 0.  1.
         11    1    3    3    0    0 -0.18125458383E+02  0.14427282310E+02  0.10645817359E+02  0.25495335729E+02  0.51100000000E-03 0. -1.
        -11    1    3    3    0    0 -0.14592430108E+02  0.40597718128E+01  0.36740037846E+01  0.15585861147E+02  0.51100000000E-03 0.  1.
        -12    1    3    3    0    0 -0.32741324045E+01  0.36250681292E+01  0.13243809625E+01  0.50611309880E+01  0.00000000000E+00 0.  1.
</event>
<event>
 7    1  0.3766050E-009  0.4614232E+02  0.7816164E-02  0.1320468E+00
        -11   -1    0    0    0    0  0.00000000000E+00  0.00000000000E+00  0.45593999997E+02  0.45594000000E+02  0.51100000000E-03 0. -1.
         11   -1    0    0    0    0 -0.00000000000E+00 -0.00000000000E+00 -0.45593999997E+02  0.45594000000E+02  0.51100000000E-03 0.  1.
    9900012    2    1    2    0    0 -0.24482150124E+02 -0.13234034679E+02 -0.35420307573E+02  0.46142317220E+02  0.99999950629E+01 0.  0.
         12    1    1    2    0    0  0.24482150124E+02  0.13234034679E+02  0.35420307573E+02  0.45045682780E+02  0.00000000000E+00 0. -1.
         11    1    3    3    0    0 -0.67596626440E+01 -0.81176492812E+01 -0.91726101806E+01  0.13990212532E+02  0.51100000000E-03 0. -1.
        -11    1    3    3    0    0 -0.15719998569E+02 -0.41521564906E+01 -0.21976517066E+02  0.27337265064E+02  0.51100000000E-03 0.  1.
         12    1    3    3    0    0 -0.20024889107E+01 -0.96422890717E+00 -0.42711803261E+01  0.48148396236E+01  0.00000000000E+00 0. -1.
</event>
<event>
 7    1  0.3766050E-009  0.4614232E+02  0.7816164E-02  0.1320468E+00
        -11   -1    0    0    0    0  0.00000000000E+00  0.00000000000E+00  0.45593999997E+02  0.45594000000E+02  0.51100000000E-03 0. -1.
         11   -1    0    0    0    0 -0.00000000000E+00 -0.00000000000E+00 -0.45593999997E+02  0.45594000000E+02  0.51100000000E-03 0.  1.
    9900012    2    1    2    0    0  0.66791950361E+01  0.26293776716E+02 -0.35960244161E+02  0.46142317627E+02  0.99999987770E+01 0.  0.
         12    1    1    2    0    0 -0.66791950361E+01 -0.26293776716E+02  0.35960244161E+02  0.45045682373E+02  0.00000000000E+00 0. -1.
         11    1    3    3    0    0  0.18678721716E+01  0.29116987438E+01 -0.88183357547E+01  0.94725910800E+01  0.51100000000E-03 0. -1.
        -11    1    3    3    0    0  0.45248250686E+01  0.92009055381E+01 -0.90144836167E+01  0.13652531625E+02  0.51100000000E-03 0.  1.
        -12    1    3    3    0    0  0.28649779592E+00  0.14181172434E+02 -0.18127424790E+02  0.23017194922E+02  0.00000000000E+00 0.  1.
</event>
<event>
 7    1  0.3766050E-009  0.4614232E+02  0.7816164E-02  0.1320468E+00
        -11   -1    0    0    0    0  0.00000000000E+00  0.00000000000E+00  0.45593999997E+02  0.45594000000E+02  0.51100000000E-03 0. -1.
         11   -1    0    0    0    0 -0.00000000000E+00 -0.00000000000E+00 -0.45593999997E+02  0.45594000000E+02  0.51100000000E-03 0.  1.
    9900012    2    1    2    0    0  0.22706362260E+02 -0.28160811046E+02 -0.26842191188E+02  0.46142318813E+02  0.10000009591E+02 0.  0.
         12    1    1    2    0    0 -0.22706362260E+02  0.28160811046E+02  0.26842191188E+02  0.45045681187E+02  0.00000000000E+00 0. -1.
         11    1    3    3    0    0  0.10283382860E+01  0.40473383682E+00 -0.37165012974E-01  0.11057443685E+01  0.51100000000E-03 0. -1.
        -11    1    3    3    0    0  0.12090489269E+02 -0.19684084795E+02 -0.17854458760E+02  0.29196315227E+02  0.51100000000E-03 0.  1.
         12    1    3    3    0    0  0.95875347056E+01 -0.88814600876E+01 -0.89505674154E+01  0.15840259217E+02  0.00000000000E+00 0. -1.
</event>
<event>
 7    1  0.3766050E-009  0.4614232E+02  0.7816164E-02  0.1320468E+00
        -11   -1    0    0    0    0  0.00000000000E+00  0.00000000000E+00  0.45593999997E+02  0.45594000000E+02  0.51100000000E-03 0. -1.
         11   -1    0    0    0    0 -0.00000000000E+00 -0.00000000000E+00 -0.45593999997E+02  0.45594000000E+02  0.51100000000E-03 0.  1.
    9900012    2    1    2    0    0 -0.22310890453E+02 -0.29719592613E+02  0.25457479675E+02  0.46142319971E+02  0.10000020149E+02 0.  0.
        -12    1    1    2    0    0  0.22310890453E+02  0.29719592613E+02 -0.25457479675E+02  0.45045680029E+02  0.00000000000E+00 0.  1.
         11    1    3    3    0    0 -0.58207159284E+01 -0.91790801605E+01  0.53924501946E+01  0.12133209216E+02  0.51100000000E-03 0. -1.
        -11    1    3    3    0    0 -0.60171193328E+01 -0.12551282171E+02  0.75287181307E+01  0.15824727681E+02  0.51100000000E-03 0.  1.
        -12    1    3    3    0    0 -0.10473055192E+02 -0.79892302810E+01  0.12536311350E+02  0.18184383074E+02  0.00000000000E+00 0.  1.
</event>
<event>
 7    1  0.3766050E-009  0.4614232E+02  0.7816164E-02  0.1320468E+00
        -11   -1    0    0    0    0  0.00000000000E+00  0.00000000000E+00  0.45593999997E+02  0.45594000000E+02  0.51100000000E-03 0.  1.
         11   -1    0    0    0    0 -0.00000000000E+00 -0.00000000000E+00 -0.45593999997E+02  0.45594000000E+02  0.51100000000E-03 0. -1.
    9900012    2    1    2    0    0 -0.16013860748E+02 -0.41119848913E+02  0.90458744180E+01  0.46142317025E+02  0.99999932870E+01 0.  0.
         12    1    1    2    0    0  0.16013860748E+02  0.41119848913E+02 -0.90458744180E+01  0.45045682975E+02  0.00000000000E+00 0. -1.
         11    1    3    3    0    0 -0.67037849352E+01 -0.24451799534E+02  0.69452084145E+01  0.26288156137E+02  0.51100000000E-03 0.  1.
        -11    1    3    3    0    0 -0.74339985300E+01 -0.92518456433E+01 -0.18581940217E+00  0.11869941494E+02  0.51100000000E-03 0. -1.
         12    1    3    3    0    0 -0.18760772831E+01 -0.74162037358E+01  0.22864854057E+01  0.79842193941E+01  0.00000000000E+00 0. -1.
</event>
<event>
 7    1  0.3766050E-009  0.4614232E+02  0.7816164E-02  0.1320468E+00
        -11   -1    0    0    0    0  0.00000000000E+00  0.00000000000E+00  0.45593999997E+02  0.45594000000E+02  0.51100000000E-03 0. -1.
         11   -1    0    0    0    0 -0.00000000000E+00 -0.00000000000E+00 -0.45593999997E+02  0.45594000000E+02  0.51100000000E-03 0.  1.
    9900012    2    1    2    0    0  0.33015184194E+02 -0.67496920830E-01 -0.30644847738E+02  0.46142316121E+02  0.99999850474E+01 0.  0.
         12    1    1    2    0    0 -0.33015184194E+02  0.67496920830E-01  0.30644847738E+02  0.45045683879E+02  0.00000000000E+00 0. -1.
         11    1    3    3    0    0  0.63691343199E+00 -0.10039593701E+01 -0.24497606515E+01  0.27230351903E+01  0.51100000000E-03 0. -1.
        -11    1    3    3    0    0  0.26372836354E+02  0.97596536973E-01 -0.25816649366E+02  0.36905763875E+02  0.51100000000E-03 0.  1.
        -12    1    3    3    0    0  0.60054344087E+01  0.83886591232E+00 -0.23784377204E+01  0.65135170565E+01  0.00000000000E+00 0.  1.
</event>
<event>
 7    1  0.3766050E-009  0.4614232E+02  0.7816164E-02  0.1320468E+00
        -11   -1    0    0    0    0  0.00000000000E+00  0.00000000000E+00  0.45593999997E+02  0.45594000000E+02  0.51100000000E-03 0. -1.
         11   -1    0    0    0    0 -0.00000000000E+00 -0.00000000000E+00 -0.45593999997E+02  0.45594000000E+02  0.51100000000E-03 0.  1.
    9900012    2    1    2    0    0  0.91956045817E+01  0.26237597678E+02  0.35442104834E+02  0.46142317959E+02  0.10000001801E+02 0.  0.
        -12    1    1    2    0    0 -0.91956045817E+01 -0.26237597678E+02 -0.35442104834E+02  0.45045682041E+02  0.00000000000E+00 0.  1.
         11    1    3    3    0    0  0.50536533557E+01  0.12277177937E+02  0.17180254440E+02  0.21712430845E+02  0.51100000000E-03 0. -1.
        -11    1    3    3    0    0 -0.48545453326E+00  0.78166533273E+01  0.12765317158E+02  0.14976283175E+02  0.51100000000E-03 0.  1.
        -12    1    3    3    0    0  0.46274057592E+01  0.61437664134E+01  0.54965332363E+01  0.94536039382E+01  0.00000000000E+00 0.  1.
</event>
<event>
 7    1  0.3766050E-009  0.4614232E+02  0.7816164E-02  0.1320468E+00
        -11   -1    0    0    0    0  0.00000000000E+00  0.00000000000E+00  0.45593999997E+02  0.45594000000E+02  0.51100000000E-03 0.  1.
         11   -1    0    0    0    0 -0.00000000000E+00 -0.00000000000E+00 -0.45593999997E+02  0.45594000000E+02  0.51100000000E-03 0. -1.
    9900012    2    1    2    0    0 -0.41239651094E+02 -0.16809867388E+02 -0.67700136488E+01  0.46142317091E+02  0.99999938897E+01 0.  0.
         12    1    1    2    0    0  0.41239651094E+02  0.16809867388E+02  0.67700136488E+01  0.45045682909E+02  0.00000000000E+00 0. -1.
         11    1    3    3    0    0 -0.53529974204E+01 -0.58087383350E+01 -0.11120574763E+01  0.79770103748E+01  0.51100000000E-03 0. -1.
        -11    1    3    3    0    0 -0.20192840343E+02 -0.56698476893E+01 -0.12319071311E+01  0.21009892179E+02  0.51100000000E-03 0.  1.
         12    1    3    3    0    0 -0.15693813331E+02 -0.53312813634E+01 -0.44260490414E+01  0.17155414537E+02  0.00000000000E+00 0. -1.
</event>
<event>
 7    1  0.3766050E-009  0.4614232E+02  0.7816164E-02  0.1320468E+00
        -11   -1    0    0    0    0  0.00000000000E+00  0.00000000000E+00  0.45593999997E+02  0.45594000000E+02  0.51100000000E-03 0. -1.
         11   -1    0    0    0    0 -0.00000000000E+00 -0.00000000000E+00 -0.45593999997E+02  0.45594000000E+02  0.51100000000E-03 0.  1.
    9900012    2    1    2    0    0  0.23704483365E+01  0.18599582934E+01  0.44944799825E+02  0.46142317616E+02  0.99999986733E+01 0.  0.
        -12    1    1    2    0    0 -0.23704483365E+01 -0.18599582934E+01 -0.44944799825E+02  0.45045682384E+02  0.00000000000E+00 0.  1.
         11    1    3    3    0    0 -0.28777517425E+01 -0.10145932686E+01  0.76425149124E+01  0.82291487433E+01  0.51100000000E-03 0. -1.
        -11    1    3    3    0    0  0.11107472591E+01  0.14619444663E+01  0.52015297345E+01  0.55160631737E+01  0.51100000000E-03 0.  1.
         12    1    3    3    0    0  0.41374528199E+01  0.14126070956E+01  0.32100755178E+02  0.32397105699E+02  0.00000000000E+00 0. -1.
</event>
<event>
 7    1  0.3766050E-009  0.4614232E+02  0.7816164E-02  0.1320468E+00
        -11   -1    0    0    0    0  0.00000000000E+00  0.00000000000E+00  0.45593999997E+02  0.45594000000E+02  0.51100000000E-03 0. -1.
         11   -1    0    0    0    0 -0.00000000000E+00 -0.00000000000E+00 -0.45593999997E+02  0.45594000000E+02  0.51100000000E-03 0.  1.
    9900012    2    1    2    0    0  0.24227615627E+02  0.28808307244E+02  0.24743029438E+02  0.46142318397E+02  0.10000005801E+02 0.  0.
        -12    1    1    2    0    0 -0.24227615627E+02 -0.28808307244E+02 -0.24743029438E+02  0.45045681603E+02  0.00000000000E+00 0.  1.
         11    1    3    3    0    0  0.16509390113E+02  0.18305315944E+02  0.16908229205E+02  0.29892018480E+02  0.51100000000E-03 0. -1.
        -11    1    3    3    0    0  0.78722853364E+01  0.10283018288E+02  0.57863644862E+01  0.14184334872E+02  0.51100000000E-03 0.  1.
         12    1    3    3    0    0 -0.15405982277E+00  0.21997301204E+00  0.20484357474E+01  0.20659650447E+01  0.00000000000E+00 0. -1.
</event>
<event>
 7    1  0.3766050E-009  0.4614232E+02  0.7816164E-02  0.1320468E+00
        -11   -1    0    0    0    0  0.00000000000E+00  0.00000000000E+00  0.45593999997E+02  0.45594000000E+02  0.51100000000E-03 0. -1.
         11   -1    0    0    0    0 -0.00000000000E+00 -0.00000000000E+00 -0.45593999997E+02  0.45594000000E+02  0.51100000000E-03 0.  1.
    9900012    2    1    2    0    0  0.14393619411E+02  0.25437549888E+02 -0.34276351518E+02  0.46142317660E+02  0.99999990788E+01 0.  0.
         12    1    1    2    0    0 -0.14393619411E+02 -0.25437549888E+02  0.34276351518E+02  0.45045682340E+02  0.00000000000E+00 0. -1.
         11    1    3    3    0    0 -0.66835105000E+00  0.30811534529E+01 -0.27324668030E+01  0.41721187443E+01  0.51100000000E-03 0. -1.
        -11    1    3    3    0    0  0.24498162511E+00  0.42632340546E+01 -0.55893804296E+01  0.70339430229E+01  0.51100000000E-03 0.  1.
        -12    1    3    3    0    0  0.14816988836E+02  0.18093162381E+02 -0.25954504286E+02  0.34936255893E+02  0.00000000000E+00 0.  1.
</event>
<event>
 7    1  0.3766050E-009  0.4614232E+02  0.7816164E-02  0.1320468E+00
        -11   -1    0    0    0    0  0.00000000000E+00  0.00000000000E+00  0.45593999997E+02  0.45594000000E+02  0.51100000000E-03 0. -1.
         11   -1    0    0    0    0 -0.00000000000E+00 -0.00000000000E+00 -0.45593999997E+02  0.45594000000E+02  0.51100000000E-03 0.  1.
    9900012    2    1    2    0    0  0.60793117871E+01  0.31166557319E+02 -0.31949981139E+02  0.46142316282E+02  0.99999865097E+01 0.  0.
         12    1    1    2    0    0 -0.60793117871E+01 -0.31166557319E+02  0.31949981139E+02  0.45045683718E+02  0.00000000000E+00 0. -1.
         11    1    3    3    0    0  0.69353473709E+01  0.17125188865E+02 -0.18895506570E+02  0.26427472554E+02  0.51100000000E-03 0.  1.
        -11    1    3    3    0    0  0.91705355537E+00  0.12105365017E+02 -0.10477894179E+02  0.16036430903E+02  0.51100000000E-03 0. -1.
         12    1    3    3    0    0 -0.17730891392E+01  0.19360034364E+01 -0.25765803903E+01  0.36784128247E+01  0.00000000000E+00 0. -1.
</event>
<event>
 7    1  0.4249558E-009  0.4614232E+02  0.7816164E-02  0.1320468E+00
        -11   -1    0    0    0    0  0.00000000000E+00  0.00000000000E+00  0.45593999997E+02  0.45594000000E+02  0.51100000000E-03 0. -1.
         11   -1    0    0    0    0 -0.00000000000E+00 -0.00000000000E+00 -0.45593999997E+02  0.45594000000E+02  0.51100000000E-03 0.  1.
    9900012    2    1    2    0    0 -0.29748777270E+02 -0.89434908011E+01  0.32621123299E+02  0.46142318053E+02  0.10000002658E+02 0.  0.
        -12    1    1    2    0    0  0.29748777270E+02  0.89434908011E+01 -0.32621123299E+02  0.45045681947E+02  0.00000000000E+00 0.  1.
         11    1    3    3    0    0 -0.22665821368E+02 -0.24930587934E+01  0.23382194151E+02  0.32660094979E+02  0.51100000000E-03 0. -1.
        -11    1    3    3    0    0 -0.36420468445E+01 -0.43580768358E+01  0.43858568066E+01  0.71758678300E+01  0.51100000000E-03 0.  1.
         12    1    3    3    0    0 -0.34409090577E+01 -0.20923551719E+01  0.48530723416E+01  0.63063552438E+01  0.00000000000E+00 0. -1.
</event>
<event>
 7    1  0.3766050E-009  0.4614232E+02  0.7816164E-02  0.1320468E+00
        -11   -1    0    0    0    0  0.00000000000E+00  0.00000000000E+00  0.45593999997E+02  0.45594000000E+02  0.51100000000E-03 0. -1.
         11   -1    0    0    0    0 -0.00000000000E+00 -0.00000000000E+00 -0.45593999997E+02  0.45594000000E+02  0.51100000000E-03 0.  1.
    9900012    2    1    2    0    0  0.25183580837E+02  0.81776065944E+01 -0.36442111126E+02  0.46142318112E+02  0.10000003203E+02 0.  0.
         12    1    1    2    0    0 -0.25183580837E+02 -0.81776065944E+01  0.36442111126E+02  0.45045681888E+02  0.00000000000E+00 0. -1.
         11    1    3    3    0    0  0.13626863826E+02  0.76406033754E+01 -0.18157369075E+02  0.23953293921E+02  0.51100000000E-03 0. -1.
        -11    1    3    3    0    0  0.72247123729E+01  0.26022277799E+01 -0.12528975819E+02  0.14695009140E+02  0.51100000000E-03 0.  1.
         12    1    3    3    0    0  0.43320046379E+01 -0.20652245610E+01 -0.57557662326E+01  0.74940150516E+01  0.00000000000E+00 0. -1.
</event>
<event>
 7    1  0.3766050E-009  0.4614232E+02  0.7816164E-02  0.1320468E+00
        -11   -1    0    0    0    0  0.00000000000E+00  0.00000000000E+00  0.45593999997E+02  0.45594000000E+02  0.51100000000E-03 0. -1.
         11   -1    0    0    0    0 -0.00000000000E+00 -0.00000000000E+00 -0.45593999997E+02  0.45594000000E+02  0.51100000000E-03 0.  1.
    9900012    2    1    2    0    0  0.54408846878E+01  0.19850021319E+02 -0.40068528969E+02  0.46142316674E+02  0.99999900869E+01 0.  0.
         12    1    1    2    0    0 -0.54408846878E+01 -0.19850021319E+02  0.40068528969E+02  0.45045683326E+02  0.00000000000E+00 0. -1.
         11    1    3    3    0    0  0.22206091701E+01  0.87975696575E+00 -0.13394977570E+01  0.27384908083E+01  0.51100000000E-03 0. -1.
        -11    1    3    3    0    0  0.17548810620E+01  0.10731962985E+02 -0.17732335862E+02  0.20801210841E+02  0.51100000000E-03 0.  1.
         12    1    3    3    0    0  0.14653944557E+01  0.82383013691E+01 -0.20996695350E+02  0.22602615025E+02  0.00000000000E+00 0. -1.
</event>
<event>
 7    1  0.3766050E-009  0.4614232E+02  0.7816164E-02  0.1320468E+00
        -11   -1    0    0    0    0  0.00000000000E+00  0.00000000000E+00  0.45593999997E+02  0.45594000000E+02  0.51100000000E-03 0. -1.
         11   -1    0    0    0    0 -0.00000000000E+00 -0.00000000000E+00 -0.45593999997E+02  0.45594000000E+02  0.51100000000E-03 0.  1.
    9900012    2    1    2    0    0  0.15948310418E+02 -0.73242840794E+01 -0.41486380315E+02  0.46142317698E+02  0.99999994236E+01 0.  0.
         12    1    1    2    0    0 -0.15948310418E+02  0.73242840794E+01  0.41486380315E+02  0.45045682302E+02  0.00000000000E+00 0. -1.
         11    1    3    3    0    0  0.71889593911E+01 -0.59650962501E+01 -0.13317266831E+02  0.16266932917E+02  0.51100000000E-03 0. -1.
        -11    1    3    3    0    0  0.48472300537E+01 -0.14249824910E+01 -0.21980166233E+02  0.22553357227E+02  0.51100000000E-03 0.  1.
        -12    1    3    3    0    0  0.39121209730E+01  0.65794661775E-01 -0.61889472504E+01  0.73220275548E+01  0.00000000000E+00 0.  1.
</event>
<event>
 7    1  0.3766050E-009  0.4614232E+02  0.7816164E-02  0.1320468E+00
        -11   -1    0    0    0    0  0.00000000000E+00  0.00000000000E+00  0.45593999997E+02  0.45594000000E+02  0.51100000000E-03 0. -1.
         11   -1    0    0    0    0 -0.00000000000E+00 -0.00000000000E+00 -0.45593999997E+02  0.45594000000E+02  0.51100000000E-03 0.  1.
    9900012    2    1    2    0    0  0.25711570183E+01 -0.14269301217E+02 -0.42648439714E+02  0.46142320788E+02  0.10000027602E+02 0.  0.
         12    1    1    2    0    0 -0.25711570183E+01  0.14269301217E+02  0.42648439714E+02  0.45045679212E+02  0.00000000000E+00 0. -1.
         11    1    3    3    0    0 -0.32450128897E+01 -0.64299048302E+01 -0.13617303988E+02  0.15404699054E+02  0.51100000000E-03 0. -1.
        -11    1    3    3    0    0  0.34942929770E+01 -0.27603980370E+01 -0.11215039648E+02  0.12066772365E+02  0.51100000000E-03 0.  1.
        -12    1    3    3    0    0  0.23218769310E+01 -0.50789983501E+01 -0.17816096078E+02  0.18670849370E+02  0.00000000000E+00 0.  1.
</event>
<event>
 7    1  0.3766050E-009  0.4614232E+02  0.7816164E-02  0.1320468E+00
        -11   -1    0    0    0    0  0.00000000000E+00  0.00000000000E+00  0.45593999997E+02  0.45594000000E+02  0.51100000000E-03 0. -1.
         11   -1    0    0    0    0 -0.00000000000E+00 -0.00000000000E+00 -0.45593999997E+02  0.45594000000E+02  0.51100000000E-03 0.  1.
    9900012    2    1    2    0    0  0.49310565888E+00  0.24332895205E+02 -0.37904887945E+02  0.46142317939E+02  0.10000001619E+02 0.  0.
         12    1    1    2    0    0 -0.49310565888E+00 -0.24332895205E+02  0.37904887945E+02  0.45045682061E+02  0.00000000000E+00 0. -1.
         11    1    3    3    0    0  0.49681141317E+00  0.26485843717E+01 -0.17380594194E+01  0.32066604997E+01  0.51100000000E-03 0. -1.
        -11    1    3    3    0    0 -0.23472047382E+01  0.19323834024E+02 -0.27851975641E+02  0.33980177734E+02  0.51100000000E-03 0.  1.
        -12    1    3    3    0    0  0.23434989839E+01  0.23604768100E+01 -0.83148528843E+01  0.89554797050E+01  0.00000000000E+00 0.  1.
</event>
<event>
 7    1  0.3766050E-009  0.4614232E+02  0.7816164E-02  0.1320468E+00
        -11   -1    0    0    0    0  0.00000000000E+00  0.00000000000E+00  0.45593999997E+02  0.45594000000E+02  0.51100000000E-03 0. -1.
         11   -1    0    0    0    0 -0.00000000000E+00 -0.00000000000E+00 -0.45593999997E+02  0.45594000000E+02  0.51100000000E-03 0.  1.
    9900012    2    1    2    0    0  0.96046975259E+01 -0.10470857746E+02  0.42746045735E+02  0.46142317605E+02  0.99999985720E+01 0.  0.
        -12    1    1    2    0    0 -0.96046975259E+01  0.10470857746E+02 -0.42746045735E+02  0.45045682395E+02  0.00000000000E+00 0.  1.
         11    1    3    3    0    0  0.66210363620E+01 -0.74331260381E+01  0.20026289100E+02  0.22363848966E+02  0.51100000000E-03 0.  1.
        -11    1    3    3    0    0  0.28398785752E+01  0.30782342851E+00  0.51196626063E+01  0.58626453968E+01  0.51100000000E-03 0. -1.
        -12    1    3    3    0    0  0.14378258872E+00 -0.33455551362E+01  0.17600094029E+02  0.17915823242E+02  0.00000000000E+00 0.  1.
</event>
<event>
 7    1  0.3766050E-009  0.4614232E+02  0.7816164E-02  0.1320468E+00
        -11   -1    0    0    0    0  0.00000000000E+00  0.00000000000E+00  0.45593999997E+02  0.45594000000E+02  0.51100000000E-03 0. -1.
         11   -1    0    0    0    0 -0.00000000000E+00 -0.00000000000E+00 -0.45593999997E+02  0.45594000000E+02  0.51100000000E-03 0.  1.
    9900012    2    1    2    0    0  0.19231120834E+02  0.15124114387E+02  0.37822462867E+02  0.46142317168E+02  0.99999945880E+01 0.  0.
        -12    1    1    2    0    0 -0.19231120834E+02 -0.15124114387E+02 -0.37822462867E+02  0.45045682832E+02  0.00000000000E+00 0.  1.
         11    1    3    3    0    0  0.12522448370E+02  0.88513519531E+01  0.20817786542E+02  0.25856109169E+02  0.51100000000E-03 0. -1.
        -11    1    3    3    0    0  0.16715452693E+01  0.35445303592E+01  0.12185610634E+02  0.12800268194E+02  0.51100000000E-03 0.  1.
         12    1    3    3    0    0  0.50371271944E+01  0.27282320750E+01  0.48190656907E+01  0.74859398046E+01  0.00000000000E+00 0. -1.
</event>
<event>
 7    1  0.3766050E-009  0.4614232E+02  0.7816164E-02  0.1320468E+00
        -11   -1    0    0    0    0  0.00000000000E+00  0.00000000000E+00  0.45593999997E+02  0.45594000000E+02  0.51100000000E-03 0. -1.
         11   -1    0    0    0    0 -0.00000000000E+00 -0.00000000000E+00 -0.45593999997E+02  0.45594000000E+02  0.51100000000E-03 0.  1.
    9900012    2    1    2    0    0  0.12603296122E+02  0.18269060790E+02 -0.39198368000E+02  0.46142315311E+02  0.99999776544E+01 0.  0.
         12    1    1    2    0    0 -0.12603296122E+02 -0.18269060790E+02  0.39198368000E+02  0.45045684689E+02  0.00000000000E+00 0. -1.
         11    1    3    3    0    0  0.66636481880E+01  0.81473849166E+01 -0.22085482998E+02  0.24465335634E+02  0.51100000000E-03 0. -1.
        -11    1    3    3    0    0  0.32648283000E+01  0.98987683511E+01 -0.14975517930E+02  0.18245844903E+02  0.51100000000E-03 0.  1.
         12    1    3    3    0    0  0.26748196338E+01  0.22290752277E+00 -0.21373670718E+01  0.34311347739E+01  0.00000000000E+00 0. -1.
</event>
<event>
 7    1  0.3766050E-009  0.4614232E+02  0.7816164E-02  0.1320468E+00
        -11   -1    0    0    0    0  0.00000000000E+00  0.00000000000E+00  0.45593999997E+02  0.45594000000E+02  0.51100000000E-03 0. -1.
         11   -1    0    0    0    0 -0.00000000000E+00 -0.00000000000E+00 -0.45593999997E+02  0.45594000000E+02  0.51100000000E-03 0.  1.
    9900012    2    1    2    0    0 -0.17459499818E+02  0.32137388353E+02 -0.26295770727E+02  0.46142318496E+02  0.10000006705E+02 0.  0.
         12    1    1    2    0    0  0.17459499818E+02 -0.32137388353E+02  0.26295770727E+02  0.45045681504E+02  0.00000000000E+00 0. -1.
         11    1    3    3    0    0 -0.11995110615E+02  0.20054427070E+02 -0.11741009586E+02  0.26151750040E+02  0.51100000000E-03 0. -1.
        -11    1    3    3    0    0 -0.13202491246E+01  0.67798813476E+01 -0.63923173801E+01  0.94112470262E+01  0.51100000000E-03 0.  1.
         12    1    3    3    0    0 -0.41441400780E+01  0.53030799348E+01 -0.81624437609E+01  0.10579321431E+02  0.00000000000E+00 0. -1.
</event>
<event>
 7    1  0.4089195E-009  0.4614232E+02  0.7816164E-02  0.1320468E+00
        -11   -1    0    0    0    0  0.00000000000E+00  0.00000000000E+00  0.45593999997E+02  0.45594000000E+02  0.51100000000E-03 0. -1.
         11   -1    0    0    0    0 -0.00000000000E+00 -0.00000000000E+00 -0.45593999997E+02  0.45594000000E+02  0.51100000000E-03 0.  1.
    9900012    2    1    2    0    0 -0.19582341178E+02  0.10261444472E+02 -0.39247269433E+02  0.46142317780E+02  0.10000000176E+02 0.  0.
         12    1    1    2    0    0  0.19582341178E+02 -0.10261444472E+02  0.39247269433E+02  0.45045682220E+02  0.00000000000E+00 0. -1.
         11    1    3    3    0    0 -0.44695168381E+01 -0.13858051517E+01 -0.50280620246E+01  0.68686566859E+01  0.51100000000E-03 0. -1.
        -11    1    3    3    0    0 -0.49794039124E+01  0.51719508205E+01 -0.14423133331E+02  0.16111185988E+02  0.51100000000E-03 0.  1.
         12    1    3    3    0    0 -0.10133420428E+02  0.64752988028E+01 -0.19796074078E+02  0.23162475106E+02  0.00000000000E+00 0. -1.
</event>
<event>
 7    1  0.3766050E-009  0.4614232E+02  0.7816164E-02  0.1320468E+00
        -11   -1    0    0    0    0  0.00000000000E+00  0.00000000000E+00  0.45593999997E+02  0.45594000000E+02  0.51100000000E-03 0. -1.
         11   -1    0    0    0    0 -0.00000000000E+00 -0.00000000000E+00 -0.45593999997E+02  0.45594000000E+02  0.51100000000E-03 0.  1.
    9900012    2    1    2    0    0 -0.16709452473E+02  0.37921375931E+02  0.17660037140E+02  0.46142318007E+02  0.10000002240E+02 0.  0.
        -12    1    1    2    0    0  0.16709452473E+02 -0.37921375931E+02 -0.17660037140E+02  0.45045681993E+02  0.00000000000E+00 0.  1.
         11    1    3    3    0    0 -0.15029436050E+02  0.36588071000E+02  0.16205331932E+02  0.42745569019E+02  0.51100000000E-03 0. -1.
        -11    1    3    3    0    0  0.25208187761E+00 -0.31780599660E+00 -0.99544044437E-01  0.41767834801E+00  0.51100000000E-03 0.  1.
         12    1    3    3    0    0 -0.19320983004E+01  0.16511109278E+01  0.15542492522E+01  0.29790706397E+01  0.00000000000E+00 0. -1.
</event>
<event>
 7    1  0.3766050E-009  0.4614232E+02  0.7816164E-02  0.1320468E+00
        -11   -1    0    0    0    0  0.00000000000E+00  0.00000000000E+00  0.45593999997E+02  0.45594000000E+02  0.51100000000E-03 0. -1.
         11   -1    0    0    0    0 -0.00000000000E+00 -0.00000000000E+00 -0.45593999997E+02  0.45594000000E+02  0.51100000000E-03 0.  1.
    9900012    2    1    2    0    0  0.35838614369E+02 -0.69478487958E+01  0.26390047234E+02  0.46142317901E+02  0.10000001272E+02 0.  0.
        -12    1    1    2    0    0 -0.35838614369E+02  0.69478487958E+01 -0.26390047234E+02  0.45045682099E+02  0.00000000000E+00 0.  1.
         11    1    3    3    0    0  0.97055766347E+01 -0.28676725153E+01  0.55771183854E+01  0.11555345655E+02  0.51100000000E-03 0. -1.
        -11    1    3    3    0    0  0.10986212014E+02  0.21307323510E+01  0.95990616501E+01  0.14743773587E+02  0.51100000000E-03 0.  1.
        -12    1    3    3    0    0  0.15146825721E+02 -0.62109086315E+01  0.11213867198E+02  0.19843198658E+02  0.00000000000E+00 0.  1.
</event>
<event>
 7    1  0.3766050E-009  0.4614232E+02  0.7816164E-02  0.1320468E+00
        -11   -1    0    0    0    0  0.00000000000E+00  0.00000000000E+00  0.45593999997E+02  0.45594000000E+02  0.51100000000E-03 0. -1.
         11   -1    0    0    0    0 -0.00000000000E+00 -0.00000000000E+00 -0.45593999997E+02  0.45594000000E+02  0.51100000000E-03 0.  1.
    9900012    2    1    2    0    0  0.15646944337E+02 -0.40214462715E+02 -0.12926077449E+02  0.46142319222E+02  0.10000013318E+02 0.  0.
         12    1    1    2    0    0 -0.15646944337E+02  0.40214462715E+02  0.12926077449E+02  0.45045680778E+02  0.00000000000E+00 0. -1.
         11    1    3    3    0    0  0.97695635529E+00 -0.25282400968E+01  0.12905750698E+01  0.30020036608E+01  0.51100000000E-03 0. -1.
        -11    1    3    3    0    0  0.82544543078E+01 -0.27314379538E+02 -0.10052397383E+02  0.30253297983E+02  0.51100000000E-03 0.  1.
        -12    1    3    3    0    0  0.64155336735E+01 -0.10371843081E+02 -0.41642551360E+01  0.12887017578E+02  0.00000000000E+00 0.  1.
</event>
<event>
 7    1  0.3766050E-009  0.4614232E+02  0.7816164E-02  0.1320468E+00
        -11   -1    0    0    0    0  0.00000000000E+00  0.00000000000E+00  0.45593999997E+02  0.45594000000E+02  0.51100000000E-03 0. -1.
         11   -1    0    0    0    0 -0.00000000000E+00 -0.00000000000E+00 -0.45593999997E+02  0.45594000000E+02  0.51100000000E-03 0.  1.
    9900012    2    1    2    0    0  0.60380117509E+01 -0.16471116815E+02  0.41489252935E+02  0.46142318918E+02  0.10000010546E+02 0.  0.
        -12    1    1    2    0    0 -0.60380117509E+01  0.16471116815E+02 -0.41489252935E+02  0.45045681082E+02  0.00000000000E+00 0.  1.
         11    1    3    3    0    0  0.85318495623E+00 -0.68356318282E+01  0.10952628767E+02  0.12938850962E+02  0.51100000000E-03 0. -1.
        -11    1    3    3    0    0 -0.70487345787E+00  0.38201047065E+00  0.38373940224E+00  0.88883900750E+00  0.51100000000E-03 0.  1.
        -12    1    3    3    0    0  0.58897002525E+01 -0.10017495457E+02  0.30152884766E+02  0.32314628948E+02  0.00000000000E+00 0.  1.
</event>
<event>
 7    1  0.3766050E-009  0.4614232E+02  0.7816164E-02  0.1320468E+00
        -11   -1    0    0    0    0  0.00000000000E+00  0.00000000000E+00  0.45593999997E+02  0.45594000000E+02  0.51100000000E-03 0.  1.
         11   -1    0    0    0    0 -0.00000000000E+00 -0.00000000000E+00 -0.45593999997E+02  0.45594000000E+02  0.51100000000E-03 0. -1.
    9900012    2    1    2    0    0  0.14249682761E+02 -0.38463196430E+02  0.18618339001E+02  0.46142317792E+02  0.10000000280E+02 0.  0.
        -12    1    1    2    0    0 -0.14249682761E+02  0.38463196430E+02 -0.18618339001E+02  0.45045682208E+02  0.00000000000E+00 0.  1.
         11    1    3    3    0    0  0.59817559493E+01 -0.15630283603E+02  0.12268131027E+02  0.20750764056E+02  0.51100000000E-03 0. -1.
        -11    1    3    3    0    0  0.66039595555E+01 -0.21213066846E+02  0.52877866181E+01  0.22837845223E+02  0.51100000000E-03 0.  1.
        -12    1    3    3    0    0  0.16639672563E+01 -0.16198459809E+01  0.10624213560E+01  0.25537085130E+01  0.00000000000E+00 0.  1.
</event>
<event>
 7    1  0.3766050E-009  0.4614232E+02  0.7816164E-02  0.1320468E+00
        -11   -1    0    0    0    0  0.00000000000E+00  0.00000000000E+00  0.45593999997E+02  0.45594000000E+02  0.51100000000E-03 0. -1.
         11   -1    0    0    0    0 -0.00000000000E+00 -0.00000000000E+00 -0.45593999997E+02  0.45594000000E+02  0.51100000000E-03 0.  1.
    9900012    2    1    2    0    0  0.50904259015E+01  0.16342504088E+02  0.41666817100E+02  0.46142317377E+02  0.99999965011E+01 0.  0.
        -12    1    1    2    0    0 -0.50904259015E+01 -0.16342504088E+02 -0.41666817100E+02  0.45045682623E+02  0.00000000000E+00 0.  1.
         11    1    3    3    0    0  0.41679648122E+00  0.45087507540E+01  0.13909874932E+02  0.14628300433E+02  0.51100000000E-03 0. -1.
        -11    1    3    3    0    0  0.45401860535E+01  0.36098387148E+01  0.64491025145E+01  0.86738197152E+01  0.51100000000E-03 0.  1.
        -12    1    3    3    0    0  0.13344336677E+00  0.82239146186E+01  0.21307839653E+02  0.22840197229E+02  0.00000000000E+00 0.  1.
</event>
<event>
 7    1  0.3766050E-009  0.4614232E+02  0.7816164E-02  0.1320468E+00
        -11   -1    0    0    0    0  0.00000000000E+00  0.00000000000E+00  0.45593999997E+02  0.45594000000E+02  0.51100000000E-03 0. -1.
         11   -1    0    0    0    0 -0.00000000000E+00 -0.00000000000E+00 -0.45593999997E+02  0.45594000000E+02  0.51100000000E-03 0.  1.
    9900012    2    1    2    0    0  0.23685762892E+02 -0.44034763138E+00  0.38313238412E+02  0.46142317550E+02  0.99999980737E+01 0.  0.
        -12    1    1    2    0    0 -0.23685762892E+02  0.44034763138E+00 -0.38313238412E+02  0.45045682450E+02  0.00000000000E+00 0.  1.
         11    1    3    3    0    0  0.17073025706E+02  0.66147812356E+00  0.19250132729E+02  0.25738946567E+02  0.51100000000E-03 0. -1.
        -11    1    3    3    0    0  0.41260297826E+01 -0.20553112253E+01  0.12033174961E+02  0.12885873114E+02  0.51100000000E-03 0.  1.
         12    1    3    3    0    0  0.24867074036E+01  0.95348547037E+00  0.70299307219E+01  0.75174978688E+01  0.00000000000E+00 0. -1.
</event>
<event>
 7    1  0.3766050E-009  0.4614232E+02  0.7816164E-02  0.1320468E+00
        -11   -1    0    0    0    0  0.00000000000E+00  0.00000000000E+00  0.45593999997E+02  0.45594000000E+02  0.51100000000E-03 0. -1.
         11   -1    0    0    0    0 -0.00000000000E+00 -0.00000000000E+00 -0.45593999997E+02  0.45594000000E+02  0.51100000000E-03 0.  1.
    9900012    2    1    2    0    0  0.21497114201E+02  0.15748908574E+02 -0.36317478519E+02  0.46142320004E+02  0.10000020456E+02 0.  0.
         12    1    1    2    0    0 -0.21497114201E+02 -0.15748908574E+02  0.36317478519E+02  0.45045679996E+02  0.00000000000E+00 0. -1.
         11    1    3    3    0    0  0.94643013133E+01  0.83848989733E+01 -0.12899743027E+02  0.18063302593E+02  0.51100000000E-03 0. -1.
        -11    1    3    3    0    0  0.95893628642E+01  0.23664307522E+01 -0.13840667258E+02  0.17003527429E+02  0.51100000000E-03 0.  1.
        -12    1    3    3    0    0  0.24434500236E+01  0.49975788489E+01 -0.95770682349E+01  0.11075489982E+02  0.00000000000E+00 0.  1.
</event>
<event>
 7    1  0.3766050E-009  0.4614232E+02  0.7816164E-02  0.1320468E+00
        -11   -1    0    0    0    0  0.00000000000E+00  0.00000000000E+00  0.45593999997E+02  0.45594000000E+02  0.51100000000E-03 0. -1.
         11   -1    0    0    0    0 -0.00000000000E+00 -0.00000000000E+00 -0.45593999997E+02  0.45594000000E+02  0.51100000000E-03 0.  1.
    9900012    2    1    2    0    0 -0.82113670443E+01 -0.21687890365E+02  0.38617642642E+02  0.46142318071E+02  0.10000002827E+02 0.  0.
        -12    1    1    2    0    0  0.82113670443E+01  0.21687890365E+02 -0.38617642642E+02  0.45045681929E+02  0.00000000000E+00 0.  1.
         11    1    3    3    0    0 -0.28904385992E+01 -0.98222288384E+01  0.24322964508E+02  0.26390100746E+02  0.51100000000E-03 0.  1.
        -11    1    3    3    0    0 -0.74200370231E+00 -0.20858618573E+01  0.51354122495E+01  0.55923026040E+01  0.51100000000E-03 0. -1.
         12    1    3    3    0    0 -0.45789247428E+01 -0.97797996696E+01  0.91592658838E+01  0.14159914721E+02  0.00000000000E+00 0. -1.
</event>
<event>
 7    1  0.3766050E-009  0.4614232E+02  0.7816164E-02  0.1320468E+00
        -11   -1    0    0    0    0  0.00000000000E+00  0.00000000000E+00  0.45593999997E+02  0.45594000000E+02  0.51100000000E-03 0. -1.
         11   -1    0    0    0    0 -0.00000000000E+00 -0.00000000000E+00 -0.45593999997E+02  0.45594000000E+02  0.51100000000E-03 0.  1.
    9900012    2    1    2    0    0  0.15937288671E+02  0.27304086043E+02 -0.32087429470E+02  0.46142318577E+02  0.10000007443E+02 0.  0.
         12    1    1    2    0    0 -0.15937288671E+02 -0.27304086043E+02  0.32087429470E+02  0.45045681423E+02  0.00000000000E+00 0. -1.
         11    1    3    3    0    0  0.39356945167E+01  0.51155454576E+01 -0.17516992259E+01  0.66878208033E+01  0.51100000000E-03 0. -1.
        -11    1    3    3    0    0  0.65006942355E+01  0.11897333027E+02 -0.16407578284E+02  0.21284129865E+02  0.51100000000E-03 0.  1.
         12    1    3    3    0    0  0.55008999185E+01  0.10291207558E+02 -0.13928151961E+02  0.18170367909E+02  0.00000000000E+00 0. -1.
</event>
<event>
 7    1  0.3766050E-009  0.4614232E+02  0.7816164E-02  0.1320468E+00
        -11   -1    0    0    0    0  0.00000000000E+00  0.00000000000E+00  0.45593999997E+02  0.45594000000E+02  0.51100000000E-03 0. -1.
         11   -1    0    0    0    0 -0.00000000000E+00 -0.00000000000E+00 -0.45593999997E+02  0.45594000000E+02  0.51100000000E-03 0.  1.
    9900012    2    1    2    0    0 -0.23678481047E+02  0.26969942799E+02  0.27222513587E+02  0.46142317352E+02  0.99999962655E+01 0.  0.
        -12    1    1    2    0    0  0.23678481047E+02 -0.26969942799E+02 -0.27222513587E+02  0.45045682648E+02  0.00000000000E+00 0.  1.
         11    1    3    3    0    0 -0.38991100165E+01  0.51180149360E+01  0.71535167192E+01  0.96213272223E+01  0.51100000000E-03 0. -1.
        -11    1    3    3    0    0 -0.94446068168E+01  0.54679645143E+01  0.51321505727E+01  0.12059776267E+02  0.51100000000E-03 0.  1.
        -12    1    3    3    0    0 -0.10334764214E+02  0.16383963349E+02  0.14936846295E+02  0.24461213862E+02  0.00000000000E+00 0.  1.
</event>
<event>
 7    1  0.3797022E-009  0.4614232E+02  0.7816164E-02  0.1320468E+00
        -11   -1    0    0    0    0  0.00000000000E+00  0.00000000000E+00  0.45593999997E+02  0.45594000000E+02  0.51100000000E-03 0. -1.
         11   -1    0    0    0    0 -0.00000000000E+00 -0.00000000000E+00 -0.45593999997E+02  0.45594000000E+02  0.51100000000E-03 0.  1.
    9900012    2    1    2    0    0  0.33291830048E+01  0.18117307348E+02 -0.41107093826E+02  0.46142318211E+02  0.10000004104E+02 0.  0.
         12    1    1    2    0    0 -0.33291830048E+01 -0.18117307348E+02  0.41107093826E+02  0.45045681789E+02  0.00000000000E+00 0. -1.
         11    1    3    3    0    0  0.22707205675E+01  0.10675213345E+01 -0.79346940564E+01  0.83219675393E+01  0.51100000000E-03 0.  1.
        -11    1    3    3    0    0  0.35736999317E+01  0.12024205418E+02 -0.23108874641E+02  0.26293971450E+02  0.51100000000E-03 0. -1.
         12    1    3    3    0    0 -0.25152374943E+01  0.50255805948E+01 -0.10063525128E+02  0.11526379222E+02  0.00000000000E+00 0. -1.
</event>
<event>
 7    1  0.3766050E-009  0.4614232E+02  0.7816164E-02  0.1320468E+00
        -11   -1    0    0    0    0  0.00000000000E+00  0.00000000000E+00  0.45593999997E+02  0.45594000000E+02  0.51100000000E-03 0.  1.
         11   -1    0    0    0    0 -0.00000000000E+00 -0.00000000000E+00 -0.45593999997E+02  0.45594000000E+02  0.51100000000E-03 0. -1.
    9900012    2    1    2    0    0  0.38567301187E+02 -0.23267419795E+02 -0.55127363243E+00  0.46142318216E+02  0.10000004146E+02 0.  0.
         12    1    1    2    0    0 -0.38567301187E+02  0.23267419795E+02  0.55127363243E+00  0.45045681784E+02  0.00000000000E+00 0. -1.
         11    1    3    3    0    0  0.15216225938E+01 -0.24021933917E+00 -0.80044006268E+00  0.17360141716E+01  0.51100000000E-03 0. -1.
        -11    1    3    3    0    0  0.30451341468E+02 -0.17740442202E+02  0.33557428691E+01  0.35401532413E+02  0.51100000000E-03 0.  1.
        -12    1    3    3    0    0  0.65943371249E+01 -0.52867582537E+01 -0.31065764388E+01  0.90047716307E+01  0.00000000000E+00 0.  1.
</event>
<event>
 7    1  0.3766050E-009  0.4614232E+02  0.7816164E-02  0.1320468E+00
        -11   -1    0    0    0    0  0.00000000000E+00  0.00000000000E+00  0.45593999997E+02  0.45594000000E+02  0.51100000000E-03 0. -1.
         11   -1    0    0    0    0 -0.00000000000E+00 -0.00000000000E+00 -0.45593999997E+02  0.45594000000E+02  0.51100000000E-03 0.  1.
    9900012    2    1    2    0    0 -0.52952270304E+01  0.36724763888E+02  0.25541451311E+02  0.46142318220E+02  0.10000004186E+02 0.  0.
        -12    1    1    2    0    0  0.52952270304E+01 -0.36724763888E+02 -0.25541451311E+02  0.45045681780E+02  0.00000000000E+00 0.  1.
         11    1    3    3    0    0 -0.74763741648E+01  0.18312693516E+02  0.13199164792E+02  0.23779589272E+02  0.51100000000E-03 0. -1.
        -11    1    3    3    0    0  0.14193363876E+01  0.14440722787E+02  0.86880137310E+01  0.16912438418E+02  0.51100000000E-03 0.  1.
        -12    1    3    3    0    0  0.76181074678E+00  0.39713475845E+01  0.36542727886E+01  0.54502905303E+01  0.00000000000E+00 0.  1.
</event>
<event>
 7    1  0.3766050E-009  0.4614232E+02  0.7816164E-02  0.1320468E+00
        -11   -1    0    0    0    0  0.00000000000E+00  0.00000000000E+00  0.45593999997E+02  0.45594000000E+02  0.51100000000E-03 0. -1.
         11   -1    0    0    0    0 -0.00000000000E+00 -0.00000000000E+00 -0.45593999997E+02  0.45594000000E+02  0.51100000000E-03 0.  1.
    9900012    2    1    2    0    0  0.14527514091E+02 -0.27137016628E+02  0.32888406977E+02  0.46142315960E+02  0.99999835770E+01 0.  0.
        -12    1    1    2    0    0 -0.14527514091E+02  0.27137016628E+02 -0.32888406977E+02  0.45045684040E+02  0.00000000000E+00 0.  1.
         11    1    3    3    0    0  0.75633700265E+01 -0.11076343092E+02  0.15994171110E+02  0.20873510778E+02  0.51100000000E-03 0. -1.
        -11    1    3    3    0    0  0.46722858009E+01 -0.31355339079E+01  0.43534089175E+01  0.71143514783E+01  0.51100000000E-03 0.  1.
         12    1    3    3    0    0  0.22918582641E+01 -0.12925139627E+02  0.12540826950E+02  0.18154453704E+02  0.00000000000E+00 0. -1.
</event>
<event>
 7    1  0.3766050E-009  0.4614232E+02  0.7816164E-02  0.1320468E+00
        -11   -1    0    0    0    0  0.00000000000E+00  0.00000000000E+00  0.45593999997E+02  0.45594000000E+02  0.51100000000E-03 0. -1.
         11   -1    0    0    0    0 -0.00000000000E+00 -0.00000000000E+00 -0.45593999997E+02  0.45594000000E+02  0.51100000000E-03 0.  1.
    9900012    2    1    2    0    0 -0.24615541291E+02 -0.10398712080E+02 -0.36263693415E+02  0.46142317120E+02  0.99999941579E+01 0.  0.
         12    1    1    2    0    0  0.24615541291E+02  0.10398712080E+02  0.36263693415E+02  0.45045682880E+02  0.00000000000E+00 0. -1.
         11    1    3    3    0    0  0.63454500207E-01 -0.26666538300E-01 -0.21877536793E-01  0.72225103659E-01  0.51100000000E-03 0. -1.
        -11    1    3    3    0    0 -0.12824045381E+02 -0.82129637741E+01 -0.13581231608E+02  0.20404871138E+02  0.51100000000E-03 0.  1.
        -12    1    3    3    0    0 -0.11854950410E+02 -0.21590817677E+01 -0.22660584270E+02  0.25665220879E+02  0.00000000000E+00 0.  1.
</event>
<event>
 7    1  0.3766050E-009  0.4614232E+02  0.7816164E-02  0.1320468E+00
        -11   -1    0    0    0    0  0.00000000000E+00  0.00000000000E+00  0.45593999997E+02  0.45594000000E+02  0.51100000000E-03 0. -1.
         11   -1    0    0    0    0 -0.00000000000E+00 -0.00000000000E+00 -0.45593999997E+02  0.45594000000E+02  0.51100000000E-03 0.  1.
    9900012    2    1    2    0    0  0.36752915160E+02 -0.12851415975E+02 -0.22653430661E+02  0.46142316677E+02  0.99999901173E+01 0.  0.
         12    1    1    2    0    0 -0.36752915160E+02  0.12851415975E+02  0.22653430661E+02  0.45045683323E+02  0.00000000000E+00 0. -1.
         11    1    3    3    0    0  0.39921597855E+01 -0.19084548951E+01 -0.12171015280E+01  0.45892130295E+01  0.51100000000E-03 0. -1.
        -11    1    3    3    0    0  0.20294512852E+02 -0.92258819164E+01 -0.17582095202E+02  0.28392150693E+02  0.51100000000E-03 0.  1.
        -12    1    3    3    0    0  0.12466242522E+02 -0.17170791632E+01 -0.38542339307E+01  0.13160952954E+02  0.00000000000E+00 0.  1.
</event>
<event>
 7    1  0.3766050E-009  0.4614232E+02  0.7816164E-02  0.1320468E+00
        -11   -1    0    0    0    0  0.00000000000E+00  0.00000000000E+00  0.45593999997E+02  0.45594000000E+02  0.51100000000E-03 0. -1.
         11   -1    0    0    0    0 -0.00000000000E+00 -0.00000000000E+00 -0.45593999997E+02  0.45594000000E+02  0.51100000000E-03 0.  1.
    9900012    2    1    2    0    0  0.28774013196E+02  0.19179878879E+02  0.28866969401E+02  0.46142317503E+02  0.99999976483E+01 0.  0.
        -12    1    1    2    0    0 -0.28774013196E+02 -0.19179878879E+02 -0.28866969401E+02  0.45045682497E+02  0.00000000000E+00 0.  1.
         11    1    3    3    0    0  0.12528989492E+02  0.58303989970E+01  0.12705268792E+02  0.18772133216E+02  0.51100000000E-03 0. -1.
        -11    1    3    3    0    0  0.15361118503E+02  0.14155319485E+02  0.15161709005E+02  0.25811130382E+02  0.51100000000E-03 0.  1.
        -12    1    3    3    0    0  0.88390520045E+00 -0.80583960306E+00  0.99999160467E+00  0.15590539050E+01  0.00000000000E+00 0.  1.
</event>
<event>
 7    1  0.3766050E-009  0.4614232E+02  0.7816164E-02  0.1320468E+00
        -11   -1    0    0    0    0  0.00000000000E+00  0.00000000000E+00  0.45593999997E+02  0.45594000000E+02  0.51100000000E-03 0. -1.
         11   -1    0    0    0    0 -0.00000000000E+00 -0.00000000000E+00 -0.45593999997E+02  0.45594000000E+02  0.51100000000E-03 0.  1.
    9900012    2    1    2    0    0 -0.37598813854E+02 -0.67175806422E+01  0.23881306705E+02  0.46142317601E+02  0.99999985359E+01 0.  0.
        -12    1    1    2    0    0  0.37598813854E+02  0.67175806422E+01 -0.23881306705E+02  0.45045682399E+02  0.00000000000E+00 0.  1.
         11    1    3    3    0    0 -0.32680330133E+01  0.61779730693E+00  0.36358627203E-01  0.33261141742E+01  0.51100000000E-03 0. -1.
        -11    1    3    3    0    0 -0.52976262783E+00 -0.37809533464E-01  0.16328314782E+01  0.17170372447E+01  0.51100000000E-03 0.  1.
         12    1    3    3    0    0 -0.33801018212E+02 -0.72975684157E+01  0.22212116600E+02  0.41099166182E+02  0.00000000000E+00 0. -1.
</event>
<event>
 7    1  0.3766050E-009  0.4614232E+02  0.7816164E-02  0.1320468E+00
        -11   -1    0    0    0    0  0.00000000000E+00  0.00000000000E+00  0.45593999997E+02  0.45594000000E+02  0.51100000000E-03 0.  1.
         11   -1    0    0    0    0 -0.00000000000E+00 -0.00000000000E+00 -0.45593999997E+02  0.45594000000E+02  0.51100000000E-03 0. -1.
    9900012    2    1    2    0    0 -0.28199356594E+02  0.34038937593E+02  0.86752705534E+01  0.46142319808E+02  0.10000018667E+02 0.  0.
        -12    1    1    2    0    0  0.28199356594E+02 -0.34038937593E+02 -0.86752705534E+01  0.45045680192E+02  0.00000000000E+00 0.  1.
         11    1    3    3    0    0 -0.18054496035E+02  0.19076789846E+02  0.14566852648E+01  0.26306095684E+02  0.51100000000E-03 0. -1.
        -11    1    3    3    0    0 -0.14277081609E+01  0.39146861125E+01  0.36309478506E+00  0.41826972202E+01  0.51100000000E-03 0.  1.
         12    1    3    3    0    0 -0.87171523982E+01  0.11047461634E+02  0.68554905036E+01  0.15653526904E+02  0.00000000000E+00 0. -1.
</event>
<event>
 7    1  0.3766050E-009  0.4614232E+02  0.7816164E-02  0.1320468E+00
        -11   -1    0    0    0    0  0.00000000000E+00  0.00000000000E+00  0.45593999997E+02  0.45594000000E+02  0.51100000000E-03 0. -1.
         11   -1    0    0    0    0 -0.00000000000E+00 -0.00000000000E+00 -0.45593999997E+02  0.45594000000E+02  0.51100000000E-03 0.  1.
    9900012    2    1    2    0    0 -0.20386940000E+02 -0.87558506374E+01  0.39202310680E+02  0.46142318680E+02  0.10000008381E+02 0.  0.
        -12    1    1    2    0    0  0.20386940000E+02  0.87558506374E+01 -0.39202310680E+02  0.45045681320E+02  0.00000000000E+00 0.  1.
         11    1    3    3    0    0 -0.27521109453E+01 -0.46451351937E+00  0.35950482611E+01  0.45512920941E+01  0.51100000000E-03 0. -1.
        -11    1    3    3    0    0 -0.24373194696E+01  0.19354831873E+01  0.63624470077E+01  0.70828916095E+01  0.51100000000E-03 0.  1.
        -12    1    3    3    0    0 -0.15197509585E+02 -0.10226820305E+02  0.29244815411E+02  0.34508134977E+02  0.00000000000E+00 0.  1.
</event>
<event>
 7    1  0.3766050E-009  0.4614232E+02  0.7816164E-02  0.1320468E+00
        -11   -1    0    0    0    0  0.00000000000E+00  0.00000000000E+00  0.45593999997E+02  0.45594000000E+02  0.51100000000E-03 0. -1.
         11   -1    0    0    0    0 -0.00000000000E+00 -0.00000000000E+00 -0.45593999997E+02  0.45594000000E+02  0.51100000000E-03 0.  1.
    9900012    2    1    2    0    0  0.74968543072E+01 -0.30598256337E+02  0.32197163614E+02  0.46142318074E+02  0.10000002855E+02 0.  0.
        -12    1    1    2    0    0 -0.74968543072E+01  0.30598256337E+02 -0.32197163614E+02  0.45045681926E+02  0.00000000000E+00 0.  1.
         11    1    3    3    0    0  0.34416531175E+01 -0.15782066454E+02  0.20921342430E+02  0.26431442774E+02  0.51100000000E-03 0. -1.
        -11    1    3    3    0    0  0.16208088255E+01 -0.10801669967E+02  0.53847535735E+01  0.12177793997E+02  0.51100000000E-03 0.  1.
        -12    1    3    3    0    0  0.24343923642E+01 -0.40145199158E+01  0.58910676102E+01  0.75330813035E+01  0.00000000000E+00 0.  1.
</event>
<event>
 7    1  0.3766050E-009  0.4614232E+02  0.7816164E-02  0.1320468E+00
        -11   -1    0    0    0    0  0.00000000000E+00  0.00000000000E+00  0.45593999997E+02  0.45594000000E+02  0.51100000000E-03 0. -1.
         11   -1    0    0    0    0 -0.00000000000E+00 -0.00000000000E+00 -0.45593999997E+02  0.45594000000E+02  0.51100000000E-03 0.  1.
    9900012    2    1    2    0    0  0.20826542917E+02  0.29088591666E+02  0.27371927328E+02  0.46142318069E+02  0.10000002806E+02 0.  0.
        -12    1    1    2    0    0 -0.20826542917E+02 -0.29088591666E+02 -0.27371927328E+02  0.45045681931E+02  0.00000000000E+00 0.  1.
         11    1    3    3    0    0  0.12006405630E+02  0.16861562155E+02  0.11712611473E+02  0.23783425368E+02  0.51100000000E-03 0. -1.
        -11    1    3    3    0    0  0.54011438007E-01  0.25752199210E+00  0.25414733891E+01  0.25550581325E+01  0.51100000000E-03 0.  1.
        -12    1    3    3    0    0  0.87661258481E+01  0.11969507519E+02  0.13117842466E+02  0.19803834568E+02  0.00000000000E+00 0.  1.
</event>
<event>
 7    1  0.3766050E-009  0.4614232E+02  0.7816164E-02  0.1320468E+00
        -11   -1    0    0    0    0  0.00000000000E+00  0.00000000000E+00  0.45593999997E+02  0.45594000000E+02  0.51100000000E-03 0. -1.
         11   -1    0    0    0    0 -0.00000000000E+00 -0.00000000000E+00 -0.45593999997E+02  0.45594000000E+02  0.51100000000E-03 0.  1.
    9900012    2    1    2    0    0  0.32752705631E+02 -0.21027548342E+02  0.22676330314E+02  0.46142317944E+02  0.10000001664E+02 0.  0.
        -12    1    1    2    0    0 -0.32752705631E+02  0.21027548342E+02 -0.22676330314E+02  0.45045682056E+02  0.00000000000E+00 0.  1.
         11    1    3    3    0    0  0.23344548619E+02 -0.13162254819E+02  0.16447410251E+02  0.31444080626E+02  0.51100000000E-03 0. -1.
        -11    1    3    3    0    0  0.78377968443E+01 -0.85003071174E+01  0.49574757779E+01  0.12580256230E+02  0.51100000000E-03 0.  1.
        -12    1    3    3    0    0  0.15703601670E+01  0.63501359408E+00  0.12714442852E+01  0.21179810880E+01  0.00000000000E+00 0.  1.
</event>
<event>
 7    1  0.3766050E-009  0.4614232E+02  0.7816164E-02  0.1320468E+00
        -11   -1    0    0    0    0  0.00000000000E+00  0.00000000000E+00  0.45593999997E+02  0.45594000000E+02  0.51100000000E-03 0. -1.
         11   -1    0    0    0    0 -0.00000000000E+00 -0.00000000000E+00 -0.45593999997E+02  0.45594000000E+02  0.51100000000E-03 0.  1.
    9900012    2    1    2    0    0 -0.83187286289E+01  0.80871543710E+01  0.43525970604E+02  0.46142318422E+02  0.10000006025E+02 0.  0.
        -12    1    1    2    0    0  0.83187286289E+01 -0.80871543710E+01 -0.43525970604E+02  0.45045681578E+02  0.00000000000E+00 0.  1.
         11    1    3    3    0    0  0.18051305754E+01  0.12476679024E+01  0.26220635850E+01  0.34191211289E+01  0.51100000000E-03 0.  1.
        -11    1    3    3    0    0 -0.74768465825E+01  0.43803320286E+01  0.30647076804E+02  0.31848608453E+02  0.51100000000E-03 0. -1.
        -12    1    3    3    0    0 -0.26470126218E+01  0.24591544400E+01  0.10256830215E+02  0.10874588840E+02  0.00000000000E+00 0.  1.
</event>
<event>
 7    1  0.3766050E-009  0.4614232E+02  0.7816164E-02  0.1320468E+00
        -11   -1    0    0    0    0  0.00000000000E+00  0.00000000000E+00  0.45593999997E+02  0.45594000000E+02  0.51100000000E-03 0. -1.
         11   -1    0    0    0    0 -0.00000000000E+00 -0.00000000000E+00 -0.45593999997E+02  0.45594000000E+02  0.51100000000E-03 0.  1.
    9900012    2    1    2    0    0 -0.28588912850E+02 -0.20863248636E+02  0.27865972877E+02  0.46142317344E+02  0.99999961922E+01 0.  0.
        -12    1    1    2    0    0  0.28588912850E+02  0.20863248636E+02 -0.27865972877E+02  0.45045682656E+02  0.00000000000E+00 0.  1.
         11    1    3    3    0    0 -0.14339032593E+02 -0.68350370283E+01  0.84242382516E+01  0.17980360877E+02  0.51100000000E-03 0. -1.
        -11    1    3    3    0    0 -0.11424086902E+02 -0.92020115012E+01  0.15350517594E+02  0.21232643921E+02  0.51100000000E-03 0.  1.
         12    1    3    3    0    0 -0.28257933547E+01 -0.48262001066E+01  0.40912170315E+01  0.69293125454E+01  0.00000000000E+00 0. -1.
</event>
<event>
 7    1  0.3766050E-009  0.4614232E+02  0.7816164E-02  0.1320468E+00
        -11   -1    0    0    0    0  0.00000000000E+00  0.00000000000E+00  0.45593999997E+02  0.45594000000E+02  0.51100000000E-03 0.  1.
         11   -1    0    0    0    0 -0.00000000000E+00 -0.00000000000E+00 -0.45593999997E+02  0.45594000000E+02  0.51100000000E-03 0. -1.
    9900012    2    1    2    0    0  0.31367937068E+02 -0.28099895714E+02  0.15986303711E+02  0.46142317395E+02  0.99999966647E+01 0.  0.
        -12    1    1    2    0    0 -0.31367937068E+02  0.28099895714E+02 -0.15986303711E+02  0.45045682605E+02  0.00000000000E+00 0.  1.
         11    1    3    3    0    0  0.19805411981E+01 -0.55618961692E+01  0.31188172598E+01  0.66771441347E+01  0.51100000000E-03 0. -1.
        -11    1    3    3    0    0  0.11365978700E+02 -0.10584969214E+02  0.71422815526E+01  0.17095006028E+02  0.51100000000E-03 0.  1.
        -12    1    3    3    0    0  0.18021417170E+02 -0.11953030330E+02  0.57252048984E+01  0.22370167233E+02  0.00000000000E+00 0.  1.
</event>
<event>
 7    1  0.4031767E-009  0.4614232E+02  0.7816164E-02  0.1320468E+00
        -11   -1    0    0    0    0  0.00000000000E+00  0.00000000000E+00  0.45593999997E+02  0.45594000000E+02  0.51100000000E-03 0. -1.
         11   -1    0    0    0    0 -0.00000000000E+00 -0.00000000000E+00 -0.45593999997E+02  0.45594000000E+02  0.51100000000E-03 0.  1.
    9900012    2    1    2    0    0  0.14778189758E+02  0.24277025472E+02 -0.34947739619E+02  0.46142319155E+02  0.10000012715E+02 0.  0.
         12    1    1    2    0    0 -0.14778189758E+02 -0.24277025472E+02  0.34947739619E+02  0.45045680845E+02  0.00000000000E+00 0. -1.
         11    1    3    3    0    0  0.27415848426E+00 -0.88077089607E+00 -0.43142148172E+00  0.10183540651E+01  0.51100000000E-03 0. -1.
        -11    1    3    3    0    0  0.10400412260E+02  0.16897263696E+02 -0.23636633341E+02  0.30860598366E+02  0.51100000000E-03 0.  1.
         12    1    3    3    0    0  0.41036190143E+01  0.82605326721E+01 -0.10879684796E+02  0.14263366724E+02  0.00000000000E+00 0. -1.
</event>
<event>
 7    1  0.4428638E-009  0.4614233E+02  0.7816164E-02  0.1320468E+00
        -11   -1    0    0    0    0  0.00000000000E+00  0.00000000000E+00  0.45593999997E+02  0.45594000000E+02  0.51100000000E-03 0. -1.
         11   -1    0    0    0    0 -0.00000000000E+00 -0.00000000000E+00 -0.45593999997E+02  0.45594000000E+02  0.51100000000E-03 0.  1.
    9900012    2    1    2    0    0 -0.71231894500E+01  0.15899660638E+02  0.41540024311E+02  0.46142326999E+02  0.10000084241E+02 0.  0.
        -12    1    1    2    0    0  0.71231894500E+01 -0.15899660638E+02 -0.41540024311E+02  0.45045673001E+02  0.00000000000E+00 0.  1.
         11    1    3    3    0    0 -0.59373031269E+01  0.45122889051E+01  0.20000350035E+02  0.21345405158E+02  0.51100000000E-03 0. -1.
        -11    1    3    3    0    0 -0.73251843281E+00  0.41859677102E+01  0.40209523518E+01  0.58503817826E+01  0.51100000000E-03 0.  1.
         12    1    3    3    0    0 -0.45336789023E+00  0.72014040225E+01  0.17518721924E+02  0.18946540059E+02  0.00000000000E+00 0. -1.
</event>
<event>
 7    1  0.3766050E-009  0.4614232E+02  0.7816164E-02  0.1320468E+00
        -11   -1    0    0    0    0  0.00000000000E+00  0.00000000000E+00  0.45593999997E+02  0.45594000000E+02  0.51100000000E-03 0. -1.
         11   -1    0    0    0    0 -0.00000000000E+00 -0.00000000000E+00 -0.45593999997E+02  0.45594000000E+02  0.51100000000E-03 0.  1.
    9900012    2    1    2    0    0 -0.20110206854E+02 -0.24401821016E+02 -0.32081836617E+02  0.46142317306E+02  0.99999958507E+01 0.  0.
         12    1    1    2    0    0  0.20110206854E+02  0.24401821016E+02  0.32081836617E+02  0.45045682694E+02  0.00000000000E+00 0. -1.
         11    1    3    3    0    0 -0.43848805688E+01 -0.43844282878E+01 -0.37921482761E+01  0.72684783706E+01  0.51100000000E-03 0. -1.
        -11    1    3    3    0    0 -0.86970894878E+01 -0.50865220698E+01 -0.12246369657E+02  0.15858298848E+02  0.51100000000E-03 0.  1.
        -12    1    3    3    0    0 -0.70282367978E+01 -0.14930870659E+02 -0.16043318684E+02  0.23015540087E+02  0.00000000000E+00 0.  1.
</event>
<event>
 7    1  0.3766050E-009  0.4614232E+02  0.7816164E-02  0.1320468E+00
        -11   -1    0    0    0    0  0.00000000000E+00  0.00000000000E+00  0.45593999997E+02  0.45594000000E+02  0.51100000000E-03 0. -1.
         11   -1    0    0    0    0 -0.00000000000E+00 -0.00000000000E+00 -0.45593999997E+02  0.45594000000E+02  0.51100000000E-03 0.  1.
    9900012    2    1    2    0    0  0.34351428050E+02 -0.15400110601E+02 -0.24737204786E+02  0.46142319672E+02  0.10000017428E+02 0.  0.
         12    1    1    2    0    0 -0.34351428050E+02  0.15400110601E+02  0.24737204786E+02  0.45045680328E+02  0.00000000000E+00 0. -1.
         11    1    3    3    0    0  0.10238144678E+02 -0.18242691732E+01 -0.74086463121E+01  0.12768539655E+02  0.51100000000E-03 0. -1.
        -11    1    3    3    0    0  0.19659669166E+02 -0.86275380300E+01 -0.10734344642E+02  0.24003398912E+02  0.51100000000E-03 0.  1.
        -12    1    3    3    0    0  0.44536142050E+01 -0.49483033980E+01 -0.65942138318E+01  0.93703811057E+01  0.00000000000E+00 0.  1.
</event>
<event>
 7    1  0.3766050E-009  0.4614233E+02  0.7816164E-02  0.1320468E+00
        -11   -1    0    0    0    0  0.00000000000E+00  0.00000000000E+00  0.45593999997E+02  0.45594000000E+02  0.51100000000E-03 0. -1.
         11   -1    0    0    0    0 -0.00000000000E+00 -0.00000000000E+00 -0.45593999997E+02  0.45594000000E+02  0.51100000000E-03 0.  1.
    9900012    2    1    2    0    0  0.96150588843E+01  0.26406676606E+02  0.35204413341E+02  0.46142327118E+02  0.10000085323E+02 0.  0.
        -12    1    1    2    0    0 -0.96150588843E+01 -0.26406676606E+02 -0.35204413341E+02  0.45045672882E+02  0.00000000000E+00 0.  1.
         11    1    3    3    0    0  0.10595639741E+01  0.19685450177E+00  0.37917999020E+01  0.39419759345E+01  0.51100000000E-03 0. -1.
        -11    1    3    3    0    0  0.46349193943E+01  0.65906789519E+01  0.73429618693E+01  0.10901312587E+02  0.51100000000E-03 0.  1.
         12    1    3    3    0    0  0.39205755159E+01  0.19619143152E+02  0.24069651570E+02  0.31299038597E+02  0.00000000000E+00 0. -1.
</event>
<event>
 7    1  0.3766050E-009  0.4614232E+02  0.7816164E-02  0.1320468E+00
        -11   -1    0    0    0    0  0.00000000000E+00  0.00000000000E+00  0.45593999997E+02  0.45594000000E+02  0.51100000000E-03 0. -1.
         11   -1    0    0    0    0 -0.00000000000E+00 -0.00000000000E+00 -0.45593999997E+02  0.45594000000E+02  0.51100000000E-03 0.  1.
    9900012    2    1    2    0    0 -0.59440585219E+00  0.29882875606E+01  0.44942519429E+02  0.46142320590E+02  0.10000025800E+02 0.  0.
        -12    1    1    2    0    0  0.59440585219E+00 -0.29882875606E+01 -0.44942519429E+02  0.45045679410E+02  0.00000000000E+00 0.  1.
         11    1    3    3    0    0 -0.19745989966E+01 -0.22157397359E+01  0.26624399074E+02  0.26789310743E+02  0.51100000000E-03 0. -1.
        -11    1    3    3    0    0  0.21607463165E+01  0.49636439152E+01  0.16318655186E+02  0.17193169950E+02  0.51100000000E-03 0.  1.
         12    1    3    3    0    0 -0.78055317210E+00  0.24038338124E+00  0.19994651689E+01  0.21598398983E+01  0.00000000000E+00 0. -1.
</event>
<event>
 7    1  0.3766050E-009  0.4614232E+02  0.7816164E-02  0.1320468E+00
        -11   -1    0    0    0    0  0.00000000000E+00  0.00000000000E+00  0.45593999997E+02  0.45594000000E+02  0.51100000000E-03 0. -1.
         11   -1    0    0    0    0 -0.00000000000E+00 -0.00000000000E+00 -0.45593999997E+02  0.45594000000E+02  0.51100000000E-03 0.  1.
    9900012    2    1    2    0    0 -0.15951028486E+02 -0.28718137430E+02 -0.30821204984E+02  0.46142318699E+02  0.10000008550E+02 0.  0.
         12    1    1    2    0    0  0.15951028486E+02  0.28718137430E+02  0.30821204984E+02  0.45045681301E+02  0.00000000000E+00 0. -1.
         11    1    3    3    0    0 -0.86129153782E+00  0.73189393463E+00 -0.82974817304E+00  0.14021319968E+01  0.51100000000E-03 0. -1.
        -11    1    3    3    0    0 -0.18810462905E+01 -0.58372707522E+01 -0.51133809654E+01  0.79849063952E+01  0.51100000000E-03 0.  1.
         12    1    3    3    0    0 -0.13208690657E+02 -0.23612760613E+02 -0.24878075846E+02  0.36755280307E+02  0.00000000000E+00 0. -1.
</event>
<event>
 7    1  0.3766050E-009  0.4614232E+02  0.7816164E-02  0.1320468E+00
        -11   -1    0    0    0    0  0.00000000000E+00  0.00000000000E+00  0.45593999997E+02  0.45594000000E+02  0.51100000000E-03 0. -1.
         11   -1    0    0    0    0 -0.00000000000E+00 -0.00000000000E+00 -0.45593999997E+02  0.45594000000E+02  0.51100000000E-03 0.  1.
    9900012    2    1    2    0    0 -0.21985290157E+02  0.20944962943E+02 -0.33272646445E+02  0.46142318104E+02  0.10000003130E+02 0.  0.
         12    1    1    2    0    0  0.21985290157E+02 -0.20944962943E+02  0.33272646445E+02  0.45045681896E+02  0.00000000000E+00 0. -1.
         11    1    3    3    0    0 -0.65684597262E+01  0.12624921833E+01 -0.69545693213E+01  0.96490716855E+01  0.51100000000E-03 0. -1.
        -11    1    3    3    0    0 -0.10372436011E+02  0.13871855219E+02 -0.15680464472E+02  0.23364348104E+02  0.51100000000E-03 0.  1.
        -12    1    3    3    0    0 -0.50443944205E+01  0.58106155416E+01 -0.10637612651E+02  0.13128898315E+02  0.00000000000E+00 0.  1.
</event>
<event>
 7    1  0.3766050E-009  0.4614232E+02  0.7816164E-02  0.1320468E+00
        -11   -1    0    0    0    0  0.00000000000E+00  0.00000000000E+00  0.45593999997E+02  0.45594000000E+02  0.51100000000E-03 0. -1.
         11   -1    0    0    0    0 -0.00000000000E+00 -0.00000000000E+00 -0.45593999997E+02  0.45594000000E+02  0.51100000000E-03 0.  1.
    9900012    2    1    2    0    0  0.17154365307E+02 -0.84150803321E+01  0.40792494986E+02  0.46142317929E+02  0.10000001529E+02 0.  0.
        -12    1    1    2    0    0 -0.17154365307E+02  0.84150803321E+01 -0.40792494986E+02  0.45045682071E+02  0.00000000000E+00 0.  1.
         11    1    3    3    0    0  0.55581109569E+01 -0.10709879342E+01  0.64023426654E+01  0.85457360380E+01  0.51100000000E-03 0. -1.
        -11    1    3    3    0    0  0.67204449759E+01 -0.76101908504E+00  0.18898071795E+02  0.20071887020E+02  0.51100000000E-03 0.  1.
         12    1    3    3    0    0  0.48758093740E+01 -0.65830733129E+01  0.15492080526E+02  0.17524694871E+02  0.00000000000E+00 0. -1.
</event>
<event>
 7    1  0.3766050E-009  0.4614232E+02  0.7816164E-02  0.1320468E+00
        -11   -1    0    0    0    0  0.00000000000E+00  0.00000000000E+00  0.45593999997E+02  0.45594000000E+02  0.51100000000E-03 0.  1.
         11   -1    0    0    0    0 -0.00000000000E+00 -0.00000000000E+00 -0.45593999997E+02  0.45594000000E+02  0.51100000000E-03 0. -1.
    9900012    2    1    2    0    0 -0.42037738269E+02 -0.33269358010E+01  0.15838987063E+02  0.46142318167E+02  0.10000003702E+02 0.  0.
        -12    1    1    2    0    0  0.42037738269E+02  0.33269358010E+01 -0.15838987063E+02  0.45045681833E+02  0.00000000000E+00 0.  1.
         11    1    3    3    0    0 -0.18595067987E+02 -0.16304103402E+01  0.36862462891E+01  0.19026907350E+02  0.51100000000E-03 0. -1.
        -11    1    3    3    0    0 -0.42256918566E+01 -0.12550169959E+01  0.48472917000E+01  0.65519292130E+01  0.51100000000E-03 0.  1.
         12    1    3    3    0    0 -0.19216978425E+02 -0.44150846487E+00  0.73054490738E+01  0.20563481604E+02  0.00000000000E+00 0. -1.
</event>
<event>
 7    1  0.3766050E-009  0.4614232E+02  0.7816164E-02  0.1320468E+00
        -11   -1    0    0    0    0  0.00000000000E+00  0.00000000000E+00  0.45593999997E+02  0.45594000000E+02  0.51100000000E-03 0. -1.
         11   -1    0    0    0    0 -0.00000000000E+00 -0.00000000000E+00 -0.45593999997E+02  0.45594000000E+02  0.51100000000E-03 0.  1.
    9900012    2    1    2    0    0  0.11773329039E+02 -0.39904904841E+02  0.17265596126E+02  0.46142317448E+02  0.99999971418E+01 0.  0.
        -12    1    1    2    0    0 -0.11773329039E+02  0.39904904841E+02 -0.17265596126E+02  0.45045682552E+02  0.00000000000E+00 0.  1.
         11    1    3    3    0    0  0.49855815984E+01 -0.12628804437E+02  0.84126167418E+01  0.15972314989E+02  0.51100000000E-03 0. -1.
        -11    1    3    3    0    0  0.19563283200E+00 -0.57365165656E+01 -0.53815094285E+00  0.57650239558E+01  0.51100000000E-03 0.  1.
        -12    1    3    3    0    0  0.65921146086E+01 -0.21539583838E+02  0.93911303271E+01  0.24404978503E+02  0.00000000000E+00 0.  1.
</event>
<event>
 7    1  0.3766050E-009  0.4614232E+02  0.7816164E-02  0.1320468E+00
        -11   -1    0    0    0    0  0.00000000000E+00  0.00000000000E+00  0.45593999997E+02  0.45594000000E+02  0.51100000000E-03 0. -1.
         11   -1    0    0    0    0 -0.00000000000E+00 -0.00000000000E+00 -0.45593999997E+02  0.45594000000E+02  0.51100000000E-03 0.  1.
    9900012    2    1    2    0    0 -0.12426801805E+02 -0.36651064449E+02 -0.23051842047E+02  0.46142319296E+02  0.10000013995E+02 0.  0.
         12    1    1    2    0    0  0.12426801805E+02  0.36651064449E+02  0.23051842047E+02  0.45045680704E+02  0.00000000000E+00 0. -1.
         11    1    3    3    0    0 -0.45644159433E+01 -0.70965938941E+01 -0.20593462386E+01  0.86854156488E+01  0.51100000000E-03 0. -1.
        -11    1    3    3    0    0 -0.78572025964E+01 -0.24972746279E+02 -0.19480117134E+02  0.32632018833E+02  0.51100000000E-03 0.  1.
        -12    1    3    3    0    0 -0.51832651589E-02 -0.45817242761E+01 -0.15123786747E+01  0.48248848136E+01  0.00000000000E+00 0.  1.
</event>
<event>
 7    1  0.3766050E-009  0.4614232E+02  0.7816164E-02  0.1320468E+00
        -11   -1    0    0    0    0  0.00000000000E+00  0.00000000000E+00  0.45593999997E+02  0.45594000000E+02  0.51100000000E-03 0. -1.
         11   -1    0    0    0    0 -0.00000000000E+00 -0.00000000000E+00 -0.45593999997E+02  0.45594000000E+02  0.51100000000E-03 0.  1.
    9900012    2    1    2    0    0 -0.12280765798E+02  0.21998173438E+02  0.37341354357E+02  0.46142316651E+02  0.99999898739E+01 0.  0.
        -12    1    1    2    0    0  0.12280765798E+02 -0.21998173438E+02 -0.37341354357E+02  0.45045683349E+02  0.00000000000E+00 0.  1.
         11    1    3    3    0    0 -0.32917338374E+01  0.12329288580E+02  0.18773789852E+02  0.22700265509E+02  0.51100000000E-03 0. -1.
        -11    1    3    3    0    0 -0.70947784097E+01  0.10114063966E+02  0.15734929343E+02  0.20005453563E+02  0.51100000000E-03 0.  1.
        -12    1    3    3    0    0 -0.18942535505E+01 -0.44517910695E+00  0.28326351622E+01  0.34365975780E+01  0.00000000000E+00 0.  1.
</event>
<event>
 7    1  0.3766050E-009  0.4614232E+02  0.7816164E-02  0.1320468E+00
        -11   -1    0    0    0    0  0.00000000000E+00  0.00000000000E+00  0.45593999997E+02  0.45594000000E+02  0.51100000000E-03 0. -1.
         11   -1    0    0    0    0 -0.00000000000E+00 -0.00000000000E+00 -0.45593999997E+02  0.45594000000E+02  0.51100000000E-03 0.  1.
    9900012    2    1    2    0    0  0.27137902284E+02 -0.85091304828E+01 -0.34931968065E+02  0.46142318355E+02  0.10000005418E+02 0.  0.
         12    1    1    2    0    0 -0.27137902284E+02  0.85091304828E+01  0.34931968065E+02  0.45045681645E+02  0.00000000000E+00 0. -1.
         11    1    3    3    0    0  0.19723013259E+01 -0.19642474160E+01 -0.65975699010E+01  0.71607380409E+01  0.51100000000E-03 0. -1.
        -11    1    3    3    0    0  0.22010247407E+02 -0.34687635661E+01 -0.24739821252E+02  0.33294775377E+02  0.51100000000E-03 0.  1.
         12    1    3    3    0    0  0.31553535516E+01 -0.30761195007E+01 -0.35945769118E+01  0.56868049371E+01  0.00000000000E+00 0. -1.
</event>
<event>
 7    1  0.3766050E-009  0.4614232E+02  0.7816164E-02  0.1320468E+00
        -11   -1    0    0    0    0  0.00000000000E+00  0.00000000000E+00  0.45593999997E+02  0.45594000000E+02  0.51100000000E-03 0. -1.
         11   -1    0    0    0    0 -0.00000000000E+00 -0.00000000000E+00 -0.45593999997E+02  0.45594000000E+02  0.51100000000E-03 0.  1.
    9900012    2    1    2    0    0 -0.20798796550E+02  0.16702533395E+02  0.36298056727E+02  0.46142317833E+02  0.10000000656E+02 0.  0.
        -12    1    1    2    0    0  0.20798796550E+02 -0.16702533395E+02 -0.36298056727E+02  0.45045682167E+02  0.00000000000E+00 0.  1.
         11    1    3    3    0    0 -0.93639312609E+01  0.48675658710E+01  0.13034442407E+02  0.16771198386E+02  0.51100000000E-03 0. -1.
        -11    1    3    3    0    0  0.56864923138E+00  0.25232907250E+01  0.48760025453E+01  0.55195796139E+01  0.51100000000E-03 0.  1.
        -12    1    3    3    0    0 -0.12003514521E+02  0.93116767994E+01  0.18387611774E+02  0.23851539833E+02  0.00000000000E+00 0.  1.
</event>
<event>
 7    1  0.3766050E-009  0.4614232E+02  0.7816164E-02  0.1320468E+00
        -11   -1    0    0    0    0  0.00000000000E+00  0.00000000000E+00  0.45593999997E+02  0.45594000000E+02  0.51100000000E-03 0. -1.
         11   -1    0    0    0    0 -0.00000000000E+00 -0.00000000000E+00 -0.45593999997E+02  0.45594000000E+02  0.51100000000E-03 0.  1.
    9900012    2    1    2    0    0  0.66502164699E+01  0.45765213292E+01 -0.44316403025E+02  0.46142317592E+02  0.99999984543E+01 0.  0.
         12    1    1    2    0    0 -0.66502164699E+01 -0.45765213292E+01  0.44316403025E+02  0.45045682408E+02  0.00000000000E+00 0. -1.
         11    1    3    3    0    0  0.15302727989E+01  0.13976454654E+01 -0.96348945085E+00  0.22854889781E+01  0.51100000000E-03 0. -1.
        -11    1    3    3    0    0  0.11064901366E+01 -0.46976244206E+00 -0.73635782727E+01  0.74610510261E+01  0.51100000000E-03 0.  1.
         12    1    3    3    0    0  0.40134535343E+01  0.36486383059E+01 -0.35989335301E+02  0.36395777587E+02  0.00000000000E+00 0. -1.
</event>
<event>
 7    1  0.3766050E-009  0.4614232E+02  0.7816164E-02  0.1320468E+00
        -11   -1    0    0    0    0  0.00000000000E+00  0.00000000000E+00  0.45593999997E+02  0.45594000000E+02  0.51100000000E-03 0. -1.
         11   -1    0    0    0    0 -0.00000000000E+00 -0.00000000000E+00 -0.45593999997E+02  0.45594000000E+02  0.51100000000E-03 0.  1.
    9900012    2    1    2    0    0  0.22334936954E+02  0.14643185623E+02  0.36274527652E+02  0.46142315964E+02  0.99999836088E+01 0.  0.
        -12    1    1    2    0    0 -0.22334936954E+02 -0.14643185623E+02 -0.36274527652E+02  0.45045684036E+02  0.00000000000E+00 0.  1.
         11    1    3    3    0    0  0.15312814693E+01  0.44818568549E+01  0.67601119985E+01  0.82541491566E+01  0.51100000000E-03 0. -1.
        -11    1    3    3    0    0  0.39944074453E+01 -0.12109095435E+00  0.60008402829E+01  0.72097183177E+01  0.51100000000E-03 0.  1.
         12    1    3    3    0    0  0.16809248039E+02  0.10282419723E+02  0.23513575371E+02  0.30678448489E+02  0.00000000000E+00 0. -1.
</event>
<event>
 7    1  0.3766050E-009  0.4614232E+02  0.7816164E-02  0.1320468E+00
        -11   -1    0    0    0    0  0.00000000000E+00  0.00000000000E+00  0.45593999997E+02  0.45594000000E+02  0.51100000000E-03 0. -1.
         11   -1    0    0    0    0 -0.00000000000E+00 -0.00000000000E+00 -0.45593999997E+02  0.45594000000E+02  0.51100000000E-03 0.  1.
    9900012    2    1    2    0    0 -0.24745926667E+02 -0.28149246199E+02 -0.24987449711E+02  0.46142316619E+02  0.99999895897E+01 0.  0.
         12    1    1    2    0    0  0.24745926667E+02  0.28149246199E+02  0.24987449711E+02  0.45045683381E+02  0.00000000000E+00 0. -1.
         11    1    3    3    0    0 -0.26046386579E+00 -0.83604433831E-01 -0.61409426169E+00  0.67226717167E+00  0.51100000000E-03 0. -1.
        -11    1    3    3    0    0 -0.17954490979E+01 -0.60158523293E+01 -0.68919509416E+01  0.93227198153E+01  0.51100000000E-03 0.  1.
        -12    1    3    3    0    0 -0.22690013703E+02 -0.22049789435E+02 -0.17481404508E+02  0.36147329633E+02  0.00000000000E+00 0.  1.
</event>
<event>
 7    1  0.3766050E-009  0.4614232E+02  0.7816164E-02  0.1320468E+00
        -11   -1    0    0    0    0  0.00000000000E+00  0.00000000000E+00  0.45593999997E+02  0.45594000000E+02  0.51100000000E-03 0. -1.
         11   -1    0    0    0    0 -0.00000000000E+00 -0.00000000000E+00 -0.45593999997E+02  0.45594000000E+02  0.51100000000E-03 0.  1.
    9900012    2    1    2    0    0  0.26896781128E+02  0.14600147031E+02  0.33053173719E+02  0.46142318506E+02  0.10000006792E+02 0.  0.
        -12    1    1    2    0    0 -0.26896781128E+02 -0.14600147031E+02 -0.33053173719E+02  0.45045681494E+02  0.00000000000E+00 0.  1.
         11    1    3    3    0    0  0.65800977529E+01  0.62891078473E+01  0.10311452182E+02  0.13754148840E+02  0.51100000000E-03 0. -1.
        -11    1    3    3    0    0  0.18691315806E+02  0.53702546063E+01  0.20931380462E+02  0.28571447451E+02  0.51100000000E-03 0.  1.
        -12    1    3    3    0    0  0.16253675683E+01  0.29407845770E+01  0.18103410759E+01  0.38167222156E+01  0.00000000000E+00 0.  1.
</event>
<event>
 7    1  0.3766050E-009  0.4614232E+02  0.7816164E-02  0.1320468E+00
        -11   -1    0    0    0    0  0.00000000000E+00  0.00000000000E+00  0.45593999997E+02  0.45594000000E+02  0.51100000000E-03 0. -1.
         11   -1    0    0    0    0 -0.00000000000E+00 -0.00000000000E+00 -0.45593999997E+02  0.45594000000E+02  0.51100000000E-03 0.  1.
    9900012    2    1    2    0    0  0.25261510168E+02 -0.28276035359E+02 -0.24319446440E+02  0.46142317113E+02  0.99999940872E+01 0.  0.
         12    1    1    2    0    0 -0.25261510168E+02  0.28276035359E+02  0.24319446440E+02  0.45045682887E+02  0.00000000000E+00 0. -1.
         11    1    3    3    0    0  0.11990434055E+01 -0.25744725549E+01 -0.27663136765E+01  0.39646066188E+01  0.51100000000E-03 0. -1.
        -11    1    3    3    0    0  0.12659000932E+02 -0.19136340739E+02 -0.15531618726E+02  0.27707057259E+02  0.51100000000E-03 0.  1.
        -12    1    3    3    0    0  0.11403465831E+02 -0.65652220661E+01 -0.60215140382E+01  0.14470653235E+02  0.00000000000E+00 0.  1.
</event>
<event>
 7    1  0.3766050E-009  0.4614232E+02  0.7816164E-02  0.1320468E+00
        -11   -1    0    0    0    0  0.00000000000E+00  0.00000000000E+00  0.45593999997E+02  0.45594000000E+02  0.51100000000E-03 0.  1.
         11   -1    0    0    0    0 -0.00000000000E+00 -0.00000000000E+00 -0.45593999997E+02  0.45594000000E+02  0.51100000000E-03 0. -1.
    9900012    2    1    2    0    0  0.37635148179E+02  0.48701191568E+01  0.24269137861E+02  0.46142317726E+02  0.99999996802E+01 0.  0.
        -12    1    1    2    0    0 -0.37635148179E+02 -0.48701191568E+01 -0.24269137861E+02  0.45045682274E+02  0.00000000000E+00 0.  1.
         11    1    3    3    0    0  0.10791281563E+02  0.37020691094E+01  0.96608159225E+01  0.14949529692E+02  0.51100000000E-03 0. -1.
        -11    1    3    3    0    0  0.76708869798E+01 -0.12432378393E+01  0.17022747419E+01  0.79552427329E+01  0.51100000000E-03 0.  1.
         12    1    3    3    0    0  0.19172979636E+02  0.24112878867E+01  0.12906047196E+02  0.23237545301E+02  0.00000000000E+00 0. -1.
</event>
<event>
 7    1  0.3766050E-009  0.4614232E+02  0.7816164E-02  0.1320468E+00
        -11   -1    0    0    0    0  0.00000000000E+00  0.00000000000E+00  0.45593999997E+02  0.45594000000E+02  0.51100000000E-03 0. -1.
         11   -1    0    0    0    0 -0.00000000000E+00 -0.00000000000E+00 -0.45593999997E+02  0.45594000000E+02  0.51100000000E-03 0.  1.
    9900012    2    1    2    0    0 -0.22057611795E+02  0.14003536332E+02 -0.36694361988E+02  0.46142317969E+02  0.10000001897E+02 0.  0.
         12    1    1    2    0    0  0.22057611795E+02 -0.14003536332E+02  0.36694361988E+02  0.45045682031E+02  0.00000000000E+00 0. -1.
         11    1    3    3    0    0 -0.89693068561E+00  0.21551132265E+00 -0.62913391359E+01  0.63586066217E+01  0.51100000000E-03 0. -1.
        -11    1    3    3    0    0 -0.12040275169E+02  0.55601626182E+01 -0.13908096954E+02  0.19217668839E+02  0.51100000000E-03 0.  1.
        -12    1    3    3    0    0 -0.91204059407E+01  0.82278623909E+01 -0.16494925898E+02  0.20566042508E+02  0.00000000000E+00 0.  1.
</event>
<event>
 7    1  0.3766050E-009  0.4614232E+02  0.7816164E-02  0.1320468E+00
        -11   -1    0    0    0    0  0.00000000000E+00  0.00000000000E+00  0.45593999997E+02  0.45594000000E+02  0.51100000000E-03 0. -1.
         11   -1    0    0    0    0 -0.00000000000E+00 -0.00000000000E+00 -0.45593999997E+02  0.45594000000E+02  0.51100000000E-03 0.  1.
    9900012    2    1    2    0    0 -0.33537661077E+02 -0.15321355834E+01 -0.30033169475E+02  0.46142318535E+02  0.10000007059E+02 0.  0.
         12    1    1    2    0    0  0.33537661077E+02  0.15321355834E+01  0.30033169475E+02  0.45045681465E+02  0.00000000000E+00 0. -1.
         11    1    3    3    0    0 -0.11423092156E+02 -0.38292891500E+01 -0.76654286422E+01  0.14279680890E+02  0.51100000000E-03 0. -1.
        -11    1    3    3    0    0 -0.12643849180E+02  0.25026043997E+01 -0.10168563184E+02  0.16417357532E+02  0.51100000000E-03 0.  1.
         12    1    3    3    0    0 -0.94707197408E+01 -0.20545083303E+00 -0.12199177649E+02  0.15445280113E+02  0.00000000000E+00 0. -1.
</event>
<event>
 7    1  0.3766050E-009  0.4614232E+02  0.7816164E-02  0.1320468E+00
        -11   -1    0    0    0    0  0.00000000000E+00  0.00000000000E+00  0.45593999997E+02  0.45594000000E+02  0.51100000000E-03 0. -1.
         11   -1    0    0    0    0 -0.00000000000E+00 -0.00000000000E+00 -0.45593999997E+02  0.45594000000E+02  0.51100000000E-03 0.  1.
    9900012    2    1    2    0    0 -0.16441352854E+02 -0.26931426221E+02 -0.32147997462E+02  0.46142317157E+02  0.99999944924E+01 0.  0.
         12    1    1    2    0    0  0.16441352854E+02  0.26931426221E+02  0.32147997462E+02  0.45045682843E+02  0.00000000000E+00 0. -1.
         11    1    3    3    0    0 -0.69086924631E+01 -0.17193293444E+02 -0.23654991222E+02  0.30048260864E+02  0.51100000000E-03 0. -1.
        -11    1    3    3    0    0 -0.27698314805E+01 -0.31729773548E+01 -0.31512881161E+01  0.52602631851E+01  0.51100000000E-03 0.  1.
         12    1    3    3    0    0 -0.67628289103E+01 -0.65651554222E+01 -0.53417181246E+01  0.10833793108E+02  0.00000000000E+00 0. -1.
</event>
<event>
 7    1  0.3766050E-009  0.4614232E+02  0.7816164E-02  0.1320468E+00
        -11   -1    0    0    0    0  0.00000000000E+00  0.00000000000E+00  0.45593999997E+02  0.45594000000E+02  0.51100000000E-03 0. -1.
         11   -1    0    0    0    0 -0.00000000000E+00 -0.00000000000E+00 -0.45593999997E+02  0.45594000000E+02  0.51100000000E-03 0.  1.
    9900012    2    1    2    0    0 -0.13317689794E+02  0.16747818131E+02 -0.39639161998E+02  0.46142318325E+02  0.10000005146E+02 0.  0.
         12    1    1    2    0    0  0.13317689794E+02 -0.16747818131E+02  0.39639161998E+02  0.45045681675E+02  0.00000000000E+00 0. -1.
         11    1    3    3    0    0 -0.10785009100E+01  0.28434275212E+01 -0.92492254174E+01  0.97363450721E+01  0.51100000000E-03 0. -1.
        -11    1    3    3    0    0 -0.10800800986E+02  0.84887620127E+01 -0.25517990167E+02  0.28980755768E+02  0.51100000000E-03 0.  1.
        -12    1    3    3    0    0 -0.14383878973E+01  0.54156285972E+01 -0.48719464140E+01  0.74252174855E+01  0.00000000000E+00 0.  1.
</event>
<event>
 7    1  0.3766050E-009  0.4614232E+02  0.7816164E-02  0.1320468E+00
        -11   -1    0    0    0    0  0.00000000000E+00  0.00000000000E+00  0.45593999997E+02  0.45594000000E+02  0.51100000000E-03 0. -1.
         11   -1    0    0    0    0 -0.00000000000E+00 -0.00000000000E+00 -0.45593999997E+02  0.45594000000E+02  0.51100000000E-03 0.  1.
    9900012    2    1    2    0    0 -0.30817907762E+02 -0.64921002768E+01  0.32205942689E+02  0.46142317085E+02  0.99999938305E+01 0.  0.
        -12    1    1    2    0    0  0.30817907762E+02  0.64921002768E+01 -0.32205942689E+02  0.45045682915E+02  0.00000000000E+00 0.  1.
         11    1    3    3    0    0 -0.11810140661E+02 -0.49413204416E+01  0.16044585401E+02  0.20526197677E+02  0.51100000000E-03 0. -1.
        -11    1    3    3    0    0 -0.13373881091E+02 -0.19239843209E+01  0.80330050278E+01  0.15719146960E+02  0.51100000000E-03 0.  1.
        -12    1    3    3    0    0 -0.56338860109E+01  0.37320448570E+00  0.81283522597E+01  0.98969724476E+01  0.00000000000E+00 0.  1.
</event>
<event>
 7    1  0.3766050E-009  0.4614232E+02  0.7816164E-02  0.1320468E+00
        -11   -1    0    0    0    0  0.00000000000E+00  0.00000000000E+00  0.45593999997E+02  0.45594000000E+02  0.51100000000E-03 0. -1.
         11   -1    0    0    0    0 -0.00000000000E+00 -0.00000000000E+00 -0.45593999997E+02  0.45594000000E+02  0.51100000000E-03 0.  1.
    9900012    2    1    2    0    0  0.71590862199E+01  0.20943271076E+02  0.39233153677E+02  0.46142318006E+02  0.10000002235E+02 0.  0.
        -12    1    1    2    0    0 -0.71590862199E+01 -0.20943271076E+02 -0.39233153677E+02  0.45045681994E+02  0.00000000000E+00 0.  1.
         11    1    3    3    0    0  0.39891501430E+01  0.58894569347E+01  0.68999954591E+01  0.99100433625E+01  0.51100000000E-03 0. -1.
        -11    1    3    3    0    0 -0.14249740520E+01  0.26066885672E+01  0.44122060848E+01  0.53191107462E+01  0.51100000000E-03 0.  1.
        -12    1    3    3    0    0  0.45949101289E+01  0.12447125574E+02  0.27920952133E+02  0.30913163897E+02  0.00000000000E+00 0.  1.
</event>
<event>
 7    1  0.3766050E-009  0.4614233E+02  0.7816164E-02  0.1320468E+00
        -11   -1    0    0    0    0  0.00000000000E+00  0.00000000000E+00  0.45593999997E+02  0.45594000000E+02  0.51100000000E-03 0. -1.
         11   -1    0    0    0    0 -0.00000000000E+00 -0.00000000000E+00 -0.45593999997E+02  0.45594000000E+02  0.51100000000E-03 0.  1.
    9900012    2    1    2    0    0 -0.32725429682E+01 -0.29536061408E-01  0.44926632768E+02  0.46142326049E+02  0.10000075576E+02 0.  0.
        -12    1    1    2    0    0  0.32725429682E+01  0.29536061408E-01 -0.44926632768E+02  0.45045673951E+02  0.00000000000E+00 0.  1.
         11    1    3    3    0    0  0.69178466049E+00  0.20393882239E+01  0.79484396496E+01  0.82350084073E+01  0.51100000000E-03 0. -1.
        -11    1    3    3    0    0 -0.22072187816E+01  0.19418615508E+01  0.67334952117E+01  0.73472851489E+01  0.51100000000E-03 0.  1.
        -12    1    3    3    0    0 -0.17571088471E+01 -0.40107858361E+01  0.30244697906E+02  0.30560032493E+02  0.00000000000E+00 0.  1.
</event>
<event>
 7    1  0.3766050E-009  0.4614232E+02  0.7816164E-02  0.1320468E+00
        -11   -1    0    0    0    0  0.00000000000E+00  0.00000000000E+00  0.45593999997E+02  0.45594000000E+02  0.51100000000E-03 0.  1.
         11   -1    0    0    0    0 -0.00000000000E+00 -0.00000000000E+00 -0.45593999997E+02  0.45594000000E+02  0.51100000000E-03 0. -1.
    9900012    2    1    2    0    0  0.35855491649E+02  0.25699099315E+01  0.27145768189E+02  0.46142318198E+02  0.10000003983E+02 0.  0.
        -12    1    1    2    0    0 -0.35855491649E+02 -0.25699099315E+01 -0.27145768189E+02  0.45045681802E+02  0.00000000000E+00 0.  1.
         11    1    3    3    0    0  0.21573560993E+02  0.48371703868E+01  0.12468531717E+02  0.25382691636E+02  0.51100000000E-03 0. -1.
        -11    1    3    3    0    0  0.12325616832E+02 -0.11807538824E+01  0.13074103171E+02  0.18006864913E+02  0.51100000000E-03 0.  1.
         12    1    3    3    0    0  0.19563138247E+01 -0.10865065730E+01  0.16031333008E+01  0.27527616486E+01  0.00000000000E+00 0. -1.
</event>
<event>
 7    1  0.3766050E-009  0.4614232E+02  0.7816164E-02  0.1320468E+00
        -11   -1    0    0    0    0  0.00000000000E+00  0.00000000000E+00  0.45593999997E+02  0.45594000000E+02  0.51100000000E-03 0. -1.
         11   -1    0    0    0    0 -0.00000000000E+00 -0.00000000000E+00 -0.45593999997E+02  0.45594000000E+02  0.51100000000E-03 0.  1.
    9900012    2    1    2    0    0  0.16283154315E+02 -0.20767792058E+02 -0.36505767178E+02  0.46142319423E+02  0.10000015153E+02 0.  0.
         12    1    1    2    0    0 -0.16283154315E+02  0.20767792058E+02  0.36505767178E+02  0.45045680577E+02  0.00000000000E+00 0. -1.
         11    1    3    3    0    0  0.45463731605E+01 -0.10218153780E+02 -0.15264315376E+02  0.18922988658E+02  0.51100000000E-03 0. -1.
        -11    1    3    3    0    0 -0.48262639149E+00 -0.69388164282E+00 -0.31728229796E+01  0.32834746671E+01  0.51100000000E-03 0.  1.
        -12    1    3    3    0    0  0.12219407546E+02 -0.98557566349E+01 -0.18068628823E+02  0.23935856098E+02  0.00000000000E+00 0.  1.
</event>
<event>
 7    1  0.3766050E-009  0.4614232E+02  0.7816164E-02  0.1320468E+00
        -11   -1    0    0    0    0  0.00000000000E+00  0.00000000000E+00  0.45593999997E+02  0.45594000000E+02  0.51100000000E-03 0. -1.
         11   -1    0    0    0    0 -0.00000000000E+00 -0.00000000000E+00 -0.45593999997E+02  0.45594000000E+02  0.51100000000E-03 0.  1.
    9900012    2    1    2    0    0  0.25290215854E+01 -0.40251427123E+02 -0.20063402605E+02  0.46142318079E+02  0.10000002903E+02 0.  0.
         12    1    1    2    0    0 -0.25290215854E+01  0.40251427123E+02  0.20063402605E+02  0.45045681921E+02  0.00000000000E+00 0. -1.
         11    1    3    3    0    0  0.53132465642E+00  0.38016271417E+00 -0.22803273779E+00  0.69197454462E+00  0.51100000000E-03 0. -1.
        -11    1    3    3    0    0  0.27249779389E+01 -0.15418211445E+02 -0.81474790306E+01  0.17650160446E+02  0.51100000000E-03 0.  1.
         12    1    3    3    0    0 -0.72728100995E+00 -0.25213378392E+02 -0.11687890837E+02  0.27800183089E+02  0.00000000000E+00 0. -1.
</event>
<event>
 7    1  0.3766050E-009  0.4614232E+02  0.7816164E-02  0.1320468E+00
        -11   -1    0    0    0    0  0.00000000000E+00  0.00000000000E+00  0.45593999997E+02  0.45594000000E+02  0.51100000000E-03 0. -1.
         11   -1    0    0    0    0 -0.00000000000E+00 -0.00000000000E+00 -0.45593999997E+02  0.45594000000E+02  0.51100000000E-03 0.  1.
    9900012    2    1    2    0    0  0.10941664284E+02  0.27593444189E+02  0.33882079427E+02  0.46142317789E+02  0.10000000259E+02 0.  0.
        -12    1    1    2    0    0 -0.10941664284E+02 -0.27593444189E+02 -0.33882079427E+02  0.45045682211E+02  0.00000000000E+00 0.  1.
         11    1    3    3    0    0  0.14038530310E+01  0.59424630800E+01  0.10367128492E+02  0.12031667558E+02  0.51100000000E-03 0. -1.
        -11    1    3    3    0    0  0.18966752330E+01  0.10818532427E+02  0.73994127875E+01  0.13243463696E+02  0.51100000000E-03 0.  1.
        -12    1    3    3    0    0  0.76411360200E+01  0.10832448682E+02  0.16115538147E+02  0.20867186536E+02  0.00000000000E+00 0.  1.
</event>
<event>
 7    1  0.3766050E-009  0.4614232E+02  0.7816164E-02  0.1320468E+00
        -11   -1    0    0    0    0  0.00000000000E+00  0.00000000000E+00  0.45593999997E+02  0.45594000000E+02  0.51100000000E-03 0.  1.
         11   -1    0    0    0    0 -0.00000000000E+00 -0.00000000000E+00 -0.45593999997E+02  0.45594000000E+02  0.51100000000E-03 0. -1.
    9900012    2    1    2    0    0 -0.29024254775E+02 -0.11173226677E+02 -0.32586272882E+02  0.46142317189E+02  0.99999947807E+01 0.  0.
         12    1    1    2    0    0  0.29024254775E+02  0.11173226677E+02  0.32586272882E+02  0.45045682811E+02  0.00000000000E+00 0. -1.
         11    1    3    3    0    0 -0.69205518670E+01 -0.35669250771E+01 -0.32059269221E+01  0.84199145091E+01  0.51100000000E-03 0. -1.
        -11    1    3    3    0    0 -0.14681244937E+02 -0.33169836731E+01 -0.19701098745E+02  0.24792632487E+02  0.51100000000E-03 0.  1.
        -12    1    3    3    0    0 -0.74224579707E+01 -0.42893179267E+01 -0.96792472145E+01  0.12929770193E+02  0.00000000000E+00 0.  1.
</event>
<event>
 7    1  0.3766050E-009  0.4614232E+02  0.7816164E-02  0.1320468E+00
        -11   -1    0    0    0    0  0.00000000000E+00  0.00000000000E+00  0.45593999997E+02  0.45594000000E+02  0.51100000000E-03 0. -1.
         11   -1    0    0    0    0 -0.00000000000E+00 -0.00000000000E+00 -0.45593999997E+02  0.45594000000E+02  0.51100000000E-03 0.  1.
    9900012    2    1    2    0    0  0.25011213744E+02 -0.12719165410E+01 -0.37442419993E+02  0.46142318747E+02  0.10000008986E+02 0.  0.
         12    1    1    2    0    0 -0.25011213744E+02  0.12719165410E+01  0.37442419993E+02  0.45045681253E+02  0.00000000000E+00 0. -1.
         11    1    3    3    0    0  0.62538998524E+01 -0.25619279633E+01 -0.76529583115E+01  0.10209922107E+02  0.51100000000E-03 0. -1.
        -11    1    3    3    0    0  0.72447845428E+01  0.33135344262E+01 -0.85319351856E+01  0.11673060085E+02  0.51100000000E-03 0.  1.
        -12    1    3    3    0    0  0.11512529349E+02 -0.20235230038E+01 -0.21257526496E+02  0.24259336555E+02  0.00000000000E+00 0.  1.
</event>
<event>
 7    1  0.3766050E-009  0.4614232E+02  0.7816164E-02  0.1320468E+00
        -11   -1    0    0    0    0  0.00000000000E+00  0.00000000000E+00  0.45593999997E+02  0.45594000000E+02  0.51100000000E-03 0. -1.
         11   -1    0    0    0    0 -0.00000000000E+00 -0.00000000000E+00 -0.45593999997E+02  0.45594000000E+02  0.51100000000E-03 0.  1.
    9900012    2    1    2    0    0  0.16553508579E+02 -0.81185733332E+01 -0.41099678751E+02  0.46142317936E+02  0.10000001591E+02 0.  0.
         12    1    1    2    0    0 -0.16553508579E+02  0.81185733332E+01  0.41099678751E+02  0.45045682064E+02  0.00000000000E+00 0. -1.
         11    1    3    3    0    0  0.16784260199E+01  0.15093670842E+01 -0.41964382057E+01  0.47650180246E+01  0.51100000000E-03 0. -1.
        -11    1    3    3    0    0  0.67768074265E+01 -0.11275253685E+01 -0.11572946385E+02  0.13458436783E+02  0.51100000000E-03 0.  1.
        -12    1    3    3    0    0  0.80982751323E+01 -0.85004150488E+01 -0.25330294160E+02  0.27918863128E+02  0.00000000000E+00 0.  1.
</event>
<event>
 7    1  0.3766050E-009  0.4614232E+02  0.7816164E-02  0.1320468E+00
        -11   -1    0    0    0    0  0.00000000000E+00  0.00000000000E+00  0.45593999997E+02  0.45594000000E+02  0.51100000000E-03 0. -1.
         11   -1    0    0    0    0 -0.00000000000E+00 -0.00000000000E+00 -0.45593999997E+02  0.45594000000E+02  0.51100000000E-03 0.  1.
    9900012    2    1    2    0    0 -0.37047710061E+02 -0.65804715830E+01  0.24764450813E+02  0.46142318175E+02  0.10000003771E+02 0.  0.
        -12    1    1    2    0    0  0.37047710061E+02  0.65804715830E+01 -0.24764450813E+02  0.45045681825E+02  0.00000000000E+00 0.  1.
         11    1    3    3    0    0 -0.92163568335E+01  0.97312515028E+00  0.57340742968E+01  0.10898064697E+02  0.51100000000E-03 0.  1.
        -11    1    3    3    0    0 -0.23121678963E+02 -0.39735281265E+01  0.13111822035E+02  0.26876027258E+02  0.51100000000E-03 0. -1.
        -12    1    3    3    0    0 -0.47096742649E+01 -0.35800686068E+01  0.59185544821E+01  0.83682262199E+01  0.00000000000E+00 0.  1.
</event>
<event>
 7    1  0.3766050E-009  0.4614232E+02  0.7816164E-02  0.1320468E+00
        -11   -1    0    0    0    0  0.00000000000E+00  0.00000000000E+00  0.45593999997E+02  0.45594000000E+02  0.51100000000E-03 0. -1.
         11   -1    0    0    0    0 -0.00000000000E+00 -0.00000000000E+00 -0.45593999997E+02  0.45594000000E+02  0.51100000000E-03 0.  1.
    9900012    2    1    2    0    0 -0.13322667054E+02  0.17969613021E+02 -0.39098760623E+02  0.46142317279E+02  0.99999956082E+01 0.  0.
         12    1    1    2    0    0  0.13322667054E+02 -0.17969613021E+02  0.39098760623E+02  0.45045682721E+02  0.00000000000E+00 0. -1.
         11    1    3    3    0    0 -0.11639295295E+01  0.12854237313E+01 -0.76023629606E+00  0.18934111032E+01  0.51100000000E-03 0. -1.
        -11    1    3    3    0    0 -0.11464018308E+02  0.12674007537E+02 -0.35130417060E+02  0.39066614723E+02  0.51100000000E-03 0.  1.
        -12    1    3    3    0    0 -0.69471921614E+00  0.40101817525E+01 -0.32081072663E+01  0.51822914535E+01  0.00000000000E+00 0.  1.
</event>
<event>
 7    1  0.3766050E-009  0.4614232E+02  0.7816164E-02  0.1320468E+00
        -11   -1    0    0    0    0  0.00000000000E+00  0.00000000000E+00  0.45593999997E+02  0.45594000000E+02  0.51100000000E-03 0.  1.
         11   -1    0    0    0    0 -0.00000000000E+00 -0.00000000000E+00 -0.45593999997E+02  0.45594000000E+02  0.51100000000E-03 0. -1.
    9900012    2    1    2    0    0  0.36965974859E+02 -0.23408094553E+02  0.10709399701E+02  0.46142318411E+02  0.10000005922E+02 0.  0.
        -12    1    1    2    0    0 -0.36965974859E+02  0.23408094553E+02 -0.10709399701E+02  0.45045681589E+02  0.00000000000E+00 0.  1.
         11    1    3    3    0    0  0.12173997242E+02 -0.12204944417E+02  0.36465594810E+01  0.17619996407E+02  0.51100000000E-03 0. -1.
        -11    1    3    3    0    0  0.20586079341E+02 -0.86602329789E+01  0.75694393573E+01  0.23581406029E+02  0.51100000000E-03 0.  1.
        -12    1    3    3    0    0  0.42058982763E+01 -0.25429171570E+01 -0.50659913704E+00  0.49409159742E+01  0.00000000000E+00 0.  1.
</event>
<event>
 7    1  0.3766050E-009  0.4614232E+02  0.7816164E-02  0.1320468E+00
        -11   -1    0    0    0    0  0.00000000000E+00  0.00000000000E+00  0.45593999997E+02  0.45594000000E+02  0.51100000000E-03 0.  1.
         11   -1    0    0    0    0 -0.00000000000E+00 -0.00000000000E+00 -0.45593999997E+02  0.45594000000E+02  0.51100000000E-03 0. -1.
    9900012    2    1    2    0    0 -0.44651638998E+02  0.78794200410E+00 -0.58926988600E+01  0.46142316326E+02  0.99999869173E+01 0.  0.
        -12    1    1    2    0    0  0.44651638998E+02 -0.78794200410E+00  0.58926988600E+01  0.45045683674E+02  0.00000000000E+00 0.  1.
         11    1    3    3    0    0 -0.15049481985E+02  0.25408659654E+01 -0.12584108320E+01  0.15314258256E+02  0.51100000000E-03 0. -1.
        -11    1    3    3    0    0 -0.27846588680E+02 -0.29065436059E+01 -0.55395520407E+01  0.28540622521E+02  0.51100000000E-03 0.  1.
        -12    1    3    3    0    0 -0.17555683331E+01  0.11536196446E+01  0.90526401273E+00  0.22874355487E+01  0.00000000000E+00 0.  1.
</event>
<event>
 7    1  0.3766050E-009  0.4614232E+02  0.7816164E-02  0.1320468E+00
        -11   -1    0    0    0    0  0.00000000000E+00  0.00000000000E+00  0.45593999997E+02  0.45594000000E+02  0.51100000000E-03 0. -1.
         11   -1    0    0    0    0 -0.00000000000E+00 -0.00000000000E+00 -0.45593999997E+02  0.45594000000E+02  0.51100000000E-03 0.  1.
    9900012    2    1    2    0    0  0.39335452853E+02 -0.10523189367E+01  0.21925518608E+02  0.46142316605E+02  0.99999894545E+01 0.  0.
        -12    1    1    2    0    0 -0.39335452853E+02  0.10523189367E+01 -0.21925518608E+02  0.45045683395E+02  0.00000000000E+00 0.  1.
         11    1    3    3    0    0  0.10300098493E+02 -0.34165848019E+00  0.10993460214E+02  0.15068673704E+02  0.51100000000E-03 0. -1.
        -11    1    3    3    0    0  0.17167436202E+02 -0.15297114413E+00  0.56775604838E+01  0.18082559532E+02  0.51100000000E-03 0.  1.
         12    1    3    3    0    0  0.11867918159E+02 -0.55768931238E+00  0.52544979103E+01  0.12991083368E+02  0.00000000000E+00 0. -1.
</event>
<event>
 7    1  0.3766050E-009  0.4614232E+02  0.7816164E-02  0.1320468E+00
        -11   -1    0    0    0    0  0.00000000000E+00  0.00000000000E+00  0.45593999997E+02  0.45594000000E+02  0.51100000000E-03 0. -1.
         11   -1    0    0    0    0 -0.00000000000E+00 -0.00000000000E+00 -0.45593999997E+02  0.45594000000E+02  0.51100000000E-03 0.  1.
    9900012    2    1    2    0    0 -0.15104774340E+02 -0.61338084934E+01  0.41992090789E+02  0.46142317594E+02  0.99999984802E+01 0.  0.
        -12    1    1    2    0    0  0.15104774340E+02  0.61338084934E+01 -0.41992090789E+02  0.45045682406E+02  0.00000000000E+00 0.  1.
         11    1    3    3    0    0 -0.82584466854E+01  0.10316966076E+01  0.19839332200E+02  0.21514307842E+02  0.51100000000E-03 0. -1.
        -11    1    3    3    0    0 -0.21390983412E+01 -0.52655160985E+01  0.11523872240E+02  0.12849164688E+02  0.51100000000E-03 0.  1.
         12    1    3    3    0    0 -0.47072293139E+01 -0.18999890025E+01  0.10628886349E+02  0.11778845064E+02  0.00000000000E+00 0. -1.
</event>
<event>
 7    1  0.3766050E-009  0.4614232E+02  0.7816164E-02  0.1320468E+00
        -11   -1    0    0    0    0  0.00000000000E+00  0.00000000000E+00  0.45593999997E+02  0.45594000000E+02  0.51100000000E-03 0. -1.
         11   -1    0    0    0    0 -0.00000000000E+00 -0.00000000000E+00 -0.45593999997E+02  0.45594000000E+02  0.51100000000E-03 0.  1.
    9900012    2    1    2    0    0 -0.12453909846E+02  0.12802041506E+02 -0.41353613424E+02  0.46142317849E+02  0.10000000804E+02 0.  0.
         12    1    1    2    0    0  0.12453909846E+02 -0.12802041506E+02  0.41353613424E+02  0.45045682151E+02  0.00000000000E+00 0. -1.
         11    1    3    3    0    0 -0.61531525199E+00  0.10896858368E+01 -0.91231792995E+00  0.15486614700E+01  0.51100000000E-03 0. -1.
        -11    1    3    3    0    0 -0.10085309794E+02  0.12427346453E+02 -0.30200357303E+02  0.34179145615E+02  0.51100000000E-03 0.  1.
        -12    1    3    3    0    0 -0.17532847995E+01 -0.71499078363E+00 -0.10240938192E+02  0.10414510764E+02  0.00000000000E+00 0.  1.
</event>
<event>
 7    1  0.3766050E-009  0.4614232E+02  0.7816164E-02  0.1320468E+00
        -11   -1    0    0    0    0  0.00000000000E+00  0.00000000000E+00  0.45593999997E+02  0.45594000000E+02  0.51100000000E-03 0. -1.
         11   -1    0    0    0    0 -0.00000000000E+00 -0.00000000000E+00 -0.45593999997E+02  0.45594000000E+02  0.51100000000E-03 0.  1.
    9900012    2    1    2    0    0 -0.16715972408E+02  0.38008063058E+02 -0.17466450514E+02  0.46142317804E+02  0.10000000393E+02 0.  0.
         12    1    1    2    0    0  0.16715972408E+02 -0.38008063058E+02  0.17466450514E+02  0.45045682196E+02  0.00000000000E+00 0. -1.
         11    1    3    3    0    0 -0.13347480554E+02  0.22263383244E+02 -0.10465727759E+02  0.27988299848E+02  0.51100000000E-03 0. -1.
        -11    1    3    3    0    0 -0.67857087122E+00  0.12448287148E+02 -0.47525037674E+01  0.13341911544E+02  0.51100000000E-03 0.  1.
         12    1    3    3    0    0 -0.26899209829E+01  0.32963926665E+01 -0.22482189877E+01  0.48121064122E+01  0.00000000000E+00 0. -1.
</event>
<event>
 7    1  0.5508542E-009  0.4614232E+02  0.7816164E-02  0.1320468E+00
        -11   -1    0    0    0    0  0.00000000000E+00  0.00000000000E+00  0.45593999997E+02  0.45594000000E+02  0.51100000000E-03 0. -1.
         11   -1    0    0    0    0 -0.00000000000E+00 -0.00000000000E+00 -0.45593999997E+02  0.45594000000E+02  0.51100000000E-03 0.  1.
    9900012    2    1    2    0    0 -0.11813496885E+02 -0.67502297987E+01 -0.42941694103E+02  0.46142318703E+02  0.10000008593E+02 0.  0.
         12    1    1    2    0    0  0.11813496885E+02  0.67502297987E+01  0.42941694103E+02  0.45045681297E+02  0.00000000000E+00 0. -1.
         11    1    3    3    0    0  0.66778048986E+00  0.61760554885E+00 -0.11789056144E+01  0.14890218619E+01  0.51100000000E-03 0. -1.
        -11    1    3    3    0    0 -0.11163750998E+02 -0.36305219295E+01 -0.28877651685E+02  0.31172564747E+02  0.51100000000E-03 0.  1.
        -12    1    3    3    0    0 -0.13175263777E+01 -0.37373134180E+01 -0.12885136804E+02  0.13480732094E+02  0.00000000000E+00 0.  1.
</event>
<event>
 7    1  0.3835911E-009  0.4614232E+02  0.7816164E-02  0.1320468E+00
        -11   -1    0    0    0    0  0.00000000000E+00  0.00000000000E+00  0.45593999997E+02  0.45594000000E+02  0.51100000000E-03 0. -1.
         11   -1    0    0    0    0 -0.00000000000E+00 -0.00000000000E+00 -0.45593999997E+02  0.45594000000E+02  0.51100000000E-03 0.  1.
    9900012    2    1    2    0    0 -0.74565341628E-01  0.40518252679E+02 -0.19681949006E+02  0.46142317889E+02  0.10000001163E+02 0.  0.
         12    1    1    2    0    0  0.74565341628E-01 -0.40518252679E+02  0.19681949006E+02  0.45045682111E+02  0.00000000000E+00 0. -1.
         11    1    3    3    0    0 -0.10951175882E+01  0.36635542565E+01 -0.45549397276E+01  0.59471327970E+01  0.51100000000E-03 0. -1.
        -11    1    3    3    0    0 -0.11131430645E+01  0.28191369283E+02 -0.12757905574E+02  0.30963794089E+02  0.51100000000E-03 0.  1.
         12    1    3    3    0    0  0.21336953110E+01  0.86633291403E+01 -0.23691037050E+01  0.92313910024E+01  0.00000000000E+00 0. -1.
</event>
<event>
 7    1  0.3766050E-009  0.4614232E+02  0.7816164E-02  0.1320468E+00
        -11   -1    0    0    0    0  0.00000000000E+00  0.00000000000E+00  0.45593999997E+02  0.45594000000E+02  0.51100000000E-03 0. -1.
         11   -1    0    0    0    0 -0.00000000000E+00 -0.00000000000E+00 -0.45593999997E+02  0.45594000000E+02  0.51100000000E-03 0.  1.
    9900012    2    1    2    0    0  0.14876358175E+02 -0.22864680144E+02  0.35847088229E+02  0.46142319129E+02  0.10000012475E+02 0.  0.
        -12    1    1    2    0    0 -0.14876358175E+02  0.22864680144E+02 -0.35847088229E+02  0.45045680871E+02  0.00000000000E+00 0.  1.
         11    1    3    3    0    0  0.85823389354E+01 -0.59102450900E+01  0.15839604235E+02  0.18959973660E+02  0.51100000000E-03 0.  1.
        -11    1    3    3    0    0  0.36417098731E+01 -0.10738816844E+02  0.10073857314E+02  0.15167954360E+02  0.51100000000E-03 0. -1.
         12    1    3    3    0    0  0.26523093661E+01 -0.62156182103E+01  0.99336266798E+01  0.12014391109E+02  0.00000000000E+00 0. -1.
</event>
<event>
 7    1  0.3766050E-009  0.4614232E+02  0.7816164E-02  0.1320468E+00
        -11   -1    0    0    0    0  0.00000000000E+00  0.00000000000E+00  0.45593999997E+02  0.45594000000E+02  0.51100000000E-03 0.  1.
         11   -1    0    0    0    0 -0.00000000000E+00 -0.00000000000E+00 -0.45593999997E+02  0.45594000000E+02  0.51100000000E-03 0. -1.
    9900012    2    1    2    0    0 -0.40677758112E+02  0.36623303841E+01  0.19000542339E+02  0.46142320096E+02  0.10000021287E+02 0.  0.
        -12    1    1    2    0    0  0.40677758112E+02 -0.36623303841E+01 -0.19000542339E+02  0.45045679904E+02  0.00000000000E+00 0.  1.
         11    1    3    3    0    0 -0.16688290085E+02  0.48334225779E+01  0.83303977052E+01  0.19268018216E+02  0.51100000000E-03 0. -1.
        -11    1    3    3    0    0 -0.38709225715E+01 -0.80072607881E+00  0.41284121062E+01  0.57156793636E+01  0.51100000000E-03 0.  1.
         12    1    3    3    0    0 -0.20118545456E+02 -0.37036611506E+00  0.65417325276E+01  0.21158622516E+02  0.00000000000E+00 0. -1.
</event>
<event>
 7    1  0.3766050E-009  0.4614232E+02  0.7816164E-02  0.1320468E+00
        -11   -1    0    0    0    0  0.00000000000E+00  0.00000000000E+00  0.45593999997E+02  0.45594000000E+02  0.51100000000E-03 0. -1.
         11   -1    0    0    0    0 -0.00000000000E+00 -0.00000000000E+00 -0.45593999997E+02  0.45594000000E+02  0.51100000000E-03 0.  1.
    9900012    2    1    2    0    0 -0.18674567049E+02  0.34023616060E+02 -0.22864112382E+02  0.46142317196E+02  0.99999948492E+01 0.  0.
         12    1    1    2    0    0  0.18674567049E+02 -0.34023616060E+02  0.22864112382E+02  0.45045682804E+02  0.00000000000E+00 0. -1.
         11    1    3    3    0    0 -0.82734685659E+01  0.79236602273E+01 -0.89811194183E+01  0.14556619792E+02  0.51100000000E-03 0. -1.
        -11    1    3    3    0    0 -0.65472594694E+01  0.15114311341E+02 -0.60199439311E+01  0.17537067573E+02  0.51100000000E-03 0.  1.
        -12    1    3    3    0    0 -0.38538390134E+01  0.10985644491E+02 -0.78630490325E+01  0.14048629831E+02  0.00000000000E+00 0.  1.
</event>
<event>
 7    1  0.3766050E-009  0.4614232E+02  0.7816164E-02  0.1320468E+00
        -11   -1    0    0    0    0  0.00000000000E+00  0.00000000000E+00  0.45593999997E+02  0.45594000000E+02  0.51100000000E-03 0. -1.
         11   -1    0    0    0    0 -0.00000000000E+00 -0.00000000000E+00 -0.45593999997E+02  0.45594000000E+02  0.51100000000E-03 0.  1.
    9900012    2    1    2    0    0 -0.18402143789E+02  0.30653794937E+02  0.27401085647E+02  0.46142317246E+02  0.99999953065E+01 0.  0.
        -12    1    1    2    0    0  0.18402143789E+02 -0.30653794937E+02 -0.27401085647E+02  0.45045682754E+02  0.00000000000E+00 0.  1.
         11    1    3    3    0    0  0.15587207062E+00  0.57898043531E+00  0.28175313879E+01  0.28806245555E+01  0.51100000000E-03 0. -1.
        -11    1    3    3    0    0 -0.10746558663E+02  0.14994556418E+02  0.10705039054E+02  0.21328926524E+02  0.51100000000E-03 0.  1.
         12    1    3    3    0    0 -0.78114571968E+01  0.15080258085E+02  0.13878515205E+02  0.21932766167E+02  0.00000000000E+00 0. -1.
</event>
<event>
 7    1  0.3766050E-009  0.4614232E+02  0.7816164E-02  0.1320468E+00
        -11   -1    0    0    0    0  0.00000000000E+00  0.00000000000E+00  0.45593999997E+02  0.45594000000E+02  0.51100000000E-03 0. -1.
         11   -1    0    0    0    0 -0.00000000000E+00 -0.00000000000E+00 -0.45593999997E+02  0.45594000000E+02  0.51100000000E-03 0.  1.
    9900012    2    1    2    0    0 -0.23674470149E+02 -0.24528929596E+02 -0.29444264575E+02  0.46142316074E+02  0.99999846180E+01 0.  0.
         12    1    1    2    0    0  0.23674470149E+02  0.24528929596E+02  0.29444264575E+02  0.45045683926E+02  0.00000000000E+00 0. -1.
         11    1    3    3    0    0 -0.93134261569E+01 -0.41018451465E+01 -0.92958195836E+01  0.13783225398E+02  0.51100000000E-03 0. -1.
        -11    1    3    3    0    0 -0.88146966298E+01 -0.91116703955E+01 -0.91756383685E+01  0.15649720566E+02  0.51100000000E-03 0.  1.
         12    1    3    3    0    0 -0.55463473624E+01 -0.11315414054E+02 -0.10972806623E+02  0.16709370110E+02  0.00000000000E+00 0. -1.
</event>
<event>
 7    1  0.3766050E-009  0.4614232E+02  0.7816164E-02  0.1320468E+00
        -11   -1    0    0    0    0  0.00000000000E+00  0.00000000000E+00  0.45593999997E+02  0.45594000000E+02  0.51100000000E-03 0. -1.
         11   -1    0    0    0    0 -0.00000000000E+00 -0.00000000000E+00 -0.45593999997E+02  0.45594000000E+02  0.51100000000E-03 0.  1.
    9900012    2    1    2    0    0 -0.12818470175E+02  0.92658410980E+00  0.43173391820E+02  0.46142317666E+02  0.99999991316E+01 0.  0.
        -12    1    1    2    0    0  0.12818470175E+02 -0.92658410980E+00 -0.43173391820E+02  0.45045682334E+02  0.00000000000E+00 0.  1.
         11    1    3    3    0    0 -0.91166280441E+01 -0.83453482958E+00  0.37936010217E+02  0.39024994897E+02  0.51100000000E-03 0. -1.
        -11    1    3    3    0    0 -0.36301403158E+01  0.70019724480E+00  0.35675350920E+01  0.51376552812E+01  0.51100000000E-03 0.  1.
        -12    1    3    3    0    0 -0.71701814939E-01  0.10609216946E+01  0.16698465104E+01  0.19796674874E+01  0.00000000000E+00 0.  1.
</event>
<event>
 7    1  0.3766050E-009  0.4614232E+02  0.7816164E-02  0.1320468E+00
        -11   -1    0    0    0    0  0.00000000000E+00  0.00000000000E+00  0.45593999997E+02  0.45594000000E+02  0.51100000000E-03 0. -1.
         11   -1    0    0    0    0 -0.00000000000E+00 -0.00000000000E+00 -0.45593999997E+02  0.45594000000E+02  0.51100000000E-03 0.  1.
    9900012    2    1    2    0    0  0.38657869571E+02 -0.34227717728E+01 -0.22868476588E+02  0.46142317989E+02  0.10000002076E+02 0.  0.
         12    1    1    2    0    0 -0.38657869571E+02  0.34227717728E+01  0.22868476588E+02  0.45045682011E+02  0.00000000000E+00 0. -1.
         11    1    3    3    0    0  0.18117752111E+01  0.11340855379E+01 -0.10426140218E-01  0.21374724298E+01  0.51100000000E-03 0. -1.
        -11    1    3    3    0    0  0.12132408092E+02 -0.27579274342E+01 -0.47646745937E+01  0.13323048228E+02  0.51100000000E-03 0.  1.
        -12    1    3    3    0    0  0.24713686269E+02 -0.17989298766E+01 -0.18093375854E+02  0.30681797331E+02  0.00000000000E+00 0.  1.
</event>
<event>
 7    1  0.3766050E-009  0.4614232E+02  0.7816164E-02  0.1320468E+00
        -11   -1    0    0    0    0  0.00000000000E+00  0.00000000000E+00  0.45593999997E+02  0.45594000000E+02  0.51100000000E-03 0. -1.
         11   -1    0    0    0    0 -0.00000000000E+00 -0.00000000000E+00 -0.45593999997E+02  0.45594000000E+02  0.51100000000E-03 0.  1.
    9900012    2    1    2    0    0  0.22297764805E+02 -0.34926771775E+01  0.38983641814E+02  0.46142318318E+02  0.10000005078E+02 0.  0.
        -12    1    1    2    0    0 -0.22297764805E+02  0.34926771775E+01 -0.38983641814E+02  0.45045681682E+02  0.00000000000E+00 0.  1.
         11    1    3    3    0    0  0.72681903078E+01  0.51557604468E+00  0.11284614187E+02  0.13432606844E+02  0.51100000000E-03 0. -1.
        -11    1    3    3    0    0  0.15745204822E+02 -0.33911601271E+01  0.27271643048E+02  0.31672605777E+02  0.51100000000E-03 0.  1.
        -12    1    3    3    0    0 -0.71563032495E+00 -0.61709309507E+00  0.42738457846E+00  0.10371056975E+01  0.00000000000E+00 0.  1.
</event>
<event>
 7    1  0.3766050E-009  0.4614232E+02  0.7816164E-02  0.1320468E+00
        -11   -1    0    0    0    0  0.00000000000E+00  0.00000000000E+00  0.45593999997E+02  0.45594000000E+02  0.51100000000E-03 0. -1.
         11   -1    0    0    0    0 -0.00000000000E+00 -0.00000000000E+00 -0.45593999997E+02  0.45594000000E+02  0.51100000000E-03 0.  1.
    9900012    2    1    2    0    0 -0.18340408848E+02  0.32476159258E+02 -0.25259493650E+02  0.46142317229E+02  0.99999951469E+01 0.  0.
         12    1    1    2    0    0  0.18340408848E+02 -0.32476159258E+02  0.25259493650E+02  0.45045682771E+02  0.00000000000E+00 0. -1.
         11    1    3    3    0    0 -0.77796503825E+01  0.16730447391E+02 -0.75990136313E+01  0.19954343848E+02  0.51100000000E-03 0. -1.
        -11    1    3    3    0    0 -0.26732584253E+01  0.50192575974E+01 -0.31746106044E+01  0.65128649755E+01  0.51100000000E-03 0.  1.
         12    1    3    3    0    0 -0.78875000402E+01  0.10726454270E+02 -0.14485869414E+02  0.19675108406E+02  0.00000000000E+00 0. -1.
</event>
<event>
 7    1  0.3806763E-009  0.4614232E+02  0.7816164E-02  0.1320468E+00
        -11   -1    0    0    0    0  0.00000000000E+00  0.00000000000E+00  0.45593999997E+02  0.45594000000E+02  0.51100000000E-03 0. -1.
         11   -1    0    0    0    0 -0.00000000000E+00 -0.00000000000E+00 -0.45593999997E+02  0.45594000000E+02  0.51100000000E-03 0.  1.
    9900012    2    1    2    0    0 -0.72679927672E+01  0.28075523519E+01 -0.44366738822E+02  0.46142316713E+02  0.99999904425E+01 0.  0.
         12    1    1    2    0    0  0.72679927672E+01 -0.28075523519E+01  0.44366738822E+02  0.45045683287E+02  0.00000000000E+00 0. -1.
         11    1    3    3    0    0 -0.37847753745E+00 -0.12211306790E+01 -0.25764087518E+01  0.28761584969E+01  0.51100000000E-03 0. -1.
        -11    1    3    3    0    0  0.14597268299E+01  0.22179584919E+01 -0.10491474998E+02  0.10822254395E+02  0.51100000000E-03 0.  1.
        -12    1    3    3    0    0 -0.83492420597E+01  0.18107245391E+01 -0.31298855072E+02  0.32443903821E+02  0.00000000000E+00 0.  1.
</event>
<event>
 7    1  0.3766050E-009  0.4614232E+02  0.7816164E-02  0.1320468E+00
        -11   -1    0    0    0    0  0.00000000000E+00  0.00000000000E+00  0.45593999997E+02  0.45594000000E+02  0.51100000000E-03 0. -1.
         11   -1    0    0    0    0 -0.00000000000E+00 -0.00000000000E+00 -0.45593999997E+02  0.45594000000E+02  0.51100000000E-03 0.  1.
    9900012    2    1    2    0    0  0.14539248483E+02  0.49842334110E+01  0.42342427254E+02  0.46142317911E+02  0.10000001362E+02 0.  0.
        -12    1    1    2    0    0 -0.14539248483E+02 -0.49842334110E+01 -0.42342427254E+02  0.45045682089E+02  0.00000000000E+00 0.  1.
         11    1    3    3    0    0  0.63682389918E+01  0.18385430208E+01  0.22817644325E+02  0.23760883845E+02  0.51100000000E-03 0. -1.
        -11    1    3    3    0    0  0.28652610065E+01 -0.13172872232E+01  0.25846908360E+01  0.40774493551E+01  0.51100000000E-03 0.  1.
        -12    1    3    3    0    0  0.53057484846E+01  0.44629776134E+01  0.16940092093E+02  0.18303984710E+02  0.00000000000E+00 0.  1.
</event>
<event>
 7    1  0.5421576E-009  0.4614232E+02  0.7816164E-02  0.1320468E+00
        -11   -1    0    0    0    0  0.00000000000E+00  0.00000000000E+00  0.45593999997E+02  0.45594000000E+02  0.51100000000E-03 0. -1.
         11   -1    0    0    0    0 -0.00000000000E+00 -0.00000000000E+00 -0.45593999997E+02  0.45594000000E+02  0.51100000000E-03 0.  1.
    9900012    2    1    2    0    0 -0.83192484419E+01  0.67436382574E+01 -0.43754164629E+02  0.46142317921E+02  0.10000001456E+02 0.  0.
         12    1    1    2    0    0  0.83192484419E+01 -0.67436382574E+01  0.43754164629E+02  0.45045682079E+02  0.00000000000E+00 0. -1.
         11    1    3    3    0    0 -0.12312832674E+01 -0.14070281401E+01 -0.13591212181E+01  0.23114924655E+01  0.51100000000E-03 0. -1.
        -11    1    3    3    0    0 -0.25945382719E+01  0.40171402743E+01 -0.14244993659E+02  0.15026273305E+02  0.51100000000E-03 0.  1.
         12    1    3    3    0    0 -0.44934269027E+01  0.41335261232E+01 -0.28150049752E+02  0.28804552150E+02  0.00000000000E+00 0. -1.
</event>
<event>
 7    1  0.3766050E-009  0.4614232E+02  0.7816164E-02  0.1320468E+00
        -11   -1    0    0    0    0  0.00000000000E+00  0.00000000000E+00  0.45593999997E+02  0.45594000000E+02  0.51100000000E-03 0.  1.
         11   -1    0    0    0    0 -0.00000000000E+00 -0.00000000000E+00 -0.45593999997E+02  0.45594000000E+02  0.51100000000E-03 0. -1.
    9900012    2    1    2    0    0 -0.12156663844E+02  0.43073488518E+02 -0.50993588135E+01  0.46142319305E+02  0.10000014077E+02 0.  0.
        -12    1    1    2    0    0  0.12156663844E+02 -0.43073488518E+02  0.50993588135E+01  0.45045680695E+02  0.00000000000E+00 0.  1.
         11    1    3    3    0    0 -0.11452146534E+02  0.36848013623E+02 -0.63606461259E+01  0.39107359762E+02  0.51100000000E-03 0. -1.
        -11    1    3    3    0    0  0.95246994443E+00  0.17429380296E+01  0.10608631620E+01  0.22517688336E+01  0.51100000000E-03 0.  1.
         12    1    3    3    0    0 -0.16569872551E+01  0.44825368659E+01  0.20042415034E+00  0.47831907089E+01  0.00000000000E+00 0. -1.
</event>
<event>
 7    1  0.3766050E-009  0.4614232E+02  0.7816164E-02  0.1320468E+00
        -11   -1    0    0    0    0  0.00000000000E+00  0.00000000000E+00  0.45593999997E+02  0.45594000000E+02  0.51100000000E-03 0. -1.
         11   -1    0    0    0    0 -0.00000000000E+00 -0.00000000000E+00 -0.45593999997E+02  0.45594000000E+02  0.51100000000E-03 0.  1.
    9900012    2    1    2    0    0  0.18393583667E+02  0.18543552610E+02 -0.36700493005E+02  0.46142318184E+02  0.10000003855E+02 0.  0.
         12    1    1    2    0    0 -0.18393583667E+02 -0.18543552610E+02  0.36700493005E+02  0.45045681816E+02  0.00000000000E+00 0. -1.
         11    1    3    3    0    0  0.13897516325E+01  0.39945035846E+01 -0.27545623333E+01  0.50472846558E+01  0.51100000000E-03 0. -1.
        -11    1    3    3    0    0  0.60638959752E+01  0.28495615222E+01 -0.66089428278E+01  0.94111083741E+01  0.51100000000E-03 0.  1.
         12    1    3    3    0    0  0.10939936059E+02  0.11699487503E+02 -0.27336987843E+02  0.31683925154E+02  0.00000000000E+00 0. -1.
</event>
<event>
 7    1  0.3766050E-009  0.4614232E+02  0.7816164E-02  0.1320468E+00
        -11   -1    0    0    0    0  0.00000000000E+00  0.00000000000E+00  0.45593999997E+02  0.45594000000E+02  0.51100000000E-03 0. -1.
         11   -1    0    0    0    0 -0.00000000000E+00 -0.00000000000E+00 -0.45593999997E+02  0.45594000000E+02  0.51100000000E-03 0.  1.
    9900012    2    1    2    0    0  0.44214393224E+02  0.72037782781E+01  0.47229678329E+01  0.46142318577E+02  0.10000007443E+02 0.  0.
         12    1    1    2    0    0 -0.44214393224E+02 -0.72037782781E+01 -0.47229678329E+01  0.45045681423E+02  0.00000000000E+00 0. -1.
         11    1    3    3    0    0  0.13437340513E+02 -0.52786044458E+00  0.17729787698E+01  0.13564077952E+02  0.51100000000E-03 0. -1.
        -11    1    3    3    0    0  0.11869237620E+02  0.42711983283E+01  0.42536166849E+01  0.13312219650E+02  0.51100000000E-03 0.  1.
        -12    1    3    3    0    0  0.18907815092E+02  0.34604403944E+01 -0.13036276217E+01  0.19266020976E+02  0.00000000000E+00 0.  1.
</event>
<event>
 7    1  0.3766050E-009  0.4614232E+02  0.7816164E-02  0.1320468E+00
        -11   -1    0    0    0    0  0.00000000000E+00  0.00000000000E+00  0.45593999997E+02  0.45594000000E+02  0.51100000000E-03 0. -1.
         11   -1    0    0    0    0 -0.00000000000E+00 -0.00000000000E+00 -0.45593999997E+02  0.45594000000E+02  0.51100000000E-03 0.  1.
    9900012    2    1    2    0    0 -0.20580656089E+02  0.36132480592E+02  0.17320334590E+02  0.46142317087E+02  0.99999938528E+01 0.  0.
        -12    1    1    2    0    0  0.20580656089E+02 -0.36132480592E+02 -0.17320334590E+02  0.45045682913E+02  0.00000000000E+00 0.  1.
         11    1    3    3    0    0 -0.17889409075E+02  0.26719100964E+02  0.16466279989E+02  0.36125886706E+02  0.51100000000E-03 0. -1.
        -11    1    3    3    0    0 -0.24265357534E+01  0.89003787203E+01  0.32118812564E+00  0.92308168219E+01  0.51100000000E-03 0.  1.
         12    1    3    3    0    0 -0.26471126006E+00  0.51300090776E+00  0.53286647580E+00  0.78561355869E+00  0.00000000000E+00 0. -1.
</event>
<event>
 7    1  0.3766050E-009  0.4614232E+02  0.7816164E-02  0.1320468E+00
        -11   -1    0    0    0    0  0.00000000000E+00  0.00000000000E+00  0.45593999997E+02  0.45594000000E+02  0.51100000000E-03 0. -1.
         11   -1    0    0    0    0 -0.00000000000E+00 -0.00000000000E+00 -0.45593999997E+02  0.45594000000E+02  0.51100000000E-03 0.  1.
    9900012    2    1    2    0    0 -0.37327582258E+02  0.40023519441E+01  0.24894703917E+02  0.46142317616E+02  0.99999986810E+01 0.  0.
        -12    1    1    2    0    0  0.37327582258E+02 -0.40023519441E+01 -0.24894703917E+02  0.45045682384E+02  0.00000000000E+00 0.  1.
         11    1    3    3    0    0 -0.10710086558E+02  0.18489052922E+01  0.12867872478E+02  0.16843590687E+02  0.51100000000E-03 0. -1.
        -11    1    3    3    0    0 -0.23080337330E+02  0.16346115448E+01  0.10573741505E+02  0.25439692133E+02  0.51100000000E-03 0.  1.
         12    1    3    3    0    0 -0.35371583704E+01  0.51883510710E+00  0.14530899340E+01  0.38590347967E+01  0.00000000000E+00 0. -1.
</event>
<event>
 7    1  0.3766050E-009  0.4614232E+02  0.7816164E-02  0.1320468E+00
        -11   -1    0    0    0    0  0.00000000000E+00  0.00000000000E+00  0.45593999997E+02  0.45594000000E+02  0.51100000000E-03 0. -1.
         11   -1    0    0    0    0 -0.00000000000E+00 -0.00000000000E+00 -0.45593999997E+02  0.45594000000E+02  0.51100000000E-03 0.  1.
    9900012    2    1    2    0    0  0.21706344937E+02 -0.18833934320E+02 -0.34687620345E+02  0.46142317657E+02  0.99999990545E+01 0.  0.
         12    1    1    2    0    0 -0.21706344937E+02  0.18833934320E+02  0.34687620345E+02  0.45045682343E+02  0.00000000000E+00 0. -1.
         11    1    3    3    0    0  0.12748644957E+01 -0.57453004114E+01 -0.59152313577E+01  0.83440828481E+01  0.51100000000E-03 0. -1.
        -11    1    3    3    0    0  0.17126127405E+02 -0.10851539418E+02 -0.25845147196E+02  0.32848619172E+02  0.51100000000E-03 0.  1.
        -12    1    3    3    0    0  0.33053530366E+01 -0.22370944907E+01 -0.29272417913E+01  0.49496156377E+01  0.00000000000E+00 0.  1.
</event>
<event>
 7    1  0.3766050E-009  0.4614232E+02  0.7816164E-02  0.1320468E+00
        -11   -1    0    0    0    0  0.00000000000E+00  0.00000000000E+00  0.45593999997E+02  0.45594000000E+02  0.51100000000E-03 0. -1.
         11   -1    0    0    0    0 -0.00000000000E+00 -0.00000000000E+00 -0.45593999997E+02  0.45594000000E+02  0.51100000000E-03 0.  1.
    9900012    2    1    2    0    0 -0.91232017484E+01  0.14002519766E+02  0.41830731721E+02  0.46142317785E+02  0.10000000216E+02 0.  0.
        -12    1    1    2    0    0  0.91232017484E+01 -0.14002519766E+02 -0.41830731721E+02  0.45045682215E+02  0.00000000000E+00 0.  1.
         11    1    3    3    0    0 -0.64443304823E-01  0.83887908901E+00  0.74445144980E+01  0.74919067958E+01  0.51100000000E-03 0. -1.
        -11    1    3    3    0    0  0.74099050264E+00  0.32703671443E+01  0.39602255053E+01  0.51891959394E+01  0.51100000000E-03 0.  1.
        -12    1    3    3    0    0 -0.97997489462E+01  0.98932735324E+01  0.30425991718E+02  0.33461215050E+02  0.00000000000E+00 0.  1.
</event>
<event>
 7    1  0.3766050E-009  0.4614232E+02  0.7816164E-02  0.1320468E+00
        -11   -1    0    0    0    0  0.00000000000E+00  0.00000000000E+00  0.45593999997E+02  0.45594000000E+02  0.51100000000E-03 0. -1.
         11   -1    0    0    0    0 -0.00000000000E+00 -0.00000000000E+00 -0.45593999997E+02  0.45594000000E+02  0.51100000000E-03 0.  1.
    9900012    2    1    2    0    0  0.35224517409E+01 -0.18720652533E+02 -0.40819640008E+02  0.46142317544E+02  0.99999980222E+01 0.  0.
         12    1    1    2    0    0 -0.35224517409E+01  0.18720652533E+02  0.40819640008E+02  0.45045682456E+02  0.00000000000E+00 0. -1.
         11    1    3    3    0    0 -0.16865435704E+01 -0.66957538467E+01 -0.11541735817E+02  0.13449506114E+02  0.51100000000E-03 0. -1.
        -11    1    3    3    0    0  0.23108556952E+01 -0.76255575547E+00 -0.24513601099E+01  0.34540862719E+01  0.51100000000E-03 0.  1.
        -12    1    3    3    0    0  0.28981396162E+01 -0.11262342931E+02 -0.26826544082E+02  0.29238725158E+02  0.00000000000E+00 0.  1.
</event>
<event>
 7    1  0.3766050E-009  0.4614232E+02  0.7816164E-02  0.1320468E+00
        -11   -1    0    0    0    0  0.00000000000E+00  0.00000000000E+00  0.45593999997E+02  0.45594000000E+02  0.51100000000E-03 0. -1.
         11   -1    0    0    0    0 -0.00000000000E+00 -0.00000000000E+00 -0.45593999997E+02  0.45594000000E+02  0.51100000000E-03 0.  1.
    9900012    2    1    2    0    0  0.23349095520E+02 -0.14575939311E+01 -0.38494267272E+02  0.46142318137E+02  0.10000003428E+02 0.  0.
         12    1    1    2    0    0 -0.23349095520E+02  0.14575939311E+01  0.38494267272E+02  0.45045681863E+02  0.00000000000E+00 0. -1.
         11    1    3    3    0    0  0.92096619107E+01 -0.36387882951E+00 -0.83849501054E+01  0.12460243531E+02  0.51100000000E-03 0. -1.
        -11    1    3    3    0    0  0.57068483301E+01 -0.18790623749E+01 -0.17412024641E+02  0.18419489559E+02  0.51100000000E-03 0.  1.
        -12    1    3    3    0    0  0.84325852790E+01  0.78534727333E+00 -0.12697292526E+02  0.15262585047E+02  0.00000000000E+00 0.  1.
</event>
<event>
 7    1  0.3766050E-009  0.4614232E+02  0.7816164E-02  0.1320468E+00
        -11   -1    0    0    0    0  0.00000000000E+00  0.00000000000E+00  0.45593999997E+02  0.45594000000E+02  0.51100000000E-03 0. -1.
         11   -1    0    0    0    0 -0.00000000000E+00 -0.00000000000E+00 -0.45593999997E+02  0.45594000000E+02  0.51100000000E-03 0.  1.
    9900012    2    1    2    0    0  0.17197416847E+01 -0.18193997411E+02 -0.41172010910E+02  0.46142317236E+02  0.99999952142E+01 0.  0.
         12    1    1    2    0    0 -0.17197416847E+01  0.18193997411E+02  0.41172010910E+02  0.45045682764E+02  0.00000000000E+00 0. -1.
         11    1    3    3    0    0 -0.93798601621E+00 -0.38109551600E+01 -0.31528819860E+01  0.50342687728E+01  0.51100000000E-03 0. -1.
        -11    1    3    3    0    0  0.49308900754E+00 -0.12425814273E+02 -0.33446851880E+02  0.35683832446E+02  0.51100000000E-03 0.  1.
        -12    1    3    3    0    0  0.21646386934E+01 -0.19572279786E+01 -0.45722770445E+01  0.54242160175E+01  0.00000000000E+00 0.  1.
</event>
<event>
 7    1  0.3766050E-009  0.4614232E+02  0.7816164E-02  0.1320468E+00
        -11   -1    0    0    0    0  0.00000000000E+00  0.00000000000E+00  0.45593999997E+02  0.45594000000E+02  0.51100000000E-03 0. -1.
         11   -1    0    0    0    0 -0.00000000000E+00 -0.00000000000E+00 -0.45593999997E+02  0.45594000000E+02  0.51100000000E-03 0.  1.
    9900012    2    1    2    0    0  0.31481509556E+02 -0.18951279409E+02  0.26055268412E+02  0.46142318218E+02  0.10000004168E+02 0.  0.
        -12    1    1    2    0    0 -0.31481509556E+02  0.18951279409E+02 -0.26055268412E+02  0.45045681782E+02  0.00000000000E+00 0.  1.
         11    1    3    3    0    0  0.10976859888E+02 -0.66817275678E+01  0.76182360097E+01  0.14939024615E+02  0.51100000000E-03 0. -1.
        -11    1    3    3    0    0  0.43205350969E+01  0.25052688227E+00  0.13156735462E+01  0.45233598556E+01  0.51100000000E-03 0.  1.
        -12    1    3    3    0    0  0.16184114571E+02 -0.12520078724E+02  0.17121358856E+02  0.26679933748E+02  0.00000000000E+00 0.  1.
</event>
<event>
 7    1  0.3766050E-009  0.4614232E+02  0.7816164E-02  0.1320468E+00
        -11   -1    0    0    0    0  0.00000000000E+00  0.00000000000E+00  0.45593999997E+02  0.45594000000E+02  0.51100000000E-03 0.  1.
         11   -1    0    0    0    0 -0.00000000000E+00 -0.00000000000E+00 -0.45593999997E+02  0.45594000000E+02  0.51100000000E-03 0. -1.
    9900012    2    1    2    0    0  0.39323682607E+02 -0.16691268108E+02 -0.14288565605E+02  0.46142317056E+02  0.99999935743E+01 0.  0.
         12    1    1    2    0    0 -0.39323682607E+02  0.16691268108E+02  0.14288565605E+02  0.45045682944E+02  0.00000000000E+00 0. -1.
         11    1    3    3    0    0  0.72779343978E+01 -0.62277967630E+01 -0.14042195784E+01  0.96811990221E+01  0.51100000000E-03 0. -1.
        -11    1    3    3    0    0  0.24285547447E+02 -0.63034222284E+01 -0.11288480092E+02  0.27512737589E+02  0.51100000000E-03 0.  1.
        -12    1    3    3    0    0  0.77602007620E+01 -0.41600491161E+01 -0.15958659352E+01  0.89483804456E+01  0.00000000000E+00 0.  1.
</event>
<event>
 7    1  0.3766050E-009  0.4614232E+02  0.7816164E-02  0.1320468E+00
        -11   -1    0    0    0    0  0.00000000000E+00  0.00000000000E+00  0.45593999997E+02  0.45594000000E+02  0.51100000000E-03 0. -1.
         11   -1    0    0    0    0 -0.00000000000E+00 -0.00000000000E+00 -0.45593999997E+02  0.45594000000E+02  0.51100000000E-03 0.  1.
    9900012    2    1    2    0    0  0.16854883237E+02 -0.95614786473E+01  0.40664535923E+02  0.46142318246E+02  0.10000004418E+02 0.  0.
        -12    1    1    2    0    0 -0.16854883237E+02  0.95614786473E+01 -0.40664535923E+02  0.45045681754E+02  0.00000000000E+00 0.  1.
         11    1    3    3    0    0  0.80444976713E+01 -0.88618589995E+00  0.13502391238E+02  0.15742103978E+02  0.51100000000E-03 0. -1.
        -11    1    3    3    0    0 -0.80908790854E+00 -0.67224516986E+00  0.13201937180E+01  0.16880309613E+01  0.51100000000E-03 0.  1.
         12    1    3    3    0    0  0.96194734741E+01 -0.80030475775E+01  0.25841950967E+02  0.28712183306E+02  0.00000000000E+00 0. -1.
</event>
<event>
 7    1  0.3766050E-009  0.4614232E+02  0.7816164E-02  0.1320468E+00
        -11   -1    0    0    0    0  0.00000000000E+00  0.00000000000E+00  0.45593999997E+02  0.45594000000E+02  0.51100000000E-03 0. -1.
         11   -1    0    0    0    0 -0.00000000000E+00 -0.00000000000E+00 -0.45593999997E+02  0.45594000000E+02  0.51100000000E-03 0.  1.
    9900012    2    1    2    0    0  0.20888768627E+02  0.20629508924E+02  0.34164253484E+02  0.46142317528E+02  0.99999978750E+01 0.  0.
        -12    1    1    2    0    0 -0.20888768627E+02 -0.20629508924E+02 -0.34164253484E+02  0.45045682472E+02  0.00000000000E+00 0.  1.
         11    1    3    3    0    0  0.26316222601E+01  0.12045934296E+01  0.21811519832E+00  0.29024223592E+01  0.51100000000E-03 0. -1.
        -11    1    3    3    0    0  0.12877692871E+02  0.12380826955E+02  0.21347098604E+02  0.27835561227E+02  0.51100000000E-03 0.  1.
        -12    1    3    3    0    0  0.53794534959E+01  0.70440885400E+01  0.12599039682E+02  0.15404333942E+02  0.00000000000E+00 0.  1.
</event>
<event>
 7    1  0.3766050E-009  0.4614232E+02  0.7816164E-02  0.1320468E+00
        -11   -1    0    0    0    0  0.00000000000E+00  0.00000000000E+00  0.45593999997E+02  0.45594000000E+02  0.51100000000E-03 0. -1.
         11   -1    0    0    0    0 -0.00000000000E+00 -0.00000000000E+00 -0.45593999997E+02  0.45594000000E+02  0.51100000000E-03 0.  1.
    9900012    2    1    2    0    0  0.19713332602E+02  0.13520941244E+01  0.40480489102E+02  0.46142316092E+02  0.99999847810E+01 0.  0.
        -12    1    1    2    0    0 -0.19713332602E+02 -0.13520941244E+01 -0.40480489102E+02  0.45045683908E+02  0.00000000000E+00 0.  1.
         11    1    3    3    0    0 -0.58323247403E+00 -0.45803377318E+00  0.56714320165E+00  0.93359880486E+00  0.51100000000E-03 0. -1.
        -11    1    3    3    0    0  0.20139300757E+01  0.14895404355E+01  0.84957528575E+01  0.88573394389E+01  0.51100000000E-03 0.  1.
         12    1    3    3    0    0  0.18282635000E+02  0.32058746201E+00  0.31417593043E+02  0.36351377848E+02  0.00000000000E+00 0. -1.
</event>
<event>
 7    1  0.3766050E-009  0.4614232E+02  0.7816164E-02  0.1320468E+00
        -11   -1    0    0    0    0  0.00000000000E+00  0.00000000000E+00  0.45593999997E+02  0.45594000000E+02  0.51100000000E-03 0. -1.
         11   -1    0    0    0    0 -0.00000000000E+00 -0.00000000000E+00 -0.45593999997E+02  0.45594000000E+02  0.51100000000E-03 0.  1.
    9900012    2    1    2    0    0  0.19336341325E+02 -0.25856211557E+02  0.31411396579E+02  0.46142316445E+02  0.99999880012E+01 0.  0.
        -12    1    1    2    0    0 -0.19336341325E+02  0.25856211557E+02 -0.31411396579E+02  0.45045683555E+02  0.00000000000E+00 0.  1.
         11    1    3    3    0    0  0.15573938906E+02 -0.17678225448E+02  0.21941023044E+02  0.32194342990E+02  0.51100000000E-03 0. -1.
        -11    1    3    3    0    0  0.24886313080E+01 -0.20663373161E+01  0.92362272647E+00  0.33639433546E+01  0.51100000000E-03 0.  1.
         12    1    3    3    0    0  0.12737711105E+01 -0.61116487924E+01  0.85467508081E+01  0.10584030101E+02  0.00000000000E+00 0. -1.
</event>
<event>
 7    1  0.3766050E-009  0.4614232E+02  0.7816164E-02  0.1320468E+00
        -11   -1    0    0    0    0  0.00000000000E+00  0.00000000000E+00  0.45593999997E+02  0.45594000000E+02  0.51100000000E-03 0. -1.
         11   -1    0    0    0    0 -0.00000000000E+00 -0.00000000000E+00 -0.45593999997E+02  0.45594000000E+02  0.51100000000E-03 0.  1.
    9900012    2    1    2    0    0 -0.19142919441E+02  0.25902088506E+02 -0.31491958077E+02  0.46142323435E+02  0.10000051736E+02 0.  0.
         12    1    1    2    0    0  0.19142919441E+02 -0.25902088506E+02  0.31491958077E+02  0.45045676565E+02  0.00000000000E+00 0. -1.
         11    1    3    3    0    0 -0.27873522450E+01  0.38551078971E+01 -0.85324421834E+01  0.97690203864E+01  0.51100000000E-03 0. -1.
        -11    1    3    3    0    0 -0.16930407619E+02  0.21751210339E+02 -0.22482761773E+02  0.35570049628E+02  0.51100000000E-03 0.  1.
         12    1    3    3    0    0  0.57484042343E+00  0.29577027064E+00 -0.47675412047E+00  0.80325342003E+00  0.00000000000E+00 0. -1.
</event>
<event>
 7    1  0.3766050E-009  0.4614232E+02  0.7816164E-02  0.1320468E+00
        -11   -1    0    0    0    0  0.00000000000E+00  0.00000000000E+00  0.45593999997E+02  0.45594000000E+02  0.51100000000E-03 0. -1.
         11   -1    0    0    0    0 -0.00000000000E+00 -0.00000000000E+00 -0.45593999997E+02  0.45594000000E+02  0.51100000000E-03 0.  1.
    9900012    2    1    2    0    0 -0.32538930461E+01  0.19376501143E+02 -0.40534883577E+02  0.46142318708E+02  0.10000008634E+02 0.  0.
         12    1    1    2    0    0  0.32538930461E+01 -0.19376501143E+02  0.40534883577E+02  0.45045681292E+02  0.00000000000E+00 0. -1.
         11    1    3    3    0    0  0.84451435964E+00  0.12737243398E+01 -0.54460149343E+01  0.56563819818E+01  0.51100000000E-03 0. -1.
        -11    1    3    3    0    0 -0.28330848274E+01  0.18115026097E+02 -0.34543613428E+02  0.39108078054E+02  0.51100000000E-03 0.  1.
         12    1    3    3    0    0 -0.12653225783E+01 -0.12249294193E-01 -0.54525521439E+00  0.13778586724E+01  0.00000000000E+00 0. -1.
</event>
<event>
 7    1  0.3766050E-009  0.4614232E+02  0.7816164E-02  0.1320468E+00
        -11   -1    0    0    0    0  0.00000000000E+00  0.00000000000E+00  0.45593999997E+02  0.45594000000E+02  0.51100000000E-03 0. -1.
         11   -1    0    0    0    0 -0.00000000000E+00 -0.00000000000E+00 -0.45593999997E+02  0.45594000000E+02  0.51100000000E-03 0.  1.
    9900012    2    1    2    0    0 -0.10166795441E+02  0.70321245910E+01 -0.43316264557E+02  0.46142320063E+02  0.10000020990E+02 0.  0.
         12    1    1    2    0    0  0.10166795441E+02 -0.70321245910E+01  0.43316264557E+02  0.45045679937E+02  0.00000000000E+00 0. -1.
         11    1    3    3    0    0 -0.29273655301E+01  0.19843800633E+00 -0.41517399549E+01  0.50838756381E+01  0.51100000000E-03 0. -1.
        -11    1    3    3    0    0 -0.58953506992E+01  0.14019255077E+01 -0.13603787048E+02  0.14892399985E+02  0.51100000000E-03 0.  1.
         12    1    3    3    0    0 -0.13440792116E+01  0.54317610770E+01 -0.25560737554E+02  0.26166044440E+02  0.00000000000E+00 0. -1.
</event>
<event>
 7    1  0.3766050E-009  0.4614231E+02  0.7816164E-02  0.1320468E+00
        -11   -1    0    0    0    0  0.00000000000E+00  0.00000000000E+00  0.45593999997E+02  0.45594000000E+02  0.51100000000E-03 0. -1.
         11   -1    0    0    0    0 -0.00000000000E+00 -0.00000000000E+00 -0.45593999997E+02  0.45594000000E+02  0.51100000000E-03 0.  1.
    9900012    2    1    2    0    0 -0.26935952949E+02 -0.32280222607E+02  0.16172674793E+02  0.46142314937E+02  0.99999742478E+01 0.  0.
        -12    1    1    2    0    0  0.26935952949E+02  0.32280222607E+02 -0.16172674793E+02  0.45045685063E+02  0.00000000000E+00 0.  1.
         11    1    3    3    0    0 -0.10953524890E+02 -0.77365265332E+01  0.35616139789E+01  0.13875108818E+02  0.51100000000E-03 0. -1.
        -11    1    3    3    0    0 -0.11708408741E+01 -0.32991341136E+01  0.92049392566E-01  0.35019462594E+01  0.51100000000E-03 0.  1.
         12    1    3    3    0    0 -0.14811587185E+02 -0.21244561960E+02  0.12519011421E+02  0.28765259859E+02  0.00000000000E+00 0. -1.
</event>
<event>
 7    1  0.3766050E-009  0.4614232E+02  0.7816164E-02  0.1320468E+00
        -11   -1    0    0    0    0  0.00000000000E+00  0.00000000000E+00  0.45593999997E+02  0.45594000000E+02  0.51100000000E-03 0. -1.
         11   -1    0    0    0    0 -0.00000000000E+00 -0.00000000000E+00 -0.45593999997E+02  0.45594000000E+02  0.51100000000E-03 0.  1.
    9900012    2    1    2    0    0 -0.11745301214E+01 -0.44075841277E+00  0.45028208998E+02  0.46142318803E+02  0.10000009499E+02 0.  0.
        -12    1    1    2    0    0  0.11745301214E+01  0.44075841277E+00 -0.45028208998E+02  0.45045681197E+02  0.00000000000E+00 0.  1.
         11    1    3    3    0    0 -0.44315065631E+01  0.76821726236E+00  0.26777828110E+02  0.27152909360E+02  0.51100000000E-03 0. -1.
        -11    1    3    3    0    0  0.11947910097E+01  0.67695899338E+00  0.12711823795E+02  0.12785783648E+02  0.51100000000E-03 0.  1.
        -12    1    3    3    0    0  0.20621854320E+01 -0.18859346685E+01  0.55385570934E+01  0.62036257952E+01  0.00000000000E+00 0.  1.
</event>
<event>
 7    1  0.3766050E-009  0.4614232E+02  0.7816164E-02  0.1320468E+00
        -11   -1    0    0    0    0  0.00000000000E+00  0.00000000000E+00  0.45593999997E+02  0.45594000000E+02  0.51100000000E-03 0. -1.
         11   -1    0    0    0    0 -0.00000000000E+00 -0.00000000000E+00 -0.45593999997E+02  0.45594000000E+02  0.51100000000E-03 0.  1.
    9900012    2    1    2    0    0  0.24074279848E+02 -0.35766352165E+01  0.37904490380E+02  0.46142315849E+02  0.99999825663E+01 0.  0.
        -12    1    1    2    0    0 -0.24074279848E+02  0.35766352165E+01 -0.37904490380E+02  0.45045684151E+02  0.00000000000E+00 0.  1.
         11    1    3    3    0    0  0.12234165426E+02  0.22847018492E+01  0.16367127397E+02  0.20561554555E+02  0.51100000000E-03 0. -1.
        -11    1    3    3    0    0  0.46219399607E+01 -0.26431521126E+01  0.52505903732E+01  0.74777858768E+01  0.51100000000E-03 0.  1.
         12    1    3    3    0    0  0.72181744606E+01 -0.32181849531E+01  0.16286772610E+02  0.18102975418E+02  0.00000000000E+00 0. -1.
</event>
<event>
 7    1  0.3766050E-009  0.4614232E+02  0.7816164E-02  0.1320468E+00
        -11   -1    0    0    0    0  0.00000000000E+00  0.00000000000E+00  0.45593999997E+02  0.45594000000E+02  0.51100000000E-03 0. -1.
         11   -1    0    0    0    0 -0.00000000000E+00 -0.00000000000E+00 -0.45593999997E+02  0.45594000000E+02  0.51100000000E-03 0.  1.
    9900012    2    1    2    0    0  0.12362425112E+02  0.21887671585E+02  0.37379321554E+02  0.46142318721E+02  0.10000008751E+02 0.  0.
        -12    1    1    2    0    0 -0.12362425112E+02 -0.21887671585E+02 -0.37379321554E+02  0.45045681279E+02  0.00000000000E+00 0.  1.
         11    1    3    3    0    0  0.55229988725E+00  0.71220631929E+01  0.80111130553E+01  0.10733440825E+02  0.51100000000E-03 0. -1.
        -11    1    3    3    0    0  0.31381795946E+01  0.22172299854E+01  0.10281043736E+02  0.10975615724E+02  0.51100000000E-03 0.  1.
        -12    1    3    3    0    0  0.86719456299E+01  0.12548378407E+02  0.19087164763E+02  0.24433262172E+02  0.00000000000E+00 0.  1.
</event>
<event>
 7    1  0.3766050E-009  0.4614232E+02  0.7816164E-02  0.1320468E+00
        -11   -1    0    0    0    0  0.00000000000E+00  0.00000000000E+00  0.45593999997E+02  0.45594000000E+02  0.51100000000E-03 0. -1.
         11   -1    0    0    0    0 -0.00000000000E+00 -0.00000000000E+00 -0.45593999997E+02  0.45594000000E+02  0.51100000000E-03 0.  1.
    9900012    2    1    2    0    0 -0.10819665766E+02 -0.43078505386E+02 -0.75027136130E+01  0.46142317575E+02  0.99999983052E+01 0.  0.
         12    1    1    2    0    0  0.10819665766E+02  0.43078505386E+02  0.75027136130E+01  0.45045682425E+02  0.00000000000E+00 0. -1.
         11    1    3    3    0    0 -0.55849952051E+00 -0.57826969497E+00  0.43609680126E+00  0.91460277483E+00  0.51100000000E-03 0. -1.
        -11    1    3    3    0    0 -0.29723008572E+01 -0.14848101810E+02  0.12418748507E+01  0.15193516813E+02  0.51100000000E-03 0.  1.
        -12    1    3    3    0    0 -0.72888653879E+01 -0.27652133881E+02 -0.91806852649E+01  0.30034197987E+02  0.00000000000E+00 0.  1.
</event>
<event>
 7    1  0.3766050E-009  0.4614232E+02  0.7816164E-02  0.1320468E+00
        -11   -1    0    0    0    0  0.00000000000E+00  0.00000000000E+00  0.45593999997E+02  0.45594000000E+02  0.51100000000E-03 0. -1.
         11   -1    0    0    0    0 -0.00000000000E+00 -0.00000000000E+00 -0.45593999997E+02  0.45594000000E+02  0.51100000000E-03 0.  1.
    9900012    2    1    2    0    0  0.14979219858E+02  0.33714907460E+02 -0.25846497798E+02  0.46142318065E+02  0.10000002773E+02 0.  0.
         12    1    1    2    0    0 -0.14979219858E+02 -0.33714907460E+02  0.25846497798E+02  0.45045681935E+02  0.00000000000E+00 0. -1.
         11    1    3    3    0    0  0.47474202530E+01  0.54680002842E+01 -0.83825801859E+01  0.11077214316E+02  0.51100000000E-03 0. -1.
        -11    1    3    3    0    0  0.28744708267E+01  0.11382064146E+02 -0.45717325312E+01  0.12598202465E+02  0.51100000000E-03 0.  1.
         12    1    3    3    0    0  0.73573287779E+01  0.16864843030E+02 -0.12892185081E+02  0.22466901284E+02  0.00000000000E+00 0. -1.
</event>
<event>
 7    1  0.3766050E-009  0.4614232E+02  0.7816164E-02  0.1320468E+00
        -11   -1    0    0    0    0  0.00000000000E+00  0.00000000000E+00  0.45593999997E+02  0.45594000000E+02  0.51100000000E-03 0. -1.
         11   -1    0    0    0    0 -0.00000000000E+00 -0.00000000000E+00 -0.45593999997E+02  0.45594000000E+02  0.51100000000E-03 0.  1.
    9900012    2    1    2    0    0  0.33304295479E+02 -0.46282294429E+01 -0.29975272187E+02  0.46142317101E+02  0.99999939836E+01 0.  0.
         12    1    1    2    0    0 -0.33304295479E+02  0.46282294429E+01  0.29975272187E+02  0.45045682899E+02  0.00000000000E+00 0. -1.
         11    1    3    3    0    0  0.12324021308E+02 -0.47946289793E+00 -0.13081851494E+02  0.17979049604E+02  0.51100000000E-03 0. -1.
        -11    1    3    3    0    0  0.18410100070E+02 -0.32424200281E+01 -0.17223088554E+02  0.25418100870E+02  0.51100000000E-03 0.  1.
         12    1    3    3    0    0  0.25701740999E+01 -0.90634651680E+00  0.32966786125E+00  0.27451666272E+01  0.00000000000E+00 0. -1.
</event>
<event>
 7    1  0.3766050E-009  0.4614232E+02  0.7816164E-02  0.1320468E+00
        -11   -1    0    0    0    0  0.00000000000E+00  0.00000000000E+00  0.45593999997E+02  0.45594000000E+02  0.51100000000E-03 0. -1.
         11   -1    0    0    0    0 -0.00000000000E+00 -0.00000000000E+00 -0.45593999997E+02  0.45594000000E+02  0.51100000000E-03 0.  1.
    9900012    2    1    2    0    0  0.12214602241E+02 -0.44004300651E+01  0.43134129462E+02  0.46142318552E+02  0.10000007209E+02 0.  0.
        -12    1    1    2    0    0 -0.12214602241E+02  0.44004300651E+01 -0.43134129462E+02  0.45045681448E+02  0.00000000000E+00 0.  1.
         11    1    3    3    0    0  0.23268185041E+01 -0.43183706733E+01  0.24297748707E+02  0.24787960830E+02  0.51100000000E-03 0. -1.
        -11    1    3    3    0    0  0.92540460878E+01  0.39716698930E+00  0.17210692802E+02  0.19544898505E+02  0.51100000000E-03 0.  1.
        -12    1    3    3    0    0  0.63373764944E+00 -0.47922638107E+00  0.16256879537E+01  0.18094592163E+01  0.00000000000E+00 0.  1.
</event>
<event>
 7    1  0.3766050E-009  0.4614232E+02  0.7816164E-02  0.1320468E+00
        -11   -1    0    0    0    0  0.00000000000E+00  0.00000000000E+00  0.45593999997E+02  0.45594000000E+02  0.51100000000E-03 0. -1.
         11   -1    0    0    0    0 -0.00000000000E+00 -0.00000000000E+00 -0.45593999997E+02  0.45594000000E+02  0.51100000000E-03 0.  1.
    9900012    2    1    2    0    0  0.34309491430E+02 -0.27558909414E+02  0.96165895543E+01  0.46142317800E+02  0.10000000350E+02 0.  0.
         12    1    1    2    0    0 -0.34309491430E+02  0.27558909414E+02 -0.96165895543E+01  0.45045682200E+02  0.00000000000E+00 0. -1.
         11    1    3    3    0    0  0.12168042999E+02 -0.53124122258E+01  0.36156107563E+01  0.13760655344E+02  0.51100000000E-03 0. -1.
        -11    1    3    3    0    0  0.21353711235E+02 -0.19415826597E+02  0.57887195646E+01  0.29435770423E+02  0.51100000000E-03 0.  1.
         12    1    3    3    0    0  0.78773719548E+00 -0.28306705913E+01  0.21225923343E+00  0.29458920326E+01  0.00000000000E+00 0. -1.
</event>
<event>
 7    1  0.3766050E-009  0.4614232E+02  0.7816164E-02  0.1320468E+00
        -11   -1    0    0    0    0  0.00000000000E+00  0.00000000000E+00  0.45593999997E+02  0.45594000000E+02  0.51100000000E-03 0. -1.
         11   -1    0    0    0    0 -0.00000000000E+00 -0.00000000000E+00 -0.45593999997E+02  0.45594000000E+02  0.51100000000E-03 0.  1.
    9900012    2    1    2    0    0 -0.33905623907E+02  0.10100947534E+02  0.27883561641E+02  0.46142317816E+02  0.10000000504E+02 0.  0.
        -12    1    1    2    0    0  0.33905623907E+02 -0.10100947534E+02 -0.27883561641E+02  0.45045682184E+02  0.00000000000E+00 0.  1.
         11    1    3    3    0    0 -0.26001076876E+02  0.82411933840E+01  0.15863405181E+02  0.31553460845E+02  0.51100000000E-03 0. -1.
        -11    1    3    3    0    0 -0.64950745843E+01  0.21066320263E+01  0.10177843186E+02  0.12256116209E+02  0.51100000000E-03 0.  1.
         12    1    3    3    0    0 -0.14094724471E+01 -0.24687787658E+00  0.18423132736E+01  0.23327407621E+01  0.00000000000E+00 0. -1.
</event>
<event>
 7    1  0.3766050E-009  0.4614232E+02  0.7816164E-02  0.1320468E+00
        -11   -1    0    0    0    0  0.00000000000E+00  0.00000000000E+00  0.45593999997E+02  0.45594000000E+02  0.51100000000E-03 0. -1.
         11   -1    0    0    0    0 -0.00000000000E+00 -0.00000000000E+00 -0.45593999997E+02  0.45594000000E+02  0.51100000000E-03 0.  1.
    9900012    2    1    2    0    0  0.44401191878E+01  0.67873313611E+01  0.44309491957E+02  0.46142316490E+02  0.99999884111E+01 0.  0.
        -12    1    1    2    0    0 -0.44401191878E+01 -0.67873313611E+01 -0.44309491957E+02  0.45045683510E+02  0.00000000000E+00 0.  1.
         11    1    3    3    0    0  0.98694928101E+00  0.13405335383E+01  0.18372562188E+02  0.18447822111E+02  0.51100000000E-03 0. -1.
        -11    1    3    3    0    0 -0.44777161487E+00  0.35091288080E+01  0.40459867686E+01  0.53744296072E+01  0.51100000000E-03 0.  1.
        -12    1    3    3    0    0  0.39009415217E+01  0.19376690148E+01  0.21890943000E+02  0.22320064772E+02  0.00000000000E+00 0.  1.
</event>
<event>
 7    1  0.3766050E-009  0.4614232E+02  0.7816164E-02  0.1320468E+00
        -11   -1    0    0    0    0  0.00000000000E+00  0.00000000000E+00  0.45593999997E+02  0.45594000000E+02  0.51100000000E-03 0.  1.
         11   -1    0    0    0    0 -0.00000000000E+00 -0.00000000000E+00 -0.45593999997E+02  0.45594000000E+02  0.51100000000E-03 0. -1.
    9900012    2    1    2    0    0 -0.17914291695E+02 -0.40463405238E+02 -0.84204760881E+01  0.46142318431E+02  0.10000006112E+02 0.  0.
         12    1    1    2    0    0  0.17914291695E+02  0.40463405238E+02  0.84204760881E+01  0.45045681569E+02  0.00000000000E+00 0. -1.
         11    1    3    3    0    0 -0.68812584487E+01 -0.10321974541E+02 -0.44169736071E+01  0.13168315472E+02  0.51100000000E-03 0. -1.
        -11    1    3    3    0    0 -0.90153887549E+01 -0.17104550530E+02 -0.57449156181E+00  0.19343549934E+02  0.51100000000E-03 0.  1.
         12    1    3    3    0    0 -0.20176444919E+01 -0.13036880167E+02 -0.34290109192E+01  0.13630453025E+02  0.00000000000E+00 0. -1.
</event>
<event>
 7    1  0.3766050E-009  0.4614232E+02  0.7816164E-02  0.1320468E+00
        -11   -1    0    0    0    0  0.00000000000E+00  0.00000000000E+00  0.45593999997E+02  0.45594000000E+02  0.51100000000E-03 0. -1.
         11   -1    0    0    0    0 -0.00000000000E+00 -0.00000000000E+00 -0.45593999997E+02  0.45594000000E+02  0.51100000000E-03 0.  1.
    9900012    2    1    2    0    0 -0.50572579998E+01  0.36352418868E+02  0.26115883182E+02  0.46142316850E+02  0.99999916933E+01 0.  0.
        -12    1    1    2    0    0  0.50572579998E+01 -0.36352418868E+02 -0.26115883182E+02  0.45045683150E+02  0.00000000000E+00 0.  1.
         11    1    3    3    0    0 -0.12477727546E+00  0.76102341844E+01  0.87867885324E+01  0.11624925233E+02  0.51100000000E-03 0. -1.
        -11    1    3    3    0    0 -0.23521535233E+01  0.60148448393E+01  0.13032258884E+01  0.65885797115E+01  0.51100000000E-03 0.  1.
        -12    1    3    3    0    0 -0.25803272010E+01  0.22727339844E+02  0.16025868762E+02  0.27928811905E+02  0.00000000000E+00 0.  1.
</event>
<event>
 7    1  0.3766050E-009  0.4614232E+02  0.7816164E-02  0.1320468E+00
        -11   -1    0    0    0    0  0.00000000000E+00  0.00000000000E+00  0.45593999997E+02  0.45594000000E+02  0.51100000000E-03 0. -1.
         11   -1    0    0    0    0 -0.00000000000E+00 -0.00000000000E+00 -0.45593999997E+02  0.45594000000E+02  0.51100000000E-03 0.  1.
    9900012    2    1    2    0    0  0.23642454007E+02  0.17791482129E+02 -0.33964849436E+02  0.46142318020E+02  0.10000002364E+02 0.  0.
         12    1    1    2    0    0 -0.23642454007E+02 -0.17791482129E+02  0.33964849436E+02  0.45045681980E+02  0.00000000000E+00 0. -1.
         11    1    3    3    0    0  0.15077884384E+02  0.72094180577E+01 -0.15092535142E+02  0.22518945879E+02  0.51100000000E-03 0. -1.
        -11    1    3    3    0    0  0.10600753311E+01  0.42766187982E+01 -0.57083391185E+01  0.72109891004E+01  0.51100000000E-03 0.  1.
         12    1    3    3    0    0  0.75044942917E+01  0.63054452733E+01 -0.13163975175E+02  0.16412383041E+02  0.00000000000E+00 0. -1.
</event>
<event>
 7    1  0.3766050E-009  0.4614232E+02  0.7816164E-02  0.1320468E+00
        -11   -1    0    0    0    0  0.00000000000E+00  0.00000000000E+00  0.45593999997E+02  0.45594000000E+02  0.51100000000E-03 0.  1.
         11   -1    0    0    0    0 -0.00000000000E+00 -0.00000000000E+00 -0.45593999997E+02  0.45594000000E+02  0.51100000000E-03 0. -1.
    9900012    2    1    2    0    0  0.40026822969E+02  0.92250523676E+00  0.20642575592E+02  0.46142317633E+02  0.99999988289E+01 0.  0.
        -12    1    1    2    0    0 -0.40026822969E+02 -0.92250523676E+00 -0.20642575592E+02  0.45045682367E+02  0.00000000000E+00 0.  1.
         11    1    3    3    0    0  0.80067660145E+01 -0.16042758552E+01  0.17081771287E+01  0.83426537981E+01  0.51100000000E-03 0. -1.
        -11    1    3    3    0    0  0.26923097428E+02 -0.11209513499E-01  0.16707049536E+02  0.31685624583E+02  0.51100000000E-03 0.  1.
        -12    1    3    3    0    0  0.50969595259E+01  0.25379906055E+01  0.22273489273E+01  0.61140392513E+01  0.00000000000E+00 0.  1.
</event>
<event>
 7    1  0.3766050E-009  0.4614232E+02  0.7816164E-02  0.1320468E+00
        -11   -1    0    0    0    0  0.00000000000E+00  0.00000000000E+00  0.45593999997E+02  0.45594000000E+02  0.51100000000E-03 0. -1.
         11   -1    0    0    0    0 -0.00000000000E+00 -0.00000000000E+00 -0.45593999997E+02  0.45594000000E+02  0.51100000000E-03 0.  1.
    9900012    2    1    2    0    0  0.62469979245E+01 -0.24587875906E+02  0.37222637526E+02  0.46142319086E+02  0.10000012080E+02 0.  0.
        -12    1    1    2    0    0 -0.62469979245E+01  0.24587875906E+02 -0.37222637526E+02  0.45045680914E+02  0.00000000000E+00 0.  1.
         11    1    3    3    0    0  0.45029557926E+01 -0.17187499046E+02  0.32530099155E+02  0.37066077290E+02  0.51100000000E-03 0. -1.
        -11    1    3    3    0    0  0.12110367764E+01 -0.66483434874E+01  0.36349135591E+01  0.76733094583E+01  0.51100000000E-03 0.  1.
        -12    1    3    3    0    0  0.53300535556E+00 -0.75203337207E+00  0.10576248117E+01  0.14029323377E+01  0.00000000000E+00 0.  1.
</event>
<event>
 7    1  0.3766050E-009  0.4614232E+02  0.7816164E-02  0.1320468E+00
        -11   -1    0    0    0    0  0.00000000000E+00  0.00000000000E+00  0.45593999997E+02  0.45594000000E+02  0.51100000000E-03 0. -1.
         11   -1    0    0    0    0 -0.00000000000E+00 -0.00000000000E+00 -0.45593999997E+02  0.45594000000E+02  0.51100000000E-03 0.  1.
    9900012    2    1    2    0    0  0.13737489394E+02  0.21366363473E+02  0.37200448899E+02  0.46142317618E+02  0.99999986984E+01 0.  0.
        -12    1    1    2    0    0 -0.13737489394E+02 -0.21366363473E+02 -0.37200448899E+02  0.45045682382E+02  0.00000000000E+00 0.  1.
         11    1    3    3    0    0  0.82566788799E+01  0.86844783321E+01  0.14468136562E+02  0.18786162084E+02  0.51100000000E-03 0. -1.
        -11    1    3    3    0    0  0.40604420924E+01  0.54933304157E+01  0.60088262099E+01  0.90977943329E+01  0.51100000000E-03 0.  1.
         12    1    3    3    0    0  0.14203684218E+01  0.71885547255E+01  0.16723486128E+02  0.18258361201E+02  0.00000000000E+00 0. -1.
</event>
<event>
 7    1  0.3766050E-009  0.4614232E+02  0.7816164E-02  0.1320468E+00
        -11   -1    0    0    0    0  0.00000000000E+00  0.00000000000E+00  0.45593999997E+02  0.45594000000E+02  0.51100000000E-03 0. -1.
         11   -1    0    0    0    0 -0.00000000000E+00 -0.00000000000E+00 -0.45593999997E+02  0.45594000000E+02  0.51100000000E-03 0.  1.
    9900012    2    1    2    0    0 -0.32912223861E+02 -0.28949227667E+02  0.10384662768E+02  0.46142317823E+02  0.10000000564E+02 0.  0.
        -12    1    1    2    0    0  0.32912223861E+02  0.28949227667E+02 -0.10384662768E+02  0.45045682177E+02  0.00000000000E+00 0.  1.
         11    1    3    3    0    0 -0.13285144533E+01  0.47207395623E+00  0.52343257997E+00  0.15039236681E+01  0.51100000000E-03 0.  1.
        -11    1    3    3    0    0 -0.78929061970E+01 -0.10398281389E+02  0.16001590158E+01  0.13152290037E+02  0.51100000000E-03 0. -1.
         12    1    3    3    0    0 -0.23690803211E+02 -0.19023020234E+02  0.82610711723E+01  0.31486104118E+02  0.00000000000E+00 0. -1.
</event>
<event>
 7    1  0.3766050E-009  0.4614232E+02  0.7816164E-02  0.1320468E+00
        -11   -1    0    0    0    0  0.00000000000E+00  0.00000000000E+00  0.45593999997E+02  0.45594000000E+02  0.51100000000E-03 0. -1.
         11   -1    0    0    0    0 -0.00000000000E+00 -0.00000000000E+00 -0.45593999997E+02  0.45594000000E+02  0.51100000000E-03 0.  1.
    9900012    2    1    2    0    0  0.35516538353E+02 -0.22345085323E+02 -0.16382484137E+02  0.46142321837E+02  0.10000037164E+02 0.  0.
         12    1    1    2    0    0 -0.35516538353E+02  0.22345085323E+02  0.16382484137E+02  0.45045678163E+02  0.00000000000E+00 0. -1.
         11    1    3    3    0    0  0.11702188094E+02 -0.72328668011E+01 -0.24427625822E+01  0.13972210192E+02  0.51100000000E-03 0. -1.
        -11    1    3    3    0    0  0.13703266201E+02 -0.48241361951E+01 -0.78449616956E+01  0.16510457864E+02  0.51100000000E-03 0.  1.
         12    1    3    3    0    0  0.10111084057E+02 -0.10288082327E+02 -0.60947598596E+01  0.15659653781E+02  0.00000000000E+00 0. -1.
</event>
<event>
 7    1  0.3766050E-009  0.4614231E+02  0.7816164E-02  0.1320468E+00
        -11   -1    0    0    0    0  0.00000000000E+00  0.00000000000E+00  0.45593999997E+02  0.45594000000E+02  0.51100000000E-03 0. -1.
         11   -1    0    0    0    0 -0.00000000000E+00 -0.00000000000E+00 -0.45593999997E+02  0.45594000000E+02  0.51100000000E-03 0.  1.
    9900012    2    1    2    0    0 -0.24600706307E+02 -0.19195929581E+02 -0.32487463504E+02  0.46142314877E+02  0.99999737038E+01 0.  0.
         12    1    1    2    0    0  0.24600706307E+02  0.19195929581E+02  0.32487463504E+02  0.45045685123E+02  0.00000000000E+00 0. -1.
         11    1    3    3    0    0 -0.20711400723E+01 -0.46616040100E+01 -0.20058906156E+01  0.54812198066E+01  0.51100000000E-03 0. -1.
        -11    1    3    3    0    0 -0.11417195763E+02 -0.85853477197E+01 -0.15382857878E+02  0.20992686138E+02  0.51100000000E-03 0.  1.
         12    1    3    3    0    0 -0.11112370471E+02 -0.59489778511E+01 -0.15098715010E+02  0.19668408932E+02  0.00000000000E+00 0. -1.
</event>
<event>
 7    1  0.3766050E-009  0.4614232E+02  0.7816164E-02  0.1320468E+00
        -11   -1    0    0    0    0  0.00000000000E+00  0.00000000000E+00  0.45593999997E+02  0.45594000000E+02  0.51100000000E-03 0.  1.
         11   -1    0    0    0    0 -0.00000000000E+00 -0.00000000000E+00 -0.45593999997E+02  0.45594000000E+02  0.51100000000E-03 0. -1.
    9900012    2    1    2    0    0 -0.19766402595E+02  0.38667402472E+02 -0.11968076391E+02  0.46142317210E+02  0.99999949760E+01 0.  0.
        -12    1    1    2    0    0  0.19766402595E+02 -0.38667402472E+02  0.11968076391E+02  0.45045682790E+02  0.00000000000E+00 0.  1.
         11    1    3    3    0    0 -0.44817979698E+00  0.35152118351E+01  0.11342538362E+01  0.37207675824E+01  0.51100000000E-03 0. -1.
        -11    1    3    3    0    0 -0.62831076938E+00  0.32356995249E+01 -0.17528592914E+01  0.37332347629E+01  0.51100000000E-03 0.  1.
         12    1    3    3    0    0 -0.18689912029E+02  0.31916491112E+02 -0.11349470936E+02  0.38688314865E+02  0.00000000000E+00 0. -1.
</event>
<event>
 7    1  0.3766050E-009  0.4614232E+02  0.7816164E-02  0.1320468E+00
        -11   -1    0    0    0    0  0.00000000000E+00  0.00000000000E+00  0.45593999997E+02  0.45594000000E+02  0.51100000000E-03 0. -1.
         11   -1    0    0    0    0 -0.00000000000E+00 -0.00000000000E+00 -0.45593999997E+02  0.45594000000E+02  0.51100000000E-03 0.  1.
    9900012    2    1    2    0    0 -0.96286018150E+01 -0.17192511643E+02  0.40507049146E+02  0.46142318076E+02  0.10000002869E+02 0.  0.
        -12    1    1    2    0    0  0.96286018150E+01  0.17192511643E+02 -0.40507049146E+02  0.45045681924E+02  0.00000000000E+00 0.  1.
         11    1    3    3    0    0 -0.75896145518E+01 -0.63898189132E+01  0.23672384640E+02  0.25667368965E+02  0.51100000000E-03 0. -1.
        -11    1    3    3    0    0 -0.13572843881E+01 -0.83586587256E+01  0.15361541339E+02  0.17540990541E+02  0.51100000000E-03 0.  1.
        -12    1    3    3    0    0 -0.68170287508E+00 -0.24440340040E+01  0.14731231677E+01  0.29339585699E+01  0.00000000000E+00 0.  1.
</event>
<event>
 7    1  0.3766050E-009  0.4614232E+02  0.7816164E-02  0.1320468E+00
        -11   -1    0    0    0    0  0.00000000000E+00  0.00000000000E+00  0.45593999997E+02  0.45594000000E+02  0.51100000000E-03 0. -1.
         11   -1    0    0    0    0 -0.00000000000E+00 -0.00000000000E+00 -0.45593999997E+02  0.45594000000E+02  0.51100000000E-03 0.  1.
    9900012    2    1    2    0    0  0.12845582495E+02 -0.26782472976E+02 -0.33864492783E+02  0.46142315193E+02  0.99999765792E+01 0.  0.
         12    1    1    2    0    0 -0.12845582495E+02  0.26782472976E+02  0.33864492783E+02  0.45045684807E+02  0.00000000000E+00 0. -1.
         11    1    3    3    0    0  0.57345900055E+00 -0.42801800519E+01 -0.28373757314E+01  0.51671556783E+01  0.51100000000E-03 0. -1.
        -11    1    3    3    0    0  0.20790204730E+01 -0.10102902575E+02 -0.88013302617E+01  0.13559291324E+02  0.51100000000E-03 0.  1.
        -12    1    3    3    0    0  0.10193103021E+02 -0.12399390349E+02 -0.22225786790E+02  0.27415868191E+02  0.00000000000E+00 0.  1.
</event>
<event>
 7    1  0.3766050E-009  0.4614232E+02  0.7816164E-02  0.1320468E+00
        -11   -1    0    0    0    0  0.00000000000E+00  0.00000000000E+00  0.45593999997E+02  0.45594000000E+02  0.51100000000E-03 0. -1.
         11   -1    0    0    0    0 -0.00000000000E+00 -0.00000000000E+00 -0.45593999997E+02  0.45594000000E+02  0.51100000000E-03 0.  1.
    9900012    2    1    2    0    0 -0.25066060682E+02  0.24788424364E+02  0.28041756364E+02  0.46142317848E+02  0.10000000795E+02 0.  0.
        -12    1    1    2    0    0  0.25066060682E+02 -0.24788424364E+02 -0.28041756364E+02  0.45045682152E+02  0.00000000000E+00 0.  1.
         11    1    3    3    0    0 -0.11060477038E+02  0.12693268507E+02  0.13323062910E+02  0.21469914375E+02  0.51100000000E-03 0. -1.
        -11    1    3    3    0    0 -0.76708210968E+01  0.44173960334E+01  0.31138850919E+01  0.93835582079E+01  0.51100000000E-03 0.  1.
        -12    1    3    3    0    0 -0.63347625472E+01  0.76777598228E+01  0.11604808362E+02  0.15288845266E+02  0.00000000000E+00 0.  1.
</event>
<event>
 7    1  0.3766050E-009  0.4614232E+02  0.7816164E-02  0.1320468E+00
        -11   -1    0    0    0    0  0.00000000000E+00  0.00000000000E+00  0.45593999997E+02  0.45594000000E+02  0.51100000000E-03 0. -1.
         11   -1    0    0    0    0 -0.00000000000E+00 -0.00000000000E+00 -0.45593999997E+02  0.45594000000E+02  0.51100000000E-03 0.  1.
    9900012    2    1    2    0    0 -0.18045334736E+02  0.18270217212E+02  0.37009168523E+02  0.46142317660E+02  0.99999990779E+01 0.  0.
        -12    1    1    2    0    0  0.18045334736E+02 -0.18270217212E+02 -0.37009168523E+02  0.45045682340E+02  0.00000000000E+00 0.  1.
         11    1    3    3    0    0 -0.54713399975E+01  0.77666335551E+01  0.17090238265E+02  0.19553322029E+02  0.51100000000E-03 0. -1.
        -11    1    3    3    0    0 -0.10287388470E+02  0.78557138001E+01  0.18967836463E+02  0.22963480163E+02  0.51100000000E-03 0.  1.
        -12    1    3    3    0    0 -0.22866062682E+01  0.26478698567E+01  0.95109379531E+00  0.36255154683E+01  0.00000000000E+00 0.  1.
</event>
<event>
 7    1  0.3766050E-009  0.4614232E+02  0.7816164E-02  0.1320468E+00
        -11   -1    0    0    0    0  0.00000000000E+00  0.00000000000E+00  0.45593999997E+02  0.45594000000E+02  0.51100000000E-03 0. -1.
         11   -1    0    0    0    0 -0.00000000000E+00 -0.00000000000E+00 -0.45593999997E+02  0.45594000000E+02  0.51100000000E-03 0.  1.
    9900012    2    1    2    0    0  0.39978652722E+02 -0.84914536027E+01 -0.18939802693E+02  0.46142316702E+02  0.99999903424E+01 0.  0.
         12    1    1    2    0    0 -0.39978652722E+02  0.84914536027E+01  0.18939802693E+02  0.45045683298E+02  0.00000000000E+00 0. -1.
         11    1    3    3    0    0  0.13289534670E+02  0.72648165834E+00 -0.34364476947E+01  0.13745860481E+02  0.51100000000E-03 0. -1.
        -11    1    3    3    0    0  0.76130690535E+01 -0.40473693748E+01 -0.37575357747E+01  0.94052695139E+01  0.51100000000E-03 0.  1.
         12    1    3    3    0    0  0.19076048999E+02 -0.51705658862E+01 -0.11745819224E+02  0.22991186708E+02  0.00000000000E+00 0. -1.
</event>
<event>
 7    1  0.3766050E-009  0.4614232E+02  0.7816164E-02  0.1320468E+00
        -11   -1    0    0    0    0  0.00000000000E+00  0.00000000000E+00  0.45593999997E+02  0.45594000000E+02  0.51100000000E-03 0.  1.
         11   -1    0    0    0    0 -0.00000000000E+00 -0.00000000000E+00 -0.45593999997E+02  0.45594000000E+02  0.51100000000E-03 0. -1.
    9900012    2    1    2    0    0  0.43479693266E+02 -0.10134702438E+02  0.59931276915E+01  0.46142317637E+02  0.99999988675E+01 0.  0.
        -12    1    1    2    0    0 -0.43479693266E+02  0.10134702438E+02 -0.59931276915E+01  0.45045682363E+02  0.00000000000E+00 0.  1.
         11    1    3    3    0    0  0.24833168400E+02 -0.35585451249E+01  0.38480010963E+01  0.25380240521E+02  0.51100000000E-03 0. -1.
        -11    1    3    3    0    0  0.15820684327E+02 -0.66255026344E+01 -0.10046322283E+00  0.17152301037E+02  0.51100000000E-03 0.  1.
         12    1    3    3    0    0  0.28258405390E+01  0.49345321039E-01  0.22455898181E+01  0.36097760794E+01  0.00000000000E+00 0. -1.
</event>
<event>
 7    1  0.3766050E-009  0.4614232E+02  0.7816164E-02  0.1320468E+00
        -11   -1    0    0    0    0  0.00000000000E+00  0.00000000000E+00  0.45593999997E+02  0.45594000000E+02  0.51100000000E-03 0. -1.
         11   -1    0    0    0    0 -0.00000000000E+00 -0.00000000000E+00 -0.45593999997E+02  0.45594000000E+02  0.51100000000E-03 0.  1.
    9900012    2    1    2    0    0  0.11215030754E+02 -0.41454367060E+02 -0.13596764407E+02  0.46142318015E+02  0.10000002313E+02 0.  0.
         12    1    1    2    0    0 -0.11215030754E+02  0.41454367060E+02  0.13596764407E+02  0.45045681985E+02  0.00000000000E+00 0. -1.
         11    1    3    3    0    0  0.10889863162E+01 -0.91968369461E+01 -0.35683926538E+01  0.99247734182E+01  0.51100000000E-03 0. -1.
        -11    1    3    3    0    0  0.23158343657E+01 -0.18108205595E+02 -0.26346845135E+01  0.18444830209E+02  0.51100000000E-03 0.  1.
        -12    1    3    3    0    0  0.78102100718E+01 -0.14149324519E+02 -0.73936872394E+01  0.17772714388E+02  0.00000000000E+00 0.  1.
</event>
<event>
 7    1  0.3766050E-009  0.4614231E+02  0.7816164E-02  0.1320468E+00
        -11   -1    0    0    0    0  0.00000000000E+00  0.00000000000E+00  0.45593999997E+02  0.45594000000E+02  0.51100000000E-03 0. -1.
         11   -1    0    0    0    0 -0.00000000000E+00 -0.00000000000E+00 -0.45593999997E+02  0.45594000000E+02  0.51100000000E-03 0.  1.
    9900012    2    1    2    0    0  0.15932479828E+02 -0.22975704123E+02 -0.35318364248E+02  0.46142314895E+02  0.99999738650E+01 0.  0.
         12    1    1    2    0    0 -0.15932479828E+02  0.22975704123E+02  0.35318364248E+02  0.45045685105E+02  0.00000000000E+00 0. -1.
         11    1    3    3    0    0  0.11770641167E+02 -0.16480800754E+02 -0.30320621094E+02  0.36462375825E+02  0.51100000000E-03 0.  1.
        -11    1    3    3    0    0 -0.70832063595E-01 -0.20982743134E+01 -0.69044086465E+00  0.22100862255E+01  0.51100000000E-03 0. -1.
        -12    1    3    3    0    0  0.42326707246E+01 -0.43966290552E+01 -0.43073022892E+01  0.74698528448E+01  0.00000000000E+00 0.  1.
</event>
<event>
 7    1  0.3766050E-009  0.4614232E+02  0.7816164E-02  0.1320468E+00
        -11   -1    0    0    0    0  0.00000000000E+00  0.00000000000E+00  0.45593999997E+02  0.45594000000E+02  0.51100000000E-03 0. -1.
         11   -1    0    0    0    0 -0.00000000000E+00 -0.00000000000E+00 -0.45593999997E+02  0.45594000000E+02  0.51100000000E-03 0.  1.
    9900012    2    1    2    0    0 -0.37898006407E+02 -0.98223272155E+01  0.22279506905E+02  0.46142318414E+02  0.10000005957E+02 0.  0.
        -12    1    1    2    0    0  0.37898006407E+02  0.98223272155E+01 -0.22279506905E+02  0.45045681586E+02  0.00000000000E+00 0.  1.
         11    1    3    3    0    0 -0.13431019622E+02 -0.25169147952E+01  0.30776826298E+01  0.14007115292E+02  0.51100000000E-03 0. -1.
        -11    1    3    3    0    0 -0.77474611247E+01 -0.12708798772E+01  0.74737843949E+01  0.10839545331E+02  0.51100000000E-03 0.  1.
         12    1    3    3    0    0 -0.16719525660E+02 -0.60345325431E+01  0.11728039880E+02  0.21295657791E+02  0.00000000000E+00 0. -1.
</event>
<event>
 7    1  0.3766050E-009  0.4614232E+02  0.7816164E-02  0.1320468E+00
        -11   -1    0    0    0    0  0.00000000000E+00  0.00000000000E+00  0.45593999997E+02  0.45594000000E+02  0.51100000000E-03 0.  1.
         11   -1    0    0    0    0 -0.00000000000E+00 -0.00000000000E+00 -0.45593999997E+02  0.45594000000E+02  0.51100000000E-03 0. -1.
    9900012    2    1    2    0    0  0.38252795898E+02 -0.18461721033E+02  0.15000064239E+02  0.46142318024E+02  0.10000002394E+02 0.  0.
        -12    1    1    2    0    0 -0.38252795898E+02  0.18461721033E+02 -0.15000064239E+02  0.45045681976E+02  0.00000000000E+00 0.  1.
         11    1    3    3    0    0  0.19098758574E+02 -0.13201323736E+02  0.82458811632E+01  0.24638021103E+02  0.51100000000E-03 0. -1.
        -11    1    3    3    0    0  0.19080086151E+02 -0.46836679664E+01  0.59807794670E+01  0.20536702667E+02  0.51100000000E-03 0.  1.
        -12    1    3    3    0    0  0.73951173185E-01 -0.57672933057E+00  0.77340360915E+00  0.96759425349E+00  0.00000000000E+00 0.  1.
</event>
<event>
 7    1  0.3766050E-009  0.4614232E+02  0.7816164E-02  0.1320468E+00
        -11   -1    0    0    0    0  0.00000000000E+00  0.00000000000E+00  0.45593999997E+02  0.45594000000E+02  0.51100000000E-03 0. -1.
         11   -1    0    0    0    0 -0.00000000000E+00 -0.00000000000E+00 -0.45593999997E+02  0.45594000000E+02  0.51100000000E-03 0.  1.
    9900012    2    1    2    0    0  0.44283281129E+01 -0.11709911925E+02 -0.43271024698E+02  0.46142315350E+02  0.99999780157E+01 0.  0.
         12    1    1    2    0    0 -0.44283281129E+01  0.11709911925E+02  0.43271024698E+02  0.45045684650E+02  0.00000000000E+00 0. -1.
         11    1    3    3    0    0 -0.40938506084E+00 -0.57269910775E+01 -0.10288638349E+02  0.11782279162E+02  0.51100000000E-03 0. -1.
        -11    1    3    3    0    0 -0.84212368649E+00 -0.30004371307E+01 -0.85786589977E+01  0.91271674543E+01  0.51100000000E-03 0.  1.
         12    1    3    3    0    0  0.56798368602E+01 -0.29824837166E+01 -0.24403727351E+02  0.25232868734E+02  0.00000000000E+00 0. -1.
</event>
<event>
 7    1  0.3766050E-009  0.4614232E+02  0.7816164E-02  0.1320468E+00
        -11   -1    0    0    0    0  0.00000000000E+00  0.00000000000E+00  0.45593999997E+02  0.45594000000E+02  0.51100000000E-03 0. -1.
         11   -1    0    0    0    0 -0.00000000000E+00 -0.00000000000E+00 -0.45593999997E+02  0.45594000000E+02  0.51100000000E-03 0.  1.
    9900012    2    1    2    0    0  0.14603645649E+02  0.12240275341E+02 -0.40816940825E+02  0.46142318021E+02  0.10000002366E+02 0.  0.
         12    1    1    2    0    0 -0.14603645649E+02 -0.12240275341E+02  0.40816940825E+02  0.45045681979E+02  0.00000000000E+00 0. -1.
         11    1    3    3    0    0  0.39391360912E+01  0.49747112700E+01 -0.10067100440E+02  0.11900044407E+02  0.51100000000E-03 0. -1.
        -11    1    3    3    0    0  0.61483622874E+01  0.78101135552E+01 -0.25048558108E+02  0.26948664087E+02  0.51100000000E-03 0.  1.
        -12    1    3    3    0    0  0.45161472702E+01 -0.54454948466E+00 -0.57012822777E+01  0.72936095260E+01  0.00000000000E+00 0.  1.
</event>
<event>
 7    1  0.3766050E-009  0.4614232E+02  0.7816164E-02  0.1320468E+00
        -11   -1    0    0    0    0  0.00000000000E+00  0.00000000000E+00  0.45593999997E+02  0.45594000000E+02  0.51100000000E-03 0. -1.
         11   -1    0    0    0    0 -0.00000000000E+00 -0.00000000000E+00 -0.45593999997E+02  0.45594000000E+02  0.51100000000E-03 0.  1.
    9900012    2    1    2    0    0  0.47082611655E+01  0.16348948544E+02  0.41709203921E+02  0.46142317261E+02  0.99999954395E+01 0.  0.
        -12    1    1    2    0    0 -0.47082611655E+01 -0.16348948544E+02 -0.41709203921E+02  0.45045682739E+02  0.00000000000E+00 0.  1.
         11    1    3    3    0    0  0.11591868906E+01  0.72464892380E+01  0.16419213247E+02  0.17984601315E+02  0.51100000000E-03 0. -1.
        -11    1    3    3    0    0  0.36475941902E+01  0.39469403610E+00  0.77893192595E+01  0.86101232015E+01  0.51100000000E-03 0.  1.
        -12    1    3    3    0    0 -0.98519915298E-01  0.87077652697E+01  0.17500671414E+02  0.19547592745E+02  0.00000000000E+00 0.  1.
</event>
<event>
 7    1  0.3766050E-009  0.4614232E+02  0.7816164E-02  0.1320468E+00
        -11   -1    0    0    0    0  0.00000000000E+00  0.00000000000E+00  0.45593999997E+02  0.45594000000E+02  0.51100000000E-03 0. -1.
         11   -1    0    0    0    0 -0.00000000000E+00 -0.00000000000E+00 -0.45593999997E+02  0.45594000000E+02  0.51100000000E-03 0.  1.
    9900012    2    1    2    0    0 -0.23177687494E+02  0.20763063572E+02 -0.32569979192E+02  0.46142317066E+02  0.99999936600E+01 0.  0.
         12    1    1    2    0    0  0.23177687494E+02 -0.20763063572E+02  0.32569979192E+02  0.45045682934E+02  0.00000000000E+00 0. -1.
         11    1    3    3    0    0 -0.18352630635E+02  0.15603272730E+02 -0.20075626119E+02  0.31357805016E+02  0.51100000000E-03 0. -1.
        -11    1    3    3    0    0 -0.26311917184E+01  0.15535097593E+01 -0.82534276824E+01  0.88008880916E+01  0.51100000000E-03 0.  1.
        -12    1    3    3    0    0 -0.21938651398E+01  0.36062810827E+01 -0.42409253907E+01  0.59836239578E+01  0.00000000000E+00 0.  1.
</event>
<event>
 7    1  0.3766050E-009  0.4614233E+02  0.7816164E-02  0.1320468E+00
        -11   -1    0    0    0    0  0.00000000000E+00  0.00000000000E+00  0.45593999997E+02  0.45594000000E+02  0.51100000000E-03 0. -1.
         11   -1    0    0    0    0 -0.00000000000E+00 -0.00000000000E+00 -0.45593999997E+02  0.45594000000E+02  0.51100000000E-03 0.  1.
    9900012    2    1    2    0    0 -0.14293493572E+02  0.34204842550E+02  0.25589785794E+02  0.46142330404E+02  0.10000115286E+02 0.  0.
        -12    1    1    2    0    0  0.14293493572E+02 -0.34204842550E+02 -0.25589785794E+02  0.45045669596E+02  0.00000000000E+00 0.  1.
         11    1    3    3    0    0 -0.55997325491E+01  0.15557861089E+02  0.13802120783E+02  0.21538397913E+02  0.51100000000E-03 0. -1.
        -11    1    3    3    0    0 -0.84942729713E+01  0.15130578736E+02  0.71183214023E+01  0.18755201573E+02  0.51100000000E-03 0.  1.
        -12    1    3    3    0    0 -0.19948805147E+00  0.35164027245E+01  0.46693436094E+01  0.58487309176E+01  0.00000000000E+00 0.  1.
</event>
<event>
 7    1  0.3766050E-009  0.4614232E+02  0.7816164E-02  0.1320468E+00
        -11   -1    0    0    0    0  0.00000000000E+00  0.00000000000E+00  0.45593999997E+02  0.45594000000E+02  0.51100000000E-03 0. -1.
         11   -1    0    0    0    0 -0.00000000000E+00 -0.00000000000E+00 -0.45593999997E+02  0.45594000000E+02  0.51100000000E-03 0.  1.
    9900012    2    1    2    0    0  0.20759818401E+01 -0.93907653147E+01  0.44007014795E+02  0.46142317355E+02  0.99999962981E+01 0.  0.
        -12    1    1    2    0    0 -0.20759818401E+01  0.93907653147E+01 -0.44007014795E+02  0.45045682645E+02  0.00000000000E+00 0.  1.
         11    1    3    3    0    0 -0.19820143797E+01 -0.55856078695E+01  0.26609060407E+02  0.27261135198E+02  0.51100000000E-03 0. -1.
        -11    1    3    3    0    0 -0.81430207213E+00 -0.14929633655E+01  0.23871795202E+01  0.29309817124E+01  0.51100000000E-03 0.  1.
         12    1    3    3    0    0  0.48722982919E+01 -0.23121940796E+01  0.15010774867E+02  0.15950200445E+02  0.00000000000E+00 0. -1.
</event>
<event>
 7    1  0.3766050E-009  0.4614232E+02  0.7816164E-02  0.1320468E+00
        -11   -1    0    0    0    0  0.00000000000E+00  0.00000000000E+00  0.45593999997E+02  0.45594000000E+02  0.51100000000E-03 0. -1.
         11   -1    0    0    0    0 -0.00000000000E+00 -0.00000000000E+00 -0.45593999997E+02  0.45594000000E+02  0.51100000000E-03 0.  1.
    9900012    2    1    2    0    0  0.22693605552E+02  0.16924334582E+02 -0.35038274102E+02  0.46142317787E+02  0.10000000236E+02 0.  0.
         12    1    1    2    0    0 -0.22693605552E+02 -0.16924334582E+02  0.35038274102E+02  0.45045682213E+02  0.00000000000E+00 0. -1.
         11    1    3    3    0    0  0.53549618434E+01  0.48971802520E+00 -0.36160159091E+01  0.64800471761E+01  0.51100000000E-03 0. -1.
        -11    1    3    3    0    0  0.98670791416E+01  0.97214702270E+01 -0.15046930825E+02  0.20451805829E+02  0.51100000000E-03 0.  1.
        -12    1    3    3    0    0  0.74715645669E+01  0.67131463296E+01 -0.16375327368E+02  0.19210464781E+02  0.00000000000E+00 0.  1.
</event>
<event>
 7    1  0.3766050E-009  0.4614232E+02  0.7816164E-02  0.1320468E+00
        -11   -1    0    0    0    0  0.00000000000E+00  0.00000000000E+00  0.45593999997E+02  0.45594000000E+02  0.51100000000E-03 0.  1.
         11   -1    0    0    0    0 -0.00000000000E+00 -0.00000000000E+00 -0.45593999997E+02  0.45594000000E+02  0.51100000000E-03 0. -1.
    9900012    2    1    2    0    0 -0.35494317065E+02 -0.87665915665E+01  0.26313755690E+02  0.46142318629E+02  0.10000007918E+02 0.  0.
        -12    1    1    2    0    0  0.35494317065E+02  0.87665915665E+01 -0.26313755690E+02  0.45045681371E+02  0.00000000000E+00 0.  1.
         11    1    3    3    0    0 -0.18643947715E+02 -0.63856812855E+01  0.13402342073E+02  0.23832676836E+02  0.51100000000E-03 0. -1.
        -11    1    3    3    0    0  0.22973051604E+00  0.55990465805E+00 -0.13076567759E+00  0.61916819982E+00  0.51100000000E-03 0.  1.
         12    1    3    3    0    0 -0.17080099867E+02 -0.29408149390E+01  0.13042179294E+02  0.21690473593E+02  0.00000000000E+00 0. -1.
</event>
<event>
 7    1  0.3766050E-009  0.4614232E+02  0.7816164E-02  0.1320468E+00
        -11   -1    0    0    0    0  0.00000000000E+00  0.00000000000E+00  0.45593999997E+02  0.45594000000E+02  0.51100000000E-03 0.  1.
         11   -1    0    0    0    0 -0.00000000000E+00 -0.00000000000E+00 -0.45593999997E+02  0.45594000000E+02  0.51100000000E-03 0. -1.
    9900012    2    1    2    0    0 -0.36493946289E+02 -0.23863769004E+02  0.11306011713E+02  0.46142317769E+02  0.10000000073E+02 0.  0.
        -12    1    1    2    0    0  0.36493946289E+02  0.23863769004E+02 -0.11306011713E+02  0.45045682231E+02  0.00000000000E+00 0.  1.
         11    1    3    3    0    0 -0.92577094184E+01 -0.63440555178E+01 -0.10533758919E+01  0.11272170382E+02  0.51100000000E-03 0. -1.
        -11    1    3    3    0    0 -0.32161802799E+01 -0.95721332476E+00  0.20141089998E+01  0.39136566362E+01  0.51100000000E-03 0.  1.
         12    1    3    3    0    0 -0.24020056590E+02 -0.16562500162E+02  0.10345278605E+02  0.30956490751E+02  0.00000000000E+00 0. -1.
</event>
<event>
 7    1  0.3766050E-009  0.4614232E+02  0.7816164E-02  0.1320468E+00
        -11   -1    0    0    0    0  0.00000000000E+00  0.00000000000E+00  0.45593999997E+02  0.45594000000E+02  0.51100000000E-03 0.  1.
         11   -1    0    0    0    0 -0.00000000000E+00 -0.00000000000E+00 -0.45593999997E+02  0.45594000000E+02  0.51100000000E-03 0. -1.
    9900012    2    1    2    0    0  0.39337147861E+02 -0.19522284279E+02  0.10029089549E+02  0.46142318492E+02  0.10000006667E+02 0.  0.
        -12    1    1    2    0    0 -0.39337147861E+02  0.19522284279E+02 -0.10029089549E+02  0.45045681508E+02  0.00000000000E+00 0.  1.
         11    1    3    3    0    0  0.22991404601E+02 -0.15561898050E+02  0.74808555896E+01  0.28753096478E+02  0.51100000000E-03 0. -1.
        -11    1    3    3    0    0  0.15934563564E+02 -0.31767905628E+01  0.20590698346E+01  0.16378097665E+02  0.51100000000E-03 0.  1.
        -12    1    3    3    0    0  0.41117969597E+00 -0.78359566603E+00  0.48916412453E+00  0.10111243499E+01  0.00000000000E+00 0.  1.
</event>
<event>
 7    1  0.4329056E-009  0.4614232E+02  0.7816164E-02  0.1320468E+00
        -11   -1    0    0    0    0  0.00000000000E+00  0.00000000000E+00  0.45593999997E+02  0.45594000000E+02  0.51100000000E-03 0. -1.
         11   -1    0    0    0    0 -0.00000000000E+00 -0.00000000000E+00 -0.45593999997E+02  0.45594000000E+02  0.51100000000E-03 0.  1.
    9900012    2    1    2    0    0  0.42429149529E+01  0.18095115370E+02 -0.41032645106E+02  0.46142317722E+02  0.99999996396E+01 0.  0.
         12    1    1    2    0    0 -0.42429149529E+01 -0.18095115370E+02  0.41032645106E+02  0.45045682278E+02  0.00000000000E+00 0. -1.
         11    1    3    3    0    0 -0.76752927444E+00  0.78354559916E+01 -0.11309827633E+02  0.13780263899E+02  0.51100000000E-03 0. -1.
        -11    1    3    3    0    0  0.19656670608E+01  0.91982537677E+01 -0.19639435281E+02  0.21775654704E+02  0.51100000000E-03 0.  1.
         12    1    3    3    0    0  0.30447771665E+01  0.10614056103E+01 -0.10083382193E+02  0.10586399119E+02  0.00000000000E+00 0. -1.
</event>
<event>
 7    1  0.3766050E-009  0.4614232E+02  0.7816164E-02  0.1320468E+00
        -11   -1    0    0    0    0  0.00000000000E+00  0.00000000000E+00  0.45593999997E+02  0.45594000000E+02  0.51100000000E-03 0. -1.
         11   -1    0    0    0    0 -0.00000000000E+00 -0.00000000000E+00 -0.45593999997E+02  0.45594000000E+02  0.51100000000E-03 0.  1.
    9900012    2    1    2    0    0 -0.25272576182E+02  0.26545826518E+02  0.26186438336E+02  0.46142316909E+02  0.99999922258E+01 0.  0.
        -12    1    1    2    0    0  0.25272576182E+02 -0.26545826518E+02 -0.26186438336E+02  0.45045683091E+02  0.00000000000E+00 0.  1.
         11    1    3    3    0    0 -0.20150662314E+02  0.17486054443E+02  0.16025918834E+02  0.31123003814E+02  0.51100000000E-03 0. -1.
        -11    1    3    3    0    0 -0.38642549797E+01  0.68400166437E+01  0.96043166961E+01  0.12408109997E+02  0.51100000000E-03 0.  1.
         12    1    3    3    0    0 -0.12576588890E+01  0.22197554315E+01  0.55620280648E+00  0.26112030979E+01  0.00000000000E+00 0. -1.
</event>
<event>
 7    1  0.3766050E-009  0.4614232E+02  0.7816164E-02  0.1320468E+00
        -11   -1    0    0    0    0  0.00000000000E+00  0.00000000000E+00  0.45593999997E+02  0.45594000000E+02  0.51100000000E-03 0. -1.
         11   -1    0    0    0    0 -0.00000000000E+00 -0.00000000000E+00 -0.45593999997E+02  0.45594000000E+02  0.51100000000E-03 0.  1.
    9900012    2    1    2    0    0 -0.17079969665E+01 -0.39327168554E+02  0.21899076839E+02  0.46142323109E+02  0.10000048770E+02 0.  0.
        -12    1    1    2    0    0  0.17079969665E+01  0.39327168554E+02 -0.21899076839E+02  0.45045676891E+02  0.00000000000E+00 0.  1.
         11    1    3    3    0    0 -0.39251918382E+01 -0.37003547901E+02  0.19453713158E+02  0.41989482542E+02  0.51100000000E-03 0. -1.
        -11    1    3    3    0    0  0.17779682410E+01 -0.22326522013E+01  0.23433035273E+01  0.36928279950E+01  0.51100000000E-03 0.  1.
         12    1    3    3    0    0  0.43922663065E+00 -0.90968452261E-01  0.10206015327E+00  0.46001257294E+00  0.00000000000E+00 0. -1.
</event>
<event>
 7    1  0.3766050E-009  0.4614232E+02  0.7816164E-02  0.1320468E+00
        -11   -1    0    0    0    0  0.00000000000E+00  0.00000000000E+00  0.45593999997E+02  0.45594000000E+02  0.51100000000E-03 0. -1.
         11   -1    0    0    0    0 -0.00000000000E+00 -0.00000000000E+00 -0.45593999997E+02  0.45594000000E+02  0.51100000000E-03 0.  1.
    9900012    2    1    2    0    0  0.72971200418E+01 -0.26820879668E+02 -0.35447227388E+02  0.46142317892E+02  0.10000001194E+02 0.  0.
         12    1    1    2    0    0 -0.72971200418E+01  0.26820879668E+02  0.35447227388E+02  0.45045682108E+02  0.00000000000E+00 0. -1.
         11    1    3    3    0    0 -0.21095824598E+01 -0.39132046762E+01 -0.47427430469E+01  0.65005477356E+01  0.51100000000E-03 0. -1.
        -11    1    3    3    0    0  0.53960458996E+01 -0.11573950859E+02 -0.12844294386E+02  0.18112138150E+02  0.51100000000E-03 0.  1.
         12    1    3    3    0    0  0.40106566021E+01 -0.11333724133E+02 -0.17860189955E+02  0.21529632006E+02  0.00000000000E+00 0. -1.
</event>
<event>
 7    1  0.3766050E-009  0.4614232E+02  0.7816164E-02  0.1320468E+00
        -11   -1    0    0    0    0  0.00000000000E+00  0.00000000000E+00  0.45593999997E+02  0.45594000000E+02  0.51100000000E-03 0. -1.
         11   -1    0    0    0    0 -0.00000000000E+00 -0.00000000000E+00 -0.45593999997E+02  0.45594000000E+02  0.51100000000E-03 0.  1.
    9900012    2    1    2    0    0 -0.28306153852E+01 -0.33498866555E+02  0.29982111640E+02  0.46142318050E+02  0.10000002636E+02 0.  0.
        -12    1    1    2    0    0  0.28306153852E+01  0.33498866555E+02 -0.29982111640E+02  0.45045681950E+02  0.00000000000E+00 0.  1.
         11    1    3    3    0    0  0.90280371528E+00 -0.19429438300E+02  0.20726044171E+02  0.28423353681E+02  0.51100000000E-03 0. -1.
        -11    1    3    3    0    0 -0.18807428633E+01 -0.15080798802E+01  0.15599983516E+01  0.28714271296E+01  0.51100000000E-03 0.  1.
        -12    1    3    3    0    0 -0.18526762372E+01 -0.12561348375E+02  0.76960691168E+01  0.14847537240E+02  0.00000000000E+00 0.  1.
</event>
<event>
 7    1  0.3766050E-009  0.4614232E+02  0.7816164E-02  0.1320468E+00
        -11   -1    0    0    0    0  0.00000000000E+00  0.00000000000E+00  0.45593999997E+02  0.45594000000E+02  0.51100000000E-03 0. -1.
         11   -1    0    0    0    0 -0.00000000000E+00 -0.00000000000E+00 -0.45593999997E+02  0.45594000000E+02  0.51100000000E-03 0.  1.
    9900012    2    1    2    0    0  0.60761876810E+01  0.20543053338E+02 -0.39625451184E+02  0.46142317868E+02  0.10000000979E+02 0.  0.
         12    1    1    2    0    0 -0.60761876810E+01 -0.20543053338E+02  0.39625451184E+02  0.45045682132E+02  0.00000000000E+00 0. -1.
         11    1    3    3    0    0  0.75972386828E+01  0.13114915608E+02 -0.25409540620E+02  0.29586547649E+02  0.51100000000E-03 0. -1.
        -11    1    3    3    0    0 -0.44737518852E+00 -0.56095352813E-01 -0.29729396791E+01  0.30069356237E+01  0.51100000000E-03 0.  1.
         12    1    3    3    0    0 -0.10736758133E+01  0.74842330834E+01 -0.11242970885E+02  0.13548834596E+02  0.00000000000E+00 0. -1.
</event>
<event>
 7    1  0.3766050E-009  0.4614232E+02  0.7816164E-02  0.1320468E+00
        -11   -1    0    0    0    0  0.00000000000E+00  0.00000000000E+00  0.45593999997E+02  0.45594000000E+02  0.51100000000E-03 0. -1.
         11   -1    0    0    0    0 -0.00000000000E+00 -0.00000000000E+00 -0.45593999997E+02  0.45594000000E+02  0.51100000000E-03 0.  1.
    9900012    2    1    2    0    0  0.11344384148E+02 -0.34545299340E+02  0.26590234646E+02  0.46142319444E+02  0.10000015348E+02 0.  0.
        -12    1    1    2    0    0 -0.11344384148E+02  0.34545299340E+02 -0.26590234646E+02  0.45045680556E+02  0.00000000000E+00 0.  1.
         11    1    3    3    0    0 -0.91297892086E+00 -0.18498002499E+00  0.22613692015E+00  0.95858556601E+00  0.51100000000E-03 0.  1.
        -11    1    3    3    0    0  0.67454441386E+01 -0.19135728032E+02  0.12228735414E+02  0.23690062770E+02  0.51100000000E-03 0. -1.
        -12    1    3    3    0    0  0.55119189298E+01 -0.15224591283E+02  0.14135362312E+02  0.21493671109E+02  0.00000000000E+00 0.  1.
</event>
<event>
 7    1  0.3766050E-009  0.4614232E+02  0.7816164E-02  0.1320468E+00
        -11   -1    0    0    0    0  0.00000000000E+00  0.00000000000E+00  0.45593999997E+02  0.45594000000E+02  0.51100000000E-03 0. -1.
         11   -1    0    0    0    0 -0.00000000000E+00 -0.00000000000E+00 -0.45593999997E+02  0.45594000000E+02  0.51100000000E-03 0.  1.
    9900012    2    1    2    0    0  0.13744836684E+02  0.31632420365E+02  0.28975555269E+02  0.46142319222E+02  0.10000013326E+02 0.  0.
        -12    1    1    2    0    0 -0.13744836684E+02 -0.31632420365E+02 -0.28975555269E+02  0.45045680778E+02  0.00000000000E+00 0.  1.
         11    1    3    3    0    0  0.78642296792E+01  0.21376167330E+02  0.17115723554E+02  0.28490957008E+02  0.51100000000E-03 0. -1.
        -11    1    3    3    0    0 -0.73851382404E+00  0.19390502467E+01  0.58489454709E+00  0.21557876565E+01  0.51100000000E-03 0.  1.
        -12    1    3    3    0    0  0.66191208284E+01  0.83172027875E+01  0.11274937168E+02  0.15495574558E+02  0.00000000000E+00 0.  1.
</event>
<event>
 7    1  0.3766050E-009  0.4614232E+02  0.7816164E-02  0.1320468E+00
        -11   -1    0    0    0    0  0.00000000000E+00  0.00000000000E+00  0.45593999997E+02  0.45594000000E+02  0.51100000000E-03 0. -1.
         11   -1    0    0    0    0 -0.00000000000E+00 -0.00000000000E+00 -0.45593999997E+02  0.45594000000E+02  0.51100000000E-03 0.  1.
    9900012    2    1    2    0    0  0.40186459930E+02 -0.30816209150E+01 -0.20116300072E+02  0.46142317878E+02  0.10000001069E+02 0.  0.
         12    1    1    2    0    0 -0.40186459930E+02  0.30816209150E+01  0.20116300072E+02  0.45045682122E+02  0.00000000000E+00 0. -1.
         11    1    3    3    0    0  0.14659246213E+02  0.24429720004E+01 -0.47404819598E+01  0.15599159631E+02  0.51100000000E-03 0. -1.
        -11    1    3    3    0    0  0.18463343808E+02 -0.56377507514E+01 -0.10710938605E+02  0.22077216857E+02  0.51100000000E-03 0.  1.
        -12    1    3    3    0    0  0.70638699101E+01  0.11315783598E+00 -0.46648795076E+01  0.84659413903E+01  0.00000000000E+00 0.  1.
</event>
<event>
 7    1  0.3766050E-009  0.4614232E+02  0.7816164E-02  0.1320468E+00
        -11   -1    0    0    0    0  0.00000000000E+00  0.00000000000E+00  0.45593999997E+02  0.45594000000E+02  0.51100000000E-03 0. -1.
         11   -1    0    0    0    0 -0.00000000000E+00 -0.00000000000E+00 -0.45593999997E+02  0.45594000000E+02  0.51100000000E-03 0.  1.
    9900012    2    1    2    0    0 -0.18867336429E+02  0.16359591232E+02 -0.37490010436E+02  0.46142317724E+02  0.99999996608E+01 0.  0.
         12    1    1    2    0    0  0.18867336429E+02 -0.16359591232E+02  0.37490010436E+02  0.45045682276E+02  0.00000000000E+00 0. -1.
         11    1    3    3    0    0  0.95856300631E+00  0.32934596911E+00 -0.20432156709E+01  0.22807986197E+01  0.51100000000E-03 0. -1.
        -11    1    3    3    0    0 -0.45175543855E+01  0.29708622965E+01 -0.10505926595E+02  0.11815617389E+02  0.51100000000E-03 0.  1.
         12    1    3    3    0    0 -0.15308345050E+02  0.13059382966E+02 -0.24940868170E+02  0.32045901715E+02  0.00000000000E+00 0. -1.
</event>
<event>
 7    1  0.3766050E-009  0.4614232E+02  0.7816164E-02  0.1320468E+00
        -11   -1    0    0    0    0  0.00000000000E+00  0.00000000000E+00  0.45593999997E+02  0.45594000000E+02  0.51100000000E-03 0.  1.
         11   -1    0    0    0    0 -0.00000000000E+00 -0.00000000000E+00 -0.45593999997E+02  0.45594000000E+02  0.51100000000E-03 0. -1.
    9900012    2    1    2    0    0 -0.14762916008E+02 -0.34234366213E+02  0.25281968029E+02  0.46142318448E+02  0.10000006265E+02 0.  0.
        -12    1    1    2    0    0  0.14762916008E+02  0.34234366213E+02 -0.25281968029E+02  0.45045681552E+02  0.00000000000E+00 0.  1.
         11    1    3    3    0    0 -0.56828364703E+01 -0.74472668610E+01  0.81598353587E+01  0.12423338013E+02  0.51100000000E-03 0.  1.
        -11    1    3    3    0    0 -0.86955806829E+01 -0.16090903520E+02  0.11793875943E+02  0.21762945792E+02  0.51100000000E-03 0. -1.
        -12    1    3    3    0    0 -0.38449885486E+00 -0.10696195832E+02  0.53282567269E+01  0.11956034643E+02  0.00000000000E+00 0.  1.
</event>
<event>
 7    1  0.3766050E-009  0.4614232E+02  0.7816164E-02  0.1320468E+00
        -11   -1    0    0    0    0  0.00000000000E+00  0.00000000000E+00  0.45593999997E+02  0.45594000000E+02  0.51100000000E-03 0. -1.
         11   -1    0    0    0    0 -0.00000000000E+00 -0.00000000000E+00 -0.45593999997E+02  0.45594000000E+02  0.51100000000E-03 0.  1.
    9900012    2    1    2    0    0 -0.40042891207E+02  0.10924240927E+02  0.17502608421E+02  0.46142317881E+02  0.10000001091E+02 0.  0.
        -12    1    1    2    0    0  0.40042891207E+02 -0.10924240927E+02 -0.17502608421E+02  0.45045682119E+02  0.00000000000E+00 0.  1.
         11    1    3    3    0    0 -0.13039793145E+02  0.34855866639E+01  0.48806588094E+01  0.14352921317E+02  0.51100000000E-03 0. -1.
        -11    1    3    3    0    0 -0.22517462840E+02  0.89617472151E+01  0.91040337659E+01  0.25888848506E+02  0.51100000000E-03 0.  1.
        -12    1    3    3    0    0 -0.44856352221E+01 -0.15230929521E+01  0.35179158453E+01  0.59005480577E+01  0.00000000000E+00 0.  1.
</event>
<event>
 7    1  0.3766050E-009  0.4614232E+02  0.7816164E-02  0.1320468E+00
        -11   -1    0    0    0    0  0.00000000000E+00  0.00000000000E+00  0.45593999997E+02  0.45594000000E+02  0.51100000000E-03 0.  1.
         11   -1    0    0    0    0 -0.00000000000E+00 -0.00000000000E+00 -0.45593999997E+02  0.45594000000E+02  0.51100000000E-03 0. -1.
    9900012    2    1    2    0    0 -0.16664145537E+02 -0.40808360709E+02 -0.92788735322E+01  0.46142317141E+02  0.99999943450E+01 0.  0.
         12    1    1    2    0    0  0.16664145537E+02  0.40808360709E+02  0.92788735322E+01  0.45045682859E+02  0.00000000000E+00 0. -1.
         11    1    3    3    0    0 -0.87726067197E+00 -0.70384537627E+01 -0.79104774014E+00  0.71368882886E+01  0.51100000000E-03 0. -1.
        -11    1    3    3    0    0 -0.15137176520E+02 -0.32643322421E+02 -0.96581359907E+01  0.37255874742E+02  0.51100000000E-03 0.  1.
        -12    1    3    3    0    0 -0.64970834463E+00 -0.11265845249E+01  0.11703101986E+01  0.17495541106E+01  0.00000000000E+00 0.  1.
</event>
<event>
 7    1  0.3766050E-009  0.4614232E+02  0.7816164E-02  0.1320468E+00
        -11   -1    0    0    0    0  0.00000000000E+00  0.00000000000E+00  0.45593999997E+02  0.45594000000E+02  0.51100000000E-03 0. -1.
         11   -1    0    0    0    0 -0.00000000000E+00 -0.00000000000E+00 -0.45593999997E+02  0.45594000000E+02  0.51100000000E-03 0.  1.
    9900012    2    1    2    0    0 -0.55438245375E+01 -0.23112296761E+02 -0.38264881615E+02  0.46142318552E+02  0.10000007215E+02 0.  0.
         12    1    1    2    0    0  0.55438245375E+01  0.23112296761E+02  0.38264881615E+02  0.45045681448E+02  0.00000000000E+00 0. -1.
         11    1    3    3    0    0 -0.85564174539E+00 -0.39230956401E+01 -0.58042779072E+01  0.70577931737E+01  0.51100000000E-03 0. -1.
        -11    1    3    3    0    0  0.21620750652E+00 -0.14703153427E+02 -0.25663513763E+02  0.29577785673E+02  0.51100000000E-03 0.  1.
         12    1    3    3    0    0 -0.49043902986E+01 -0.44860476947E+01 -0.67970899446E+01  0.95067397059E+01  0.00000000000E+00 0. -1.
</event>
<event>
 7    1  0.3766050E-009  0.4614232E+02  0.7816164E-02  0.1320468E+00
        -11   -1    0    0    0    0  0.00000000000E+00  0.00000000000E+00  0.45593999997E+02  0.45594000000E+02  0.51100000000E-03 0. -1.
         11   -1    0    0    0    0 -0.00000000000E+00 -0.00000000000E+00 -0.45593999997E+02  0.45594000000E+02  0.51100000000E-03 0.  1.
    9900012    2    1    2    0    0 -0.27051120660E+02  0.16165900936E+02 -0.32187170371E+02  0.46142318536E+02  0.10000007069E+02 0.  0.
         12    1    1    2    0    0  0.27051120660E+02 -0.16165900936E+02  0.32187170371E+02  0.45045681464E+02  0.00000000000E+00 0. -1.
         11    1    3    3    0    0 -0.20673888981E+01  0.96596066415E+00 -0.27516886692E+00  0.22984549217E+01  0.51100000000E-03 0. -1.
        -11    1    3    3    0    0 -0.19288988588E+02  0.14741103366E+02 -0.27000919491E+02  0.36309982964E+02  0.51100000000E-03 0.  1.
        -12    1    3    3    0    0 -0.56947431740E+01  0.45883690596E+00 -0.49110820126E+01  0.75338806507E+01  0.00000000000E+00 0.  1.
</event>
<event>
 7    1  0.3766050E-009  0.4614232E+02  0.7816164E-02  0.1320468E+00
        -11   -1    0    0    0    0  0.00000000000E+00  0.00000000000E+00  0.45593999997E+02  0.45594000000E+02  0.51100000000E-03 0. -1.
         11   -1    0    0    0    0 -0.00000000000E+00 -0.00000000000E+00 -0.45593999997E+02  0.45594000000E+02  0.51100000000E-03 0.  1.
    9900012    2    1    2    0    0  0.20613117081E+02 -0.27664076355E+00 -0.40051669805E+02  0.46142318963E+02  0.10000010962E+02 0.  0.
         12    1    1    2    0    0 -0.20613117081E+02  0.27664076355E+00  0.40051669805E+02  0.45045681037E+02  0.00000000000E+00 0. -1.
         11    1    3    3    0    0 -0.45063382154E+00 -0.51970976707E+00 -0.33833027623E+00  0.76657466697E+00  0.51100000000E-03 0. -1.
        -11    1    3    3    0    0  0.95727305579E+01  0.19153788060E+01 -0.23370609222E+02  0.25327676995E+02  0.51100000000E-03 0.  1.
        -12    1    3    3    0    0  0.11491020344E+02 -0.16723098024E+01 -0.16342730307E+02  0.20048067301E+02  0.00000000000E+00 0.  1.
</event>
<event>
 7    1  0.3766050E-009  0.4614232E+02  0.7816164E-02  0.1320468E+00
        -11   -1    0    0    0    0  0.00000000000E+00  0.00000000000E+00  0.45593999997E+02  0.45594000000E+02  0.51100000000E-03 0. -1.
         11   -1    0    0    0    0 -0.00000000000E+00 -0.00000000000E+00 -0.45593999997E+02  0.45594000000E+02  0.51100000000E-03 0.  1.
    9900012    2    1    2    0    0 -0.18863503936E+02  0.20626168827E-01  0.40905760745E+02  0.46142317984E+02  0.10000002033E+02 0.  0.
        -12    1    1    2    0    0  0.18863503936E+02 -0.20626168827E-01 -0.40905760745E+02  0.45045682016E+02  0.00000000000E+00 0.  1.
         11    1    3    3    0    0 -0.52143212732E+01  0.25532818456E+01  0.11287423015E+02  0.12693081308E+02  0.51100000000E-03 0. -1.
        -11    1    3    3    0    0  0.26589157524E+00  0.10881385332E+01  0.15496945175E+01  0.19121446483E+01  0.51100000000E-03 0.  1.
        -12    1    3    3    0    0 -0.13915074238E+02 -0.36207942100E+01  0.28068643213E+02  0.31537092027E+02  0.00000000000E+00 0.  1.
</event>
<event>
 7    1  0.3766050E-009  0.4614232E+02  0.7816164E-02  0.1320468E+00
        -11   -1    0    0    0    0  0.00000000000E+00  0.00000000000E+00  0.45593999997E+02  0.45594000000E+02  0.51100000000E-03 0. -1.
         11   -1    0    0    0    0 -0.00000000000E+00 -0.00000000000E+00 -0.45593999997E+02  0.45594000000E+02  0.51100000000E-03 0.  1.
    9900012    2    1    2    0    0  0.90561649798E+01 -0.21961496777E+02  0.38272600806E+02  0.46142318328E+02  0.10000005168E+02 0.  0.
        -12    1    1    2    0    0 -0.90561649798E+01  0.21961496777E+02 -0.38272600806E+02  0.45045681672E+02  0.00000000000E+00 0.  1.
         11    1    3    3    0    0  0.53352940477E+01 -0.85199629855E+01  0.20246345302E+02  0.22604637361E+02  0.51100000000E-03 0. -1.
        -11    1    3    3    0    0  0.33708118527E+01 -0.12914227620E+02  0.18453276877E+02  0.22774175623E+02  0.51100000000E-03 0.  1.
        -12    1    3    3    0    0  0.35005907944E+00 -0.52730617114E+00 -0.42702137269E+00  0.76350534376E+00  0.00000000000E+00 0.  1.
</event>
<event>
 7    1  0.6118657E-009  0.4614232E+02  0.7816164E-02  0.1320468E+00
        -11   -1    0    0    0    0  0.00000000000E+00  0.00000000000E+00  0.45593999997E+02  0.45594000000E+02  0.51100000000E-03 0. -1.
         11   -1    0    0    0    0 -0.00000000000E+00 -0.00000000000E+00 -0.45593999997E+02  0.45594000000E+02  0.51100000000E-03 0.  1.
    9900012    2    1    2    0    0  0.97581747591E+00  0.85022969584E+01 -0.44225243701E+02  0.46142318146E+02  0.10000003509E+02 0.  0.
         12    1    1    2    0    0 -0.97581747591E+00 -0.85022969584E+01  0.44225243701E+02  0.45045681854E+02  0.00000000000E+00 0. -1.
         11    1    3    3    0    0  0.70684631040E+00 -0.46605678594E+00 -0.22834355696E+02  0.22850046848E+02  0.51100000000E-03 0. -1.
        -11    1    3    3    0    0 -0.72630076470E+00  0.61027758936E+01 -0.15286682536E+02  0.16475862637E+02  0.51100000000E-03 0.  1.
         12    1    3    3    0    0  0.99527193021E+00  0.28655778507E+01 -0.61042054689E+01  0.68164086615E+01  0.00000000000E+00 0. -1.
</event>
<event>
 7    1  0.3766050E-009  0.4614232E+02  0.7816164E-02  0.1320468E+00
        -11   -1    0    0    0    0  0.00000000000E+00  0.00000000000E+00  0.45593999997E+02  0.45594000000E+02  0.51100000000E-03 0. -1.
         11   -1    0    0    0    0 -0.00000000000E+00 -0.00000000000E+00 -0.45593999997E+02  0.45594000000E+02  0.51100000000E-03 0.  1.
    9900012    2    1    2    0    0  0.38072853627E+01 -0.27720033007E+02  0.35301810791E+02  0.46142317666E+02  0.99999991356E+01 0.  0.
        -12    1    1    2    0    0 -0.38072853627E+01  0.27720033007E+02 -0.35301810791E+02  0.45045682334E+02  0.00000000000E+00 0.  1.
         11    1    3    3    0    0  0.25575230335E+00 -0.60798560074E+01  0.30044751064E+01  0.67865255644E+01  0.51100000000E-03 0. -1.
        -11    1    3    3    0    0 -0.57334306302E+00 -0.15339103650E+00  0.63232372502E+00  0.86722813166E+00  0.51100000000E-03 0.  1.
         12    1    3    3    0    0  0.41248761224E+01 -0.21486785963E+02  0.31665011960E+02  0.38488563970E+02  0.00000000000E+00 0. -1.
</event>
<event>
 7    1  0.3766050E-009  0.4614232E+02  0.7816164E-02  0.1320468E+00
        -11   -1    0    0    0    0  0.00000000000E+00  0.00000000000E+00  0.45593999997E+02  0.45594000000E+02  0.51100000000E-03 0. -1.
         11   -1    0    0    0    0 -0.00000000000E+00 -0.00000000000E+00 -0.45593999997E+02  0.45594000000E+02  0.51100000000E-03 0.  1.
    9900012    2    1    2    0    0  0.97011581988E+01  0.25746026415E+02 -0.35667117008E+02  0.46142316719E+02  0.99999905002E+01 0.  0.
         12    1    1    2    0    0 -0.97011581988E+01 -0.25746026415E+02  0.35667117008E+02  0.45045683281E+02  0.00000000000E+00 0. -1.
         11    1    3    3    0    0  0.35177542559E+01  0.15381425548E+02 -0.22606388012E+02  0.27568308365E+02  0.51100000000E-03 0. -1.
        -11    1    3    3    0    0  0.17803924558E+01  0.79557268281E+01 -0.74185355376E+01  0.11022615681E+02  0.51100000000E-03 0.  1.
         12    1    3    3    0    0  0.44030114870E+01  0.24088740386E+01 -0.56421934589E+01  0.75513926739E+01  0.00000000000E+00 0. -1.
</event>
<event>
 7    1  0.5234538E-009  0.4614231E+02  0.7816164E-02  0.1320468E+00
        -11   -1    0    0    0    0  0.00000000000E+00  0.00000000000E+00  0.45593999997E+02  0.45594000000E+02  0.51100000000E-03 0. -1.
         11   -1    0    0    0    0 -0.00000000000E+00 -0.00000000000E+00 -0.45593999997E+02  0.45594000000E+02  0.51100000000E-03 0.  1.
    9900012    2    1    2    0    0 -0.18822967499E+02 -0.19274891102E+02 -0.36101084279E+02  0.46142314096E+02  0.99999665757E+01 0.  0.
         12    1    1    2    0    0  0.18822967499E+02  0.19274891102E+02  0.36101084279E+02  0.45045685904E+02  0.00000000000E+00 0. -1.
         11    1    3    3    0    0 -0.10738205423E+02 -0.55307465726E+01 -0.19588797563E+02  0.23013457011E+02  0.51100000000E-03 0. -1.
        -11    1    3    3    0    0 -0.59732927372E+01 -0.78398549140E+01 -0.90386926449E+01  0.13373164030E+02  0.51100000000E-03 0.  1.
         12    1    3    3    0    0 -0.21114693385E+01 -0.59042896152E+01 -0.74735940711E+01  0.97556930541E+01  0.00000000000E+00 0. -1.
</event>
<event>
 7    1  0.3766050E-009  0.4614232E+02  0.7816164E-02  0.1320468E+00
        -11   -1    0    0    0    0  0.00000000000E+00  0.00000000000E+00  0.45593999997E+02  0.45594000000E+02  0.51100000000E-03 0. -1.
         11   -1    0    0    0    0 -0.00000000000E+00 -0.00000000000E+00 -0.45593999997E+02  0.45594000000E+02  0.51100000000E-03 0.  1.
    9900012    2    1    2    0    0  0.20276768601E+02  0.33022011595E+02 -0.22967648298E+02  0.46142318042E+02  0.10000002565E+02 0.  0.
         12    1    1    2    0    0 -0.20276768601E+02 -0.33022011595E+02  0.22967648298E+02  0.45045681958E+02  0.00000000000E+00 0. -1.
         11    1    3    3    0    0  0.11143258220E+01  0.33808401272E+01 -0.41256895966E+01  0.54491390982E+01  0.51100000000E-03 0. -1.
        -11    1    3    3    0    0  0.18223340384E+02  0.25131599384E+02 -0.18348680753E+02  0.36060525620E+02  0.51100000000E-03 0.  1.
        -12    1    3    3    0    0  0.93910239466E+00  0.45095720842E+01 -0.49327794858E+00  0.46326533245E+01  0.00000000000E+00 0.  1.
</event>
<event>
 7    1  0.3766050E-009  0.4614232E+02  0.7816164E-02  0.1320468E+00
        -11   -1    0    0    0    0  0.00000000000E+00  0.00000000000E+00  0.45593999997E+02  0.45594000000E+02  0.51100000000E-03 0. -1.
         11   -1    0    0    0    0 -0.00000000000E+00 -0.00000000000E+00 -0.45593999997E+02  0.45594000000E+02  0.51100000000E-03 0.  1.
    9900012    2    1    2    0    0 -0.33260285240E+02  0.13439757624E+01  0.30348980322E+02  0.46142318168E+02  0.10000003711E+02 0.  0.
        -12    1    1    2    0    0  0.33260285240E+02 -0.13439757624E+01 -0.30348980322E+02  0.45045681832E+02  0.00000000000E+00 0.  1.
         11    1    3    3    0    0 -0.50513526045E+00  0.27576907758E+00 -0.36591098041E+00  0.68198337385E+00  0.51100000000E-03 0.  1.
        -11    1    3    3    0    0 -0.11630167174E+02 -0.16286860594E+01  0.14695850028E+02  0.18811736100E+02  0.51100000000E-03 0. -1.
         12    1    3    3    0    0 -0.21124982806E+02  0.26968927442E+01  0.16019041274E+02  0.26648598694E+02  0.00000000000E+00 0. -1.
</event>
<event>
 7    1  0.3766050E-009  0.4614231E+02  0.7816164E-02  0.1320468E+00
        -11   -1    0    0    0    0  0.00000000000E+00  0.00000000000E+00  0.45593999997E+02  0.45594000000E+02  0.51100000000E-03 0.  1.
         11   -1    0    0    0    0 -0.00000000000E+00 -0.00000000000E+00 -0.45593999997E+02  0.45594000000E+02  0.51100000000E-03 0. -1.
    9900012    2    1    2    0    0  0.32482570309E+02 -0.16196760127E+02 -0.26676985430E+02  0.46142312480E+02  0.99999518423E+01 0.  0.
         12    1    1    2    0    0 -0.32482570309E+02  0.16196760127E+02  0.26676985430E+02  0.45045687520E+02  0.00000000000E+00 0. -1.
         11    1    3    3    0    0  0.65970902125E+01 -0.64694226077E+01 -0.10310313772E+02  0.13844767910E+02  0.51100000000E-03 0.  1.
        -11    1    3    3    0    0  0.17834454410E+02 -0.76904871251E+01 -0.10081499657E+02  0.21882595639E+02  0.51100000000E-03 0. -1.
        -12    1    3    3    0    0  0.80510256871E+01 -0.20368503940E+01 -0.62851720010E+01  0.10414948930E+02  0.00000000000E+00 0.  1.
</event>
<event>
 7    1  0.3766050E-009  0.4614232E+02  0.7816164E-02  0.1320468E+00
        -11   -1    0    0    0    0  0.00000000000E+00  0.00000000000E+00  0.45593999997E+02  0.45594000000E+02  0.51100000000E-03 0. -1.
         11   -1    0    0    0    0 -0.00000000000E+00 -0.00000000000E+00 -0.45593999997E+02  0.45594000000E+02  0.51100000000E-03 0.  1.
    9900012    2    1    2    0    0  0.19184039440E+02 -0.10861955646E+01  0.40741948444E+02  0.46142317043E+02  0.99999934527E+01 0.  0.
        -12    1    1    2    0    0 -0.19184039440E+02  0.10861955646E+01 -0.40741948444E+02  0.45045682957E+02  0.00000000000E+00 0.  1.
         11    1    3    3    0    0  0.65834917244E+01  0.27901980240E+01  0.15806950439E+02  0.17348984142E+02  0.51100000000E-03 0. -1.
        -11    1    3    3    0    0  0.85836435522E+01 -0.37493020138E+01  0.21696228444E+02  0.23631811847E+02  0.51100000000E-03 0.  1.
        -12    1    3    3    0    0  0.40169041633E+01 -0.12709157484E+00  0.32387695605E+01  0.51615210541E+01  0.00000000000E+00 0.  1.
</event>
<event>
 7    1  0.3766050E-009  0.4614232E+02  0.7816164E-02  0.1320468E+00
        -11   -1    0    0    0    0  0.00000000000E+00  0.00000000000E+00  0.45593999997E+02  0.45594000000E+02  0.51100000000E-03 0. -1.
         11   -1    0    0    0    0 -0.00000000000E+00 -0.00000000000E+00 -0.45593999997E+02  0.45594000000E+02  0.51100000000E-03 0.  1.
    9900012    2    1    2    0    0 -0.20694064526E+02 -0.10621524275E+02 -0.38575282687E+02  0.46142317422E+02  0.99999969111E+01 0.  0.
         12    1    1    2    0    0  0.20694064526E+02  0.10621524275E+02  0.38575282687E+02  0.45045682578E+02  0.00000000000E+00 0. -1.
         11    1    3    3    0    0 -0.42839800367E-01 -0.20317321775E+01 -0.17218518163E+01  0.26635586774E+01  0.51100000000E-03 0. -1.
        -11    1    3    3    0    0 -0.18908113359E+02 -0.67876381399E+01 -0.29345744831E+02  0.35563485800E+02  0.51100000000E-03 0.  1.
         12    1    3    3    0    0 -0.17431113665E+01 -0.18021539577E+01 -0.75076860399E+01  0.79152729452E+01  0.00000000000E+00 0. -1.
</event>
<event>
 7    1  0.3766050E-009  0.4614232E+02  0.7816164E-02  0.1320468E+00
        -11   -1    0    0    0    0  0.00000000000E+00  0.00000000000E+00  0.45593999997E+02  0.45594000000E+02  0.51100000000E-03 0. -1.
         11   -1    0    0    0    0 -0.00000000000E+00 -0.00000000000E+00 -0.45593999997E+02  0.45594000000E+02  0.51100000000E-03 0.  1.
    9900012    2    1    2    0    0  0.67046144509E+01  0.28177964672E+02 -0.34498752752E+02  0.46142317749E+02  0.99999998903E+01 0.  0.
         12    1    1    2    0    0 -0.67046144509E+01 -0.28177964672E+02  0.34498752752E+02  0.45045682251E+02  0.00000000000E+00 0. -1.
         11    1    3    3    0    0  0.35708946109E+00  0.11501873483E+02 -0.17753046512E+02  0.21156352881E+02  0.51100000000E-03 0. -1.
        -11    1    3    3    0    0  0.48237577725E+01  0.96938306906E+01 -0.69721473824E+01  0.12878269755E+02  0.51100000000E-03 0.  1.
        -12    1    3    3    0    0  0.15237672173E+01  0.69822604979E+01 -0.97735588581E+01  0.12107695113E+02  0.00000000000E+00 0.  1.
</event>
<event>
 7    1  0.3766050E-009  0.4614232E+02  0.7816164E-02  0.1320468E+00
        -11   -1    0    0    0    0  0.00000000000E+00  0.00000000000E+00  0.45593999997E+02  0.45594000000E+02  0.51100000000E-03 0. -1.
         11   -1    0    0    0    0 -0.00000000000E+00 -0.00000000000E+00 -0.45593999997E+02  0.45594000000E+02  0.51100000000E-03 0.  1.
    9900012    2    1    2    0    0 -0.41225316974E+02 -0.50338338657E+01 -0.17442687027E+02  0.46142316814E+02  0.99999913602E+01 0.  0.
         12    1    1    2    0    0  0.41225316974E+02  0.50338338657E+01  0.17442687027E+02  0.45045683186E+02  0.00000000000E+00 0. -1.
         11    1    3    3    0    0 -0.31241102276E+02 -0.55832028700E+01 -0.94545436434E+01  0.33114453362E+02  0.51100000000E-03 0. -1.
        -11    1    3    3    0    0 -0.77421141402E+01 -0.48729570022E+00 -0.66550801450E+01  0.10220953011E+02  0.51100000000E-03 0.  1.
         12    1    3    3    0    0 -0.22421005575E+01  0.10366647045E+01 -0.13330632390E+01  0.28069104401E+01  0.00000000000E+00 0. -1.
</event>
<event>
 7    1  0.3766050E-009  0.4614233E+02  0.7816164E-02  0.1320468E+00
        -11   -1    0    0    0    0  0.00000000000E+00  0.00000000000E+00  0.45593999997E+02  0.45594000000E+02  0.51100000000E-03 0. -1.
         11   -1    0    0    0    0 -0.00000000000E+00 -0.00000000000E+00 -0.45593999997E+02  0.45594000000E+02  0.51100000000E-03 0.  1.
    9900012    2    1    2    0    0  0.23325334735E+02 -0.11063648275E+02  0.36913906471E+02  0.46142333786E+02  0.10000146130E+02 0.  0.
        -12    1    1    2    0    0 -0.23325334735E+02  0.11063648275E+02 -0.36913906471E+02  0.45045666214E+02  0.00000000000E+00 0.  1.
         11    1    3    3    0    0  0.14962062164E+01 -0.39528443514E+01  0.51173622747E+01  0.66370933714E+01  0.51100000000E-03 0. -1.
        -11    1    3    3    0    0  0.66108323253E+01 -0.10965614573E+01  0.62261019602E+01  0.91471250643E+01  0.51100000000E-03 0.  1.
         12    1    3    3    0    0  0.15218296194E+02 -0.60142424664E+01  0.25570442236E+02  0.30358115351E+02  0.00000000000E+00 0. -1.
</event>
<event>
 7    1  0.3766050E-009  0.4614232E+02  0.7816164E-02  0.1320468E+00
        -11   -1    0    0    0    0  0.00000000000E+00  0.00000000000E+00  0.45593999997E+02  0.45594000000E+02  0.51100000000E-03 0. -1.
         11   -1    0    0    0    0 -0.00000000000E+00 -0.00000000000E+00 -0.45593999997E+02  0.45594000000E+02  0.51100000000E-03 0.  1.
    9900012    2    1    2    0    0  0.24242602119E+01  0.18866742576E+02 -0.40832371607E+02  0.46142316699E+02  0.99999903123E+01 0.  0.
         12    1    1    2    0    0 -0.24242602119E+01 -0.18866742576E+02  0.40832371607E+02  0.45045683301E+02  0.00000000000E+00 0. -1.
         11    1    3    3    0    0  0.41004278048E+01  0.13475343734E+02 -0.33421570329E+02  0.36268440282E+02  0.51100000000E-03 0. -1.
        -11    1    3    3    0    0  0.11286960562E+00  0.86154797043E+00 -0.35616975128E+01  0.36661551914E+01  0.51100000000E-03 0.  1.
         12    1    3    3    0    0 -0.17890371985E+01  0.45298508724E+01 -0.38491037649E+01  0.62077212257E+01  0.00000000000E+00 0. -1.
</event>
<event>
 7    1  0.3766050E-009  0.4614232E+02  0.7816164E-02  0.1320468E+00
        -11   -1    0    0    0    0  0.00000000000E+00  0.00000000000E+00  0.45593999997E+02  0.45594000000E+02  0.51100000000E-03 0. -1.
         11   -1    0    0    0    0 -0.00000000000E+00 -0.00000000000E+00 -0.45593999997E+02  0.45594000000E+02  0.51100000000E-03 0.  1.
    9900012    2    1    2    0    0  0.39698322906E+02 -0.11083190515E+02  0.18174695162E+02  0.46142317657E+02  0.99999990484E+01 0.  0.
        -12    1    1    2    0    0 -0.39698322906E+02  0.11083190515E+02 -0.18174695162E+02  0.45045682343E+02  0.00000000000E+00 0.  1.
         11    1    3    3    0    0  0.88037003491E+01 -0.18419742920E+01  0.73049859038E+01  0.11587097499E+02  0.51100000000E-03 0. -1.
        -11    1    3    3    0    0  0.13025461655E+02 -0.55852860630E+01  0.21353025379E+01  0.14332396482E+02  0.51100000000E-03 0.  1.
        -12    1    3    3    0    0  0.17869160902E+02 -0.36559301603E+01  0.87344067205E+01  0.20222823676E+02  0.00000000000E+00 0.  1.
</event>
<event>
 7    1  0.3766050E-009  0.4614232E+02  0.7816164E-02  0.1320468E+00
        -11   -1    0    0    0    0  0.00000000000E+00  0.00000000000E+00  0.45593999997E+02  0.45594000000E+02  0.51100000000E-03 0. -1.
         11   -1    0    0    0    0 -0.00000000000E+00 -0.00000000000E+00 -0.45593999997E+02  0.45594000000E+02  0.51100000000E-03 0.  1.
    9900012    2    1    2    0    0  0.24066724861E+02  0.45528043713E+01  0.37804473198E+02  0.46142317999E+02  0.10000002167E+02 0.  0.
        -12    1    1    2    0    0 -0.24066724861E+02 -0.45528043713E+01 -0.37804473198E+02  0.45045682001E+02  0.00000000000E+00 0.  1.
         11    1    3    3    0    0  0.16492352957E+02  0.18313539849E+01  0.20059887997E+02  0.26033644966E+02  0.51100000000E-03 0. -1.
        -11    1    3    3    0    0  0.60258180243E+01  0.39363244010E+01  0.11551761334E+02  0.13610595976E+02  0.51100000000E-03 0.  1.
        -12    1    3    3    0    0  0.15485538796E+01 -0.12148740146E+01  0.61928238672E+01  0.64980770570E+01  0.00000000000E+00 0.  1.
</event>
<event>
 7    1  0.3958254E-009  0.4614231E+02  0.7816164E-02  0.1320468E+00
        -11   -1    0    0    0    0  0.00000000000E+00  0.00000000000E+00  0.45593999997E+02  0.45594000000E+02  0.51100000000E-03 0. -1.
         11   -1    0    0    0    0 -0.00000000000E+00 -0.00000000000E+00 -0.45593999997E+02  0.45594000000E+02  0.51100000000E-03 0.  1.
    9900012    2    1    2    0    0 -0.16264041392E+02  0.21760318484E+01 -0.41950681624E+02  0.46142313795E+02  0.99999638310E+01 0.  0.
         12    1    1    2    0    0  0.16264041392E+02 -0.21760318484E+01  0.41950681624E+02  0.45045686205E+02  0.00000000000E+00 0. -1.
         11    1    3    3    0    0  0.38332222275E+00  0.21355478842E+01 -0.45295586985E+01  0.50223901637E+01  0.51100000000E-03 0. -1.
        -11    1    3    3    0    0 -0.37747931150E+01  0.15557560259E+01 -0.89878189038E+01  0.98716933088E+01  0.51100000000E-03 0.  1.
         12    1    3    3    0    0 -0.12872570500E+02 -0.15152720618E+01 -0.28433304021E+02  0.31248230322E+02  0.00000000000E+00 0. -1.
</event>
<event>
 7    1  0.3766050E-009  0.4614231E+02  0.7816164E-02  0.1320468E+00
        -11   -1    0    0    0    0  0.00000000000E+00  0.00000000000E+00  0.45593999997E+02  0.45594000000E+02  0.51100000000E-03 0. -1.
         11   -1    0    0    0    0 -0.00000000000E+00 -0.00000000000E+00 -0.45593999997E+02  0.45594000000E+02  0.51100000000E-03 0.  1.
    9900012    2    1    2    0    0  0.94116026897E+01 -0.79664580682E+01  0.43325179269E+02  0.46142313436E+02  0.99999605604E+01 0.  0.
        -12    1    1    2    0    0 -0.94116026897E+01  0.79664580682E+01 -0.43325179269E+02  0.45045686564E+02  0.00000000000E+00 0.  1.
         11    1    3    3    0    0  0.70441631670E+01 -0.65177194705E+01  0.30988239364E+02  0.32440281764E+02  0.51100000000E-03 0. -1.
        -11    1    3    3    0    0  0.90182723866E+00  0.16736975479E+01  0.18123547976E+01  0.26266301650E+01  0.51100000000E-03 0.  1.
        -12    1    3    3    0    0  0.14656122840E+01 -0.31224361456E+01  0.10524585107E+02  0.11075401507E+02  0.00000000000E+00 0.  1.
</event>
<event>
 7    1  0.3766050E-009  0.4614232E+02  0.7816164E-02  0.1320468E+00
        -11   -1    0    0    0    0  0.00000000000E+00  0.00000000000E+00  0.45593999997E+02  0.45594000000E+02  0.51100000000E-03 0. -1.
         11   -1    0    0    0    0 -0.00000000000E+00 -0.00000000000E+00 -0.45593999997E+02  0.45594000000E+02  0.51100000000E-03 0.  1.
    9900012    2    1    2    0    0 -0.71794012030E+01  0.20455550161E+02 -0.39485948697E+02  0.46142317870E+02  0.10000000991E+02 0.  0.
         12    1    1    2    0    0  0.71794012030E+01 -0.20455550161E+02  0.39485948697E+02  0.45045682130E+02  0.00000000000E+00 0. -1.
         11    1    3    3    0    0  0.79601923682E+00 -0.62818260093E+00 -0.27119641765E+01  0.28953428055E+01  0.51100000000E-03 0. -1.
        -11    1    3    3    0    0 -0.57203603549E+01  0.13531126208E+02 -0.26477724622E+02  0.30280089175E+02  0.51100000000E-03 0.  1.
        -12    1    3    3    0    0 -0.22550600848E+01  0.75526065546E+01 -0.10296259899E+02  0.12966885889E+02  0.00000000000E+00 0.  1.
</event>
<event>
 7    1  0.3766050E-009  0.4614232E+02  0.7816164E-02  0.1320468E+00
        -11   -1    0    0    0    0  0.00000000000E+00  0.00000000000E+00  0.45593999997E+02  0.45594000000E+02  0.51100000000E-03 0. -1.
         11   -1    0    0    0    0 -0.00000000000E+00 -0.00000000000E+00 -0.45593999997E+02  0.45594000000E+02  0.51100000000E-03 0.  1.
    9900012    2    1    2    0    0 -0.31186936399E+02  0.16586223978E+02 -0.27953276053E+02  0.46142317966E+02  0.10000001872E+02 0.  0.
         12    1    1    2    0    0  0.31186936399E+02 -0.16586223978E+02  0.27953276053E+02  0.45045682034E+02  0.00000000000E+00 0. -1.
         11    1    3    3    0    0 -0.10182498353E+02  0.61093686959E+01 -0.12462232702E+02  0.17213799776E+02  0.51100000000E-03 0.  1.
        -11    1    3    3    0    0 -0.76233507268E+01  0.40832896185E+01 -0.19915446922E+01  0.88744003141E+01  0.51100000000E-03 0. -1.
         12    1    3    3    0    0 -0.13381087320E+02  0.63935656638E+01 -0.13499498659E+02  0.20054117876E+02  0.00000000000E+00 0. -1.
</event>
<event>
 7    1  0.3766050E-009  0.4614232E+02  0.7816164E-02  0.1320468E+00
        -11   -1    0    0    0    0  0.00000000000E+00  0.00000000000E+00  0.45593999997E+02  0.45594000000E+02  0.51100000000E-03 0. -1.
         11   -1    0    0    0    0 -0.00000000000E+00 -0.00000000000E+00 -0.45593999997E+02  0.45594000000E+02  0.51100000000E-03 0.  1.
    9900012    2    1    2    0    0  0.21322594574E+02  0.17814117864E+02 -0.35455854854E+02  0.46142317876E+02  0.10000001045E+02 0.  0.
         12    1    1    2    0    0 -0.21322594574E+02 -0.17814117864E+02  0.35455854854E+02  0.45045682124E+02  0.00000000000E+00 0. -1.
         11    1    3    3    0    0  0.28640925331E+01  0.63675183102E+01 -0.64304010479E+01  0.94920162962E+01  0.51100000000E-03 0. -1.
        -11    1    3    3    0    0  0.58909658021E+01  0.35039302779E+01 -0.13582760211E+02  0.15214216400E+02  0.51100000000E-03 0.  1.
        -12    1    3    3    0    0  0.12567536239E+02  0.79426692761E+01 -0.15442693595E+02  0.21436085179E+02  0.00000000000E+00 0.  1.
</event>
<event>
 7    1  0.3766050E-009  0.4614232E+02  0.7816164E-02  0.1320468E+00
        -11   -1    0    0    0    0  0.00000000000E+00  0.00000000000E+00  0.45593999997E+02  0.45594000000E+02  0.51100000000E-03 0. -1.
         11   -1    0    0    0    0 -0.00000000000E+00 -0.00000000000E+00 -0.45593999997E+02  0.45594000000E+02  0.51100000000E-03 0.  1.
    9900012    2    1    2    0    0 -0.16067397271E+02 -0.30289464834E+02 -0.29214728237E+02  0.46142320063E+02  0.10000020994E+02 0.  0.
         12    1    1    2    0    0  0.16067397271E+02  0.30289464834E+02  0.29214728237E+02  0.45045679937E+02  0.00000000000E+00 0. -1.
         11    1    3    3    0    0 -0.22298582167E+01 -0.90107717894E+01 -0.65854462417E+01  0.11381317075E+02  0.51100000000E-03 0.  1.
        -11    1    3    3    0    0 -0.82819602008E+01 -0.15238493455E+02 -0.19180649320E+02  0.25859231546E+02  0.51100000000E-03 0. -1.
        -12    1    3    3    0    0 -0.55555788536E+01 -0.60401995895E+01 -0.34486326752E+01  0.89017714422E+01  0.00000000000E+00 0.  1.
</event>
<event>
 7    1  0.3766050E-009  0.4614232E+02  0.7816164E-02  0.1320468E+00
        -11   -1    0    0    0    0  0.00000000000E+00  0.00000000000E+00  0.45593999997E+02  0.45594000000E+02  0.51100000000E-03 0. -1.
         11   -1    0    0    0    0 -0.00000000000E+00 -0.00000000000E+00 -0.45593999997E+02  0.45594000000E+02  0.51100000000E-03 0.  1.
    9900012    2    1    2    0    0 -0.23735881657E+02 -0.36489596231E+02  0.11585801259E+02  0.46142317611E+02  0.99999986281E+01 0.  0.
        -12    1    1    2    0    0  0.23735881657E+02  0.36489596231E+02 -0.11585801259E+02  0.45045682389E+02  0.00000000000E+00 0.  1.
         11    1    3    3    0    0 -0.14663761388E+02 -0.25531003924E+02  0.81486293200E+01  0.30549275269E+02  0.51100000000E-03 0. -1.
        -11    1    3    3    0    0 -0.83160315752E+01 -0.68782944900E+01  0.37661203776E+01  0.11430265929E+02  0.51100000000E-03 0.  1.
        -12    1    3    3    0    0 -0.75608869423E+00 -0.40802978169E+01 -0.32894843874E+00  0.41627764128E+01  0.00000000000E+00 0.  1.
</event>
<event>
 7    1  0.3766050E-009  0.4614232E+02  0.7816164E-02  0.1320468E+00
        -11   -1    0    0    0    0  0.00000000000E+00  0.00000000000E+00  0.45593999997E+02  0.45594000000E+02  0.51100000000E-03 0. -1.
         11   -1    0    0    0    0 -0.00000000000E+00 -0.00000000000E+00 -0.45593999997E+02  0.45594000000E+02  0.51100000000E-03 0.  1.
    9900012    2    1    2    0    0  0.41254120642E+01 -0.13891155583E+02  0.42651260242E+02  0.46142320647E+02  0.10000026315E+02 0.  0.
        -12    1    1    2    0    0 -0.41254120642E+01  0.13891155583E+02 -0.42651260242E+02  0.45045679353E+02  0.00000000000E+00 0.  1.
         11    1    3    3    0    0  0.11221871731E+01 -0.43690004425E+01  0.61830996608E+01  0.76536390426E+01  0.51100000000E-03 0. -1.
        -11    1    3    3    0    0  0.46728476361E+01 -0.37623898345E+01  0.22532733517E+02  0.23317700622E+02  0.51100000000E-03 0.  1.
        -12    1    3    3    0    0 -0.16696227450E+01 -0.57597653063E+01  0.13935427064E+02  0.15170980982E+02  0.00000000000E+00 0.  1.
</event>
<event>
 7    1  0.3766050E-009  0.4614232E+02  0.7816164E-02  0.1320468E+00
        -11   -1    0    0    0    0  0.00000000000E+00  0.00000000000E+00  0.45593999997E+02  0.45594000000E+02  0.51100000000E-03 0.  1.
         11   -1    0    0    0    0 -0.00000000000E+00 -0.00000000000E+00 -0.45593999997E+02  0.45594000000E+02  0.51100000000E-03 0. -1.
    9900012    2    1    2    0    0  0.17534521907E+02  0.30500007967E+02  0.28131895769E+02  0.46142317587E+02  0.99999984118E+01 0.  0.
        -12    1    1    2    0    0 -0.17534521907E+02 -0.30500007967E+02 -0.28131895769E+02  0.45045682413E+02  0.00000000000E+00 0.  1.
         11    1    3    3    0    0  0.26647569485E+01  0.36350313365E+01  0.36161623270E+01  0.57784957081E+01  0.51100000000E-03 0. -1.
        -11    1    3    3    0    0  0.15838807744E+02  0.26615665826E+02  0.23134927134E+02  0.38658587039E+02  0.51100000000E-03 0.  1.
        -12    1    3    3    0    0 -0.96904278531E+00  0.24931080406E+00  0.13808063086E+01  0.17052348397E+01  0.00000000000E+00 0.  1.
</event>
<event>
 7    1  0.3766050E-009  0.4614232E+02  0.7816164E-02  0.1320468E+00
        -11   -1    0    0    0    0  0.00000000000E+00  0.00000000000E+00  0.45593999997E+02  0.45594000000E+02  0.51100000000E-03 0. -1.
         11   -1    0    0    0    0 -0.00000000000E+00 -0.00000000000E+00 -0.45593999997E+02  0.45594000000E+02  0.51100000000E-03 0.  1.
    9900012    2    1    2    0    0 -0.39880264107E+01 -0.20787036633E+02  0.39763152718E+02  0.46142316958E+02  0.99999926757E+01 0.  0.
        -12    1    1    2    0    0  0.39880264107E+01  0.20787036633E+02 -0.39763152718E+02  0.45045683042E+02  0.00000000000E+00 0.  1.
         11    1    3    3    0    0  0.13051134384E+01 -0.15027372224E+01  0.12210420750E+01  0.23350555147E+01  0.51100000000E-03 0. -1.
        -11    1    3    3    0    0 -0.28025905455E+01 -0.32286250824E+01  0.11379305517E+02  0.12155950313E+02  0.51100000000E-03 0.  1.
         12    1    3    3    0    0 -0.24905493036E+01 -0.16055674328E+02  0.27162805126E+02  0.31651311131E+02  0.00000000000E+00 0. -1.
</event>
<event>
 7    1  0.3766050E-009  0.4614232E+02  0.7816164E-02  0.1320468E+00
        -11   -1    0    0    0    0  0.00000000000E+00  0.00000000000E+00  0.45593999997E+02  0.45594000000E+02  0.51100000000E-03 0. -1.
         11   -1    0    0    0    0 -0.00000000000E+00 -0.00000000000E+00 -0.45593999997E+02  0.45594000000E+02  0.51100000000E-03 0.  1.
    9900012    2    1    2    0    0 -0.15575354929E+02  0.39066857714E+02  0.16133893274E+02  0.46142316910E+02  0.99999922403E+01 0.  0.
        -12    1    1    2    0    0  0.15575354929E+02 -0.39066857714E+02 -0.16133893274E+02  0.45045683090E+02  0.00000000000E+00 0.  1.
         11    1    3    3    0    0 -0.15635317968E+02  0.29687190589E+02  0.10939468546E+02  0.35291138057E+02  0.51100000000E-03 0. -1.
        -11    1    3    3    0    0 -0.42910620943E+00  0.85722306434E+01  0.46612433214E+01  0.97670087491E+01  0.51100000000E-03 0.  1.
         12    1    3    3    0    0  0.48906924828E+00  0.80743648254E+00  0.53318140651E+00  0.10841701044E+01  0.00000000000E+00 0. -1.
</event>
<event>
 7    1  0.3766050E-009  0.4614232E+02  0.7816164E-02  0.1320468E+00
        -11   -1    0    0    0    0  0.00000000000E+00  0.00000000000E+00  0.45593999997E+02  0.45594000000E+02  0.51100000000E-03 0. -1.
         11   -1    0    0    0    0 -0.00000000000E+00 -0.00000000000E+00 -0.45593999997E+02  0.45594000000E+02  0.51100000000E-03 0.  1.
    9900012    2    1    2    0    0 -0.25125973861E+02  0.29477791390E+02  0.22996928859E+02  0.46142317802E+02  0.10000000376E+02 0.  0.
        -12    1    1    2    0    0  0.25125973861E+02 -0.29477791390E+02 -0.22996928859E+02  0.45045682198E+02  0.00000000000E+00 0.  1.
         11    1    3    3    0    0 -0.79729981605E-01  0.33257091301E+01  0.20425807584E+01  0.39036949809E+01  0.51100000000E-03 0. -1.
        -11    1    3    3    0    0 -0.63350974142E+01  0.40543733709E+01  0.26100827913E+01  0.79614028360E+01  0.51100000000E-03 0.  1.
         12    1    3    3    0    0 -0.18711146465E+02  0.22097708889E+02  0.18344265309E+02  0.34277219985E+02  0.00000000000E+00 0. -1.
</event>
<event>
 7    1  0.3766050E-009  0.4614232E+02  0.7816164E-02  0.1320468E+00
        -11   -1    0    0    0    0  0.00000000000E+00  0.00000000000E+00  0.45593999997E+02  0.45594000000E+02  0.51100000000E-03 0. -1.
         11   -1    0    0    0    0 -0.00000000000E+00 -0.00000000000E+00 -0.45593999997E+02  0.45594000000E+02  0.51100000000E-03 0.  1.
    9900012    2    1    2    0    0  0.40783193998E+02 -0.18382086563E+02 -0.52861586587E+01  0.46142317716E+02  0.99999995854E+01 0.  0.
        -12    1    1    2    0    0 -0.40783193998E+02  0.18382086563E+02  0.52861586587E+01  0.45045682284E+02  0.00000000000E+00 0.  1.
         11    1    3    3    0    0  0.35374062864E+02 -0.12952229400E+02 -0.44139056501E+01  0.37928447546E+02  0.51100000000E-03 0. -1.
        -11    1    3    3    0    0  0.14077259794E+01 -0.22803777255E+01  0.89241401747E+00  0.28245739579E+01  0.51100000000E-03 0.  1.
        -12    1    3    3    0    0  0.40014051549E+01 -0.31494794377E+01 -0.17646670261E+01  0.53892962115E+01  0.00000000000E+00 0.  1.
</event>
<event>
 7    1  0.3766050E-009  0.4614232E+02  0.7816164E-02  0.1320468E+00
        -11   -1    0    0    0    0  0.00000000000E+00  0.00000000000E+00  0.45593999997E+02  0.45594000000E+02  0.51100000000E-03 0.  1.
         11   -1    0    0    0    0 -0.00000000000E+00 -0.00000000000E+00 -0.45593999997E+02  0.45594000000E+02  0.51100000000E-03 0. -1.
    9900012    2    1    2    0    0 -0.41182344269E+02  0.17996778659E+02  0.30403809888E+01  0.46142318319E+02  0.10000005083E+02 0.  0.
         12    1    1    2    0    0  0.41182344269E+02 -0.17996778659E+02 -0.30403809888E+01  0.45045681681E+02  0.00000000000E+00 0. -1.
         11    1    3    3    0    0 -0.70607721127E+01  0.66360182017E+01  0.37370245410E+00  0.96969528299E+01  0.51100000000E-03 0. -1.
        -11    1    3    3    0    0 -0.24909434011E+02  0.10695424188E+02  0.21934056827E+01  0.27197114370E+02  0.51100000000E-03 0.  1.
         12    1    3    3    0    0 -0.92121381450E+01  0.66533626923E+00  0.47327285198E+00  0.92482511183E+01  0.00000000000E+00 0. -1.
</event>
<event>
 7    1  0.3766050E-009  0.4614232E+02  0.7816164E-02  0.1320468E+00
        -11   -1    0    0    0    0  0.00000000000E+00  0.00000000000E+00  0.45593999997E+02  0.45594000000E+02  0.51100000000E-03 0. -1.
         11   -1    0    0    0    0 -0.00000000000E+00 -0.00000000000E+00 -0.45593999997E+02  0.45594000000E+02  0.51100000000E-03 0.  1.
    9900012    2    1    2    0    0 -0.85948051015E+01  0.40169689778E+02 -0.18483472965E+02  0.46142318471E+02  0.10000006470E+02 0.  0.
         12    1    1    2    0    0  0.85948051015E+01 -0.40169689778E+02  0.18483472965E+02  0.45045681529E+02  0.00000000000E+00 0. -1.
         11    1    3    3    0    0  0.32428758557E+00  0.41561752722E+01 -0.24259819987E+01  0.48233125806E+01  0.51100000000E-03 0. -1.
        -11    1    3    3    0    0 -0.58730711366E+01  0.25583460613E+02 -0.69818003476E+01  0.27161589752E+02  0.51100000000E-03 0.  1.
        -12    1    3    3    0    0 -0.30460215504E+01  0.10430053893E+02 -0.90756906185E+01  0.14157416138E+02  0.00000000000E+00 0.  1.
</event>
<event>
 7    1  0.3766050E-009  0.4614232E+02  0.7816164E-02  0.1320468E+00
        -11   -1    0    0    0    0  0.00000000000E+00  0.00000000000E+00  0.45593999997E+02  0.45594000000E+02  0.51100000000E-03 0. -1.
         11   -1    0    0    0    0 -0.00000000000E+00 -0.00000000000E+00 -0.45593999997E+02  0.45594000000E+02  0.51100000000E-03 0.  1.
    9900012    2    1    2    0    0 -0.36293126443E+02  0.24524911602E+02 -0.10509577328E+02  0.46142317280E+02  0.99999956096E+01 0.  0.
        -12    1    1    2    0    0  0.36293126443E+02 -0.24524911602E+02  0.10509577328E+02  0.45045682720E+02  0.00000000000E+00 0.  1.
         11    1    3    3    0    0 -0.81546185250E+01  0.48653767750E+01 -0.44995027309E+01  0.10507864652E+02  0.51100000000E-03 0. -1.
        -11    1    3    3    0    0 -0.45945780432E+01  0.60725297776E+01  0.66475468592E+00  0.76437990783E+01  0.51100000000E-03 0.  1.
        -12    1    3    3    0    0 -0.23543929875E+02  0.13587005050E+02 -0.66748292829E+01  0.27990653550E+02  0.00000000000E+00 0.  1.
</event>
<event>
 7    1  0.3766050E-009  0.4614232E+02  0.7816164E-02  0.1320468E+00
        -11   -1    0    0    0    0  0.00000000000E+00  0.00000000000E+00  0.45593999997E+02  0.45594000000E+02  0.51100000000E-03 0. -1.
         11   -1    0    0    0    0 -0.00000000000E+00 -0.00000000000E+00 -0.45593999997E+02  0.45594000000E+02  0.51100000000E-03 0.  1.
    9900012    2    1    2    0    0  0.34039330978E+02  0.15085716800E+02  0.25354656661E+02  0.46142317419E+02  0.99999968809E+01 0.  0.
        -12    1    1    2    0    0 -0.34039330978E+02 -0.15085716800E+02 -0.25354656661E+02  0.45045682581E+02  0.00000000000E+00 0.  1.
         11    1    3    3    0    0  0.91744863284E+01  0.72673739104E+01  0.10086153866E+02  0.15450450576E+02  0.51100000000E-03 0. -1.
        -11    1    3    3    0    0  0.91544951894E+01  0.31878606138E+01  0.27473533538E+01  0.10075474588E+02  0.51100000000E-03 0.  1.
         12    1    3    3    0    0  0.15710349460E+02  0.46304822758E+01  0.12521149442E+02  0.20616392255E+02  0.00000000000E+00 0. -1.
</event>
<event>
 7    1  0.3766050E-009  0.4614231E+02  0.7816164E-02  0.1320468E+00
        -11   -1    0    0    0    0  0.00000000000E+00  0.00000000000E+00  0.45593999997E+02  0.45594000000E+02  0.51100000000E-03 0. -1.
         11   -1    0    0    0    0 -0.00000000000E+00 -0.00000000000E+00 -0.45593999997E+02  0.45594000000E+02  0.51100000000E-03 0.  1.
    9900012    2    1    2    0    0 -0.34563123997E+02 -0.22730227058E+02  0.17828096854E+02  0.46142314302E+02  0.99999684596E+01 0.  0.
        -12    1    1    2    0    0  0.34563123997E+02  0.22730227058E+02 -0.17828096854E+02  0.45045685698E+02  0.00000000000E+00 0.  1.
         11    1    3    3    0    0 -0.30850344729E-01 -0.20067380594E+01  0.20026525788E+01  0.28352366736E+01  0.51100000000E-03 0. -1.
        -11    1    3    3    0    0 -0.27334369813E+02 -0.16320249521E+02  0.13269496441E+02  0.34490547307E+02  0.51100000000E-03 0.  1.
         12    1    3    3    0    0 -0.71979038392E+01 -0.44032394771E+01  0.25559478347E+01  0.88165303212E+01  0.00000000000E+00 0. -1.
</event>
<event>
 7    1  0.5566974E-009  0.4614232E+02  0.7816164E-02  0.1320468E+00
        -11   -1    0    0    0    0  0.00000000000E+00  0.00000000000E+00  0.45593999997E+02  0.45594000000E+02  0.51100000000E-03 0. -1.
         11   -1    0    0    0    0 -0.00000000000E+00 -0.00000000000E+00 -0.45593999997E+02  0.45594000000E+02  0.51100000000E-03 0.  1.
    9900012    2    1    2    0    0 -0.14839663769E+02 -0.56262025114E+01 -0.42157369135E+02  0.46142317100E+02  0.99999939732E+01 0.  0.
         12    1    1    2    0    0  0.14839663769E+02  0.56262025114E+01  0.42157369135E+02  0.45045682900E+02  0.00000000000E+00 0. -1.
         11    1    3    3    0    0  0.35637582066E+00 -0.42417079166E+00 -0.42961849145E+01  0.43317582650E+01  0.51100000000E-03 0. -1.
        -11    1    3    3    0    0 -0.94357113535E+01 -0.22428300938E+01 -0.13626648716E+02  0.16725683576E+02  0.51100000000E-03 0.  1.
        -12    1    3    3    0    0 -0.57603282365E+01 -0.29592016259E+01 -0.24234535505E+02  0.25084875260E+02  0.00000000000E+00 0.  1.
</event>
<event>
 7    1  0.3766050E-009  0.4614232E+02  0.7816164E-02  0.1320468E+00
        -11   -1    0    0    0    0  0.00000000000E+00  0.00000000000E+00  0.45593999997E+02  0.45594000000E+02  0.51100000000E-03 0. -1.
         11   -1    0    0    0    0 -0.00000000000E+00 -0.00000000000E+00 -0.45593999997E+02  0.45594000000E+02  0.51100000000E-03 0.  1.
    9900012    2    1    2    0    0  0.28028479159E+02 -0.17188040523E+02  0.30791054859E+02  0.46142318295E+02  0.10000004865E+02 0.  0.
        -12    1    1    2    0    0 -0.28028479159E+02  0.17188040523E+02 -0.30791054859E+02  0.45045681705E+02  0.00000000000E+00 0.  1.
         11    1    3    3    0    0  0.11825889291E+02 -0.80211659406E+01  0.17241344734E+02  0.22393184880E+02  0.51100000000E-03 0. -1.
        -11    1    3    3    0    0  0.47674052418E+01 -0.54466576907E+01  0.33286342367E+01  0.79670596133E+01  0.51100000000E-03 0.  1.
         12    1    3    3    0    0  0.11435184627E+02 -0.37202168913E+01  0.10221075888E+02  0.15782073802E+02  0.00000000000E+00 0. -1.
</event>
<event>
 7    1  0.3766050E-009  0.4614232E+02  0.7816164E-02  0.1320468E+00
        -11   -1    0    0    0    0  0.00000000000E+00  0.00000000000E+00  0.45593999997E+02  0.45594000000E+02  0.51100000000E-03 0. -1.
         11   -1    0    0    0    0 -0.00000000000E+00 -0.00000000000E+00 -0.45593999997E+02  0.45594000000E+02  0.51100000000E-03 0.  1.
    9900012    2    1    2    0    0  0.41449983976E+02  0.13601403861E+02  0.11225600757E+02  0.46142317955E+02  0.10000001764E+02 0.  0.
        -12    1    1    2    0    0 -0.41449983976E+02 -0.13601403861E+02 -0.11225600757E+02  0.45045682045E+02  0.00000000000E+00 0.  1.
         11    1    3    3    0    0  0.28674135707E+02  0.12269797876E+02  0.54998091358E+01  0.31670205229E+02  0.51100000000E-03 0. -1.
        -11    1    3    3    0    0  0.71241131465E+01 -0.75612616819E+00  0.22144198904E+01  0.74985579026E+01  0.51100000000E-03 0.  1.
         12    1    3    3    0    0  0.56517351220E+01  0.20877321534E+01  0.35113717311E+01  0.69735548229E+01  0.00000000000E+00 0. -1.
</event>
<event>
 7    1  0.3766050E-009  0.4614232E+02  0.7816164E-02  0.1320468E+00
        -11   -1    0    0    0    0  0.00000000000E+00  0.00000000000E+00  0.45593999997E+02  0.45594000000E+02  0.51100000000E-03 0. -1.
         11   -1    0    0    0    0 -0.00000000000E+00 -0.00000000000E+00 -0.45593999997E+02  0.45594000000E+02  0.51100000000E-03 0.  1.
    9900012    2    1    2    0    0 -0.22282809615E+02  0.21926819726E+01  0.39086853657E+02  0.46142316662E+02  0.99999899815E+01 0.  0.
        -12    1    1    2    0    0  0.22282809615E+02 -0.21926819726E+01 -0.39086853657E+02  0.45045683338E+02  0.00000000000E+00 0.  1.
         11    1    3    3    0    0 -0.10973571377E+02 -0.18342436947E+01  0.24269652734E+02  0.26698310111E+02  0.51100000000E-03 0. -1.
        -11    1    3    3    0    0 -0.51834035045E+01  0.37072210764E+01  0.64296648254E+01  0.90527205870E+01  0.51100000000E-03 0.  1.
        -12    1    3    3    0    0 -0.61258347339E+01  0.31970459085E+00  0.83875360972E+01  0.10391285964E+02  0.00000000000E+00 0.  1.
</event>
<event>
 7    1  0.3766050E-009  0.4614232E+02  0.7816164E-02  0.1320468E+00
        -11   -1    0    0    0    0  0.00000000000E+00  0.00000000000E+00  0.45593999997E+02  0.45594000000E+02  0.51100000000E-03 0. -1.
         11   -1    0    0    0    0 -0.00000000000E+00 -0.00000000000E+00 -0.45593999997E+02  0.45594000000E+02  0.51100000000E-03 0.  1.
    9900012    2    1    2    0    0  0.12972462312E+02  0.24147455686E+01  0.43069684159E+02  0.46142317985E+02  0.10000002045E+02 0.  0.
        -12    1    1    2    0    0 -0.12972462312E+02 -0.24147455686E+01 -0.43069684159E+02  0.45045682015E+02  0.00000000000E+00 0.  1.
         11    1    3    3    0    0  0.71696134902E+00 -0.26917595793E+01  0.11503024187E+02  0.11835504591E+02  0.51100000000E-03 0.  1.
        -11    1    3    3    0    0  0.59028202623E+01  0.35690637346E+01  0.15984399317E+02  0.17409265486E+02  0.51100000000E-03 0. -1.
        -12    1    3    3    0    0  0.63526807012E+01  0.15374414133E+01  0.15582260655E+02  0.16897547909E+02  0.00000000000E+00 0.  1.
</event>
<event>
 7    1  0.3766050E-009  0.4614232E+02  0.7816164E-02  0.1320468E+00
        -11   -1    0    0    0    0  0.00000000000E+00  0.00000000000E+00  0.45593999997E+02  0.45594000000E+02  0.51100000000E-03 0. -1.
         11   -1    0    0    0    0 -0.00000000000E+00 -0.00000000000E+00 -0.45593999997E+02  0.45594000000E+02  0.51100000000E-03 0.  1.
    9900012    2    1    2    0    0  0.96595808161E+01  0.24129390641E+02 -0.36791010240E+02  0.46142318423E+02  0.10000006034E+02 0.  0.
         12    1    1    2    0    0 -0.96595808161E+01 -0.24129390641E+02  0.36791010240E+02  0.45045681577E+02  0.00000000000E+00 0. -1.
         11    1    3    3    0    0  0.76597032410E+01  0.13820164368E+02 -0.21291113179E+02  0.26513760532E+02  0.51100000000E-03 0. -1.
        -11    1    3    3    0    0  0.30980546818E+01  0.78433261348E+01 -0.78685221667E+01  0.11533834966E+02  0.51100000000E-03 0.  1.
         12    1    3    3    0    0 -0.10981771067E+01  0.24659001386E+01 -0.76313748947E+01  0.80947229251E+01  0.00000000000E+00 0. -1.
</event>
<event>
 7    1  0.3766050E-009  0.4614233E+02  0.7816164E-02  0.1320468E+00
        -11   -1    0    0    0    0  0.00000000000E+00  0.00000000000E+00  0.45593999997E+02  0.45594000000E+02  0.51100000000E-03 0. -1.
         11   -1    0    0    0    0 -0.00000000000E+00 -0.00000000000E+00 -0.45593999997E+02  0.45594000000E+02  0.51100000000E-03 0.  1.
    9900012    2    1    2    0    0 -0.18166033959E+02  0.27677597148E+02 -0.30546003673E+02  0.46142328575E+02  0.10000098612E+02 0.  0.
         12    1    1    2    0    0  0.18166033959E+02 -0.27677597148E+02  0.30546003673E+02  0.45045671425E+02  0.00000000000E+00 0. -1.
         11    1    3    3    0    0 -0.57100454549E+01  0.11130307120E+02 -0.16074514403E+02  0.20368563259E+02  0.51100000000E-03 0. -1.
        -11    1    3    3    0    0 -0.37908200173E+01  0.75236439664E+01 -0.34600949774E+01  0.91075678669E+01  0.51100000000E-03 0.  1.
         12    1    3    3    0    0 -0.86651684871E+01  0.90236460616E+01 -0.11011394293E+02  0.16666197449E+02  0.00000000000E+00 0. -1.
</event>
<event>
 7    1  0.3766050E-009  0.4614232E+02  0.7816164E-02  0.1320468E+00
        -11   -1    0    0    0    0  0.00000000000E+00  0.00000000000E+00  0.45593999997E+02  0.45594000000E+02  0.51100000000E-03 0. -1.
         11   -1    0    0    0    0 -0.00000000000E+00 -0.00000000000E+00 -0.45593999997E+02  0.45594000000E+02  0.51100000000E-03 0.  1.
    9900012    2    1    2    0    0 -0.40415461464E+01  0.15288016054E+02  0.42178853765E+02  0.46142320573E+02  0.10000025645E+02 0.  0.
        -12    1    1    2    0    0  0.40415461464E+01 -0.15288016054E+02 -0.42178853765E+02  0.45045679427E+02  0.00000000000E+00 0.  1.
         11    1    3    3    0    0 -0.12234077074E+01  0.84832095643E+01  0.15171235553E+02  0.17424923512E+02  0.51100000000E-03 0. -1.
        -11    1    3    3    0    0 -0.25453504704E+01 -0.18431847257E+00  0.48270993837E+01  0.54601896521E+01  0.51100000000E-03 0.  1.
         12    1    3    3    0    0 -0.27278796859E+00  0.69891249620E+01  0.22180518828E+02  0.23257207409E+02  0.00000000000E+00 0. -1.
</event>
<event>
 7    1  0.3766050E-009  0.4614232E+02  0.7816164E-02  0.1320468E+00
        -11   -1    0    0    0    0  0.00000000000E+00  0.00000000000E+00  0.45593999997E+02  0.45594000000E+02  0.51100000000E-03 0. -1.
         11   -1    0    0    0    0 -0.00000000000E+00 -0.00000000000E+00 -0.45593999997E+02  0.45594000000E+02  0.51100000000E-03 0.  1.
    9900012    2    1    2    0    0  0.19359140973E+02  0.31806468187E+02 -0.25351245884E+02  0.46142318458E+02  0.10000006358E+02 0.  0.
         12    1    1    2    0    0 -0.19359140973E+02 -0.31806468187E+02  0.25351245884E+02  0.45045681542E+02  0.00000000000E+00 0. -1.
         11    1    3    3    0    0  0.10776590802E+02  0.24727708027E+02 -0.20499125296E+02  0.33879323957E+02  0.51100000000E-03 0. -1.
        -11    1    3    3    0    0  0.37527735724E+01  0.25408692102E+01 -0.27919652496E+01  0.53230062976E+01  0.51100000000E-03 0.  1.
         12    1    3    3    0    0  0.48297765981E+01  0.45378909495E+01 -0.20601553375E+01  0.69399882040E+01  0.00000000000E+00 0. -1.
</event>
<event>
 7    1  0.3766050E-009  0.4614232E+02  0.7816164E-02  0.1320468E+00
        -11   -1    0    0    0    0  0.00000000000E+00  0.00000000000E+00  0.45593999997E+02  0.45594000000E+02  0.51100000000E-03 0.  1.
         11   -1    0    0    0    0 -0.00000000000E+00 -0.00000000000E+00 -0.45593999997E+02  0.45594000000E+02  0.51100000000E-03 0. -1.
    9900012    2    1    2    0    0  0.32042706054E+02  0.29841539692E+02  0.10576433607E+02  0.46142318184E+02  0.10000003854E+02 0.  0.
         12    1    1    2    0    0 -0.32042706054E+02 -0.29841539692E+02 -0.10576433607E+02  0.45045681816E+02  0.00000000000E+00 0. -1.
         11    1    3    3    0    0  0.70185129944E+00  0.84700264756E+00  0.16584165201E+01  0.19900639052E+01  0.51100000000E-03 0. -1.
        -11    1    3    3    0    0  0.15094473608E+02  0.17571018907E+02  0.70023729659E+01  0.24199526160E+02  0.51100000000E-03 0.  1.
        -12    1    3    3    0    0  0.16246381147E+02  0.11423518137E+02  0.19156441213E+01  0.19952728119E+02  0.00000000000E+00 0.  1.
</event>
<event>
 7    1  0.3766050E-009  0.4614232E+02  0.7816164E-02  0.1320468E+00
        -11   -1    0    0    0    0  0.00000000000E+00  0.00000000000E+00  0.45593999997E+02  0.45594000000E+02  0.51100000000E-03 0. -1.
         11   -1    0    0    0    0 -0.00000000000E+00 -0.00000000000E+00 -0.45593999997E+02  0.45594000000E+02  0.51100000000E-03 0.  1.
    9900012    2    1    2    0    0  0.33758123211E+02 -0.21545371871E+02  0.20622794423E+02  0.46142316726E+02  0.99999905618E+01 0.  0.
        -12    1    1    2    0    0 -0.33758123211E+02  0.21545371871E+02 -0.20622794423E+02  0.45045683274E+02  0.00000000000E+00 0.  1.
         11    1    3    3    0    0 -0.27102242308E-01 -0.82448468098E+00  0.62650344220E+00  0.10358650225E+01  0.51100000000E-03 0. -1.
        -11    1    3    3    0    0  0.13755986333E+01  0.45370581825E+00 -0.16449991378E+00  0.14578000728E+01  0.51100000000E-03 0.  1.
        -12    1    3    3    0    0  0.32409626820E+02 -0.21174593008E+02  0.20160790895E+02  0.43648651631E+02  0.00000000000E+00 0.  1.
</event>
<event>
 7    1  0.3766050E-009  0.4614232E+02  0.7816164E-02  0.1320468E+00
        -11   -1    0    0    0    0  0.00000000000E+00  0.00000000000E+00  0.45593999997E+02  0.45594000000E+02  0.51100000000E-03 0. -1.
         11   -1    0    0    0    0 -0.00000000000E+00 -0.00000000000E+00 -0.45593999997E+02  0.45594000000E+02  0.51100000000E-03 0.  1.
    9900012    2    1    2    0    0 -0.20023969567E+02 -0.39717805062E+02  0.71168871453E+01  0.46142317867E+02  0.10000000966E+02 0.  0.
        -12    1    1    2    0    0  0.20023969567E+02  0.39717805062E+02 -0.71168871453E+01  0.45045682133E+02  0.00000000000E+00 0.  1.
         11    1    3    3    0    0 -0.16229380555E+02 -0.26179012615E+02  0.35580985496E+01  0.31006347096E+02  0.51100000000E-03 0. -1.
        -11    1    3    3    0    0 -0.14846322309E+01 -0.95971049448E+01  0.40882568365E+01  0.10536716775E+02  0.51100000000E-03 0.  1.
         12    1    3    3    0    0 -0.23099567817E+01 -0.39416875020E+01 -0.52946824070E+00  0.45992539955E+01  0.00000000000E+00 0. -1.
</event>
<event>
 7    1  0.3766050E-009  0.4614232E+02  0.7816164E-02  0.1320468E+00
        -11   -1    0    0    0    0  0.00000000000E+00  0.00000000000E+00  0.45593999997E+02  0.45594000000E+02  0.51100000000E-03 0. -1.
         11   -1    0    0    0    0 -0.00000000000E+00 -0.00000000000E+00 -0.45593999997E+02  0.45594000000E+02  0.51100000000E-03 0.  1.
    9900012    2    1    2    0    0 -0.22276553239E+02  0.25870252186E+02 -0.29387049539E+02  0.46142318154E+02  0.10000003581E+02 0.  0.
         12    1    1    2    0    0  0.22276553239E+02 -0.25870252186E+02  0.29387049539E+02  0.45045681846E+02  0.00000000000E+00 0. -1.
         11    1    3    3    0    0 -0.47599658480E+01  0.82496992709E+01 -0.11799244254E+02  0.15163672978E+02  0.51100000000E-03 0.  1.
        -11    1    3    3    0    0 -0.15043295063E+01 -0.14369172835E+00 -0.16577839715E+01  0.22431902580E+01  0.51100000000E-03 0. -1.
        -12    1    3    3    0    0 -0.16012257885E+02  0.17764244644E+02 -0.15930021313E+02  0.28735454918E+02  0.00000000000E+00 0.  1.
</event>
<event>
 7    1  0.3766050E-009  0.4614232E+02  0.7816164E-02  0.1320468E+00
        -11   -1    0    0    0    0  0.00000000000E+00  0.00000000000E+00  0.45593999997E+02  0.45594000000E+02  0.51100000000E-03 0. -1.
         11   -1    0    0    0    0 -0.00000000000E+00 -0.00000000000E+00 -0.45593999997E+02  0.45594000000E+02  0.51100000000E-03 0.  1.
    9900012    2    1    2    0    0  0.57948984177E+01  0.15895877780E+02 -0.41747499427E+02  0.46142317782E+02  0.10000000190E+02 0.  0.
         12    1    1    2    0    0 -0.57948984177E+01 -0.15895877780E+02  0.41747499427E+02  0.45045682218E+02  0.00000000000E+00 0. -1.
         11    1    3    3    0    0 -0.21964533733E+01  0.66649055153E+01 -0.12153082033E+02  0.14033630183E+02  0.51100000000E-03 0. -1.
        -11    1    3    3    0    0  0.12097780579E+00  0.87767330665E+00 -0.12805159437E+01  0.15571343570E+01  0.51100000000E-03 0.  1.
         12    1    3    3    0    0  0.78703739852E+01  0.83532989578E+01 -0.28313901450E+02  0.30551553242E+02  0.00000000000E+00 0. -1.
</event>
<event>
 7    1  0.3766050E-009  0.4614231E+02  0.7816164E-02  0.1320468E+00
        -11   -1    0    0    0    0  0.00000000000E+00  0.00000000000E+00  0.45593999997E+02  0.45594000000E+02  0.51100000000E-03 0. -1.
         11   -1    0    0    0    0 -0.00000000000E+00 -0.00000000000E+00 -0.45593999997E+02  0.45594000000E+02  0.51100000000E-03 0.  1.
    9900012    2    1    2    0    0 -0.22083279338E+02  0.30418348413E+02  0.24822705689E+02  0.46142313589E+02  0.99999619526E+01 0.  0.
        -12    1    1    2    0    0  0.22083279338E+02 -0.30418348413E+02 -0.24822705689E+02  0.45045686411E+02  0.00000000000E+00 0.  1.
         11    1    3    3    0    0 -0.16747978191E+02  0.23437620612E+02  0.18442703044E+02  0.34204533753E+02  0.51100000000E-03 0. -1.
        -11    1    3    3    0    0 -0.58891668281E+01  0.50250039774E+01  0.61598255997E+01  0.98932503548E+01  0.51100000000E-03 0.  1.
         12    1    3    3    0    0  0.55386568022E+00  0.19557238242E+01  0.22017704540E+00  0.20445294812E+01  0.00000000000E+00 0. -1.
</event>
<event>
 7    1  0.3766050E-009  0.4614232E+02  0.7816164E-02  0.1320468E+00
        -11   -1    0    0    0    0  0.00000000000E+00  0.00000000000E+00  0.45593999997E+02  0.45594000000E+02  0.51100000000E-03 0. -1.
         11   -1    0    0    0    0 -0.00000000000E+00 -0.00000000000E+00 -0.45593999997E+02  0.45594000000E+02  0.51100000000E-03 0.  1.
    9900012    2    1    2    0    0 -0.36062493520E+02 -0.24218069638E+02 -0.11920351704E+02  0.46142321843E+02  0.10000037221E+02 0.  0.
        -12    1    1    2    0    0  0.36062493520E+02  0.24218069638E+02  0.11920351704E+02  0.45045678157E+02  0.00000000000E+00 0.  1.
         11    1    3    3    0    0 -0.11420487744E+02 -0.10453338424E+02 -0.12477814753E+01  0.15532442931E+02  0.51100000000E-03 0. -1.
        -11    1    3    3    0    0 -0.22250145185E+02 -0.12963738254E+02 -0.11117290748E+02  0.28048558325E+02  0.51100000000E-03 0.  1.
        -12    1    3    3    0    0 -0.23918605911E+01 -0.80099295939E+00  0.44472051967E+00  0.25613205869E+01  0.00000000000E+00 0.  1.
</event>
<event>
 7    1  0.3766050E-009  0.4614232E+02  0.7816164E-02  0.1320468E+00
        -11   -1    0    0    0    0  0.00000000000E+00  0.00000000000E+00  0.45593999997E+02  0.45594000000E+02  0.51100000000E-03 0. -1.
         11   -1    0    0    0    0 -0.00000000000E+00 -0.00000000000E+00 -0.45593999997E+02  0.45594000000E+02  0.51100000000E-03 0.  1.
    9900012    2    1    2    0    0  0.12753410288E+02  0.22686238312E+02  0.36766814554E+02  0.46142317241E+02  0.99999952595E+01 0.  0.
        -12    1    1    2    0    0 -0.12753410288E+02 -0.22686238312E+02 -0.36766814554E+02  0.45045682759E+02  0.00000000000E+00 0.  1.
         11    1    3    3    0    0  0.41462653187E+01  0.18517013635E+01  0.93613444758E+01  0.10404570375E+02  0.51100000000E-03 0. -1.
        -11    1    3    3    0    0  0.13422752821E+01  0.79530482804E+01  0.11153205051E+02  0.13763962477E+02  0.51100000000E-03 0.  1.
         12    1    3    3    0    0  0.72648696876E+01  0.12881488668E+02  0.16252265027E+02  0.21973784390E+02  0.00000000000E+00 0. -1.
</event>
<event>
 7    1  0.3766050E-009  0.4614232E+02  0.7816164E-02  0.1320468E+00
        -11   -1    0    0    0    0  0.00000000000E+00  0.00000000000E+00  0.45593999997E+02  0.45594000000E+02  0.51100000000E-03 0. -1.
         11   -1    0    0    0    0 -0.00000000000E+00 -0.00000000000E+00 -0.45593999997E+02  0.45594000000E+02  0.51100000000E-03 0.  1.
    9900012    2    1    2    0    0 -0.40540128056E+02  0.17509663695E+02 -0.88895000259E+01  0.46142317452E+02  0.99999971794E+01 0.  0.
         12    1    1    2    0    0  0.40540128056E+02 -0.17509663695E+02  0.88895000259E+01  0.45045682548E+02  0.00000000000E+00 0. -1.
         11    1    3    3    0    0 -0.11300677043E+02  0.76523543987E+00 -0.10847586054E+01  0.11378382504E+02  0.51100000000E-03 0. -1.
        -11    1    3    3    0    0 -0.21066031713E+02  0.11390730203E+02 -0.40080833634E+01  0.24281498289E+02  0.51100000000E-03 0.  1.
         12    1    3    3    0    0 -0.81734193003E+01  0.53536980523E+01 -0.37966580570E+01  0.10482436658E+02  0.00000000000E+00 0. -1.
</event>
<event>
 7    1  0.3766050E-009  0.4614232E+02  0.7816164E-02  0.1320468E+00
        -11   -1    0    0    0    0  0.00000000000E+00  0.00000000000E+00  0.45593999997E+02  0.45594000000E+02  0.51100000000E-03 0. -1.
         11   -1    0    0    0    0 -0.00000000000E+00 -0.00000000000E+00 -0.45593999997E+02  0.45594000000E+02  0.51100000000E-03 0.  1.
    9900012    2    1    2    0    0 -0.17972801684E+02 -0.21691910229E+02  0.35150433309E+02  0.46142317282E+02  0.99999956287E+01 0.  0.
        -12    1    1    2    0    0  0.17972801684E+02  0.21691910229E+02 -0.35150433309E+02  0.45045682718E+02  0.00000000000E+00 0.  1.
         11    1    3    3    0    0 -0.13318292297E+02 -0.12058556666E+02  0.21476259301E+02  0.28000275220E+02  0.51100000000E-03 0. -1.
        -11    1    3    3    0    0 -0.37430464078E+01 -0.89827677166E+01  0.13930813305E+02  0.16993177215E+02  0.51100000000E-03 0.  1.
         12    1    3    3    0    0 -0.91146297941E+00 -0.65058584646E+00 -0.25663929751E+00  0.11488648465E+01  0.00000000000E+00 0. -1.
</event>
<event>
 7    1  0.3796572E-009  0.4614232E+02  0.7816164E-02  0.1320468E+00
        -11   -1    0    0    0    0  0.00000000000E+00  0.00000000000E+00  0.45593999997E+02  0.45594000000E+02  0.51100000000E-03 0. -1.
         11   -1    0    0    0    0 -0.00000000000E+00 -0.00000000000E+00 -0.45593999997E+02  0.45594000000E+02  0.51100000000E-03 0.  1.
    9900012    2    1    2    0    0 -0.20724532905E+02  0.27330553798E+02 -0.29200138255E+02  0.46142317531E+02  0.99999978974E+01 0.  0.
         12    1    1    2    0    0  0.20724532905E+02 -0.27330553798E+02  0.29200138255E+02  0.45045682469E+02  0.00000000000E+00 0. -1.
         11    1    3    3    0    0 -0.28055766916E+01  0.86711110251E+00 -0.92235449813E+00  0.30779669131E+01  0.51100000000E-03 0. -1.
        -11    1    3    3    0    0 -0.97981381678E+01  0.19213506123E+02 -0.19590485494E+02  0.29136737141E+02  0.51100000000E-03 0.  1.
        -12    1    3    3    0    0 -0.81208180454E+01  0.72499365728E+01 -0.86872982627E+01  0.13927613476E+02  0.00000000000E+00 0.  1.
</event>
<event>
 7    1  0.3766050E-009  0.4614232E+02  0.7816164E-02  0.1320468E+00
        -11   -1    0    0    0    0  0.00000000000E+00  0.00000000000E+00  0.45593999997E+02  0.45594000000E+02  0.51100000000E-03 0. -1.
         11   -1    0    0    0    0 -0.00000000000E+00 -0.00000000000E+00 -0.45593999997E+02  0.45594000000E+02  0.51100000000E-03 0.  1.
    9900012    2    1    2    0    0 -0.91089318933E+01  0.28992341780E+02  0.33250340441E+02  0.46142315839E+02  0.99999824708E+01 0.  0.
        -12    1    1    2    0    0  0.91089318933E+01 -0.28992341780E+02 -0.33250340441E+02  0.45045684161E+02  0.00000000000E+00 0.  1.
         11    1    3    3    0    0 -0.40947211236E+01  0.16164743184E+02  0.19212365070E+02  0.25439745186E+02  0.51100000000E-03 0. -1.
        -11    1    3    3    0    0 -0.24670690925E+01  0.39939249328E+00  0.28152185987E+01  0.37644920362E+01  0.51100000000E-03 0.  1.
        -12    1    3    3    0    0 -0.25471416773E+01  0.12428206103E+02  0.11222756771E+02  0.16938078616E+02  0.00000000000E+00 0.  1.
</event>
<event>
 7    1  0.3766050E-009  0.4614232E+02  0.7816164E-02  0.1320468E+00
        -11   -1    0    0    0    0  0.00000000000E+00  0.00000000000E+00  0.45593999997E+02  0.45594000000E+02  0.51100000000E-03 0. -1.
         11   -1    0    0    0    0 -0.00000000000E+00 -0.00000000000E+00 -0.45593999997E+02  0.45594000000E+02  0.51100000000E-03 0.  1.
    9900012    2    1    2    0    0  0.25458113212E+02 -0.78039488064E+00  0.37153585702E+02  0.46142317910E+02  0.10000001354E+02 0.  0.
        -12    1    1    2    0    0 -0.25458113212E+02  0.78039488064E+00 -0.37153585702E+02  0.45045682090E+02  0.00000000000E+00 0.  1.
         11    1    3    3    0    0  0.56318143216E+01 -0.31700665083E+01  0.68346630329E+01  0.94063421825E+01  0.51100000000E-03 0. -1.
        -11    1    3    3    0    0  0.12944586989E+02 -0.33910214825E+00  0.15713414245E+02  0.20361451571E+02  0.51100000000E-03 0.  1.
        -12    1    3    3    0    0  0.68817119015E+01  0.27287737759E+01  0.14605508424E+02  0.16374524156E+02  0.00000000000E+00 0.  1.
</event>
<event>
 7    1  0.3766050E-009  0.4614232E+02  0.7816164E-02  0.1320468E+00
        -11   -1    0    0    0    0  0.00000000000E+00  0.00000000000E+00  0.45593999997E+02  0.45594000000E+02  0.51100000000E-03 0. -1.
         11   -1    0    0    0    0 -0.00000000000E+00 -0.00000000000E+00 -0.45593999997E+02  0.45594000000E+02  0.51100000000E-03 0.  1.
    9900012    2    1    2    0    0  0.73367169078E+01  0.17170982684E+02 -0.40993211778E+02  0.46142317930E+02  0.10000001536E+02 0.  0.
         12    1    1    2    0    0 -0.73367169078E+01 -0.17170982684E+02  0.40993211778E+02  0.45045682070E+02  0.00000000000E+00 0. -1.
         11    1    3    3    0    0  0.41547239868E+01  0.10487691054E+02 -0.29302766611E+02  0.31399132574E+02  0.51100000000E-03 0. -1.
        -11    1    3    3    0    0  0.20143453593E+01  0.14582565493E+01 -0.76261519163E+01  0.80213647655E+01  0.51100000000E-03 0.  1.
         12    1    3    3    0    0  0.11676475617E+01  0.52250350805E+01 -0.40642932504E+01  0.67218205901E+01  0.00000000000E+00 0. -1.
</event>
<event>
 7    1  0.3766050E-009  0.4614232E+02  0.7816164E-02  0.1320468E+00
        -11   -1    0    0    0    0  0.00000000000E+00  0.00000000000E+00  0.45593999997E+02  0.45594000000E+02  0.51100000000E-03 0. -1.
         11   -1    0    0    0    0 -0.00000000000E+00 -0.00000000000E+00 -0.45593999997E+02  0.45594000000E+02  0.51100000000E-03 0.  1.
    9900012    2    1    2    0    0 -0.22632730591E+02 -0.25641789319E+02 -0.29315041602E+02  0.46142317437E+02  0.99999970418E+01 0.  0.
         12    1    1    2    0    0  0.22632730591E+02  0.25641789319E+02  0.29315041602E+02  0.45045682563E+02  0.00000000000E+00 0. -1.
         11    1    3    3    0    0 -0.51827815294E+00  0.38020082459E+00 -0.19726312795E+01  0.20747142783E+01  0.51100000000E-03 0. -1.
        -11    1    3    3    0    0 -0.15217518047E+02 -0.19902021517E+02 -0.17370811346E+02  0.30486200206E+02  0.51100000000E-03 0.  1.
         12    1    3    3    0    0 -0.68969343917E+01 -0.61199686262E+01 -0.99715989767E+01  0.13581402952E+02  0.00000000000E+00 0. -1.
</event>
<event>
 7    1  0.3766050E-009  0.4614232E+02  0.7816164E-02  0.1320468E+00
        -11   -1    0    0    0    0  0.00000000000E+00  0.00000000000E+00  0.45593999997E+02  0.45594000000E+02  0.51100000000E-03 0. -1.
         11   -1    0    0    0    0 -0.00000000000E+00 -0.00000000000E+00 -0.45593999997E+02  0.45594000000E+02  0.51100000000E-03 0.  1.
    9900012    2    1    2    0    0  0.33462276568E+02  0.21744673948E+02 -0.20893988942E+02  0.46142316831E+02  0.99999915215E+01 0.  0.
         12    1    1    2    0    0 -0.33462276568E+02 -0.21744673948E+02  0.20893988942E+02  0.45045683169E+02  0.00000000000E+00 0. -1.
         11    1    3    3    0    0  0.23995889523E+02  0.12540917439E+02 -0.11018193153E+02  0.29231454032E+02  0.51100000000E-03 0. -1.
        -11    1    3    3    0    0 -0.18922407922E+00 -0.18111847359E+00 -0.21066493500E+00  0.33613930087E+00  0.51100000000E-03 0.  1.
        -12    1    3    3    0    0  0.96556111244E+01  0.93848749820E+01 -0.96651308542E+01  0.16574723498E+02  0.00000000000E+00 0.  1.
</event>
<event>
 7    1  0.3766050E-009  0.4614232E+02  0.7816164E-02  0.1320468E+00
        -11   -1    0    0    0    0  0.00000000000E+00  0.00000000000E+00  0.45593999997E+02  0.45594000000E+02  0.51100000000E-03 0. -1.
         11   -1    0    0    0    0 -0.00000000000E+00 -0.00000000000E+00 -0.45593999997E+02  0.45594000000E+02  0.51100000000E-03 0.  1.
    9900012    2    1    2    0    0 -0.77921631771E+01  0.32560690528E+02 -0.30136310293E+02  0.46142316825E+02  0.99999914630E+01 0.  0.
         12    1    1    2    0    0  0.77921631771E+01 -0.32560690528E+02  0.30136310293E+02  0.45045683175E+02  0.00000000000E+00 0. -1.
         11    1    3    3    0    0  0.70511895788E-01  0.57672404671E+00 -0.34188368067E+01  0.34678563876E+01  0.51100000000E-03 0. -1.
        -11    1    3    3    0    0 -0.17744097942E+01  0.16277253857E+02 -0.14415918072E+02  0.21815504059E+02  0.51100000000E-03 0.  1.
        -12    1    3    3    0    0 -0.60882652787E+01  0.15706712625E+02 -0.12301555414E+02  0.20858956378E+02  0.00000000000E+00 0.  1.
</event>
<event>
 7    1  0.3766050E-009  0.4614232E+02  0.7816164E-02  0.1320468E+00
        -11   -1    0    0    0    0  0.00000000000E+00  0.00000000000E+00  0.45593999997E+02  0.45594000000E+02  0.51100000000E-03 0. -1.
         11   -1    0    0    0    0 -0.00000000000E+00 -0.00000000000E+00 -0.45593999997E+02  0.45594000000E+02  0.51100000000E-03 0.  1.
    9900012    2    1    2    0    0  0.17826136089E+02  0.11613560067E+02  0.39704755397E+02  0.46142317560E+02  0.99999981683E+01 0.  0.
        -12    1    1    2    0    0 -0.17826136089E+02 -0.11613560067E+02 -0.39704755397E+02  0.45045682440E+02  0.00000000000E+00 0.  1.
         11    1    3    3    0    0  0.30663613623E+00  0.42120278915E+01  0.79929829729E+01  0.90400764236E+01  0.51100000000E-03 0.  1.
        -11    1    3    3    0    0  0.13752159855E+02  0.48689672522E+01  0.25919893248E+02  0.29743396057E+02  0.51100000000E-03 0. -1.
        -12    1    3    3    0    0  0.37673400982E+01  0.25325649232E+01  0.57918791766E+01  0.73588450793E+01  0.00000000000E+00 0.  1.
</event>
<event>
 7    1  0.3766050E-009  0.4614232E+02  0.7816164E-02  0.1320468E+00
        -11   -1    0    0    0    0  0.00000000000E+00  0.00000000000E+00  0.45593999997E+02  0.45594000000E+02  0.51100000000E-03 0. -1.
         11   -1    0    0    0    0 -0.00000000000E+00 -0.00000000000E+00 -0.45593999997E+02  0.45594000000E+02  0.51100000000E-03 0.  1.
    9900012    2    1    2    0    0  0.14070583063E+02  0.31858750987E+02  0.28568376138E+02  0.46142318327E+02  0.10000005162E+02 0.  0.
        -12    1    1    2    0    0 -0.14070583063E+02 -0.31858750987E+02 -0.28568376138E+02  0.45045681673E+02  0.00000000000E+00 0.  1.
         11    1    3    3    0    0  0.95717642467E+01  0.14158662819E+02  0.15295319294E+02  0.22935413582E+02  0.51100000000E-03 0. -1.
        -11    1    3    3    0    0  0.91471920273E+00  0.32445288385E+01  0.17853415011E+00  0.33757300407E+01  0.51100000000E-03 0.  1.
         12    1    3    3    0    0  0.35840996140E+01  0.14455559330E+02  0.13094522695E+02  0.19831174705E+02  0.00000000000E+00 0. -1.
</event>
<event>
 7    1  0.3766050E-009  0.4614232E+02  0.7816164E-02  0.1320468E+00
        -11   -1    0    0    0    0  0.00000000000E+00  0.00000000000E+00  0.45593999997E+02  0.45594000000E+02  0.51100000000E-03 0. -1.
         11   -1    0    0    0    0 -0.00000000000E+00 -0.00000000000E+00 -0.45593999997E+02  0.45594000000E+02  0.51100000000E-03 0.  1.
    9900012    2    1    2    0    0  0.20603687856E+02 -0.22971743730E+02 -0.32816161365E+02  0.46142318631E+02  0.10000007933E+02 0.  0.
         12    1    1    2    0    0 -0.20603687856E+02  0.22971743730E+02  0.32816161365E+02  0.45045681369E+02  0.00000000000E+00 0. -1.
         11    1    3    3    0    0  0.52984362001E+01 -0.85827958899E+01 -0.66213923600E+01  0.12065680607E+02  0.51100000000E-03 0. -1.
        -11    1    3    3    0    0  0.13492830351E+02 -0.14564503609E+02 -0.22867710188E+02  0.30283880296E+02  0.51100000000E-03 0.  1.
        -12    1    3    3    0    0  0.18124213046E+01  0.17555576977E+00 -0.33270588171E+01  0.37927577284E+01  0.00000000000E+00 0.  1.
</event>
<event>
 7    1  0.3766050E-009  0.4614232E+02  0.7816164E-02  0.1320468E+00
        -11   -1    0    0    0    0  0.00000000000E+00  0.00000000000E+00  0.45593999997E+02  0.45594000000E+02  0.51100000000E-03 0. -1.
         11   -1    0    0    0    0 -0.00000000000E+00 -0.00000000000E+00 -0.45593999997E+02  0.45594000000E+02  0.51100000000E-03 0.  1.
    9900012    2    1    2    0    0 -0.77716116489E+00  0.66982119272E+01  0.44538112377E+02  0.46142317892E+02  0.10000001193E+02 0.  0.
        -12    1    1    2    0    0  0.77716116489E+00 -0.66982119272E+01 -0.44538112377E+02  0.45045682108E+02  0.00000000000E+00 0.  1.
         11    1    3    3    0    0 -0.45309805621E+01  0.48454795811E+01  0.19794762312E+02  0.20876807047E+02  0.51100000000E-03 0. -1.
        -11    1    3    3    0    0  0.37364957462E+01  0.53438140912E+00  0.19202883076E+02  0.19570326585E+02  0.51100000000E-03 0.  1.
         12    1    3    3    0    0  0.17323650936E-01  0.13183509369E+01  0.55404669887E+01  0.56951842599E+01  0.00000000000E+00 0. -1.
</event>
<event>
 7    1  0.5160232E-009  0.4614232E+02  0.7816164E-02  0.1320468E+00
        -11   -1    0    0    0    0  0.00000000000E+00  0.00000000000E+00  0.45593999997E+02  0.45594000000E+02  0.51100000000E-03 0. -1.
         11   -1    0    0    0    0 -0.00000000000E+00 -0.00000000000E+00 -0.45593999997E+02  0.45594000000E+02  0.51100000000E-03 0.  1.
    9900012    2    1    2    0    0 -0.52521243387E+01 -0.20290067002E+02 -0.39872821443E+02  0.46142317423E+02  0.99999969171E+01 0.  0.
         12    1    1    2    0    0  0.52521243387E+01  0.20290067002E+02  0.39872821443E+02  0.45045682577E+02  0.00000000000E+00 0. -1.
         11    1    3    3    0    0 -0.25439989949E+01 -0.25348988588E+01 -0.17662475794E+01  0.40021586529E+01  0.51100000000E-03 0. -1.
        -11    1    3    3    0    0 -0.14822553777E+01 -0.12739694735E+02 -0.26854566260E+02  0.29760118149E+02  0.51100000000E-03 0.  1.
         12    1    3    3    0    0 -0.12258699661E+01 -0.50154734075E+01 -0.11252007604E+02  0.12380040621E+02  0.00000000000E+00 0. -1.
</event>
<event>
 7    1  0.3766050E-009  0.4614232E+02  0.7816164E-02  0.1320468E+00
        -11   -1    0    0    0    0  0.00000000000E+00  0.00000000000E+00  0.45593999997E+02  0.45594000000E+02  0.51100000000E-03 0.  1.
         11   -1    0    0    0    0 -0.00000000000E+00 -0.00000000000E+00 -0.45593999997E+02  0.45594000000E+02  0.51100000000E-03 0. -1.
    9900012    2    1    2    0    0 -0.21145915852E+02 -0.30330626410E+02  0.25729686983E+02  0.46142318210E+02  0.10000004097E+02 0.  0.
        -12    1    1    2    0    0  0.21145915852E+02  0.30330626410E+02 -0.25729686983E+02  0.45045681790E+02  0.00000000000E+00 0.  1.
         11    1    3    3    0    0 -0.14301908690E+02 -0.16935515283E+02  0.17403577060E+02  0.28182277495E+02  0.51100000000E-03 0. -1.
        -11    1    3    3    0    0 -0.70932196760E+01 -0.13680663308E+02  0.76968136005E+01  0.17225424633E+02  0.51100000000E-03 0.  1.
        -12    1    3    3    0    0  0.24921251475E+00  0.28555218120E+00  0.62929632335E+00  0.73461608223E+00  0.00000000000E+00 0.  1.
</event>
<event>
 7    1  0.3766050E-009  0.4614232E+02  0.7816164E-02  0.1320468E+00
        -11   -1    0    0    0    0  0.00000000000E+00  0.00000000000E+00  0.45593999997E+02  0.45594000000E+02  0.51100000000E-03 0. -1.
         11   -1    0    0    0    0 -0.00000000000E+00 -0.00000000000E+00 -0.45593999997E+02  0.45594000000E+02  0.51100000000E-03 0.  1.
    9900012    2    1    2    0    0 -0.27231197561E+02  0.27345903831E+02 -0.23233101219E+02  0.46142316864E+02  0.99999918194E+01 0.  0.
         12    1    1    2    0    0  0.27231197561E+02 -0.27345903831E+02  0.23233101219E+02  0.45045683136E+02  0.00000000000E+00 0. -1.
         11    1    3    3    0    0 -0.85218895789E+01  0.13221593900E+02 -0.93398675033E+01  0.18293886205E+02  0.51100000000E-03 0. -1.
        -11    1    3    3    0    0 -0.10469064972E+02  0.46230707554E+01 -0.52711019616E+01  0.12599945268E+02  0.51100000000E-03 0.  1.
        -12    1    3    3    0    0 -0.82402430104E+01  0.95012391753E+01 -0.86221317537E+01  0.15248485391E+02  0.00000000000E+00 0.  1.
</event>
<event>
 7    1  0.3766050E-009  0.4614232E+02  0.7816164E-02  0.1320468E+00
        -11   -1    0    0    0    0  0.00000000000E+00  0.00000000000E+00  0.45593999997E+02  0.45594000000E+02  0.51100000000E-03 0. -1.
         11   -1    0    0    0    0 -0.00000000000E+00 -0.00000000000E+00 -0.45593999997E+02  0.45594000000E+02  0.51100000000E-03 0.  1.
    9900012    2    1    2    0    0  0.31003843069E+02  0.13442867744E+02 -0.29785307130E+02  0.46142317642E+02  0.99999989161E+01 0.  0.
         12    1    1    2    0    0 -0.31003843069E+02 -0.13442867744E+02  0.29785307130E+02  0.45045682358E+02  0.00000000000E+00 0. -1.
         11    1    3    3    0    0  0.44429215673E+01  0.36128482079E+01 -0.63779992635E+01  0.85715283989E+01  0.51100000000E-03 0.  1.
        -11    1    3    3    0    0  0.24592189739E+02  0.72719120225E+01 -0.18209555613E+02  0.31452256143E+02  0.51100000000E-03 0. -1.
         12    1    3    3    0    0  0.19687317628E+01  0.25581075141E+01 -0.51977522539E+01  0.61185331003E+01  0.00000000000E+00 0. -1.
</event>
<event>
 7    1  0.3766050E-009  0.4614232E+02  0.7816164E-02  0.1320468E+00
        -11   -1    0    0    0    0  0.00000000000E+00  0.00000000000E+00  0.45593999997E+02  0.45594000000E+02  0.51100000000E-03 0. -1.
         11   -1    0    0    0    0 -0.00000000000E+00 -0.00000000000E+00 -0.45593999997E+02  0.45594000000E+02  0.51100000000E-03 0.  1.
    9900012    2    1    2    0    0 -0.93062655297E+01 -0.39508319179E+02  0.19534575827E+02  0.46142317463E+02  0.99999972835E+01 0.  0.
        -12    1    1    2    0    0  0.93062655297E+01  0.39508319179E+02 -0.19534575827E+02  0.45045682537E+02  0.00000000000E+00 0.  1.
         11    1    3    3    0    0  0.14718284125E+01 -0.21111280761E+01  0.55087752470E+00  0.26318447784E+01  0.51100000000E-03 0. -1.
        -11    1    3    3    0    0 -0.30072440021E+00 -0.45264886104E+00  0.92939156118E+00  0.10766127862E+01  0.51100000000E-03 0.  1.
         12    1    3    3    0    0 -0.10477369542E+02 -0.36944542242E+02  0.18054306741E+02  0.42433859899E+02  0.00000000000E+00 0. -1.
</event>
<event>
 7    1  0.3766050E-009  0.4614232E+02  0.7816164E-02  0.1320468E+00
        -11   -1    0    0    0    0  0.00000000000E+00  0.00000000000E+00  0.45593999997E+02  0.45594000000E+02  0.51100000000E-03 0. -1.
         11   -1    0    0    0    0 -0.00000000000E+00 -0.00000000000E+00 -0.45593999997E+02  0.45594000000E+02  0.51100000000E-03 0.  1.
    9900012    2    1    2    0    0 -0.98204256021E+01 -0.17490565732E+02  0.40333019185E+02  0.46142322236E+02  0.10000040806E+02 0.  0.
        -12    1    1    2    0    0  0.98204256021E+01  0.17490565732E+02 -0.40333019185E+02  0.45045677764E+02  0.00000000000E+00 0.  1.
         11    1    3    3    0    0  0.99618632769E-01 -0.47374021023E+01  0.12313661195E+02  0.13193905974E+02  0.51100000000E-03 0. -1.
        -11    1    3    3    0    0 -0.52174067067E+01 -0.58342555963E+01  0.77234973350E+01  0.10996012116E+02  0.51100000000E-03 0.  1.
         12    1    3    3    0    0 -0.47026375281E+01 -0.69189080333E+01  0.20295860655E+02  0.21952404146E+02  0.00000000000E+00 0. -1.
</event>
<event>
 7    1  0.3766050E-009  0.4614232E+02  0.7816164E-02  0.1320468E+00
        -11   -1    0    0    0    0  0.00000000000E+00  0.00000000000E+00  0.45593999997E+02  0.45594000000E+02  0.51100000000E-03 0. -1.
         11   -1    0    0    0    0 -0.00000000000E+00 -0.00000000000E+00 -0.45593999997E+02  0.45594000000E+02  0.51100000000E-03 0.  1.
    9900012    2    1    2    0    0 -0.25456835710E+02  0.36736447164E+02 -0.56121588192E+01  0.46142319173E+02  0.10000012870E+02 0.  0.
         12    1    1    2    0    0  0.25456835710E+02 -0.36736447164E+02  0.56121588192E+01  0.45045680827E+02  0.00000000000E+00 0. -1.
         11    1    3    3    0    0 -0.54534932786E+00  0.53632326280E+01  0.11436570781E+01  0.55108639871E+01  0.51100000000E-03 0. -1.
        -11    1    3    3    0    0 -0.17129566818E+02  0.21115377975E+02 -0.44871595948E+01  0.27557500755E+02  0.51100000000E-03 0.  1.
         12    1    3    3    0    0 -0.77819195648E+01  0.10257836561E+02 -0.22686563026E+01  0.13073954430E+02  0.00000000000E+00 0. -1.
</event>
<event>
 7    1  0.3766050E-009  0.4614232E+02  0.7816164E-02  0.1320468E+00
        -11   -1    0    0    0    0  0.00000000000E+00  0.00000000000E+00  0.45593999997E+02  0.45594000000E+02  0.51100000000E-03 0. -1.
         11   -1    0    0    0    0 -0.00000000000E+00 -0.00000000000E+00 -0.45593999997E+02  0.45594000000E+02  0.51100000000E-03 0.  1.
    9900012    2    1    2    0    0 -0.55068070593E+01 -0.36734795515E+01  0.44556640640E+02  0.46142316510E+02  0.99999885895E+01 0.  0.
        -12    1    1    2    0    0  0.55068070593E+01  0.36734795515E+01 -0.44556640640E+02  0.45045683490E+02  0.00000000000E+00 0.  1.
         11    1    3    3    0    0 -0.15538936834E+01 -0.38661062952E+01  0.10092850343E+02  0.10919111309E+02  0.51100000000E-03 0. -1.
        -11    1    3    3    0    0 -0.38589114612E+01 -0.18903927606E+01  0.29880478184E+02  0.30187874374E+02  0.51100000000E-03 0.  1.
        -12    1    3    3    0    0 -0.94001914673E-01  0.20830195043E+01  0.45833121121E+01  0.50353308265E+01  0.00000000000E+00 0.  1.
</event>
<event>
 7    1  0.3766050E-009  0.4614232E+02  0.7816164E-02  0.1320468E+00
        -11   -1    0    0    0    0  0.00000000000E+00  0.00000000000E+00  0.45593999997E+02  0.45594000000E+02  0.51100000000E-03 0. -1.
         11   -1    0    0    0    0 -0.00000000000E+00 -0.00000000000E+00 -0.45593999997E+02  0.45594000000E+02  0.51100000000E-03 0.  1.
    9900012    2    1    2    0    0  0.42216336268E+02 -0.46944521102E+01  0.14995217602E+02  0.46142317860E+02  0.10000000902E+02 0.  0.
        -12    1    1    2    0    0 -0.42216336268E+02  0.46944521102E+01 -0.14995217602E+02  0.45045682140E+02  0.00000000000E+00 0.  1.
         11    1    3    3    0    0  0.24128422523E+02 -0.72636078406E+01  0.75434340310E+01  0.26302930817E+02  0.51100000000E-03 0. -1.
        -11    1    3    3    0    0  0.13466964335E+02  0.15665047451E+01  0.64137724249E+01  0.14998317989E+02  0.51100000000E-03 0.  1.
         12    1    3    3    0    0  0.46209494104E+01  0.10026509853E+01  0.10380111460E+01  0.48410690546E+01  0.00000000000E+00 0. -1.
</event>
<event>
 7    1  0.3766050E-009  0.4614232E+02  0.7816164E-02  0.1320468E+00
        -11   -1    0    0    0    0  0.00000000000E+00  0.00000000000E+00  0.45593999997E+02  0.45594000000E+02  0.51100000000E-03 0.  1.
         11   -1    0    0    0    0 -0.00000000000E+00 -0.00000000000E+00 -0.45593999997E+02  0.45594000000E+02  0.51100000000E-03 0. -1.
    9900012    2    1    2    0    0 -0.20697795549E+02 -0.39829306970E+02 -0.37869514404E+01  0.46142318348E+02  0.10000005347E+02 0.  0.
         12    1    1    2    0    0  0.20697795549E+02  0.39829306970E+02  0.37869514404E+01  0.45045681652E+02  0.00000000000E+00 0. -1.
         11    1    3    3    0    0 -0.22760408885E+00  0.26688924874E+00 -0.56782854495E+00  0.66743015360E+00  0.51100000000E-03 0. -1.
        -11    1    3    3    0    0 -0.14553836212E+02 -0.31287221856E+02 -0.44500954113E+01  0.34792351880E+02  0.51100000000E-03 0.  1.
         12    1    3    3    0    0 -0.59163552482E+01 -0.88089743633E+01  0.12309725159E+01  0.10682536314E+02  0.00000000000E+00 0. -1.
</event>
<event>
 7    1  0.3766050E-009  0.4614232E+02  0.7816164E-02  0.1320468E+00
        -11   -1    0    0    0    0  0.00000000000E+00  0.00000000000E+00  0.45593999997E+02  0.45594000000E+02  0.51100000000E-03 0. -1.
         11   -1    0    0    0    0 -0.00000000000E+00 -0.00000000000E+00 -0.45593999997E+02  0.45594000000E+02  0.51100000000E-03 0.  1.
    9900012    2    1    2    0    0 -0.54973813261E+00 -0.31459952599E+02 -0.32234802488E+02  0.46142319619E+02  0.10000016942E+02 0.  0.
         12    1    1    2    0    0  0.54973813261E+00  0.31459952599E+02  0.32234802488E+02  0.45045680381E+02  0.00000000000E+00 0. -1.
         11    1    3    3    0    0  0.28380507090E+01 -0.51647560126E+01 -0.70485688266E+01  0.91875763540E+01  0.51100000000E-03 0. -1.
        -11    1    3    3    0    0 -0.44859663451E+00 -0.18241857105E+02 -0.14852979770E+02  0.23528229807E+02  0.51100000000E-03 0.  1.
        -12    1    3    3    0    0 -0.29391922071E+01 -0.80533394816E+01 -0.10333253892E+02  0.13426513458E+02  0.00000000000E+00 0.  1.
</event>
<event>
 7    1  0.3766050E-009  0.4614232E+02  0.7816164E-02  0.1320468E+00
        -11   -1    0    0    0    0  0.00000000000E+00  0.00000000000E+00  0.45593999997E+02  0.45594000000E+02  0.51100000000E-03 0. -1.
         11   -1    0    0    0    0 -0.00000000000E+00 -0.00000000000E+00 -0.45593999997E+02  0.45594000000E+02  0.51100000000E-03 0.  1.
    9900012    2    1    2    0    0 -0.11514935240E+02  0.25582672658E+02 -0.35242681493E+02  0.46142317935E+02  0.10000001585E+02 0.  0.
         12    1    1    2    0    0  0.11514935240E+02 -0.25582672658E+02  0.35242681493E+02  0.45045682065E+02  0.00000000000E+00 0. -1.
         11    1    3    3    0    0 -0.65040863403E+00 -0.61522402590E+00 -0.61594713001E+00  0.10867028671E+01  0.51100000000E-03 0. -1.
        -11    1    3    3    0    0 -0.78302507308E+01  0.16435684234E+02 -0.18454515963E+02  0.25923227084E+02  0.51100000000E-03 0.  1.
        -12    1    3    3    0    0 -0.30342758752E+01  0.97622124498E+01 -0.16172218400E+02  0.19132387984E+02  0.00000000000E+00 0.  1.
</event>
<event>
 7    1  0.3766050E-009  0.4614232E+02  0.7816164E-02  0.1320468E+00
        -11   -1    0    0    0    0  0.00000000000E+00  0.00000000000E+00  0.45593999997E+02  0.45594000000E+02  0.51100000000E-03 0. -1.
         11   -1    0    0    0    0 -0.00000000000E+00 -0.00000000000E+00 -0.45593999997E+02  0.45594000000E+02  0.51100000000E-03 0.  1.
    9900012    2    1    2    0    0  0.26878865439E+01  0.14779195389E+02 -0.42467210384E+02  0.46142319760E+02  0.10000018232E+02 0.  0.
         12    1    1    2    0    0 -0.26878865439E+01 -0.14779195389E+02  0.42467210384E+02  0.45045680240E+02  0.00000000000E+00 0. -1.
         11    1    3    3    0    0  0.15207294293E+01  0.13601081601E+01 -0.14218991217E+01  0.24868272111E+01  0.51100000000E-03 0. -1.
        -11    1    3    3    0    0  0.18866153568E+01  0.15399444600E+01 -0.34605470190E+01  0.42315638216E+01  0.51100000000E-03 0.  1.
         12    1    3    3    0    0 -0.71945824218E+00  0.11879142768E+02 -0.37584764244E+02  0.39423928728E+02  0.00000000000E+00 0. -1.
</event>
<event>
 7    1  0.3766050E-009  0.4614232E+02  0.7816164E-02  0.1320468E+00
        -11   -1    0    0    0    0  0.00000000000E+00  0.00000000000E+00  0.45593999997E+02  0.45594000000E+02  0.51100000000E-03 0. -1.
         11   -1    0    0    0    0 -0.00000000000E+00 -0.00000000000E+00 -0.45593999997E+02  0.45594000000E+02  0.51100000000E-03 0.  1.
    9900012    2    1    2    0    0 -0.24194913214E+01  0.30862991191E+02 -0.32722093007E+02  0.46142317251E+02  0.99999953487E+01 0.  0.
         12    1    1    2    0    0  0.24194913214E+01 -0.30862991191E+02  0.32722093007E+02  0.45045682749E+02  0.00000000000E+00 0. -1.
         11    1    3    3    0    0  0.14440899575E+01  0.96549202247E+01 -0.12084202023E+02  0.15534826009E+02  0.51100000000E-03 0.  1.
        -11    1    3    3    0    0 -0.46591960374E+01  0.80897079438E+01 -0.10175136346E+02  0.13808869695E+02  0.51100000000E-03 0. -1.
         12    1    3    3    0    0  0.79561475842E+00  0.13118363023E+02 -0.10462754639E+02  0.16798621547E+02  0.00000000000E+00 0. -1.
</event>
<event>
 7    1  0.3766050E-009  0.4614232E+02  0.7816164E-02  0.1320468E+00
        -11   -1    0    0    0    0  0.00000000000E+00  0.00000000000E+00  0.45593999997E+02  0.45594000000E+02  0.51100000000E-03 0. -1.
         11   -1    0    0    0    0 -0.00000000000E+00 -0.00000000000E+00 -0.45593999997E+02  0.45594000000E+02  0.51100000000E-03 0.  1.
    9900012    2    1    2    0    0  0.24845769713E+02  0.13559868995E+02  0.35041848428E+02  0.46142318064E+02  0.10000002762E+02 0.  0.
        -12    1    1    2    0    0 -0.24845769713E+02 -0.13559868995E+02 -0.35041848428E+02  0.45045681936E+02  0.00000000000E+00 0.  1.
         11    1    3    3    0    0  0.16515679547E+02  0.10833546808E+02  0.20820875168E+02  0.28699168112E+02  0.51100000000E-03 0. -1.
        -11    1    3    3    0    0 -0.20117771965E+00  0.69180340924E+00  0.35886623464E+01  0.36602680407E+01  0.51100000000E-03 0.  1.
        -12    1    3    3    0    0  0.85312678857E+01  0.20345187787E+01  0.10632310914E+02  0.13782881911E+02  0.00000000000E+00 0.  1.
</event>
<event>
 7    1  0.3766050E-009  0.4614232E+02  0.7816164E-02  0.1320468E+00
        -11   -1    0    0    0    0  0.00000000000E+00  0.00000000000E+00  0.45593999997E+02  0.45594000000E+02  0.51100000000E-03 0. -1.
         11   -1    0    0    0    0 -0.00000000000E+00 -0.00000000000E+00 -0.45593999997E+02  0.45594000000E+02  0.51100000000E-03 0.  1.
    9900012    2    1    2    0    0 -0.37480101738E+02 -0.41290682902E+01  0.24643583192E+02  0.46142318478E+02  0.10000006539E+02 0.  0.
        -12    1    1    2    0    0  0.37480101738E+02  0.41290682902E+01 -0.24643583192E+02  0.45045681522E+02  0.00000000000E+00 0.  1.
         11    1    3    3    0    0 -0.21956900862E+02 -0.22932019398E+01  0.12698701248E+02  0.25468044374E+02  0.51100000000E-03 0. -1.
        -11    1    3    3    0    0 -0.59081644062E+01  0.18866854035E+01  0.24844577729E+01  0.66812064142E+01  0.51100000000E-03 0.  1.
         12    1    3    3    0    0 -0.96150364697E+01 -0.37225517539E+01  0.94604241715E+01  0.13993067690E+02  0.00000000000E+00 0. -1.
</event>
<event>
 7    1  0.3766050E-009  0.4614232E+02  0.7816164E-02  0.1320468E+00
        -11   -1    0    0    0    0  0.00000000000E+00  0.00000000000E+00  0.45593999997E+02  0.45594000000E+02  0.51100000000E-03 0.  1.
         11   -1    0    0    0    0 -0.00000000000E+00 -0.00000000000E+00 -0.45593999997E+02  0.45594000000E+02  0.51100000000E-03 0. -1.
    9900012    2    1    2    0    0  0.86010362485E+01 -0.40711577037E+02 -0.17254076574E+02  0.46142317767E+02  0.10000000053E+02 0.  0.
         12    1    1    2    0    0 -0.86010362485E+01  0.40711577037E+02  0.17254076574E+02  0.45045682233E+02  0.00000000000E+00 0. -1.
         11    1    3    3    0    0  0.30011853346E+01 -0.49431608090E+01 -0.63409947041E+00  0.58175625992E+01  0.51100000000E-03 0. -1.
        -11    1    3    3    0    0  0.42943226511E+01 -0.16771998432E+02 -0.50106750977E+01  0.18023540264E+02  0.51100000000E-03 0.  1.
         12    1    3    3    0    0  0.13055282628E+01 -0.18996417796E+02 -0.11609302006E+02  0.22301214904E+02  0.00000000000E+00 0. -1.
</event>
<event>
 7    1  0.3766050E-009  0.4614232E+02  0.7816164E-02  0.1320468E+00
        -11   -1    0    0    0    0  0.00000000000E+00  0.00000000000E+00  0.45593999997E+02  0.45594000000E+02  0.51100000000E-03 0.  1.
         11   -1    0    0    0    0 -0.00000000000E+00 -0.00000000000E+00 -0.45593999997E+02  0.45594000000E+02  0.51100000000E-03 0. -1.
    9900012    2    1    2    0    0  0.16054521191E+02 -0.36590963200E+02  0.20795848303E+02  0.46142317130E+02  0.99999942465E+01 0.  0.
        -12    1    1    2    0    0 -0.16054521191E+02  0.36590963200E+02 -0.20795848303E+02  0.45045682870E+02  0.00000000000E+00 0.  1.
         11    1    3    3    0    0  0.15916588283E+01 -0.12882202452E+01 -0.14991387393E+00  0.20531350800E+01  0.51100000000E-03 0. -1.
        -11    1    3    3    0    0  0.13549528509E+02 -0.32388201545E+02  0.16749297693E+02  0.38898898385E+02  0.51100000000E-03 0.  1.
        -12    1    3    3    0    0  0.91333385376E+00 -0.29145414100E+01  0.41964644836E+01  0.51902836648E+01  0.00000000000E+00 0.  1.
</event>
<event>
 7    1  0.3766050E-009  0.4614232E+02  0.7816164E-02  0.1320468E+00
        -11   -1    0    0    0    0  0.00000000000E+00  0.00000000000E+00  0.45593999997E+02  0.45594000000E+02  0.51100000000E-03 0. -1.
         11   -1    0    0    0    0 -0.00000000000E+00 -0.00000000000E+00 -0.45593999997E+02  0.45594000000E+02  0.51100000000E-03 0.  1.
    9900012    2    1    2    0    0 -0.41466566825E+01  0.32341568137E+01  0.44737662380E+02  0.46142323546E+02  0.10000052753E+02 0.  0.
        -12    1    1    2    0    0  0.41466566825E+01 -0.32341568137E+01 -0.44737662380E+02  0.45045676454E+02  0.00000000000E+00 0.  1.
         11    1    3    3    0    0  0.35398817345E+00  0.67946353047E+00  0.16832570909E+02  0.16849997685E+02  0.51100000000E-03 0. -1.
        -11    1    3    3    0    0 -0.38509553963E+01  0.46673091555E+01  0.24474255960E+02  0.25211164933E+02  0.51100000000E-03 0.  1.
        -12    1    3    3    0    0 -0.64968945967E+00 -0.21126158723E+01  0.34308355109E+01  0.40811609281E+01  0.00000000000E+00 0.  1.
</event>
<event>
 7    1  0.3766050E-009  0.4614232E+02  0.7816164E-02  0.1320468E+00
        -11   -1    0    0    0    0  0.00000000000E+00  0.00000000000E+00  0.45593999997E+02  0.45594000000E+02  0.51100000000E-03 0. -1.
         11   -1    0    0    0    0 -0.00000000000E+00 -0.00000000000E+00 -0.45593999997E+02  0.45594000000E+02  0.51100000000E-03 0.  1.
    9900012    2    1    2    0    0  0.19733856591E+02 -0.20394200828E+02 -0.34982349211E+02  0.46142320077E+02  0.10000021120E+02 0.  0.
         12    1    1    2    0    0 -0.19733856591E+02  0.20394200828E+02  0.34982349211E+02  0.45045679923E+02  0.00000000000E+00 0. -1.
         11    1    3    3    0    0  0.52593596607E+01 -0.64490267314E+01 -0.13554760835E+02  0.15905418932E+02  0.51100000000E-03 0. -1.
        -11    1    3    3    0    0  0.11345793891E+02 -0.14207810818E+02 -0.18622368663E+02  0.26026554558E+02  0.51100000000E-03 0.  1.
        -12    1    3    3    0    0  0.31287030390E+01  0.26263672134E+00 -0.28052197130E+01  0.42103465881E+01  0.00000000000E+00 0.  1.
</event>
<event>
 7    1  0.3766050E-009  0.4614232E+02  0.7816164E-02  0.1320468E+00
        -11   -1    0    0    0    0  0.00000000000E+00  0.00000000000E+00  0.45593999997E+02  0.45594000000E+02  0.51100000000E-03 0.  1.
         11   -1    0    0    0    0 -0.00000000000E+00 -0.00000000000E+00 -0.45593999997E+02  0.45594000000E+02  0.51100000000E-03 0. -1.
    9900012    2    1    2    0    0  0.18237798211E+02 -0.40805629456E+02  0.56032963550E+01  0.46142316423E+02  0.99999878015E+01 0.  0.
        -12    1    1    2    0    0 -0.18237798211E+02  0.40805629456E+02 -0.56032963550E+01  0.45045683577E+02  0.00000000000E+00 0.  1.
         11    1    3    3    0    0  0.34431900530E+01 -0.74401391272E+01  0.19540612361E+01  0.84279050509E+01  0.51100000000E-03 0. -1.
        -11    1    3    3    0    0  0.75950254154E+01 -0.21775312248E+02 -0.15481745706E+01  0.23113750871E+02  0.51100000000E-03 0.  1.
        -12    1    3    3    0    0  0.71995827425E+01 -0.11590178081E+02  0.51974096896E+01  0.14600660502E+02  0.00000000000E+00 0.  1.
</event>
<event>
 7    1  0.3766050E-009  0.4614232E+02  0.7816164E-02  0.1320468E+00
        -11   -1    0    0    0    0  0.00000000000E+00  0.00000000000E+00  0.45593999997E+02  0.45594000000E+02  0.51100000000E-03 0. -1.
         11   -1    0    0    0    0 -0.00000000000E+00 -0.00000000000E+00 -0.45593999997E+02  0.45594000000E+02  0.51100000000E-03 0.  1.
    9900012    2    1    2    0    0 -0.41590339423E+02  0.26853203751E+01 -0.17092290860E+02  0.46142315571E+02  0.99999800283E+01 0.  0.
         12    1    1    2    0    0  0.41590339423E+02 -0.26853203751E+01  0.17092290860E+02  0.45045684429E+02  0.00000000000E+00 0. -1.
         11    1    3    3    0    0 -0.94191208441E+01  0.26371257878E+01 -0.58243842725E+00  0.97986481046E+01  0.51100000000E-03 0. -1.
        -11    1    3    3    0    0 -0.28849174314E+02 -0.68773721920E+00 -0.13766313486E+02  0.31972788873E+02  0.51100000000E-03 0.  1.
        -12    1    3    3    0    0 -0.33220442649E+01  0.73593180650E+00 -0.27435389468E+01  0.43708785930E+01  0.00000000000E+00 0.  1.
</event>
<event>
 7    1  0.3766050E-009  0.4614232E+02  0.7816164E-02  0.1320468E+00
        -11   -1    0    0    0    0  0.00000000000E+00  0.00000000000E+00  0.45593999997E+02  0.45594000000E+02  0.51100000000E-03 0. -1.
         11   -1    0    0    0    0 -0.00000000000E+00 -0.00000000000E+00 -0.45593999997E+02  0.45594000000E+02  0.51100000000E-03 0.  1.
    9900012    2    1    2    0    0  0.20878164208E+02 -0.31960488294E+02 -0.23911146617E+02  0.46142317797E+02  0.10000000324E+02 0.  0.
         12    1    1    2    0    0 -0.20878164208E+02  0.31960488294E+02  0.23911146617E+02  0.45045682203E+02  0.00000000000E+00 0. -1.
         11    1    3    3    0    0  0.11811979022E+00 -0.36454269604E+00  0.69254063657E+00  0.79149002299E+00  0.51100000000E-03 0. -1.
        -11    1    3    3    0    0  0.15654417319E+02 -0.25104190939E+02 -0.21302659763E+02  0.36456611164E+02  0.51100000000E-03 0.  1.
        -12    1    3    3    0    0  0.51056270983E+01 -0.64917546582E+01 -0.33010274904E+01  0.88942166098E+01  0.00000000000E+00 0.  1.
</event>
<event>
 7    1  0.3766050E-009  0.4614231E+02  0.7816164E-02  0.1320468E+00
        -11   -1    0    0    0    0  0.00000000000E+00  0.00000000000E+00  0.45593999997E+02  0.45594000000E+02  0.51100000000E-03 0. -1.
         11   -1    0    0    0    0 -0.00000000000E+00 -0.00000000000E+00 -0.45593999997E+02  0.45594000000E+02  0.51100000000E-03 0.  1.
    9900012    2    1    2    0    0  0.34138112223E+02  0.25262332668E+02 -0.15017248748E+02  0.46142312993E+02  0.99999565200E+01 0.  0.
         12    1    1    2    0    0 -0.34138112223E+02 -0.25262332668E+02  0.15017248748E+02  0.45045687007E+02  0.00000000000E+00 0. -1.
         11    1    3    3    0    0  0.92156266133E+00  0.15969482615E+01  0.84956800661E+00  0.20300954528E+01  0.51100000000E-03 0. -1.
        -11    1    3    3    0    0  0.15918646352E+02  0.13916841360E+02 -0.10121249975E+02  0.23441874423E+02  0.51100000000E-03 0.  1.
         12    1    3    3    0    0  0.17297903210E+02  0.97485430459E+01 -0.57455667793E+01  0.20670343117E+02  0.00000000000E+00 0. -1.
</event>
<event>
 7    1  0.3766050E-009  0.4614232E+02  0.7816164E-02  0.1320468E+00
        -11   -1    0    0    0    0  0.00000000000E+00  0.00000000000E+00  0.45593999997E+02  0.45594000000E+02  0.51100000000E-03 0. -1.
         11   -1    0    0    0    0 -0.00000000000E+00 -0.00000000000E+00 -0.45593999997E+02  0.45594000000E+02  0.51100000000E-03 0.  1.
    9900012    2    1    2    0    0  0.41435660898E+02  0.14405586671E+01  0.17610346600E+02  0.46142317513E+02  0.99999977380E+01 0.  0.
        -12    1    1    2    0    0 -0.41435660898E+02 -0.14405586671E+01 -0.17610346600E+02  0.45045682487E+02  0.00000000000E+00 0.  1.
         11    1    3    3    0    0  0.21861887491E+02  0.37619598156E+01  0.11952004785E+02  0.25198112727E+02  0.51100000000E-03 0. -1.
        -11    1    3    3    0    0  0.18009001570E+02 -0.11343161254E+01  0.42817606139E+01  0.18545734950E+02  0.51100000000E-03 0.  1.
         12    1    3    3    0    0  0.15647718366E+01 -0.11870850230E+01  0.13765812004E+01  0.23984698359E+01  0.00000000000E+00 0. -1.
</event>
<event>
 7    1  0.3766050E-009  0.4614232E+02  0.7816164E-02  0.1320468E+00
        -11   -1    0    0    0    0  0.00000000000E+00  0.00000000000E+00  0.45593999997E+02  0.45594000000E+02  0.51100000000E-03 0. -1.
         11   -1    0    0    0    0 -0.00000000000E+00 -0.00000000000E+00 -0.45593999997E+02  0.45594000000E+02  0.51100000000E-03 0.  1.
    9900012    2    1    2    0    0 -0.75242134884E+01 -0.74162456417E+01 -0.43789255434E+02  0.46142318970E+02  0.10000011020E+02 0.  0.
         12    1    1    2    0    0  0.75242134884E+01  0.74162456417E+01  0.43789255434E+02  0.45045681030E+02  0.00000000000E+00 0. -1.
         11    1    3    3    0    0 -0.53105162104E+00  0.65546943835E+00 -0.39222617988E+01  0.40119563667E+01  0.51100000000E-03 0. -1.
        -11    1    3    3    0    0 -0.60834858335E+01 -0.20246959856E+01 -0.12054377805E+02  0.13653432471E+02  0.51100000000E-03 0.  1.
        -12    1    3    3    0    0 -0.90967603381E+00 -0.60470190944E+01 -0.27812615830E+02  0.28476930132E+02  0.00000000000E+00 0.  1.
</event>
<event>
 7    1  0.3766050E-009  0.4614232E+02  0.7816164E-02  0.1320468E+00
        -11   -1    0    0    0    0  0.00000000000E+00  0.00000000000E+00  0.45593999997E+02  0.45594000000E+02  0.51100000000E-03 0. -1.
         11   -1    0    0    0    0 -0.00000000000E+00 -0.00000000000E+00 -0.45593999997E+02  0.45594000000E+02  0.51100000000E-03 0.  1.
    9900012    2    1    2    0    0 -0.12909755391E+02 -0.13221948924E+01 -0.43135871536E+02  0.46142318778E+02  0.10000009273E+02 0.  0.
         12    1    1    2    0    0  0.12909755391E+02  0.13221948924E+01  0.43135871536E+02  0.45045681222E+02  0.00000000000E+00 0. -1.
         11    1    3    3    0    0 -0.10208655646E+02 -0.38779508006E+01 -0.30049569722E+02  0.31972359833E+02  0.51100000000E-03 0.  1.
        -11    1    3    3    0    0  0.93716898896E+00  0.53609954944E+00 -0.45100568602E+01  0.46374887153E+01  0.51100000000E-03 0. -1.
         12    1    3    3    0    0 -0.36382687344E+01  0.20196563588E+01 -0.85762449532E+01  0.95324702301E+01  0.00000000000E+00 0. -1.
</event>
<event>
 7    1  0.3766050E-009  0.4614232E+02  0.7816164E-02  0.1320468E+00
        -11   -1    0    0    0    0  0.00000000000E+00  0.00000000000E+00  0.45593999997E+02  0.45594000000E+02  0.51100000000E-03 0. -1.
         11   -1    0    0    0    0 -0.00000000000E+00 -0.00000000000E+00 -0.45593999997E+02  0.45594000000E+02  0.51100000000E-03 0.  1.
    9900012    2    1    2    0    0  0.32215282945E+02 -0.21333086725E+02 -0.23155742240E+02  0.46142318264E+02  0.10000004581E+02 0.  0.
         12    1    1    2    0    0 -0.32215282945E+02  0.21333086725E+02  0.23155742240E+02  0.45045681736E+02  0.00000000000E+00 0. -1.
         11    1    3    3    0    0  0.16753167516E+02 -0.67992591270E+01 -0.84693006928E+01  0.19965660544E+02  0.51100000000E-03 0. -1.
        -11    1    3    3    0    0  0.74265286178E+01 -0.68390422994E+01 -0.96433431056E+01  0.13961371473E+02  0.51100000000E-03 0.  1.
        -12    1    3    3    0    0  0.80355868112E+01 -0.76947852988E+01 -0.50430984411E+01  0.12215286246E+02  0.00000000000E+00 0.  1.
</event>
<event>
 7    1  0.3766050E-009  0.4614232E+02  0.7816164E-02  0.1320468E+00
        -11   -1    0    0    0    0  0.00000000000E+00  0.00000000000E+00  0.45593999997E+02  0.45594000000E+02  0.51100000000E-03 0. -1.
         11   -1    0    0    0    0 -0.00000000000E+00 -0.00000000000E+00 -0.45593999997E+02  0.45594000000E+02  0.51100000000E-03 0.  1.
    9900012    2    1    2    0    0  0.30481305309E+02  0.45644692762E+01  0.32850710741E+02  0.46142317084E+02  0.99999938291E+01 0.  0.
        -12    1    1    2    0    0 -0.30481305309E+02 -0.45644692762E+01 -0.32850710741E+02  0.45045682916E+02  0.00000000000E+00 0.  1.
         11    1    3    3    0    0  0.88551699481E+01 -0.17364493267E+01  0.82383306095E+01  0.12218812650E+02  0.51100000000E-03 0. -1.
        -11    1    3    3    0    0  0.15814472779E+02  0.35077165175E+01  0.21035387194E+02  0.26549748381E+02  0.51100000000E-03 0.  1.
        -12    1    3    3    0    0  0.58116625824E+01  0.27932020853E+01  0.35769929374E+01  0.73737560534E+01  0.00000000000E+00 0.  1.
</event>
<event>
 7    1  0.3766050E-009  0.4614232E+02  0.7816164E-02  0.1320468E+00
        -11   -1    0    0    0    0  0.00000000000E+00  0.00000000000E+00  0.45593999997E+02  0.45594000000E+02  0.51100000000E-03 0. -1.
         11   -1    0    0    0    0 -0.00000000000E+00 -0.00000000000E+00 -0.45593999997E+02  0.45594000000E+02  0.51100000000E-03 0.  1.
    9900012    2    1    2    0    0  0.13138013274E+02 -0.29502264701E+02  0.31402586492E+02  0.46142318146E+02  0.10000003510E+02 0.  0.
        -12    1    1    2    0    0 -0.13138013274E+02  0.29502264701E+02 -0.31402586492E+02  0.45045681854E+02  0.00000000000E+00 0.  1.
         11    1    3    3    0    0  0.22103810021E+01 -0.99521774069E+01  0.13916208019E+02  0.17250868534E+02  0.51100000000E-03 0. -1.
        -11    1    3    3    0    0  0.90393511201E+01 -0.11705892538E+02  0.12808550962E+02  0.19565192735E+02  0.51100000000E-03 0.  1.
         12    1    3    3    0    0  0.18882811514E+01 -0.78441947568E+01  0.46778275118E+01  0.93262568761E+01  0.00000000000E+00 0. -1.
</event>
<event>
 7    1  0.3766050E-009  0.4614232E+02  0.7816164E-02  0.1320468E+00
        -11   -1    0    0    0    0  0.00000000000E+00  0.00000000000E+00  0.45593999997E+02  0.45594000000E+02  0.51100000000E-03 0. -1.
         11   -1    0    0    0    0 -0.00000000000E+00 -0.00000000000E+00 -0.45593999997E+02  0.45594000000E+02  0.51100000000E-03 0.  1.
    9900012    2    1    2    0    0 -0.38097304711E+02  0.18988579125E+02 -0.14735769613E+02  0.46142315750E+02  0.99999816638E+01 0.  0.
         12    1    1    2    0    0  0.38097304711E+02 -0.18988579125E+02  0.14735769613E+02  0.45045684250E+02  0.00000000000E+00 0. -1.
         11    1    3    3    0    0 -0.68175453462E+01  0.53450681606E+00 -0.44427391643E+00  0.68528827261E+01  0.51100000000E-03 0. -1.
        -11    1    3    3    0    0 -0.28462136298E+02  0.16525659347E+02 -0.11447858027E+02  0.34846005125E+02  0.51100000000E-03 0.  1.
         12    1    3    3    0    0 -0.28176230671E+01  0.19284129618E+01 -0.28436376701E+01  0.44434278996E+01  0.00000000000E+00 0. -1.
</event>
<event>
 7    1  0.3766050E-009  0.4614232E+02  0.7816164E-02  0.1320468E+00
        -11   -1    0    0    0    0  0.00000000000E+00  0.00000000000E+00  0.45593999997E+02  0.45594000000E+02  0.51100000000E-03 0. -1.
         11   -1    0    0    0    0 -0.00000000000E+00 -0.00000000000E+00 -0.45593999997E+02  0.45594000000E+02  0.51100000000E-03 0.  1.
    9900012    2    1    2    0    0 -0.27713907682E+02  0.24704364397E+02  0.25509748711E+02  0.46142316760E+02  0.99999908706E+01 0.  0.
        -12    1    1    2    0    0  0.27713907682E+02 -0.24704364397E+02 -0.25509748711E+02  0.45045683240E+02  0.00000000000E+00 0.  1.
         11    1    3    3    0    0 -0.82741291183E+01  0.91621600404E+01  0.12715073512E+02  0.17722287774E+02  0.51100000000E-03 0. -1.
        -11    1    3    3    0    0 -0.14228876127E-01  0.12657568323E+01  0.53342601427E+00  0.13736398339E+01  0.51100000000E-03 0.  1.
        -12    1    3    3    0    0 -0.19425549688E+02  0.14276447524E+02  0.12261249184E+02  0.27046389152E+02  0.00000000000E+00 0.  1.
</event>
<event>
 7    1  0.3766050E-009  0.4614232E+02  0.7816164E-02  0.1320468E+00
        -11   -1    0    0    0    0  0.00000000000E+00  0.00000000000E+00  0.45593999997E+02  0.45594000000E+02  0.51100000000E-03 0. -1.
         11   -1    0    0    0    0 -0.00000000000E+00 -0.00000000000E+00 -0.45593999997E+02  0.45594000000E+02  0.51100000000E-03 0.  1.
    9900012    2    1    2    0    0 -0.20348770682E+02  0.12035101942E+02 -0.38343152720E+02  0.46142317549E+02  0.99999980662E+01 0.  0.
         12    1    1    2    0    0  0.20348770682E+02 -0.12035101942E+02  0.38343152720E+02  0.45045682451E+02  0.00000000000E+00 0. -1.
         11    1    3    3    0    0 -0.52888425169E+01  0.55996116946E+00 -0.88674813330E+01  0.10340098507E+02  0.51100000000E-03 0. -1.
        -11    1    3    3    0    0 -0.15777383052E+02  0.99983175938E+01 -0.27209705194E+02  0.33003942608E+02  0.51100000000E-03 0.  1.
        -12    1    3    3    0    0  0.71745488727E+00  0.14768231784E+01 -0.22659661923E+01  0.27982764338E+01  0.00000000000E+00 0.  1.
</event>
<event>
 7    1  0.3766050E-009  0.4614232E+02  0.7816164E-02  0.1320468E+00
        -11   -1    0    0    0    0  0.00000000000E+00  0.00000000000E+00  0.45593999997E+02  0.45594000000E+02  0.51100000000E-03 0. -1.
         11   -1    0    0    0    0 -0.00000000000E+00 -0.00000000000E+00 -0.45593999997E+02  0.45594000000E+02  0.51100000000E-03 0.  1.
    9900012    2    1    2    0    0 -0.40630661587E+02 -0.22320201071E+01 -0.19320479648E+02  0.46142317536E+02  0.99999979516E+01 0.  0.
         12    1    1    2    0    0  0.40630661587E+02  0.22320201071E+01  0.19320479648E+02  0.45045682464E+02  0.00000000000E+00 0. -1.
         11    1    3    3    0    0 -0.10550236391E+01 -0.66902068353E+00  0.52947478106E+00  0.13568372633E+01  0.51100000000E-03 0. -1.
        -11    1    3    3    0    0 -0.12577220673E+02  0.15620677435E+01 -0.88862949549E+01  0.15478784635E+02  0.51100000000E-03 0.  1.
        -12    1    3    3    0    0 -0.26998417275E+02 -0.31250671671E+01 -0.10963659474E+02  0.29306695638E+02  0.00000000000E+00 0.  1.
</event>
<event>
 7    1  0.3766050E-009  0.4614232E+02  0.7816164E-02  0.1320468E+00
        -11   -1    0    0    0    0  0.00000000000E+00  0.00000000000E+00  0.45593999997E+02  0.45594000000E+02  0.51100000000E-03 0. -1.
         11   -1    0    0    0    0 -0.00000000000E+00 -0.00000000000E+00 -0.45593999997E+02  0.45594000000E+02  0.51100000000E-03 0.  1.
    9900012    2    1    2    0    0  0.27910010483E+02 -0.11712139106E+02 -0.33361214649E+02  0.46142317294E+02  0.99999957419E+01 0.  0.
         12    1    1    2    0    0 -0.27910010483E+02  0.11712139106E+02  0.33361214649E+02  0.45045682706E+02  0.00000000000E+00 0. -1.
         11    1    3    3    0    0  0.15909087220E+02 -0.68143678925E+01 -0.12625312565E+02  0.21422725867E+02  0.51100000000E-03 0. -1.
        -11    1    3    3    0    0  0.12000581506E+02 -0.51989634619E+01 -0.20570462236E+02  0.24375953201E+02  0.51100000000E-03 0.  1.
         12    1    3    3    0    0  0.34175645234E-03  0.30119224857E+00 -0.16543984758E+00  0.34363822629E+00  0.00000000000E+00 0. -1.
</event>
<event>
 7    1  0.3766050E-009  0.4614232E+02  0.7816164E-02  0.1320468E+00
        -11   -1    0    0    0    0  0.00000000000E+00  0.00000000000E+00  0.45593999997E+02  0.45594000000E+02  0.51100000000E-03 0. -1.
         11   -1    0    0    0    0 -0.00000000000E+00 -0.00000000000E+00 -0.45593999997E+02  0.45594000000E+02  0.51100000000E-03 0.  1.
    9900012    2    1    2    0    0 -0.91575404586E+01  0.25089116843E+02 -0.36273805714E+02  0.46142319717E+02  0.10000017835E+02 0.  0.
         12    1    1    2    0    0  0.91575404586E+01 -0.25089116843E+02  0.36273805714E+02  0.45045680283E+02  0.00000000000E+00 0. -1.
         11    1    3    3    0    0 -0.17940954206E+01  0.10687565269E+02 -0.86087260260E+01  0.13840267115E+02  0.51100000000E-03 0. -1.
        -11    1    3    3    0    0 -0.57256319675E+01  0.99240697303E+01 -0.22647033443E+02  0.25380270792E+02  0.51100000000E-03 0.  1.
        -12    1    3    3    0    0 -0.16378130704E+01  0.44774818434E+01 -0.50180462443E+01  0.69217818097E+01  0.00000000000E+00 0.  1.
</event>
<event>
 7    1  0.5343408E-009  0.4614232E+02  0.7816164E-02  0.1320468E+00
        -11   -1    0    0    0    0  0.00000000000E+00  0.00000000000E+00  0.45593999997E+02  0.45594000000E+02  0.51100000000E-03 0. -1.
         11   -1    0    0    0    0 -0.00000000000E+00 -0.00000000000E+00 -0.45593999997E+02  0.45594000000E+02  0.51100000000E-03 0.  1.
    9900012    2    1    2    0    0  0.95831134674E+01  0.53633414610E+01 -0.43686519741E+02  0.46142317605E+02  0.99999985776E+01 0.  0.
         12    1    1    2    0    0 -0.95831134674E+01 -0.53633414610E+01  0.43686519741E+02  0.45045682395E+02  0.00000000000E+00 0. -1.
         11    1    3    3    0    0  0.10034002553E+01 -0.81435410602E+00 -0.15838586938E+02  0.15891218366E+02  0.51100000000E-03 0. -1.
        -11    1    3    3    0    0  0.40378185439E+01  0.30430990719E+01 -0.20180113934E+02  0.20803880148E+02  0.51100000000E-03 0.  1.
         12    1    3    3    0    0  0.45418946682E+01  0.31345964952E+01 -0.76678188686E+01  0.94472190917E+01  0.00000000000E+00 0. -1.
</event>
<event>
 7    1  0.3766050E-009  0.4614232E+02  0.7816164E-02  0.1320468E+00
        -11   -1    0    0    0    0  0.00000000000E+00  0.00000000000E+00  0.45593999997E+02  0.45594000000E+02  0.51100000000E-03 0. -1.
         11   -1    0    0    0    0 -0.00000000000E+00 -0.00000000000E+00 -0.45593999997E+02  0.45594000000E+02  0.51100000000E-03 0.  1.
    9900012    2    1    2    0    0  0.15128982302E+02  0.35623014244E+02  0.23048389146E+02  0.46142317726E+02  0.99999996772E+01 0.  0.
        -12    1    1    2    0    0 -0.15128982302E+02 -0.35623014244E+02 -0.23048389146E+02  0.45045682274E+02  0.00000000000E+00 0.  1.
         11    1    3    3    0    0  0.33049847964E+01  0.11209857701E+02  0.11689241022E+02  0.16529434053E+02  0.51100000000E-03 0.  1.
        -11    1    3    3    0    0  0.18468350080E+01  0.73631133416E+01  0.30039428167E+01  0.81639396332E+01  0.51100000000E-03 0. -1.
         12    1    3    3    0    0  0.99771624979E+01  0.17050043201E+02  0.83552053072E+01  0.21448944039E+02  0.00000000000E+00 0. -1.
</event>
<event>
 7    1  0.3766050E-009  0.4614232E+02  0.7816164E-02  0.1320468E+00
        -11   -1    0    0    0    0  0.00000000000E+00  0.00000000000E+00  0.45593999997E+02  0.45594000000E+02  0.51100000000E-03 0. -1.
         11   -1    0    0    0    0 -0.00000000000E+00 -0.00000000000E+00 -0.45593999997E+02  0.45594000000E+02  0.51100000000E-03 0.  1.
    9900012    2    1    2    0    0  0.35690326900E+00  0.11628986904E+02  0.43517270740E+02  0.46142316866E+02  0.99999918397E+01 0.  0.
        -12    1    1    2    0    0 -0.35690326900E+00 -0.11628986904E+02 -0.43517270740E+02  0.45045683134E+02  0.00000000000E+00 0.  1.
         11    1    3    3    0    0 -0.24235820509E+01  0.88174678467E+01  0.30265933509E+02  0.31617213992E+02  0.51100000000E-03 0. -1.
        -11    1    3    3    0    0  0.38231745551E+01  0.22529759087E+01  0.80616963315E+01  0.92023644857E+01  0.51100000000E-03 0.  1.
        -12    1    3    3    0    0 -0.10426892352E+01  0.55854314842E+00  0.51896408992E+01  0.53227383885E+01  0.00000000000E+00 0.  1.
</event>
<event>
 7    1  0.3766050E-009  0.4614232E+02  0.7816164E-02  0.1320468E+00
        -11   -1    0    0    0    0  0.00000000000E+00  0.00000000000E+00  0.45593999997E+02  0.45594000000E+02  0.51100000000E-03 0. -1.
         11   -1    0    0    0    0 -0.00000000000E+00 -0.00000000000E+00 -0.45593999997E+02  0.45594000000E+02  0.51100000000E-03 0.  1.
    9900012    2    1    2    0    0 -0.16239580671E+02  0.26379651414E+02 -0.32703267751E+02  0.46142315293E+02  0.99999774977E+01 0.  0.
         12    1    1    2    0    0  0.16239580671E+02 -0.26379651414E+02  0.32703267751E+02  0.45045684707E+02  0.00000000000E+00 0. -1.
         11    1    3    3    0    0 -0.44169066143E+00  0.57811407014E+00 -0.29087830818E+01  0.29983871992E+01  0.51100000000E-03 0. -1.
        -11    1    3    3    0    0 -0.49463618245E+01  0.34696358366E+01 -0.85343610523E+01  0.10456585818E+02  0.51100000000E-03 0.  1.
         12    1    3    3    0    0 -0.10851528185E+02  0.22331901507E+02 -0.21260123617E+02  0.32687342276E+02  0.00000000000E+00 0. -1.
</event>
<event>
 7    1  0.3766050E-009  0.4614232E+02  0.7816164E-02  0.1320468E+00
        -11   -1    0    0    0    0  0.00000000000E+00  0.00000000000E+00  0.45593999997E+02  0.45594000000E+02  0.51100000000E-03 0. -1.
         11   -1    0    0    0    0 -0.00000000000E+00 -0.00000000000E+00 -0.45593999997E+02  0.45594000000E+02  0.51100000000E-03 0.  1.
    9900012    2    1    2    0    0  0.35681130678E+02  0.15144747849E+02  0.22947918948E+02  0.46142318099E+02  0.10000003082E+02 0.  0.
        -12    1    1    2    0    0 -0.35681130678E+02 -0.15144747849E+02 -0.22947918948E+02  0.45045681901E+02  0.00000000000E+00 0.  1.
         11    1    3    3    0    0  0.18728064129E+02  0.85538505743E+01  0.14469544238E+02  0.25164984729E+02  0.51100000000E-03 0.  1.
        -11    1    3    3    0    0  0.28076686747E+01 -0.90328905647E+00  0.25757616344E+01  0.39157991221E+01  0.51100000000E-03 0. -1.
        -12    1    3    3    0    0  0.14145397874E+02  0.74941863316E+01  0.59026130756E+01  0.17061534248E+02  0.00000000000E+00 0.  1.
</event>
<event>
 7    1  0.3766050E-009  0.4614232E+02  0.7816164E-02  0.1320468E+00
        -11   -1    0    0    0    0  0.00000000000E+00  0.00000000000E+00  0.45593999997E+02  0.45594000000E+02  0.51100000000E-03 0. -1.
         11   -1    0    0    0    0 -0.00000000000E+00 -0.00000000000E+00 -0.45593999997E+02  0.45594000000E+02  0.51100000000E-03 0.  1.
    9900012    2    1    2    0    0 -0.25725639370E+02 -0.20223639586E+02  0.30956565556E+02  0.46142322403E+02  0.10000042329E+02 0.  0.
        -12    1    1    2    0    0  0.25725639370E+02  0.20223639586E+02 -0.30956565556E+02  0.45045677597E+02  0.00000000000E+00 0.  1.
         11    1    3    3    0    0 -0.91774071293E+01 -0.52437162501E+01  0.88463730712E+01  0.13783311594E+02  0.51100000000E-03 0. -1.
        -11    1    3    3    0    0 -0.15370563542E+02 -0.15792912683E+02  0.19717876216E+02  0.29571353661E+02  0.51100000000E-03 0.  1.
        -12    1    3    3    0    0 -0.11776686994E+01  0.81298934703E+00  0.23923162686E+01  0.27876571476E+01  0.00000000000E+00 0.  1.
</event>
<event>
 7    1  0.3766050E-009  0.4614232E+02  0.7816164E-02  0.1320468E+00
        -11   -1    0    0    0    0  0.00000000000E+00  0.00000000000E+00  0.45593999997E+02  0.45594000000E+02  0.51100000000E-03 0. -1.
         11   -1    0    0    0    0 -0.00000000000E+00 -0.00000000000E+00 -0.45593999997E+02  0.45594000000E+02  0.51100000000E-03 0.  1.
    9900012    2    1    2    0    0 -0.14483355859E+02 -0.50978415924E+01  0.42348056845E+02  0.46142317584E+02  0.99999983806E+01 0.  0.
        -12    1    1    2    0    0  0.14483355859E+02  0.50978415924E+01 -0.42348056845E+02  0.45045682416E+02  0.00000000000E+00 0.  1.
         11    1    3    3    0    0 -0.40554678787E+01 -0.36313833459E+01  0.11577536473E+02  0.12793479424E+02  0.51100000000E-03 0. -1.
        -11    1    3    3    0    0 -0.11382558000E+02 -0.17607089757E+01  0.29831422135E+02  0.31977749601E+02  0.51100000000E-03 0.  1.
        -12    1    3    3    0    0  0.95467001916E+00  0.29425072916E+00  0.93909823710E+00  0.13710885588E+01  0.00000000000E+00 0.  1.
</event>
<event>
 7    1  0.3766050E-009  0.4614231E+02  0.7816164E-02  0.1320468E+00
        -11   -1    0    0    0    0  0.00000000000E+00  0.00000000000E+00  0.45593999997E+02  0.45594000000E+02  0.51100000000E-03 0. -1.
         11   -1    0    0    0    0 -0.00000000000E+00 -0.00000000000E+00 -0.45593999997E+02  0.45594000000E+02  0.51100000000E-03 0.  1.
    9900012    2    1    2    0    0 -0.18127828982E+02  0.13029760328E+02 -0.39124435031E+02  0.46142309260E+02  0.99999224764E+01 0.  0.
         12    1    1    2    0    0  0.18127828982E+02 -0.13029760328E+02  0.39124435031E+02  0.45045690740E+02  0.00000000000E+00 0. -1.
         11    1    3    3    0    0 -0.47272023538E-01 -0.87505390354E+00 -0.23246488861E+01  0.24843402913E+01  0.51100000000E-03 0. -1.
        -11    1    3    3    0    0 -0.12198691620E+02  0.12425424760E+02 -0.26657216558E+02  0.31840327457E+02  0.51100000000E-03 0.  1.
        -12    1    3    3    0    0 -0.58818653378E+01  0.14793894720E+01 -0.10142569587E+02  0.11817641511E+02  0.00000000000E+00 0.  1.
</event>
<event>
 7    1  0.3766050E-009  0.4614232E+02  0.7816164E-02  0.1320468E+00
        -11   -1    0    0    0    0  0.00000000000E+00  0.00000000000E+00  0.45593999997E+02  0.45594000000E+02  0.51100000000E-03 0. -1.
         11   -1    0    0    0    0 -0.00000000000E+00 -0.00000000000E+00 -0.45593999997E+02  0.45594000000E+02  0.51100000000E-03 0.  1.
    9900012    2    1    2    0    0 -0.23239932213E+02 -0.16240492759E+02  0.35003792568E+02  0.46142317094E+02  0.99999939129E+01 0.  0.
        -12    1    1    2    0    0  0.23239932213E+02  0.16240492759E+02 -0.35003792568E+02  0.45045682906E+02  0.00000000000E+00 0.  1.
         11    1    3    3    0    0  0.77380781388E+00 -0.41094494612E-01  0.10132106392E+01  0.12755639344E+01  0.51100000000E-03 0.  1.
        -11    1    3    3    0    0 -0.20329120685E+02 -0.13807735693E+02  0.30970119950E+02  0.39535743862E+02  0.51100000000E-03 0. -1.
         12    1    3    3    0    0 -0.36846193425E+01 -0.23916625711E+01  0.30204619796E+01  0.53310092968E+01  0.00000000000E+00 0. -1.
</event>
<event>
 7    1  0.3766050E-009  0.4614232E+02  0.7816164E-02  0.1320468E+00
        -11   -1    0    0    0    0  0.00000000000E+00  0.00000000000E+00  0.45593999997E+02  0.45594000000E+02  0.51100000000E-03 0. -1.
         11   -1    0    0    0    0 -0.00000000000E+00 -0.00000000000E+00 -0.45593999997E+02  0.45594000000E+02  0.51100000000E-03 0.  1.
    9900012    2    1    2    0    0 -0.17299022071E+02 -0.39674262295E+02  0.12482397899E+02  0.46142317515E+02  0.99999977541E+01 0.  0.
        -12    1    1    2    0    0  0.17299022071E+02  0.39674262295E+02 -0.12482397899E+02  0.45045682485E+02  0.00000000000E+00 0.  1.
         11    1    3    3    0    0 -0.13434104462E+02 -0.35038184945E+02  0.86597578969E+01  0.38511569353E+02  0.51100000000E-03 0. -1.
        -11    1    3    3    0    0 -0.36786690028E+00 -0.16320181000E+01  0.50036112438E-01  0.16737123435E+01  0.51100000000E-03 0.  1.
         12    1    3    3    0    0 -0.34970507087E+01 -0.30040592500E+01  0.37726038894E+01  0.59570358185E+01  0.00000000000E+00 0. -1.
</event>
<event>
 7    1  0.3766050E-009  0.4614232E+02  0.7816164E-02  0.1320468E+00
        -11   -1    0    0    0    0  0.00000000000E+00  0.00000000000E+00  0.45593999997E+02  0.45594000000E+02  0.51100000000E-03 0. -1.
         11   -1    0    0    0    0 -0.00000000000E+00 -0.00000000000E+00 -0.45593999997E+02  0.45594000000E+02  0.51100000000E-03 0.  1.
    9900012    2    1    2    0    0  0.40778489914E+02  0.13634450193E+02  0.13428696751E+02  0.46142319095E+02  0.10000012165E+02 0.  0.
        -12    1    1    2    0    0 -0.40778489914E+02 -0.13634450193E+02 -0.13428696751E+02  0.45045680905E+02  0.00000000000E+00 0.  1.
         11    1    3    3    0    0  0.18341489707E+02  0.29461135170E+01  0.42496107764E+01  0.19056469283E+02  0.51100000000E-03 0. -1.
        -11    1    3    3    0    0  0.39857998290E+00  0.44058461738E+00 -0.63960529709E+00  0.87296964726E+00  0.51100000000E-03 0.  1.
         12    1    3    3    0    0  0.22038420224E+02  0.10247752059E+02  0.98186912713E+01  0.26212880165E+02  0.00000000000E+00 0. -1.
</event>
<event>
 7    1  0.3766050E-009  0.4614232E+02  0.7816164E-02  0.1320468E+00
        -11   -1    0    0    0    0  0.00000000000E+00  0.00000000000E+00  0.45593999997E+02  0.45594000000E+02  0.51100000000E-03 0. -1.
         11   -1    0    0    0    0 -0.00000000000E+00 -0.00000000000E+00 -0.45593999997E+02  0.45594000000E+02  0.51100000000E-03 0.  1.
    9900012    2    1    2    0    0  0.27910794969E+02  0.22710702125E+02 -0.27098430972E+02  0.46142318431E+02  0.10000006112E+02 0.  0.
         12    1    1    2    0    0 -0.27910794969E+02 -0.22710702125E+02  0.27098430972E+02  0.45045681569E+02  0.00000000000E+00 0. -1.
         11    1    3    3    0    0  0.34126490362E+01  0.77573592167E+00 -0.43121807193E+01  0.55536332685E+01  0.51100000000E-03 0. -1.
        -11    1    3    3    0    0  0.23888737535E+02  0.21319378041E+02 -0.20192201163E+02  0.37853832687E+02  0.51100000000E-03 0.  1.
        -12    1    3    3    0    0  0.60940839778E+00  0.61558816301E+00 -0.25940490899E+01  0.27348524755E+01  0.00000000000E+00 0.  1.
</event>
<event>
 7    1  0.3766050E-009  0.4614231E+02  0.7816164E-02  0.1320468E+00
        -11   -1    0    0    0    0  0.00000000000E+00  0.00000000000E+00  0.45593999997E+02  0.45594000000E+02  0.51100000000E-03 0.  1.
         11   -1    0    0    0    0 -0.00000000000E+00 -0.00000000000E+00 -0.45593999997E+02  0.45594000000E+02  0.51100000000E-03 0. -1.
    9900012    2    1    2    0    0 -0.40914964987E+02  0.48650951889E+01  0.18204682092E+02  0.46142312514E+02  0.99999521499E+01 0.  0.
        -12    1    1    2    0    0  0.40914964987E+02 -0.48650951889E+01 -0.18204682092E+02  0.45045687486E+02  0.00000000000E+00 0.  1.
         11    1    3    3    0    0 -0.11531267503E+01 -0.25526656068E+00  0.18849547538E+01  0.22243913784E+01  0.51100000000E-03 0. -1.
        -11    1    3    3    0    0 -0.14398931392E+02 -0.17753730702E+00  0.27174962786E+01  0.14654198409E+02  0.51100000000E-03 0.  1.
         12    1    3    3    0    0 -0.25362906844E+02  0.52978990566E+01  0.13602231059E+02  0.29263722726E+02  0.00000000000E+00 0. -1.
</event>
<event>
 7    1  0.3766050E-009  0.4614232E+02  0.7816164E-02  0.1320468E+00
        -11   -1    0    0    0    0  0.00000000000E+00  0.00000000000E+00  0.45593999997E+02  0.45594000000E+02  0.51100000000E-03 0. -1.
         11   -1    0    0    0    0 -0.00000000000E+00 -0.00000000000E+00 -0.45593999997E+02  0.45594000000E+02  0.51100000000E-03 0.  1.
    9900012    2    1    2    0    0 -0.11378376218E+02  0.22960931554E+02  0.37046479862E+02  0.46142317705E+02  0.99999994916E+01 0.  0.
        -12    1    1    2    0    0  0.11378376218E+02 -0.22960931554E+02 -0.37046479862E+02  0.45045682295E+02  0.00000000000E+00 0.  1.
         11    1    3    3    0    0 -0.45180461842E+01  0.46690437911E+01  0.94635224376E+01  0.11479153646E+02  0.51100000000E-03 0. -1.
        -11    1    3    3    0    0 -0.42392752805E+01  0.65266128129E+01  0.55846352716E+01  0.95789498950E+01  0.51100000000E-03 0.  1.
        -12    1    3    3    0    0 -0.26210547530E+01  0.11765274950E+02  0.21998322153E+02  0.25084214164E+02  0.00000000000E+00 0.  1.
</event>
<event>
 7    1  0.3766050E-009  0.4614232E+02  0.7816164E-02  0.1320468E+00
        -11   -1    0    0    0    0  0.00000000000E+00  0.00000000000E+00  0.45593999997E+02  0.45594000000E+02  0.51100000000E-03 0.  1.
         11   -1    0    0    0    0 -0.00000000000E+00 -0.00000000000E+00 -0.45593999997E+02  0.45594000000E+02  0.51100000000E-03 0. -1.
    9900012    2    1    2    0    0  0.37026782539E+02  0.24769368127E+02 -0.66790107112E+01  0.46142318668E+02  0.10000008269E+02 0.  0.
         12    1    1    2    0    0 -0.37026782539E+02 -0.24769368127E+02  0.66790107112E+01  0.45045681332E+02  0.00000000000E+00 0. -1.
         11    1    3    3    0    0  0.13496472660E+01  0.21201697470E+01  0.12076457959E+01  0.27883823497E+01  0.51100000000E-03 0. -1.
        -11    1    3    3    0    0  0.11597637954E+02  0.63095744900E+01  0.51666606180E-02  0.13202877084E+02  0.51100000000E-03 0.  1.
        -12    1    3    3    0    0  0.24079497319E+02  0.16339623890E+02 -0.78918231677E+01  0.30151059234E+02  0.00000000000E+00 0.  1.
</event>
<event>
 7    1  0.3766050E-009  0.4614232E+02  0.7816164E-02  0.1320468E+00
        -11   -1    0    0    0    0  0.00000000000E+00  0.00000000000E+00  0.45593999997E+02  0.45594000000E+02  0.51100000000E-03 0. -1.
         11   -1    0    0    0    0 -0.00000000000E+00 -0.00000000000E+00 -0.45593999997E+02  0.45594000000E+02  0.51100000000E-03 0.  1.
    9900012    2    1    2    0    0  0.29073016333E+02  0.18417131057E+02  0.29063419177E+02  0.46142319526E+02  0.10000016095E+02 0.  0.
        -12    1    1    2    0    0 -0.29073016333E+02 -0.18417131057E+02 -0.29063419177E+02  0.45045680474E+02  0.00000000000E+00 0.  1.
         11    1    3    3    0    0  0.15735179235E+01  0.24888002373E+01  0.12441227976E+01  0.31965492447E+01  0.51100000000E-03 0. -1.
        -11    1    3    3    0    0  0.11520841527E+02  0.31876905187E+01  0.13265863625E+02  0.17857051781E+02  0.51100000000E-03 0.  1.
        -12    1    3    3    0    0  0.15978656882E+02  0.12740640301E+02  0.14553432755E+02  0.25088718500E+02  0.00000000000E+00 0.  1.
</event>
<event>
 7    1  0.3766050E-009  0.4614232E+02  0.7816164E-02  0.1320468E+00
        -11   -1    0    0    0    0  0.00000000000E+00  0.00000000000E+00  0.45593999997E+02  0.45594000000E+02  0.51100000000E-03 0. -1.
         11   -1    0    0    0    0 -0.00000000000E+00 -0.00000000000E+00 -0.45593999997E+02  0.45594000000E+02  0.51100000000E-03 0.  1.
    9900012    2    1    2    0    0  0.40117550331E+02 -0.61262020313E+01 -0.19549049156E+02  0.46142317423E+02  0.99999969187E+01 0.  0.
         12    1    1    2    0    0 -0.40117550331E+02  0.61262020313E+01  0.19549049156E+02  0.45045682577E+02  0.00000000000E+00 0. -1.
         11    1    3    3    0    0  0.26955556333E+02 -0.81480106129E+01 -0.15203481905E+02  0.32002155497E+02  0.51100000000E-03 0. -1.
        -11    1    3    3    0    0  0.67721009889E+01  0.19725561870E+01 -0.19786164136E+01  0.73257936695E+01  0.51100000000E-03 0.  1.
         12    1    3    3    0    0  0.63898930093E+01  0.49252394588E-01 -0.23669508376E+01  0.68143682566E+01  0.00000000000E+00 0. -1.
</event>
<event>
 7    1  0.3766050E-009  0.4614232E+02  0.7816164E-02  0.1320468E+00
        -11   -1    0    0    0    0  0.00000000000E+00  0.00000000000E+00  0.45593999997E+02  0.45594000000E+02  0.51100000000E-03 0. -1.
         11   -1    0    0    0    0 -0.00000000000E+00 -0.00000000000E+00 -0.45593999997E+02  0.45594000000E+02  0.51100000000E-03 0.  1.
    9900012    2    1    2    0    0  0.76866774573E+01 -0.12031386964E+02  0.42723225402E+02  0.46142320169E+02  0.10000021961E+02 0.  0.
        -12    1    1    2    0    0 -0.76866774573E+01  0.12031386964E+02 -0.42723225402E+02  0.45045679831E+02  0.00000000000E+00 0.  1.
         11    1    3    3    0    0  0.29829008298E+01 -0.18620898812E+01  0.70571531761E+01  0.78846995693E+01  0.51100000000E-03 0. -1.
        -11    1    3    3    0    0  0.70312106281E+01 -0.79751491404E+01  0.28029360356E+02  0.29978091483E+02  0.51100000000E-03 0.  1.
         12    1    3    3    0    0 -0.23274340005E+01 -0.21941479426E+01  0.76367118702E+01  0.82795291176E+01  0.00000000000E+00 0. -1.
</event>
<event>
 7    1  0.3766050E-009  0.4614232E+02  0.7816164E-02  0.1320468E+00
        -11   -1    0    0    0    0  0.00000000000E+00  0.00000000000E+00  0.45593999997E+02  0.45594000000E+02  0.51100000000E-03 0. -1.
         11   -1    0    0    0    0 -0.00000000000E+00 -0.00000000000E+00 -0.45593999997E+02  0.45594000000E+02  0.51100000000E-03 0.  1.
    9900012    2    1    2    0    0 -0.36823502035E+02  0.24387612114E+02 -0.88536631858E+01  0.46142320090E+02  0.10000021233E+02 0.  0.
         12    1    1    2    0    0  0.36823502035E+02 -0.24387612114E+02  0.88536631858E+01  0.45045679910E+02  0.00000000000E+00 0. -1.
         11    1    3    3    0    0 -0.61209566407E+01  0.24920388402E+01  0.11473008758E+01  0.67076573660E+01  0.51100000000E-03 0. -1.
        -11    1    3    3    0    0 -0.23486414849E+01  0.22184677992E+01 -0.25765132752E+01  0.41323282928E+01  0.51100000000E-03 0.  1.
         12    1    3    3    0    0 -0.28353903910E+02  0.19677105475E+02 -0.74244507864E+01  0.35302334431E+02  0.00000000000E+00 0. -1.
</event>
<event>
 7    1  0.3766050E-009  0.4614232E+02  0.7816164E-02  0.1320468E+00
        -11   -1    0    0    0    0  0.00000000000E+00  0.00000000000E+00  0.45593999997E+02  0.45594000000E+02  0.51100000000E-03 0. -1.
         11   -1    0    0    0    0 -0.00000000000E+00 -0.00000000000E+00 -0.45593999997E+02  0.45594000000E+02  0.51100000000E-03 0.  1.
    9900012    2    1    2    0    0 -0.24003792349E+02 -0.14201690244E+02  0.35372919547E+02  0.46142317741E+02  0.99999998139E+01 0.  0.
        -12    1    1    2    0    0  0.24003792349E+02  0.14201690244E+02 -0.35372919547E+02  0.45045682259E+02  0.00000000000E+00 0.  1.
         11    1    3    3    0    0 -0.45254961835E+01 -0.72580722284E+00  0.11930138206E+02  0.12780262505E+02  0.51100000000E-03 0. -1.
        -11    1    3    3    0    0 -0.62713102031E+01 -0.50574166187E+01  0.73368291875E+01  0.10896598428E+02  0.51100000000E-03 0.  1.
         12    1    3    3    0    0 -0.13206985962E+02 -0.84184664025E+01  0.16105952154E+02  0.22465456807E+02  0.00000000000E+00 0. -1.
</event>
<event>
 7    1  0.3766050E-009  0.4614232E+02  0.7816164E-02  0.1320468E+00
        -11   -1    0    0    0    0  0.00000000000E+00  0.00000000000E+00  0.45593999997E+02  0.45594000000E+02  0.51100000000E-03 0. -1.
         11   -1    0    0    0    0 -0.00000000000E+00 -0.00000000000E+00 -0.45593999997E+02  0.45594000000E+02  0.51100000000E-03 0.  1.
    9900012    2    1    2    0    0 -0.19151221238E+02  0.28863499636E+02 -0.28796573528E+02  0.46142317264E+02  0.99999954689E+01 0.  0.
         12    1    1    2    0    0  0.19151221238E+02 -0.28863499636E+02  0.28796573528E+02  0.45045682736E+02  0.00000000000E+00 0. -1.
         11    1    3    3    0    0  0.36549600655E+00 -0.16895310714E+00 -0.10377455705E-01  0.40279080913E+00  0.51100000000E-03 0. -1.
        -11    1    3    3    0    0 -0.83651130461E+01  0.17922047051E+02 -0.16884972602E+02  0.26005329969E+02  0.51100000000E-03 0.  1.
        -12    1    3    3    0    0 -0.11151604198E+02  0.11110405693E+02 -0.11901223471E+02  0.19734196486E+02  0.00000000000E+00 0.  1.
</event>
<event>
 7    1  0.3766050E-009  0.4614232E+02  0.7816164E-02  0.1320468E+00
        -11   -1    0    0    0    0  0.00000000000E+00  0.00000000000E+00  0.45593999997E+02  0.45594000000E+02  0.51100000000E-03 0. -1.
         11   -1    0    0    0    0 -0.00000000000E+00 -0.00000000000E+00 -0.45593999997E+02  0.45594000000E+02  0.51100000000E-03 0.  1.
    9900012    2    1    2    0    0 -0.31516663210E+02 -0.19485711883E+01  0.32125012977E+02  0.46142318205E+02  0.10000004051E+02 0.  0.
        -12    1    1    2    0    0  0.31516663210E+02  0.19485711883E+01 -0.32125012977E+02  0.45045681795E+02  0.00000000000E+00 0.  1.
         11    1    3    3    0    0 -0.14663173160E+02  0.15344895999E+01  0.12212346059E+02  0.19144312523E+02  0.51100000000E-03 0. -1.
        -11    1    3    3    0    0 -0.86475263176E+01 -0.44233823955E+01  0.84814472993E+01  0.12894997937E+02  0.51100000000E-03 0.  1.
         12    1    3    3    0    0 -0.82059637322E+01  0.94032160734E+00  0.11431219619E+02  0.14103007746E+02  0.00000000000E+00 0. -1.
</event>
<event>
 7    1  0.3766050E-009  0.4614232E+02  0.7816164E-02  0.1320468E+00
        -11   -1    0    0    0    0  0.00000000000E+00  0.00000000000E+00  0.45593999997E+02  0.45594000000E+02  0.51100000000E-03 0. -1.
         11   -1    0    0    0    0 -0.00000000000E+00 -0.00000000000E+00 -0.45593999997E+02  0.45594000000E+02  0.51100000000E-03 0.  1.
    9900012    2    1    2    0    0  0.35174990751E+01  0.56850477863E+01  0.44546841718E+02  0.46142315688E+02  0.99999811001E+01 0.  0.
        -12    1    1    2    0    0 -0.35174990751E+01 -0.56850477863E+01 -0.44546841718E+02  0.45045684312E+02  0.00000000000E+00 0.  1.
         11    1    3    3    0    0  0.11343926495E+01  0.17058429744E+00  0.21735830733E+02  0.21766081034E+02  0.51100000000E-03 0. -1.
        -11    1    3    3    0    0  0.44685062271E+01  0.41082245668E+01  0.16621925850E+02  0.17695577872E+02  0.51100000000E-03 0.  1.
         12    1    3    3    0    0 -0.20853998015E+01  0.14062389220E+01  0.61890851352E+01  0.66806567827E+01  0.00000000000E+00 0. -1.
</event>
<event>
 7    1  0.3766050E-009  0.4614232E+02  0.7816164E-02  0.1320468E+00
        -11   -1    0    0    0    0  0.00000000000E+00  0.00000000000E+00  0.45593999997E+02  0.45594000000E+02  0.51100000000E-03 0. -1.
         11   -1    0    0    0    0 -0.00000000000E+00 -0.00000000000E+00 -0.45593999997E+02  0.45594000000E+02  0.51100000000E-03 0.  1.
    9900012    2    1    2    0    0  0.26477196641E+02  0.58705680969E+01  0.35966762049E+02  0.46142317809E+02  0.10000000433E+02 0.  0.
        -12    1    1    2    0    0 -0.26477196641E+02 -0.58705680969E+01 -0.35966762049E+02  0.45045682191E+02  0.00000000000E+00 0.  1.
         11    1    3    3    0    0  0.14727904883E+02 -0.68712857887E+00  0.13939052704E+02  0.20289911741E+02  0.51100000000E-03 0. -1.
        -11    1    3    3    0    0  0.92298034727E+01  0.56824447038E+01  0.18295593312E+02  0.21265187158E+02  0.51100000000E-03 0.  1.
         12    1    3    3    0    0  0.25194882857E+01  0.87525197195E+00  0.37321160338E+01  0.45872189098E+01  0.00000000000E+00 0. -1.
</event>
<event>
 7    1  0.3766050E-009  0.4614232E+02  0.7816164E-02  0.1320468E+00
        -11   -1    0    0    0    0  0.00000000000E+00  0.00000000000E+00  0.45593999997E+02  0.45594000000E+02  0.51100000000E-03 0. -1.
         11   -1    0    0    0    0 -0.00000000000E+00 -0.00000000000E+00 -0.45593999997E+02  0.45594000000E+02  0.51100000000E-03 0.  1.
    9900012    2    1    2    0    0 -0.20506603301E+02  0.25368488775E+02  0.31064972073E+02  0.46142317725E+02  0.99999996731E+01 0.  0.
        -12    1    1    2    0    0  0.20506603301E+02 -0.25368488775E+02 -0.31064972073E+02  0.45045682275E+02  0.00000000000E+00 0.  1.
         11    1    3    3    0    0 -0.21896035425E+01  0.69370253440E+00  0.61517102570E+01  0.65665155316E+01  0.51100000000E-03 0.  1.
        -11    1    3    3    0    0 -0.18038557275E+01  0.19140354317E+01  0.21519333945E+01  0.33982708419E+01  0.51100000000E-03 0. -1.
        -12    1    3    3    0    0 -0.16513144031E+02  0.22760750809E+02  0.22761328422E+02  0.36177531352E+02  0.00000000000E+00 0.  1.
</event>
<event>
 7    1  0.3766050E-009  0.4614232E+02  0.7816164E-02  0.1320468E+00
        -11   -1    0    0    0    0  0.00000000000E+00  0.00000000000E+00  0.45593999997E+02  0.45594000000E+02  0.51100000000E-03 0. -1.
         11   -1    0    0    0    0 -0.00000000000E+00 -0.00000000000E+00 -0.45593999997E+02  0.45594000000E+02  0.51100000000E-03 0.  1.
    9900012    2    1    2    0    0  0.14217510232E+02 -0.48237290445E+01 -0.42470077935E+02  0.46142317867E+02  0.10000000962E+02 0.  0.
         12    1    1    2    0    0 -0.14217510232E+02  0.48237290445E+01  0.42470077935E+02  0.45045682133E+02  0.00000000000E+00 0. -1.
         11    1    3    3    0    0  0.20185494144E+01 -0.59077803098E+00 -0.13921610613E+02  0.14079588159E+02  0.51100000000E-03 0. -1.
        -11    1    3    3    0    0  0.82885684027E+01  0.59450991249E+00 -0.17892035118E+02  0.19727613366E+02  0.51100000000E-03 0.  1.
        -12    1    3    3    0    0  0.39103924148E+01 -0.48274609260E+01 -0.10656432204E+02  0.12335116341E+02  0.00000000000E+00 0.  1.
</event>
<event>
 7    1  0.3766050E-009  0.4614232E+02  0.7816164E-02  0.1320468E+00
        -11   -1    0    0    0    0  0.00000000000E+00  0.00000000000E+00  0.45593999997E+02  0.45594000000E+02  0.51100000000E-03 0. -1.
         11   -1    0    0    0    0 -0.00000000000E+00 -0.00000000000E+00 -0.45593999997E+02  0.45594000000E+02  0.51100000000E-03 0.  1.
    9900012    2    1    2    0    0  0.12324434544E+02 -0.36978141511E+02  0.22579613651E+02  0.46142316644E+02  0.99999898101E+01 0.  0.
        -12    1    1    2    0    0 -0.12324434544E+02  0.36978141511E+02 -0.22579613651E+02  0.45045683356E+02  0.00000000000E+00 0.  1.
         11    1    3    3    0    0  0.41821579821E+01 -0.17781599615E+02  0.15381666126E+02  0.23880355595E+02  0.51100000000E-03 0. -1.
        -11    1    3    3    0    0  0.72522259012E+01 -0.18676840915E+02  0.68585984155E+01  0.21176863308E+02  0.51100000000E-03 0.  1.
         12    1    3    3    0    0  0.89005066103E+00 -0.51970098030E+00  0.33934910901E+00  0.10850977403E+01  0.00000000000E+00 0. -1.
</event>
<event>
 7    1  0.3766050E-009  0.4614232E+02  0.7816164E-02  0.1320468E+00
        -11   -1    0    0    0    0  0.00000000000E+00  0.00000000000E+00  0.45593999997E+02  0.45594000000E+02  0.51100000000E-03 0. -1.
         11   -1    0    0    0    0 -0.00000000000E+00 -0.00000000000E+00 -0.45593999997E+02  0.45594000000E+02  0.51100000000E-03 0.  1.
    9900012    2    1    2    0    0  0.29633167232E+02  0.83260357437E+01  0.32888694002E+02  0.46142315805E+02  0.99999821633E+01 0.  0.
        -12    1    1    2    0    0 -0.29633167232E+02 -0.83260357437E+01 -0.32888694002E+02  0.45045684195E+02  0.00000000000E+00 0.  1.
         11    1    3    3    0    0  0.18472064651E+02  0.66019623455E+01  0.20411428080E+02  0.28309529770E+02  0.51100000000E-03 0. -1.
        -11    1    3    3    0    0  0.38796247648E+01  0.35218349316E+01  0.50294791653E+01  0.72629519162E+01  0.51100000000E-03 0.  1.
         12    1    3    3    0    0  0.72814778168E+01 -0.17977615333E+01  0.74477867569E+01  0.10569834119E+02  0.00000000000E+00 0. -1.
</event>
<event>
 7    1  0.3766050E-009  0.4614232E+02  0.7816164E-02  0.1320468E+00
        -11   -1    0    0    0    0  0.00000000000E+00  0.00000000000E+00  0.45593999997E+02  0.45594000000E+02  0.51100000000E-03 0. -1.
         11   -1    0    0    0    0 -0.00000000000E+00 -0.00000000000E+00 -0.45593999997E+02  0.45594000000E+02  0.51100000000E-03 0.  1.
    9900012    2    1    2    0    0 -0.22996676964E+02  0.21670349220E+02  0.32103930209E+02  0.46142317392E+02  0.99999966372E+01 0.  0.
        -12    1    1    2    0    0  0.22996676964E+02 -0.21670349220E+02 -0.32103930209E+02  0.45045682608E+02  0.00000000000E+00 0.  1.
         11    1    3    3    0    0 -0.87119700321E+01  0.59349669498E+01  0.97589939103E+01  0.14365243365E+02  0.51100000000E-03 0. -1.
        -11    1    3    3    0    0 -0.33850156240E+01  0.93885671253E+01  0.10010161814E+02  0.14135305559E+02  0.51100000000E-03 0.  1.
        -12    1    3    3    0    0 -0.10899691308E+02  0.63468151451E+01  0.12334774485E+02  0.17641768468E+02  0.00000000000E+00 0.  1.
</event>
<event>
 7    1  0.3766050E-009  0.4614232E+02  0.7816164E-02  0.1320468E+00
        -11   -1    0    0    0    0  0.00000000000E+00  0.00000000000E+00  0.45593999997E+02  0.45594000000E+02  0.51100000000E-03 0. -1.
         11   -1    0    0    0    0 -0.00000000000E+00 -0.00000000000E+00 -0.45593999997E+02  0.45594000000E+02  0.51100000000E-03 0.  1.
    9900012    2    1    2    0    0 -0.91459248778E+01 -0.18383961842E+01 -0.44069104653E+02  0.46142316219E+02  0.99999859373E+01 0.  0.
         12    1    1    2    0    0  0.91459248778E+01  0.18383961842E+01  0.44069104653E+02  0.45045683781E+02  0.00000000000E+00 0. -1.
         11    1    3    3    0    0 -0.65079830681E+01 -0.81521992815E+00 -0.14541237511E+02  0.15951990965E+02  0.51100000000E-03 0. -1.
        -11    1    3    3    0    0 -0.28285001811E+01 -0.27104549878E+01 -0.13053343261E+02  0.13628527068E+02  0.51100000000E-03 0.  1.
         12    1    3    3    0    0  0.19055837138E+00  0.16872787318E+01 -0.16474523881E+02  0.16561798185E+02  0.00000000000E+00 0. -1.
</event>
<event>
 7    1  0.3766050E-009  0.4614232E+02  0.7816164E-02  0.1320468E+00
        -11   -1    0    0    0    0  0.00000000000E+00  0.00000000000E+00  0.45593999997E+02  0.45594000000E+02  0.51100000000E-03 0.  1.
         11   -1    0    0    0    0 -0.00000000000E+00 -0.00000000000E+00 -0.45593999997E+02  0.45594000000E+02  0.51100000000E-03 0. -1.
    9900012    2    1    2    0    0  0.42007380873E+02 -0.15459728247E+02 -0.50487854979E+01  0.46142317851E+02  0.10000000818E+02 0.  0.
        -12    1    1    2    0    0 -0.42007380873E+02  0.15459728247E+02  0.50487854979E+01  0.45045682149E+02  0.00000000000E+00 0.  1.
         11    1    3    3    0    0  0.10832969354E+02 -0.62508601793E+01 -0.52664588178E+01  0.13570632511E+02  0.51100000000E-03 0. -1.
        -11    1    3    3    0    0  0.74657667928E+01 -0.13862880308E+01  0.42074589864E+00  0.76050309454E+01  0.51100000000E-03 0.  1.
         12    1    3    3    0    0  0.23708644726E+02 -0.78225800366E+01 -0.20307257873E+00  0.24966654394E+02  0.00000000000E+00 0. -1.
</event>
<event>
 7    1  0.3766050E-009  0.4614232E+02  0.7816164E-02  0.1320468E+00
        -11   -1    0    0    0    0  0.00000000000E+00  0.00000000000E+00  0.45593999997E+02  0.45594000000E+02  0.51100000000E-03 0. -1.
         11   -1    0    0    0    0 -0.00000000000E+00 -0.00000000000E+00 -0.45593999997E+02  0.45594000000E+02  0.51100000000E-03 0.  1.
    9900012    2    1    2    0    0 -0.26618088289E+02 -0.67649195444E+01  0.35704715206E+02  0.46142318203E+02  0.10000004033E+02 0.  0.
        -12    1    1    2    0    0  0.26618088289E+02  0.67649195444E+01 -0.35704715206E+02  0.45045681797E+02  0.00000000000E+00 0.  1.
         11    1    3    3    0    0 -0.84410390574E+01 -0.28449038223E+01  0.15212339989E+02  0.17628383542E+02  0.51100000000E-03 0. -1.
        -11    1    3    3    0    0 -0.37804872974E+01 -0.83772501491E+00  0.84666947045E+00  0.39636746662E+01  0.51100000000E-03 0.  1.
         12    1    3    3    0    0 -0.14396561934E+02 -0.30822907072E+01  0.19645705747E+02  0.24550259995E+02  0.00000000000E+00 0. -1.
</event>
<event>
 7    1  0.3766050E-009  0.4614232E+02  0.7816164E-02  0.1320468E+00
        -11   -1    0    0    0    0  0.00000000000E+00  0.00000000000E+00  0.45593999997E+02  0.45594000000E+02  0.51100000000E-03 0. -1.
         11   -1    0    0    0    0 -0.00000000000E+00 -0.00000000000E+00 -0.45593999997E+02  0.45594000000E+02  0.51100000000E-03 0.  1.
    9900012    2    1    2    0    0  0.16067106994E+02 -0.16683995504E+02  0.38634257033E+02  0.46142318191E+02  0.10000003921E+02 0.  0.
        -12    1    1    2    0    0 -0.16067106994E+02  0.16683995504E+02 -0.38634257033E+02  0.45045681809E+02  0.00000000000E+00 0.  1.
         11    1    3    3    0    0  0.31477971383E+01 -0.72650328030E+01  0.81624230964E+01  0.11371652453E+02  0.51100000000E-03 0. -1.
        -11    1    3    3    0    0  0.87264357524E+01 -0.47822330355E+01  0.14202174476E+02  0.17341343484E+02  0.51100000000E-03 0.  1.
         12    1    3    3    0    0  0.41928741037E+01 -0.46367296659E+01  0.16269659461E+02  0.17429322253E+02  0.00000000000E+00 0. -1.
</event>
<event>
 7    1  0.3766050E-009  0.4614232E+02  0.7816164E-02  0.1320468E+00
        -11   -1    0    0    0    0  0.00000000000E+00  0.00000000000E+00  0.45593999997E+02  0.45594000000E+02  0.51100000000E-03 0. -1.
         11   -1    0    0    0    0 -0.00000000000E+00 -0.00000000000E+00 -0.45593999997E+02  0.45594000000E+02  0.51100000000E-03 0.  1.
    9900012    2    1    2    0    0  0.97392849374E+01  0.85710940156E+01 -0.43136946542E+02  0.46142317846E+02  0.10000000774E+02 0.  0.
         12    1    1    2    0    0 -0.97392849374E+01 -0.85710940156E+01  0.43136946542E+02  0.45045682154E+02  0.00000000000E+00 0. -1.
         11    1    3    3    0    0  0.18855498843E+01 -0.52056593667E+00 -0.12603236218E+02  0.12754130731E+02  0.51100000000E-03 0. -1.
        -11    1    3    3    0    0  0.38232118344E+01  0.36606740981E+00 -0.10140837359E+02  0.10843778709E+02  0.51100000000E-03 0.  1.
         12    1    3    3    0    0  0.40305232187E+01  0.87255925425E+01 -0.20392872965E+02  0.22544408407E+02  0.00000000000E+00 0. -1.
</event>
<event>
 7    1  0.3766050E-009  0.4614232E+02  0.7816164E-02  0.1320468E+00
        -11   -1    0    0    0    0  0.00000000000E+00  0.00000000000E+00  0.45593999997E+02  0.45594000000E+02  0.51100000000E-03 0. -1.
         11   -1    0    0    0    0 -0.00000000000E+00 -0.00000000000E+00 -0.45593999997E+02  0.45594000000E+02  0.51100000000E-03 0.  1.
    9900012    2    1    2    0    0  0.31476415566E+02  0.13016834638E+02 -0.29477289223E+02  0.46142319843E+02  0.10000018987E+02 0.  0.
         12    1    1    2    0    0 -0.31476415566E+02 -0.13016834638E+02  0.29477289223E+02  0.45045680157E+02  0.00000000000E+00 0. -1.
         11    1    3    3    0    0  0.18674382621E+02  0.36422337484E+01 -0.15440045040E+02  0.24502926847E+02  0.51100000000E-03 0. -1.
        -11    1    3    3    0    0  0.11691162030E+02  0.90678823219E+01 -0.11137414832E+02  0.18518957012E+02  0.51100000000E-03 0.  1.
         12    1    3    3    0    0  0.11108709143E+01  0.30671856785E+00 -0.28998293506E+01  0.31204359841E+01  0.00000000000E+00 0. -1.
</event>
<event>
 7    1  0.3766050E-009  0.4614232E+02  0.7816164E-02  0.1320468E+00
        -11   -1    0    0    0    0  0.00000000000E+00  0.00000000000E+00  0.45593999997E+02  0.45594000000E+02  0.51100000000E-03 0. -1.
         11   -1    0    0    0    0 -0.00000000000E+00 -0.00000000000E+00 -0.45593999997E+02  0.45594000000E+02  0.51100000000E-03 0.  1.
    9900012    2    1    2    0    0 -0.27505330692E+02 -0.43606007727E+01  0.35405583523E+02  0.46142318740E+02  0.10000008925E+02 0.  0.
        -12    1    1    2    0    0  0.27505330692E+02  0.43606007727E+01 -0.35405583523E+02  0.45045681260E+02  0.00000000000E+00 0.  1.
         11    1    3    3    0    0 -0.67822356718E+01  0.52580609212E+00  0.82442212735E+01  0.10688422588E+02  0.51100000000E-03 0. -1.
        -11    1    3    3    0    0 -0.60035663922E+01 -0.34881545001E+01  0.41116428478E+01  0.80694261513E+01  0.51100000000E-03 0.  1.
        -12    1    3    3    0    0 -0.14719528628E+02 -0.13982523647E+01  0.23049719402E+02  0.27384470000E+02  0.00000000000E+00 0.  1.
</event>
<event>
 7    1  0.3766050E-009  0.4614232E+02  0.7816164E-02  0.1320468E+00
        -11   -1    0    0    0    0  0.00000000000E+00  0.00000000000E+00  0.45593999997E+02  0.45594000000E+02  0.51100000000E-03 0. -1.
         11   -1    0    0    0    0 -0.00000000000E+00 -0.00000000000E+00 -0.45593999997E+02  0.45594000000E+02  0.51100000000E-03 0.  1.
    9900012    2    1    2    0    0  0.26731219278E+02  0.37158009902E+01  0.36065879449E+02  0.46142324053E+02  0.10000057373E+02 0.  0.
        -12    1    1    2    0    0 -0.26731219278E+02 -0.37158009902E+01 -0.36065879449E+02  0.45045675947E+02  0.00000000000E+00 0.  1.
         11    1    3    3    0    0  0.81732029851E+01  0.90251079372E+00  0.95997858934E+01  0.12640081575E+02  0.51100000000E-03 0. -1.
        -11    1    3    3    0    0 -0.61530986258E+00  0.10680657905E+01  0.10620887098E+01  0.16270843397E+01  0.51100000000E-03 0.  1.
        -12    1    3    3    0    0  0.19173326155E+02  0.17452244059E+01  0.25404004846E+02  0.31875158138E+02  0.00000000000E+00 0.  1.
</event>
<event>
 7    1  0.3766050E-009  0.4614231E+02  0.7816164E-02  0.1320468E+00
        -11   -1    0    0    0    0  0.00000000000E+00  0.00000000000E+00  0.45593999997E+02  0.45594000000E+02  0.51100000000E-03 0. -1.
         11   -1    0    0    0    0 -0.00000000000E+00 -0.00000000000E+00 -0.45593999997E+02  0.45594000000E+02  0.51100000000E-03 0.  1.
    9900012    2    1    2    0    0 -0.24037895255E+02  0.49952457126E+01 -0.37766936410E+02  0.46142307933E+02  0.99999103768E+01 0.  0.
         12    1    1    2    0    0  0.24037895255E+02 -0.49952457126E+01  0.37766936410E+02  0.45045692067E+02  0.00000000000E+00 0. -1.
         11    1    3    3    0    0 -0.68220525626E+01  0.33396078911E+01 -0.80678361956E+01  0.11080765460E+02  0.51100000000E-03 0.  1.
        -11    1    3    3    0    0 -0.17417030105E+02  0.15108323802E+01 -0.25863155761E+02  0.31217597254E+02  0.51100000000E-03 0. -1.
         12    1    3    3    0    0  0.20118741318E+00  0.14480544135E+00 -0.38359444539E+01  0.38439452188E+01  0.00000000000E+00 0. -1.
</event>
<event>
 7    1  0.3766050E-009  0.4614231E+02  0.7816164E-02  0.1320468E+00
        -11   -1    0    0    0    0  0.00000000000E+00  0.00000000000E+00  0.45593999997E+02  0.45594000000E+02  0.51100000000E-03 0. -1.
         11   -1    0    0    0    0 -0.00000000000E+00 -0.00000000000E+00 -0.45593999997E+02  0.45594000000E+02  0.51100000000E-03 0.  1.
    9900012    2    1    2    0    0  0.10650957801E+02 -0.31826667970E+02  0.30045545480E+02  0.46142306539E+02  0.99998976687E+01 0.  0.
        -12    1    1    2    0    0 -0.10650957801E+02  0.31826667970E+02 -0.30045545480E+02  0.45045693461E+02  0.00000000000E+00 0.  1.
         11    1    3    3    0    0  0.66076740992E+01 -0.18386348476E+02  0.19587046455E+02  0.27665349381E+02  0.51100000000E-03 0. -1.
        -11    1    3    3    0    0 -0.13865842857E+01 -0.19266269662E+01  0.25823946603E+01  0.35076017293E+01  0.51100000000E-03 0.  1.
         12    1    3    3    0    0  0.54298679870E+01 -0.11513692528E+02  0.78761043651E+01  0.14969355429E+02  0.00000000000E+00 0. -1.
</event>
<event>
 7    1  0.3766050E-009  0.4614232E+02  0.7816164E-02  0.1320468E+00
        -11   -1    0    0    0    0  0.00000000000E+00  0.00000000000E+00  0.45593999997E+02  0.45594000000E+02  0.51100000000E-03 0. -1.
         11   -1    0    0    0    0 -0.00000000000E+00 -0.00000000000E+00 -0.45593999997E+02  0.45594000000E+02  0.51100000000E-03 0.  1.
    9900012    2    1    2    0    0 -0.27155622425E+02 -0.28289301030E+01  0.35828515971E+02  0.46142320613E+02  0.10000026003E+02 0.  0.
        -12    1    1    2    0    0  0.27155622425E+02  0.28289301030E+01 -0.35828515971E+02  0.45045679387E+02  0.00000000000E+00 0.  1.
         11    1    3    3    0    0 -0.41907491505E+00 -0.19992307560E+01  0.37523128220E+01  0.42722826657E+01  0.51100000000E-03 0. -1.
        -11    1    3    3    0    0 -0.21929213200E+02  0.32647548968E+00  0.25318026982E+02  0.33496260513E+02  0.51100000000E-03 0.  1.
        -12    1    3    3    0    0 -0.48073343096E+01 -0.11561748366E+01  0.67581761670E+01  0.83737774344E+01  0.00000000000E+00 0.  1.
</event>
<event>
 7    1  0.3766050E-009  0.4614232E+02  0.7816164E-02  0.1320468E+00
        -11   -1    0    0    0    0  0.00000000000E+00  0.00000000000E+00  0.45593999997E+02  0.45594000000E+02  0.51100000000E-03 0. -1.
         11   -1    0    0    0    0 -0.00000000000E+00 -0.00000000000E+00 -0.45593999997E+02  0.45594000000E+02  0.51100000000E-03 0.  1.
    9900012    2    1    2    0    0  0.32817160539E+02  0.21378064271E+02  0.22251426285E+02  0.46142316194E+02  0.99999857112E+01 0.  0.
        -12    1    1    2    0    0 -0.32817160539E+02 -0.21378064271E+02 -0.22251426285E+02  0.45045683806E+02  0.00000000000E+00 0.  1.
         11    1    3    3    0    0  0.20406697265E+02  0.15378558233E+02  0.12905548550E+02  0.28626675151E+02  0.51100000000E-03 0. -1.
        -11    1    3    3    0    0  0.12405239162E+02  0.45956353052E+01  0.91794519997E+01  0.16101930375E+02  0.51100000000E-03 0.  1.
        -12    1    3    3    0    0  0.52241115705E-02  0.14038707328E+01  0.16642573562E+00  0.14137106674E+01  0.00000000000E+00 0.  1.
</event>
<event>
 7    1  0.3766050E-009  0.4614232E+02  0.7816164E-02  0.1320468E+00
        -11   -1    0    0    0    0  0.00000000000E+00  0.00000000000E+00  0.45593999997E+02  0.45594000000E+02  0.51100000000E-03 0.  1.
         11   -1    0    0    0    0 -0.00000000000E+00 -0.00000000000E+00 -0.45593999997E+02  0.45594000000E+02  0.51100000000E-03 0. -1.
    9900012    2    1    2    0    0 -0.37130988368E+02 -0.25336773510E+02 -0.29070782908E+01  0.46142317706E+02  0.99999995007E+01 0.  0.
        -12    1    1    2    0    0  0.37130988368E+02  0.25336773510E+02  0.29070782908E+01  0.45045682294E+02  0.00000000000E+00 0.  1.
         11    1    3    3    0    0 -0.12157811324E+02 -0.87708832720E+01 -0.20097926951E+01  0.15125476406E+02  0.51100000000E-03 0. -1.
        -11    1    3    3    0    0 -0.22251751720E+02 -0.14204532737E+02 -0.34182286404E+01  0.26619419456E+02  0.51100000000E-03 0.  1.
        -12    1    3    3    0    0 -0.27214253243E+01 -0.23613575006E+01  0.25209430446E+01  0.43974218442E+01  0.00000000000E+00 0.  1.
</event>
<event>
 7    1  0.3766050E-009  0.4614232E+02  0.7816164E-02  0.1320468E+00
        -11   -1    0    0    0    0  0.00000000000E+00  0.00000000000E+00  0.45593999997E+02  0.45594000000E+02  0.51100000000E-03 0. -1.
         11   -1    0    0    0    0 -0.00000000000E+00 -0.00000000000E+00 -0.45593999997E+02  0.45594000000E+02  0.51100000000E-03 0.  1.
    9900012    2    1    2    0    0 -0.26420922393E+02 -0.16398988382E+02 -0.32590205691E+02  0.46142317998E+02  0.10000002158E+02 0.  0.
         12    1    1    2    0    0  0.26420922393E+02  0.16398988382E+02  0.32590205691E+02  0.45045682002E+02  0.00000000000E+00 0. -1.
         11    1    3    3    0    0 -0.64783147046E+01 -0.26780846138E+01 -0.13736828854E+02  0.15422099917E+02  0.51100000000E-03 0. -1.
        -11    1    3    3    0    0 -0.19716897373E+02 -0.13363274323E+02 -0.18646767965E+02  0.30249547078E+02  0.51100000000E-03 0.  1.
        -12    1    3    3    0    0 -0.22571031521E+00 -0.35762944534E+00 -0.20660887210E+00  0.47067100250E+00  0.00000000000E+00 0.  1.
</event>
<event>
 7    1  0.3766050E-009  0.4614233E+02  0.7816164E-02  0.1320468E+00
        -11   -1    0    0    0    0  0.00000000000E+00  0.00000000000E+00  0.45593999997E+02  0.45594000000E+02  0.51100000000E-03 0. -1.
         11   -1    0    0    0    0 -0.00000000000E+00 -0.00000000000E+00 -0.45593999997E+02  0.45594000000E+02  0.51100000000E-03 0.  1.
    9900012    2    1    2    0    0 -0.31206679629E+01 -0.26459387504E+01  0.44859481453E+02  0.46142327215E+02  0.10000086210E+02 0.  0.
        -12    1    1    2    0    0  0.31206679629E+01  0.26459387504E+01 -0.44859481453E+02  0.45045672785E+02  0.00000000000E+00 0.  1.
         11    1    3    3    0    0  0.73884038546E+00  0.54687784968E+00  0.87337176601E+01  0.87819579210E+01  0.51100000000E-03 0. -1.
        -11    1    3    3    0    0 -0.56448156328E+01 -0.37797511542E+01  0.19931504566E+02  0.21057429492E+02  0.51100000000E-03 0.  1.
        -12    1    3    3    0    0  0.17853072844E+01  0.58693455408E+00  0.16194259227E+02  0.16302939802E+02  0.00000000000E+00 0.  1.
</event>
<event>
 7    1  0.3766050E-009  0.4614232E+02  0.7816164E-02  0.1320468E+00
        -11   -1    0    0    0    0  0.00000000000E+00  0.00000000000E+00  0.45593999997E+02  0.45594000000E+02  0.51100000000E-03 0. -1.
         11   -1    0    0    0    0 -0.00000000000E+00 -0.00000000000E+00 -0.45593999997E+02  0.45594000000E+02  0.51100000000E-03 0.  1.
    9900012    2    1    2    0    0 -0.28229714296E+02 -0.10705073397E+02 -0.33430498627E+02  0.46142316476E+02  0.99999882847E+01 0.  0.
         12    1    1    2    0    0  0.28229714296E+02  0.10705073397E+02  0.33430498627E+02  0.45045683524E+02  0.00000000000E+00 0. -1.
         11    1    3    3    0    0 -0.19882758993E+01  0.85243035733E+00 -0.58367626192E+01  0.62247631843E+01  0.51100000000E-03 0. -1.
        -11    1    3    3    0    0 -0.25123216410E+02 -0.10978660672E+02 -0.25329777641E+02  0.37326995975E+02  0.51100000000E-03 0.  1.
        -12    1    3    3    0    0 -0.11182219863E+01 -0.57884308274E+00 -0.22639583668E+01  0.25905573168E+01  0.00000000000E+00 0.  1.
</event>
<event>
 7    1  0.3766050E-009  0.4614232E+02  0.7816164E-02  0.1320468E+00
        -11   -1    0    0    0    0  0.00000000000E+00  0.00000000000E+00  0.45593999997E+02  0.45594000000E+02  0.51100000000E-03 0. -1.
         11   -1    0    0    0    0 -0.00000000000E+00 -0.00000000000E+00 -0.45593999997E+02  0.45594000000E+02  0.51100000000E-03 0.  1.
    9900012    2    1    2    0    0 -0.48525618939E+01 -0.19154468035E+02 -0.40480520360E+02  0.46142317285E+02  0.99999956544E+01 0.  0.
         12    1    1    2    0    0  0.48525618939E+01  0.19154468035E+02  0.40480520360E+02  0.45045682715E+02  0.00000000000E+00 0. -1.
         11    1    3    3    0    0  0.97628472074E+00 -0.85913023805E+01 -0.16031207364E+02  0.18214368457E+02  0.51100000000E-03 0. -1.
        -11    1    3    3    0    0 -0.55917381342E+01 -0.52168529241E+01 -0.10519344757E+02  0.13005372127E+02  0.51100000000E-03 0.  1.
        -12    1    3    3    0    0 -0.23710848050E+00 -0.53463127306E+01 -0.13929968239E+02  0.14922576701E+02  0.00000000000E+00 0.  1.
</event>
<event>
 7    1  0.3766050E-009  0.4614232E+02  0.7816164E-02  0.1320468E+00
        -11   -1    0    0    0    0  0.00000000000E+00  0.00000000000E+00  0.45593999997E+02  0.45594000000E+02  0.51100000000E-03 0. -1.
         11   -1    0    0    0    0 -0.00000000000E+00 -0.00000000000E+00 -0.45593999997E+02  0.45594000000E+02  0.51100000000E-03 0.  1.
    9900012    2    1    2    0    0  0.20051740636E+02  0.36257794531E+02 -0.17675223757E+02  0.46142317614E+02  0.99999986614E+01 0.  0.
         12    1    1    2    0    0 -0.20051740636E+02 -0.36257794531E+02  0.17675223757E+02  0.45045682386E+02  0.00000000000E+00 0. -1.
         11    1    3    3    0    0  0.68064320451E+00  0.64746241198E+01 -0.28621911747E+01  0.71116925725E+01  0.51100000000E-03 0. -1.
        -11    1    3    3    0    0  0.24616038599E+01  0.12227925047E+01 -0.17158054054E+00  0.27539344974E+01  0.51100000000E-03 0.  1.
        -12    1    3    3    0    0  0.16909493571E+02  0.28560377906E+02 -0.14641452041E+02  0.36276690544E+02  0.00000000000E+00 0.  1.
</event>
<event>
 7    1  0.3766050E-009  0.4614232E+02  0.7816164E-02  0.1320468E+00
        -11   -1    0    0    0    0  0.00000000000E+00  0.00000000000E+00  0.45593999997E+02  0.45594000000E+02  0.51100000000E-03 0. -1.
         11   -1    0    0    0    0 -0.00000000000E+00 -0.00000000000E+00 -0.45593999997E+02  0.45594000000E+02  0.51100000000E-03 0.  1.
    9900012    2    1    2    0    0 -0.23768469439E+02  0.27812156479E+02 -0.26280360804E+02  0.46142317061E+02  0.99999936136E+01 0.  0.
         12    1    1    2    0    0  0.23768469439E+02 -0.27812156479E+02  0.26280360804E+02  0.45045682939E+02  0.00000000000E+00 0. -1.
         11    1    3    3    0    0 -0.22631531064E+01  0.59653325713E+00 -0.51938341630E-01  0.23410279286E+01  0.51100000000E-03 0. -1.
        -11    1    3    3    0    0 -0.19184639581E+02  0.21678838297E+02 -0.20245813644E+02  0.35325846007E+02  0.51100000000E-03 0.  1.
        -12    1    3    3    0    0 -0.23206767513E+01  0.55367849254E+01 -0.59826088185E+01  0.84754431252E+01  0.00000000000E+00 0.  1.
</event>
<event>
 7    1  0.3766050E-009  0.4614231E+02  0.7816164E-02  0.1320468E+00
        -11   -1    0    0    0    0  0.00000000000E+00  0.00000000000E+00  0.45593999997E+02  0.45594000000E+02  0.51100000000E-03 0. -1.
         11   -1    0    0    0    0 -0.00000000000E+00 -0.00000000000E+00 -0.45593999997E+02  0.45594000000E+02  0.51100000000E-03 0.  1.
    9900012    2    1    2    0    0  0.67235852895E+01  0.39936680779E+02 -0.19722291866E+02  0.46142313556E+02  0.99999616534E+01 0.  0.
         12    1    1    2    0    0 -0.67235852895E+01 -0.39936680779E+02  0.19722291866E+02  0.45045686444E+02  0.00000000000E+00 0. -1.
         11    1    3    3    0    0  0.60484167220E+01  0.14868804326E+02 -0.70254255209E+01  0.17522023027E+02  0.51100000000E-03 0. -1.
        -11    1    3    3    0    0  0.12883221850E+01  0.24667595164E+02 -0.12891120600E+02  0.27862717309E+02  0.51100000000E-03 0.  1.
         12    1    3    3    0    0 -0.61315361748E+00  0.40028128861E+00  0.19425425562E+00  0.75757322053E+00  0.00000000000E+00 0. -1.
</event>
<event>
 7    1  0.3766050E-009  0.4614232E+02  0.7816164E-02  0.1320468E+00
        -11   -1    0    0    0    0  0.00000000000E+00  0.00000000000E+00  0.45593999997E+02  0.45594000000E+02  0.51100000000E-03 0. -1.
         11   -1    0    0    0    0 -0.00000000000E+00 -0.00000000000E+00 -0.45593999997E+02  0.45594000000E+02  0.51100000000E-03 0.  1.
    9900012    2    1    2    0    0  0.12578545695E+02 -0.22132405922E+02 -0.37162484584E+02  0.46142318029E+02  0.10000002445E+02 0.  0.
         12    1    1    2    0    0 -0.12578545695E+02  0.22132405922E+02  0.37162484584E+02  0.45045681971E+02  0.00000000000E+00 0. -1.
         11    1    3    3    0    0  0.21767815952E+00  0.40272540707E+00 -0.70830379606E+00  0.84336591303E+00  0.51100000000E-03 0. -1.
        -11    1    3    3    0    0  0.79388278724E+01 -0.98231510301E+01 -0.23166373915E+02  0.26385605257E+02  0.51100000000E-03 0.  1.
        -12    1    3    3    0    0  0.44220396632E+01 -0.12711980299E+02 -0.13287806874E+02  0.18913346860E+02  0.00000000000E+00 0.  1.
</event>
<event>
 7    1  0.3766050E-009  0.4614232E+02  0.7816164E-02  0.1320468E+00
        -11   -1    0    0    0    0  0.00000000000E+00  0.00000000000E+00  0.45593999997E+02  0.45594000000E+02  0.51100000000E-03 0. -1.
         11   -1    0    0    0    0 -0.00000000000E+00 -0.00000000000E+00 -0.45593999997E+02  0.45594000000E+02  0.51100000000E-03 0.  1.
    9900012    2    1    2    0    0  0.71765365061E+01  0.15973013368E+02 -0.41502697011E+02  0.46142315507E+02  0.99999794446E+01 0.  0.
         12    1    1    2    0    0 -0.71765365061E+01 -0.15973013368E+02  0.41502697011E+02  0.45045684493E+02  0.00000000000E+00 0. -1.
         11    1    3    3    0    0 -0.14760465459E+01  0.17513119192E+01 -0.21218119111E+01  0.31221615735E+01  0.51100000000E-03 0. -1.
        -11    1    3    3    0    0  0.11511241365E+01  0.59283738814E+01 -0.11722242367E+02  0.13186419909E+02  0.51100000000E-03 0.  1.
         12    1    3    3    0    0  0.75014589154E+01  0.82933275676E+01 -0.27658642733E+02  0.29833734024E+02  0.00000000000E+00 0. -1.
</event>
<event>
 7    1  0.3766050E-009  0.4614232E+02  0.7816164E-02  0.1320468E+00
        -11   -1    0    0    0    0  0.00000000000E+00  0.00000000000E+00  0.45593999997E+02  0.45594000000E+02  0.51100000000E-03 0. -1.
         11   -1    0    0    0    0 -0.00000000000E+00 -0.00000000000E+00 -0.45593999997E+02  0.45594000000E+02  0.51100000000E-03 0.  1.
    9900012    2    1    2    0    0  0.28061870027E+02 -0.48552588607E+01 -0.34900879750E+02  0.46142317683E+02  0.99999992913E+01 0.  0.
         12    1    1    2    0    0 -0.28061870027E+02  0.48552588607E+01  0.34900879750E+02  0.45045682317E+02  0.00000000000E+00 0. -1.
         11    1    3    3    0    0  0.48182738952E+01 -0.42511104516E+01 -0.84611521849E+01  0.10624443513E+02  0.51100000000E-03 0. -1.
        -11    1    3    3    0    0  0.16497620673E+02 -0.24463875105E+01 -0.19608818927E+02  0.25742223674E+02  0.51100000000E-03 0.  1.
        -12    1    3    3    0    0  0.67459754588E+01  0.18422391014E+01 -0.68309086385E+01  0.97756504962E+01  0.00000000000E+00 0.  1.
</event>
<event>
 7    1  0.3766050E-009  0.4614232E+02  0.7816164E-02  0.1320468E+00
        -11   -1    0    0    0    0  0.00000000000E+00  0.00000000000E+00  0.45593999997E+02  0.45594000000E+02  0.51100000000E-03 0. -1.
         11   -1    0    0    0    0 -0.00000000000E+00 -0.00000000000E+00 -0.45593999997E+02  0.45594000000E+02  0.51100000000E-03 0.  1.
    9900012    2    1    2    0    0 -0.33665807840E+02  0.14617024299E+01  0.29892980991E+02  0.46142317587E+02  0.99999984163E+01 0.  0.
        -12    1    1    2    0    0  0.33665807840E+02 -0.14617024299E+01 -0.29892980991E+02  0.45045682413E+02  0.00000000000E+00 0.  1.
         11    1    3    3    0    0 -0.68014664601E+01  0.27007597166E+00  0.49623638869E+01  0.84236537587E+01  0.51100000000E-03 0. -1.
        -11    1    3    3    0    0  0.33214117981E+00  0.10484913248E+01  0.80087552215E+00  0.13605343379E+01  0.51100000000E-03 0.  1.
        -12    1    3    3    0    0 -0.27196482560E+02  0.14313513347E+00  0.24129741582E+02  0.36358129491E+02  0.00000000000E+00 0.  1.
</event>
<event>
 7    1  0.3766050E-009  0.4614232E+02  0.7816164E-02  0.1320468E+00
        -11   -1    0    0    0    0  0.00000000000E+00  0.00000000000E+00  0.45593999997E+02  0.45594000000E+02  0.51100000000E-03 0.  1.
         11   -1    0    0    0    0 -0.00000000000E+00 -0.00000000000E+00 -0.45593999997E+02  0.45594000000E+02  0.51100000000E-03 0. -1.
    9900012    2    1    2    0    0  0.41441905764E+02 -0.26180775109E+01 -0.17459307383E+02  0.46142319880E+02  0.10000019323E+02 0.  0.
         12    1    1    2    0    0 -0.41441905764E+02  0.26180775109E+01  0.17459307383E+02  0.45045680120E+02  0.00000000000E+00 0. -1.
         11    1    3    3    0    0  0.19990782586E+02  0.11876757195E+01 -0.13043241941E+02  0.23899123888E+02  0.51100000000E-03 0. -1.
        -11    1    3    3    0    0  0.14097067574E+02 -0.28712139249E+01 -0.30002454309E+01  0.14696008183E+02  0.51100000000E-03 0.  1.
         12    1    3    3    0    0  0.73540556031E+01 -0.93453930557E+00 -0.14158200106E+01  0.75471878094E+01  0.00000000000E+00 0. -1.
</event>
<event>
 7    1  0.3766050E-009  0.4614232E+02  0.7816164E-02  0.1320468E+00
        -11   -1    0    0    0    0  0.00000000000E+00  0.00000000000E+00  0.45593999997E+02  0.45594000000E+02  0.51100000000E-03 0. -1.
         11   -1    0    0    0    0 -0.00000000000E+00 -0.00000000000E+00 -0.45593999997E+02  0.45594000000E+02  0.51100000000E-03 0.  1.
    9900012    2    1    2    0    0  0.21370025223E+02 -0.93104985855E+01 -0.38545429144E+02  0.46142317967E+02  0.10000001874E+02 0.  0.
         12    1    1    2    0    0 -0.21370025223E+02  0.93104985855E+01  0.38545429144E+02  0.45045682033E+02  0.00000000000E+00 0. -1.
         11    1    3    3    0    0  0.17395710135E+01 -0.28477294810E+01 -0.16445803565E+01  0.37202574263E+01  0.51100000000E-03 0. -1.
        -11    1    3    3    0    0  0.15198686827E+02 -0.48422857241E+01 -0.31029561099E+02  0.34889561111E+02  0.51100000000E-03 0.  1.
        -12    1    3    3    0    0  0.44317673832E+01 -0.16204833804E+01 -0.58712876886E+01  0.75324994289E+01  0.00000000000E+00 0.  1.
</event>
<event>
 7    1  0.3766050E-009  0.4614232E+02  0.7816164E-02  0.1320468E+00
        -11   -1    0    0    0    0  0.00000000000E+00  0.00000000000E+00  0.45593999997E+02  0.45594000000E+02  0.51100000000E-03 0.  1.
         11   -1    0    0    0    0 -0.00000000000E+00 -0.00000000000E+00 -0.45593999997E+02  0.45594000000E+02  0.51100000000E-03 0. -1.
    9900012    2    1    2    0    0  0.28019363052E+02 -0.34245246497E+02  0.84434541566E+01  0.46142317281E+02  0.99999956232E+01 0.  0.
         12    1    1    2    0    0 -0.28019363052E+02  0.34245246497E+02 -0.84434541566E+01  0.45045682719E+02  0.00000000000E+00 0. -1.
         11    1    3    3    0    0  0.16575745637E+02 -0.21574889286E+02  0.26059094124E+01  0.27331702385E+02  0.51100000000E-03 0. -1.
        -11    1    3    3    0    0  0.61328524935E+01 -0.81612900413E+01  0.60010533030E+01  0.11841924499E+02  0.51100000000E-03 0.  1.
        -12    1    3    3    0    0  0.53107649219E+01 -0.45090671700E+01 -0.16350855874E+00  0.69686903969E+01  0.00000000000E+00 0.  1.
</event>
<event>
 7    1  0.4178915E-009  0.4614232E+02  0.7816164E-02  0.1320468E+00
        -11   -1    0    0    0    0  0.00000000000E+00  0.00000000000E+00  0.45593999997E+02  0.45594000000E+02  0.51100000000E-03 0. -1.
         11   -1    0    0    0    0 -0.00000000000E+00 -0.00000000000E+00 -0.45593999997E+02  0.45594000000E+02  0.51100000000E-03 0.  1.
    9900012    2    1    2    0    0  0.20232018118E+02 -0.19576994521E+02 -0.35164190605E+02  0.46142316827E+02  0.99999914848E+01 0.  0.
         12    1    1    2    0    0 -0.20232018118E+02  0.19576994521E+02  0.35164190605E+02  0.45045683173E+02  0.00000000000E+00 0. -1.
         11    1    3    3    0    0 -0.41366944343E+00 -0.10105400007E+01 -0.78042425556E+00  0.13421534119E+01  0.51100000000E-03 0. -1.
        -11    1    3    3    0    0  0.39075769181E+01 -0.21374162633E+01 -0.21741963054E+01  0.49562925145E+01  0.51100000000E-03 0.  1.
        -12    1    3    3    0    0  0.16738110643E+02 -0.16429038257E+02 -0.32209570044E+02  0.39843870901E+02  0.00000000000E+00 0.  1.
</event>
<event>
 7    1  0.3766050E-009  0.4614232E+02  0.7816164E-02  0.1320468E+00
        -11   -1    0    0    0    0  0.00000000000E+00  0.00000000000E+00  0.45593999997E+02  0.45594000000E+02  0.51100000000E-03 0. -1.
         11   -1    0    0    0    0 -0.00000000000E+00 -0.00000000000E+00 -0.45593999997E+02  0.45594000000E+02  0.51100000000E-03 0.  1.
    9900012    2    1    2    0    0 -0.96538667449E+01 -0.19906587586E+02 -0.39238299393E+02  0.46142317502E+02  0.99999976395E+01 0.  0.
         12    1    1    2    0    0  0.96538667449E+01  0.19906587586E+02  0.39238299393E+02  0.45045682498E+02  0.00000000000E+00 0. -1.
         11    1    3    3    0    0 -0.98409607136E+01 -0.11393520849E+02 -0.20057778986E+02  0.25079300692E+02  0.51100000000E-03 0. -1.
        -11    1    3    3    0    0  0.10748396699E+00 -0.62915072951E+01 -0.15904039858E+02  0.17103599064E+02  0.51100000000E-03 0.  1.
         12    1    3    3    0    0  0.79610001648E-01 -0.22215594420E+01 -0.32764805488E+01  0.39594177467E+01  0.00000000000E+00 0. -1.
</event>
<event>
 7    1  0.3766050E-009  0.4614232E+02  0.7816164E-02  0.1320468E+00
        -11   -1    0    0    0    0  0.00000000000E+00  0.00000000000E+00  0.45593999997E+02  0.45594000000E+02  0.51100000000E-03 0.  1.
         11   -1    0    0    0    0 -0.00000000000E+00 -0.00000000000E+00 -0.45593999997E+02  0.45594000000E+02  0.51100000000E-03 0. -1.
    9900012    2    1    2    0    0 -0.25240324475E+02  0.30890695627E+02  0.20923774400E+02  0.46142318841E+02  0.10000009845E+02 0.  0.
        -12    1    1    2    0    0  0.25240324475E+02 -0.30890695627E+02 -0.20923774400E+02  0.45045681159E+02  0.00000000000E+00 0.  1.
         11    1    3    3    0    0 -0.15975866172E+02  0.16479698377E+02  0.13602042278E+02  0.26680035850E+02  0.51100000000E-03 0. -1.
        -11    1    3    3    0    0 -0.27785165265E+01  0.47488908207E+01  0.53215355604E+01  0.76544666108E+01  0.51100000000E-03 0.  1.
        -12    1    3    3    0    0 -0.64859417767E+01  0.96621064295E+01  0.20001965621E+01  0.11807816380E+02  0.00000000000E+00 0.  1.
</event>
<event>
 7    1  0.3766050E-009  0.4614232E+02  0.7816164E-02  0.1320468E+00
        -11   -1    0    0    0    0  0.00000000000E+00  0.00000000000E+00  0.45593999997E+02  0.45594000000E+02  0.51100000000E-03 0. -1.
         11   -1    0    0    0    0 -0.00000000000E+00 -0.00000000000E+00 -0.45593999997E+02  0.45594000000E+02  0.51100000000E-03 0.  1.
    9900012    2    1    2    0    0 -0.63032942437E+01 -0.10699133494E+02 -0.43300236842E+02  0.46142317783E+02  0.10000000200E+02 0.  0.
         12    1    1    2    0    0  0.63032942437E+01  0.10699133494E+02  0.43300236842E+02  0.45045682217E+02  0.00000000000E+00 0. -1.
         11    1    3    3    0    0  0.13622289474E+01 -0.12085106559E+00 -0.43030954724E+01  0.45151858866E+01  0.51100000000E-03 0. -1.
        -11    1    3    3    0    0 -0.34397505535E+00  0.84084529894E+00 -0.37869971747E+01  0.38944431589E+01  0.51100000000E-03 0.  1.
        -12    1    3    3    0    0 -0.73215481358E+01 -0.11419127728E+02 -0.35210144195E+02  0.37732688738E+02  0.00000000000E+00 0.  1.
</event>
<event>
 7    1  0.3766050E-009  0.4614232E+02  0.7816164E-02  0.1320468E+00
        -11   -1    0    0    0    0  0.00000000000E+00  0.00000000000E+00  0.45593999997E+02  0.45594000000E+02  0.51100000000E-03 0. -1.
         11   -1    0    0    0    0 -0.00000000000E+00 -0.00000000000E+00 -0.45593999997E+02  0.45594000000E+02  0.51100000000E-03 0.  1.
    9900012    2    1    2    0    0  0.37259802645E+02  0.39307691079E+01  0.25007392500E+02  0.46142317425E+02  0.99999969377E+01 0.  0.
        -12    1    1    2    0    0 -0.37259802645E+02 -0.39307691079E+01 -0.25007392500E+02  0.45045682575E+02  0.00000000000E+00 0.  1.
         11    1    3    3    0    0  0.11140667203E+02 -0.23940613641E+01  0.62625028347E+01  0.13002497358E+02  0.51100000000E-03 0. -1.
        -11    1    3    3    0    0  0.18977006381E+02  0.54413575346E+01  0.16093779814E+02  0.25470470980E+02  0.51100000000E-03 0.  1.
        -12    1    3    3    0    0  0.71421290620E+01  0.88347293739E+00  0.26511098517E+01  0.76693490868E+01  0.00000000000E+00 0.  1.
</event>
<event>
 7    1  0.3766050E-009  0.4614232E+02  0.7816164E-02  0.1320468E+00
        -11   -1    0    0    0    0  0.00000000000E+00  0.00000000000E+00  0.45593999997E+02  0.45594000000E+02  0.51100000000E-03 0. -1.
         11   -1    0    0    0    0 -0.00000000000E+00 -0.00000000000E+00 -0.45593999997E+02  0.45594000000E+02  0.51100000000E-03 0.  1.
    9900012    2    1    2    0    0  0.27794700731E+02  0.11665092533E+02 -0.33473776830E+02  0.46142317546E+02  0.99999980356E+01 0.  0.
         12    1    1    2    0    0 -0.27794700731E+02 -0.11665092533E+02  0.33473776830E+02  0.45045682454E+02  0.00000000000E+00 0. -1.
         11    1    3    3    0    0  0.22589377546E+01  0.26653003189E+01 -0.10261593156E+01  0.36413773178E+01  0.51100000000E-03 0. -1.
        -11    1    3    3    0    0  0.20952411668E+02  0.80413411776E+01 -0.29081074035E+02  0.36733848015E+02  0.51100000000E-03 0.  1.
        -12    1    3    3    0    0  0.45833513075E+01  0.95845103629E+00 -0.33665434792E+01  0.57670922131E+01  0.00000000000E+00 0.  1.
</event>
<event>
 7    1  0.3766050E-009  0.4614232E+02  0.7816164E-02  0.1320468E+00
        -11   -1    0    0    0    0  0.00000000000E+00  0.00000000000E+00  0.45593999997E+02  0.45594000000E+02  0.51100000000E-03 0.  1.
         11   -1    0    0    0    0 -0.00000000000E+00 -0.00000000000E+00 -0.45593999997E+02  0.45594000000E+02  0.51100000000E-03 0. -1.
    9900012    2    1    2    0    0  0.86926485299E+01  0.43722281933E+02 -0.64740581385E+01  0.46142317580E+02  0.99999983502E+01 0.  0.
        -12    1    1    2    0    0 -0.86926485299E+01 -0.43722281933E+02  0.64740581385E+01  0.45045682420E+02  0.00000000000E+00 0.  1.
         11    1    3    3    0    0  0.41050480865E+01  0.23757463903E+02 -0.50280977306E+01  0.24628241471E+02  0.51100000000E-03 0. -1.
        -11    1    3    3    0    0  0.14099584571E+00 -0.27942631108E+00 -0.70801391074E+00  0.77410777722E+00  0.51100000000E-03 0.  1.
         12    1    3    3    0    0  0.44466045977E+01  0.20244244341E+02 -0.73794649709E+00  0.20739968332E+02  0.00000000000E+00 0. -1.
</event>
<event>
 7    1  0.3766050E-009  0.4614232E+02  0.7816164E-02  0.1320468E+00
        -11   -1    0    0    0    0  0.00000000000E+00  0.00000000000E+00  0.45593999997E+02  0.45594000000E+02  0.51100000000E-03 0. -1.
         11   -1    0    0    0    0 -0.00000000000E+00 -0.00000000000E+00 -0.45593999997E+02  0.45594000000E+02  0.51100000000E-03 0.  1.
    9900012    2    1    2    0    0  0.81190143388E+01  0.21400774583E+01  0.44256246123E+02  0.46142316009E+02  0.99999840210E+01 0.  0.
        -12    1    1    2    0    0 -0.81190143388E+01 -0.21400774583E+01 -0.44256246123E+02  0.45045683991E+02  0.00000000000E+00 0.  1.
         11    1    3    3    0    0  0.63271934404E+01  0.64106499941E+00  0.18447340717E+02  0.19512783527E+02  0.51100000000E-03 0. -1.
        -11    1    3    3    0    0  0.27145783040E+01 -0.11285372326E+01  0.19670189158E+02  0.19888661932E+02  0.51100000000E-03 0.  1.
        -12    1    3    3    0    0 -0.92275740560E+00  0.26275496915E+01  0.61387162472E+01  0.67408705501E+01  0.00000000000E+00 0.  1.
</event>
<event>
 7    1  0.3766050E-009  0.4614231E+02  0.7816164E-02  0.1320468E+00
        -11   -1    0    0    0    0  0.00000000000E+00  0.00000000000E+00  0.45593999997E+02  0.45594000000E+02  0.51100000000E-03 0. -1.
         11   -1    0    0    0    0 -0.00000000000E+00 -0.00000000000E+00 -0.45593999997E+02  0.45594000000E+02  0.51100000000E-03 0.  1.
    9900012    2    1    2    0    0  0.23803153982E+02 -0.26166150536E+02 -0.27890076403E+02  0.46142312802E+02  0.99999547794E+01 0.  0.
         12    1    1    2    0    0 -0.23803153982E+02  0.26166150536E+02  0.27890076403E+02  0.45045687198E+02  0.00000000000E+00 0. -1.
         11    1    3    3    0    0  0.54431047661E+01 -0.79472473320E+01 -0.80292182431E+01  0.12540114653E+02  0.51100000000E-03 0. -1.
        -11    1    3    3    0    0  0.97756064361E+01 -0.11498913350E+02 -0.16104542736E+02  0.22071334043E+02  0.51100000000E-03 0.  1.
         12    1    3    3    0    0  0.85844427794E+01 -0.67199898545E+01 -0.37563154235E+01  0.11530864106E+02  0.00000000000E+00 0. -1.
</event>
<event>
 7    1  0.3766050E-009  0.4614232E+02  0.7816164E-02  0.1320468E+00
        -11   -1    0    0    0    0  0.00000000000E+00  0.00000000000E+00  0.45593999997E+02  0.45594000000E+02  0.51100000000E-03 0. -1.
         11   -1    0    0    0    0 -0.00000000000E+00 -0.00000000000E+00 -0.45593999997E+02  0.45594000000E+02  0.51100000000E-03 0.  1.
    9900012    2    1    2    0    0 -0.25491231314E+02  0.34255686321E+02  0.14347773671E+02  0.46142317315E+02  0.99999959339E+01 0.  0.
        -12    1    1    2    0    0  0.25491231314E+02 -0.34255686321E+02 -0.14347773671E+02  0.45045682685E+02  0.00000000000E+00 0.  1.
         11    1    3    3    0    0 -0.80810598920E+00  0.13852529896E+01  0.19108999942E+01  0.24946944070E+01  0.51100000000E-03 0. -1.
        -11    1    3    3    0    0 -0.12163874883E+02  0.22373726458E+02  0.84361166182E+01  0.26827440273E+02  0.51100000000E-03 0.  1.
        -12    1    3    3    0    0 -0.12519250442E+02  0.10496706873E+02  0.40007570586E+01  0.16820182635E+02  0.00000000000E+00 0.  1.
</event>
<event>
 7    1  0.3766050E-009  0.4614232E+02  0.7816164E-02  0.1320468E+00
        -11   -1    0    0    0    0  0.00000000000E+00  0.00000000000E+00  0.45593999997E+02  0.45594000000E+02  0.51100000000E-03 0. -1.
         11   -1    0    0    0    0 -0.00000000000E+00 -0.00000000000E+00 -0.45593999997E+02  0.45594000000E+02  0.51100000000E-03 0.  1.
    9900012    2    1    2    0    0  0.34684937077E+02  0.10370553594E+01  0.28722694164E+02  0.46142317589E+02  0.99999984282E+01 0.  0.
        -12    1    1    2    0    0 -0.34684937077E+02 -0.10370553594E+01 -0.28722694164E+02  0.45045682411E+02  0.00000000000E+00 0.  1.
         11    1    3    3    0    0  0.15144809019E+02  0.18436398212E+01  0.14216016944E+02  0.20853282380E+02  0.51100000000E-03 0. -1.
        -11    1    3    3    0    0  0.48295558678E+00  0.51742546266E+00  0.27914033970E+01  0.28797410290E+01  0.51100000000E-03 0.  1.
         12    1    3    3    0    0  0.19057172471E+02 -0.13240099245E+01  0.11715273823E+02  0.22409294179E+02  0.00000000000E+00 0. -1.
</event>
<event>
 7    1  0.3766050E-009  0.4614232E+02  0.7816164E-02  0.1320468E+00
        -11   -1    0    0    0    0  0.00000000000E+00  0.00000000000E+00  0.45593999997E+02  0.45594000000E+02  0.51100000000E-03 0. -1.
         11   -1    0    0    0    0 -0.00000000000E+00 -0.00000000000E+00 -0.45593999997E+02  0.45594000000E+02  0.51100000000E-03 0.  1.
    9900012    2    1    2    0    0 -0.18649042688E+02  0.26567896322E+02  0.31232575741E+02  0.46142315462E+02  0.99999790306E+01 0.  0.
        -12    1    1    2    0    0  0.18649042688E+02 -0.26567896322E+02 -0.31232575741E+02  0.45045684538E+02  0.00000000000E+00 0.  1.
         11    1    3    3    0    0 -0.86117209221E+01  0.11779618485E+02  0.86141787961E+01  0.16944769856E+02  0.51100000000E-03 0. -1.
        -11    1    3    3    0    0 -0.25949154023E+01  0.28076063298E+01  0.22932860100E+01  0.44581835127E+01  0.51100000000E-03 0.  1.
         12    1    3    3    0    0 -0.74424063635E+01  0.11980671507E+02  0.20325110935E+02  0.24739362093E+02  0.00000000000E+00 0. -1.
</event>
<event>
 7    1  0.3766050E-009  0.4614232E+02  0.7816164E-02  0.1320468E+00
        -11   -1    0    0    0    0  0.00000000000E+00  0.00000000000E+00  0.45593999997E+02  0.45594000000E+02  0.51100000000E-03 0. -1.
         11   -1    0    0    0    0 -0.00000000000E+00 -0.00000000000E+00 -0.45593999997E+02  0.45594000000E+02  0.51100000000E-03 0.  1.
    9900012    2    1    2    0    0  0.39295413147E+02 -0.10075573362E+02 -0.19582305816E+02  0.46142319030E+02  0.10000011572E+02 0.  0.
         12    1    1    2    0    0 -0.39295413147E+02  0.10075573362E+02  0.19582305816E+02  0.45045680970E+02  0.00000000000E+00 0. -1.
         11    1    3    3    0    0  0.78645208232E+01 -0.58681450525E+01 -0.64154314264E+01  0.11723633173E+02  0.51100000000E-03 0. -1.
        -11    1    3    3    0    0  0.18415235688E+02 -0.31560504233E+01 -0.67160045778E+01  0.19854124948E+02  0.51100000000E-03 0.  1.
         12    1    3    3    0    0  0.13015656636E+02 -0.10513778861E+01 -0.64508698121E+01  0.14564560908E+02  0.00000000000E+00 0. -1.
</event>
<event>
 7    1  0.3766050E-009  0.4614232E+02  0.7816164E-02  0.1320468E+00
        -11   -1    0    0    0    0  0.00000000000E+00  0.00000000000E+00  0.45593999997E+02  0.45594000000E+02  0.51100000000E-03 0. -1.
         11   -1    0    0    0    0 -0.00000000000E+00 -0.00000000000E+00 -0.45593999997E+02  0.45594000000E+02  0.51100000000E-03 0.  1.
    9900012    2    1    2    0    0 -0.21083106785E+02 -0.19850677541E+02  0.34504589396E+02  0.46142317855E+02  0.10000000853E+02 0.  0.
        -12    1    1    2    0    0  0.21083106785E+02  0.19850677541E+02 -0.34504589396E+02  0.45045682145E+02  0.00000000000E+00 0.  1.
         11    1    3    3    0    0 -0.67876769728E+01 -0.48519145377E+01  0.44327641863E+01  0.94479115132E+01  0.51100000000E-03 0. -1.
        -11    1    3    3    0    0 -0.13348676328E+01 -0.32291587767E+01  0.57136817789E+01  0.66974247091E+01  0.51100000000E-03 0.  1.
         12    1    3    3    0    0 -0.12960562180E+02 -0.11769604227E+02  0.24358143431E+02  0.29996981632E+02  0.00000000000E+00 0. -1.
</event>
<event>
 7    1  0.5310595E-009  0.4614232E+02  0.7816164E-02  0.1320468E+00
        -11   -1    0    0    0    0  0.00000000000E+00  0.00000000000E+00  0.45593999997E+02  0.45594000000E+02  0.51100000000E-03 0. -1.
         11   -1    0    0    0    0 -0.00000000000E+00 -0.00000000000E+00 -0.45593999997E+02  0.45594000000E+02  0.51100000000E-03 0.  1.
    9900012    2    1    2    0    0  0.16093112353E+02  0.91304826506E+01 -0.41070178857E+02  0.46142316855E+02  0.99999917417E+01 0.  0.
         12    1    1    2    0    0 -0.16093112353E+02 -0.91304826506E+01  0.41070178857E+02  0.45045683145E+02  0.00000000000E+00 0. -1.
         11    1    3    3    0    0  0.52515694326E+01  0.10711099330E+01 -0.40034925843E+01  0.66898588272E+01  0.51100000000E-03 0. -1.
        -11    1    3    3    0    0  0.42360519398E+01  0.30073649657E+01 -0.14109895709E+02  0.15035875008E+02  0.51100000000E-03 0.  1.
         12    1    3    3    0    0  0.66054909803E+01  0.50520077519E+01 -0.22956790563E+02  0.24416583020E+02  0.00000000000E+00 0. -1.
</event>
<event>
 7    1  0.3766050E-009  0.4614232E+02  0.7816164E-02  0.1320468E+00
        -11   -1    0    0    0    0  0.00000000000E+00  0.00000000000E+00  0.45593999997E+02  0.45594000000E+02  0.51100000000E-03 0. -1.
         11   -1    0    0    0    0 -0.00000000000E+00 -0.00000000000E+00 -0.45593999997E+02  0.45594000000E+02  0.51100000000E-03 0.  1.
    9900012    2    1    2    0    0  0.37931828906E+02 -0.22781263127E+02  0.84441679639E+01  0.46142316895E+02  0.99999920999E+01 0.  0.
        -12    1    1    2    0    0 -0.37931828906E+02  0.22781263127E+02 -0.84441679639E+01  0.45045683105E+02  0.00000000000E+00 0.  1.
         11    1    3    3    0    0  0.14272118772E+02 -0.80120322331E+01 -0.12484127218E+00  0.16367700522E+02  0.51100000000E-03 0. -1.
        -11    1    3    3    0    0  0.88038710873E+00 -0.68925620416E+00  0.18555703614E+01  0.21664019026E+01  0.51100000000E-03 0.  1.
        -12    1    3    3    0    0  0.22779323025E+02 -0.14079974690E+02  0.67134388747E+01  0.27608214471E+02  0.00000000000E+00 0.  1.
</event>
<event>
 7    1  0.3766050E-009  0.4614232E+02  0.7816164E-02  0.1320468E+00
        -11   -1    0    0    0    0  0.00000000000E+00  0.00000000000E+00  0.45593999997E+02  0.45594000000E+02  0.51100000000E-03 0.  1.
         11   -1    0    0    0    0 -0.00000000000E+00 -0.00000000000E+00 -0.45593999997E+02  0.45594000000E+02  0.51100000000E-03 0. -1.
    9900012    2    1    2    0    0 -0.44759193359E+02 -0.21204782633E+01  0.46077905936E+01  0.46142317051E+02  0.99999935202E+01 0.  0.
        -12    1    1    2    0    0  0.44759193359E+02  0.21204782633E+01 -0.46077905936E+01  0.45045682949E+02  0.00000000000E+00 0.  1.
         11    1    3    3    0    0 -0.12552584729E+02 -0.62669006935E+00 -0.18688613399E+01  0.12706406526E+02  0.51100000000E-03 0.  1.
        -11    1    3    3    0    0 -0.25990545821E+02  0.11289347836E+01  0.58133702380E+01  0.26656673454E+02  0.51100000000E-03 0. -1.
        -12    1    3    3    0    0 -0.62160628087E+01 -0.26227229775E+01  0.66328169541E+00  0.67792370711E+01  0.00000000000E+00 0.  1.
</event>
<event>
 7    1  0.3766050E-009  0.4614232E+02  0.7816164E-02  0.1320468E+00
        -11   -1    0    0    0    0  0.00000000000E+00  0.00000000000E+00  0.45593999997E+02  0.45594000000E+02  0.51100000000E-03 0.  1.
         11   -1    0    0    0    0 -0.00000000000E+00 -0.00000000000E+00 -0.45593999997E+02  0.45594000000E+02  0.51100000000E-03 0. -1.
    9900012    2    1    2    0    0  0.86443401089E+01 -0.39759816259E+02  0.19327334484E+02  0.46142318041E+02  0.10000002556E+02 0.  0.
        -12    1    1    2    0    0 -0.86443401089E+01  0.39759816259E+02 -0.19327334484E+02  0.45045681959E+02  0.00000000000E+00 0.  1.
         11    1    3    3    0    0 -0.12359523962E+01 -0.25494378593E+01 -0.10312131682E+00  0.28351095201E+01  0.51100000000E-03 0. -1.
        -11    1    3    3    0    0  0.63575901916E+01 -0.16348125710E+02  0.91625378958E+01  0.19789701065E+02  0.51100000000E-03 0.  1.
         12    1    3    3    0    0  0.35227023136E+01 -0.20862252689E+02  0.10267917905E+02  0.23517507457E+02  0.00000000000E+00 0. -1.
</event>
<event>
 7    1  0.3766050E-009  0.4614232E+02  0.7816164E-02  0.1320468E+00
        -11   -1    0    0    0    0  0.00000000000E+00  0.00000000000E+00  0.45593999997E+02  0.45594000000E+02  0.51100000000E-03 0. -1.
         11   -1    0    0    0    0 -0.00000000000E+00 -0.00000000000E+00 -0.45593999997E+02  0.45594000000E+02  0.51100000000E-03 0.  1.
    9900012    2    1    2    0    0 -0.47479568134E+01  0.28692010468E+02  0.34399693677E+02  0.46142317813E+02  0.10000000476E+02 0.  0.
        -12    1    1    2    0    0  0.47479568134E+01 -0.28692010468E+02 -0.34399693677E+02  0.45045682187E+02  0.00000000000E+00 0.  1.
         11    1    3    3    0    0  0.23395455298E+01  0.11101892068E+02  0.10548752054E+02  0.15491986668E+02  0.51100000000E-03 0. -1.
        -11    1    3    3    0    0 -0.63397083574E+01  0.16821905270E+02  0.23345973526E+02  0.29465282607E+02  0.51100000000E-03 0.  1.
        -12    1    3    3    0    0 -0.74779398587E+00  0.76821312962E+00  0.50496809725E+00  0.11850485379E+01  0.00000000000E+00 0.  1.
</event>
<event>
 7    1  0.3766050E-009  0.4614232E+02  0.7816164E-02  0.1320468E+00
        -11   -1    0    0    0    0  0.00000000000E+00  0.00000000000E+00  0.45593999997E+02  0.45594000000E+02  0.51100000000E-03 0.  1.
         11   -1    0    0    0    0 -0.00000000000E+00 -0.00000000000E+00 -0.45593999997E+02  0.45594000000E+02  0.51100000000E-03 0. -1.
    9900012    2    1    2    0    0  0.39978318442E+02 -0.20162607798E+02 -0.49312103945E+01  0.46142317248E+02  0.99999953170E+01 0.  0.
        -12    1    1    2    0    0 -0.39978318442E+02  0.20162607798E+02  0.49312103945E+01  0.45045682752E+02  0.00000000000E+00 0.  1.
         11    1    3    3    0    0  0.20356254873E+02 -0.11834755022E+02 -0.33870256259E+01  0.23788873066E+02  0.51100000000E-03 0. -1.
        -11    1    3    3    0    0  0.13950167635E+02 -0.33933472535E+01 -0.30716984806E+01  0.14681870264E+02  0.51100000000E-03 0.  1.
        -12    1    3    3    0    0  0.56718959343E+01 -0.49345055224E+01  0.15275137120E+01  0.76715739180E+01  0.00000000000E+00 0.  1.
</event>
<event>
 7    1  0.3766050E-009  0.4614232E+02  0.7816164E-02  0.1320468E+00
        -11   -1    0    0    0    0  0.00000000000E+00  0.00000000000E+00  0.45593999997E+02  0.45594000000E+02  0.51100000000E-03 0.  1.
         11   -1    0    0    0    0 -0.00000000000E+00 -0.00000000000E+00 -0.45593999997E+02  0.45594000000E+02  0.51100000000E-03 0. -1.
    9900012    2    1    2    0    0  0.42162460968E+02 -0.57567232647E+01 -0.14774999148E+02  0.46142316773E+02  0.99999909854E+01 0.  0.
         12    1    1    2    0    0 -0.42162460968E+02  0.57567232647E+01  0.14774999148E+02  0.45045683227E+02  0.00000000000E+00 0. -1.
         11    1    3    3    0    0  0.97537684124E+00  0.59722541786E+00  0.66541854829E+00  0.13231856588E+01  0.51100000000E-03 0. -1.
        -11    1    3    3    0    0  0.17042476501E+02 -0.43138800433E-01 -0.49378738446E+01  0.17743462588E+02  0.51100000000E-03 0.  1.
        -12    1    3    3    0    0  0.24144607625E+02 -0.63108098821E+01 -0.10502543852E+02  0.27075668526E+02  0.00000000000E+00 0.  1.
</event>
<event>
 7    1  0.3766050E-009  0.4614232E+02  0.7816164E-02  0.1320468E+00
        -11   -1    0    0    0    0  0.00000000000E+00  0.00000000000E+00  0.45593999997E+02  0.45594000000E+02  0.51100000000E-03 0. -1.
         11   -1    0    0    0    0 -0.00000000000E+00 -0.00000000000E+00 -0.45593999997E+02  0.45594000000E+02  0.51100000000E-03 0.  1.
    9900012    2    1    2    0    0  0.12480209467E+01  0.35071316813E+02  0.28241081282E+02  0.46142317729E+02  0.99999997050E+01 0.  0.
        -12    1    1    2    0    0 -0.12480209467E+01 -0.35071316813E+02 -0.28241081282E+02  0.45045682271E+02  0.00000000000E+00 0.  1.
         11    1    3    3    0    0 -0.37525815312E+01  0.11552624721E+02  0.11187865608E+02  0.16514034735E+02  0.51100000000E-03 0. -1.
        -11    1    3    3    0    0  0.29679323376E+01  0.13986241409E+02  0.11906413002E+02  0.18606080779E+02  0.51100000000E-03 0.  1.
         12    1    3    3    0    0  0.20326701404E+01  0.95324506831E+01  0.51468026715E+01  0.11022202215E+02  0.00000000000E+00 0. -1.
</event>
<event>
 7    1  0.3766050E-009  0.4614232E+02  0.7816164E-02  0.1320468E+00
        -11   -1    0    0    0    0  0.00000000000E+00  0.00000000000E+00  0.45593999997E+02  0.45594000000E+02  0.51100000000E-03 0. -1.
         11   -1    0    0    0    0 -0.00000000000E+00 -0.00000000000E+00 -0.45593999997E+02  0.45594000000E+02  0.51100000000E-03 0.  1.
    9900012    2    1    2    0    0 -0.28403886889E+02  0.34842172917E+02  0.28906182499E+01  0.46142317878E+02  0.10000001062E+02 0.  0.
         12    1    1    2    0    0  0.28403886889E+02 -0.34842172917E+02 -0.28906182499E+01  0.45045682122E+02  0.00000000000E+00 0. -1.
         11    1    3    3    0    0 -0.86988495811E+01  0.17394359027E+02  0.19543368560E+01  0.19546179750E+02  0.51100000000E-03 0. -1.
        -11    1    3    3    0    0 -0.19313096825E+02  0.16124020677E+02  0.12120583006E+01  0.25188267851E+02  0.51100000000E-03 0.  1.
        -12    1    3    3    0    0 -0.39194048299E+00  0.13237932130E+01 -0.27577690678E+00  0.14078702765E+01  0.00000000000E+00 0.  1.
</event>
<event>
 7    1  0.3766050E-009  0.4614232E+02  0.7816164E-02  0.1320468E+00
        -11   -1    0    0    0    0  0.00000000000E+00  0.00000000000E+00  0.45593999997E+02  0.45594000000E+02  0.51100000000E-03 0. -1.
         11   -1    0    0    0    0 -0.00000000000E+00 -0.00000000000E+00 -0.45593999997E+02  0.45594000000E+02  0.51100000000E-03 0.  1.
    9900012    2    1    2    0    0  0.11335219526E+02  0.15739948003E+02  0.40655630114E+02  0.46142318467E+02  0.10000006437E+02 0.  0.
        -12    1    1    2    0    0 -0.11335219526E+02 -0.15739948003E+02 -0.40655630114E+02  0.45045681533E+02  0.00000000000E+00 0.  1.
         11    1    3    3    0    0  0.70696030278E+01  0.85455472822E+01  0.27432683170E+02  0.29589825472E+02  0.51100000000E-03 0. -1.
        -11    1    3    3    0    0 -0.66641992804E+00  0.16273294107E+01  0.52242724287E+00  0.18344609608E+01  0.51100000000E-03 0.  1.
         12    1    3    3    0    0  0.49320364258E+01  0.55670713097E+01  0.12700519701E+02  0.14718032034E+02  0.00000000000E+00 0. -1.
</event>
<event>
 7    1  0.3766050E-009  0.4614232E+02  0.7816164E-02  0.1320468E+00
        -11   -1    0    0    0    0  0.00000000000E+00  0.00000000000E+00  0.45593999997E+02  0.45594000000E+02  0.51100000000E-03 0. -1.
         11   -1    0    0    0    0 -0.00000000000E+00 -0.00000000000E+00 -0.45593999997E+02  0.45594000000E+02  0.51100000000E-03 0.  1.
    9900012    2    1    2    0    0  0.17297036466E+02 -0.33285216828E+01  0.41458980321E+02  0.46142316784E+02  0.99999910917E+01 0.  0.
        -12    1    1    2    0    0 -0.17297036466E+02  0.33285216828E+01 -0.41458980321E+02  0.45045683216E+02  0.00000000000E+00 0.  1.
         11    1    3    3    0    0  0.11751511205E+02 -0.50599932303E-01  0.27571816415E+02  0.29971747307E+02  0.51100000000E-03 0. -1.
        -11    1    3    3    0    0 -0.30413329127E+00 -0.14282764436E+01  0.68595041480E+00  0.16133811983E+01  0.51100000000E-03 0.  1.
         12    1    3    3    0    0  0.58496585519E+01 -0.18496453069E+01  0.13201213491E+02  0.14557188279E+02  0.00000000000E+00 0. -1.
</event>
<event>
 7    1  0.3766050E-009  0.4614232E+02  0.7816164E-02  0.1320468E+00
        -11   -1    0    0    0    0  0.00000000000E+00  0.00000000000E+00  0.45593999997E+02  0.45594000000E+02  0.51100000000E-03 0. -1.
         11   -1    0    0    0    0 -0.00000000000E+00 -0.00000000000E+00 -0.45593999997E+02  0.45594000000E+02  0.51100000000E-03 0.  1.
    9900012    2    1    2    0    0  0.21647347890E+02 -0.14549461532E+02  0.36726270730E+02  0.46142318040E+02  0.10000002539E+02 0.  0.
        -12    1    1    2    0    0 -0.21647347890E+02  0.14549461532E+02 -0.36726270730E+02  0.45045681960E+02  0.00000000000E+00 0.  1.
         11    1    3    3    0    0  0.17389048880E+02 -0.99814616797E+01  0.31673413476E+02  0.37486180383E+02  0.51100000000E-03 0. -1.
        -11    1    3    3    0    0  0.41472855763E+01 -0.44807303362E+01  0.54813321702E+01  0.82049938829E+01  0.51100000000E-03 0.  1.
        -12    1    3    3    0    0  0.11101343383E+00 -0.87269516342E-01 -0.42847491616E+00  0.45114377392E+00  0.00000000000E+00 0.  1.
</event>
<event>
 7    1  0.3766050E-009  0.4614232E+02  0.7816164E-02  0.1320468E+00
        -11   -1    0    0    0    0  0.00000000000E+00  0.00000000000E+00  0.45593999997E+02  0.45594000000E+02  0.51100000000E-03 0. -1.
         11   -1    0    0    0    0 -0.00000000000E+00 -0.00000000000E+00 -0.45593999997E+02  0.45594000000E+02  0.51100000000E-03 0.  1.
    9900012    2    1    2    0    0  0.28629150575E+02 -0.15235169323E+02  0.31262997056E+02  0.46142316169E+02  0.99999854773E+01 0.  0.
        -12    1    1    2    0    0 -0.28629150575E+02  0.15235169323E+02 -0.31262997056E+02  0.45045683831E+02  0.00000000000E+00 0.  1.
         11    1    3    3    0    0  0.57776652783E+01 -0.42075366311E+01  0.48663397162E+01  0.86467359774E+01  0.51100000000E-03 0. -1.
        -11    1    3    3    0    0  0.22184923810E+02 -0.83451905765E+01  0.22232954611E+02  0.32497958724E+02  0.51100000000E-03 0.  1.
        -12    1    3    3    0    0  0.66656148654E+00 -0.26824421157E+01  0.41637027284E+01  0.49976214673E+01  0.00000000000E+00 0.  1.
</event>
<event>
 7    1  0.3766050E-009  0.4614232E+02  0.7816164E-02  0.1320468E+00
        -11   -1    0    0    0    0  0.00000000000E+00  0.00000000000E+00  0.45593999997E+02  0.45594000000E+02  0.51100000000E-03 0. -1.
         11   -1    0    0    0    0 -0.00000000000E+00 -0.00000000000E+00 -0.45593999997E+02  0.45594000000E+02  0.51100000000E-03 0.  1.
    9900012    2    1    2    0    0 -0.14451251102E+02 -0.15958245185E+02  0.39567780850E+02  0.46142317308E+02  0.99999958665E+01 0.  0.
        -12    1    1    2    0    0  0.14451251102E+02  0.15958245185E+02 -0.39567780850E+02  0.45045682692E+02  0.00000000000E+00 0.  1.
         11    1    3    3    0    0 -0.78471379174E+01 -0.82594817336E+01  0.20093423991E+02  0.23098534584E+02  0.51100000000E-03 0. -1.
        -11    1    3    3    0    0 -0.23811641870E+01  0.73308984568E+00  0.68290142794E+01  0.72693053243E+01  0.51100000000E-03 0.  1.
        -12    1    3    3    0    0 -0.42229489976E+01 -0.84318532969E+01  0.12645342580E+02  0.15774477399E+02  0.00000000000E+00 0.  1.
</event>
<event>
 7    1  0.3766050E-009  0.4614232E+02  0.7816164E-02  0.1320468E+00
        -11   -1    0    0    0    0  0.00000000000E+00  0.00000000000E+00  0.45593999997E+02  0.45594000000E+02  0.51100000000E-03 0. -1.
         11   -1    0    0    0    0 -0.00000000000E+00 -0.00000000000E+00 -0.45593999997E+02  0.45594000000E+02  0.51100000000E-03 0.  1.
    9900012    2    1    2    0    0 -0.10958461106E+02 -0.10015294798E+02 -0.42529043526E+02  0.46142317155E+02  0.99999944752E+01 0.  0.
         12    1    1    2    0    0  0.10958461106E+02  0.10015294798E+02  0.42529043526E+02  0.45045682845E+02  0.00000000000E+00 0. -1.
         11    1    3    3    0    0  0.69388798732E-01  0.12209125839E+00 -0.14156804768E+01  0.14226287479E+01  0.51100000000E-03 0. -1.
        -11    1    3    3    0    0 -0.96144209268E+01 -0.82906162173E+01 -0.40305791295E+02  0.42257877599E+02  0.51100000000E-03 0.  1.
        -12    1    3    3    0    0 -0.14134289782E+01 -0.18467698395E+01 -0.80757175418E+00  0.24618108081E+01  0.00000000000E+00 0.  1.
</event>
<event>
 7    1  0.3766050E-009  0.4614232E+02  0.7816164E-02  0.1320468E+00
        -11   -1    0    0    0    0  0.00000000000E+00  0.00000000000E+00  0.45593999997E+02  0.45594000000E+02  0.51100000000E-03 0. -1.
         11   -1    0    0    0    0 -0.00000000000E+00 -0.00000000000E+00 -0.45593999997E+02  0.45594000000E+02  0.51100000000E-03 0.  1.
    9900012    2    1    2    0    0 -0.35684294233E+02 -0.80619298238E+01  0.26282123125E+02  0.46142316929E+02  0.99999924094E+01 0.  0.
        -12    1    1    2    0    0  0.35684294233E+02  0.80619298238E+01 -0.26282123125E+02  0.45045683071E+02  0.00000000000E+00 0.  1.
         11    1    3    3    0    0 -0.17177414422E+02 -0.25209170057E+01  0.14464630258E+02  0.22597436083E+02  0.51100000000E-03 0. -1.
        -11    1    3    3    0    0  0.23737079081E-01 -0.24147606115E+00 -0.57976552698E+00  0.62849221509E+00  0.51100000000E-03 0.  1.
        -12    1    3    3    0    0 -0.18530616890E+02 -0.52995367570E+01  0.12397258394E+02  0.22916388631E+02  0.00000000000E+00 0.  1.
</event>
<event>
 7    1  0.3766050E-009  0.4614232E+02  0.7816164E-02  0.1320468E+00
        -11   -1    0    0    0    0  0.00000000000E+00  0.00000000000E+00  0.45593999997E+02  0.45594000000E+02  0.51100000000E-03 0. -1.
         11   -1    0    0    0    0 -0.00000000000E+00 -0.00000000000E+00 -0.45593999997E+02  0.45594000000E+02  0.51100000000E-03 0.  1.
    9900012    2    1    2    0    0 -0.20566322056E+01 -0.34919721507E+02 -0.28381271332E+02  0.46142320423E+02  0.10000024273E+02 0.  0.
         12    1    1    2    0    0  0.20566322056E+01  0.34919721507E+02  0.28381271332E+02  0.45045679577E+02  0.00000000000E+00 0. -1.
         11    1    3    3    0    0  0.10594710330E+01 -0.23324834268E+02 -0.23455857211E+02  0.33096036172E+02  0.51100000000E-03 0.  1.
        -11    1    3    3    0    0 -0.20570145621E+01 -0.52874494635E+01 -0.20305427048E+01  0.60259052992E+01  0.51100000000E-03 0. -1.
        -12    1    3    3    0    0 -0.10590886766E+01 -0.63074377756E+01 -0.28948714153E+01  0.70203789520E+01  0.00000000000E+00 0.  1.
</event>
<event>
 7    1  0.3766050E-009  0.4614232E+02  0.7816164E-02  0.1320468E+00
        -11   -1    0    0    0    0  0.00000000000E+00  0.00000000000E+00  0.45593999997E+02  0.45594000000E+02  0.51100000000E-03 0.  1.
         11   -1    0    0    0    0 -0.00000000000E+00 -0.00000000000E+00 -0.45593999997E+02  0.45594000000E+02  0.51100000000E-03 0. -1.
    9900012    2    1    2    0    0  0.13023100488E+02  0.38865582654E+02  0.18680975209E+02  0.46142317675E+02  0.99999992156E+01 0.  0.
        -12    1    1    2    0    0 -0.13023100488E+02 -0.38865582654E+02 -0.18680975209E+02  0.45045682325E+02  0.00000000000E+00 0.  1.
         11    1    3    3    0    0  0.68419452189E+01  0.22873648245E+02  0.11990523747E+02  0.26716823509E+02  0.51100000000E-03 0. -1.
        -11    1    3    3    0    0  0.34232233431E-01  0.69854626040E+00  0.22487813632E+01  0.23550279413E+01  0.51100000000E-03 0.  1.
        -12    1    3    3    0    0  0.61469230352E+01  0.15293388149E+02  0.44416700986E+01  0.17070466225E+02  0.00000000000E+00 0.  1.
</event>
<event>
 7    1  0.3766050E-009  0.4614232E+02  0.7816164E-02  0.1320468E+00
        -11   -1    0    0    0    0  0.00000000000E+00  0.00000000000E+00  0.45593999997E+02  0.45594000000E+02  0.51100000000E-03 0. -1.
         11   -1    0    0    0    0 -0.00000000000E+00 -0.00000000000E+00 -0.45593999997E+02  0.45594000000E+02  0.51100000000E-03 0.  1.
    9900012    2    1    2    0    0  0.22867613362E+02  0.19413400327E+02 -0.33605141942E+02  0.46142318541E+02  0.10000007109E+02 0.  0.
         12    1    1    2    0    0 -0.22867613362E+02 -0.19413400327E+02  0.33605141942E+02  0.45045681459E+02  0.00000000000E+00 0. -1.
         11    1    3    3    0    0  0.32211722249E+00  0.23830682666E+01 -0.42240834773E+01  0.48606229388E+01  0.51100000000E-03 0. -1.
        -11    1    3    3    0    0  0.21947742518E+02  0.17612679465E+02 -0.28233420722E+02  0.39862713474E+02  0.51100000000E-03 0.  1.
        -12    1    3    3    0    0  0.59775362174E+00 -0.58234740373E+00 -0.11476377426E+01  0.14189821279E+01  0.00000000000E+00 0.  1.
</event>
<event>
 7    1  0.3766050E-009  0.4614232E+02  0.7816164E-02  0.1320468E+00
        -11   -1    0    0    0    0  0.00000000000E+00  0.00000000000E+00  0.45593999997E+02  0.45594000000E+02  0.51100000000E-03 0. -1.
         11   -1    0    0    0    0 -0.00000000000E+00 -0.00000000000E+00 -0.45593999997E+02  0.45594000000E+02  0.51100000000E-03 0.  1.
    9900012    2    1    2    0    0 -0.18517251114E+02  0.69529981438E-01  0.41063610237E+02  0.46142317533E+02  0.99999979200E+01 0.  0.
        -12    1    1    2    0    0  0.18517251114E+02 -0.69529981438E-01 -0.41063610237E+02  0.45045682467E+02  0.00000000000E+00 0.  1.
         11    1    3    3    0    0 -0.74483108547E+01  0.15619771011E+01  0.17873714680E+02  0.19426445475E+02  0.51100000000E-03 0. -1.
        -11    1    3    3    0    0 -0.66054948141E+01  0.13760408924E+01  0.71942044756E+01  0.98631956573E+01  0.51100000000E-03 0.  1.
        -12    1    3    3    0    0 -0.44634454453E+01 -0.28684880121E+01  0.15995691081E+02  0.16852676401E+02  0.00000000000E+00 0.  1.
</event>
<event>
 7    1  0.3766050E-009  0.4614232E+02  0.7816164E-02  0.1320468E+00
        -11   -1    0    0    0    0  0.00000000000E+00  0.00000000000E+00  0.45593999997E+02  0.45594000000E+02  0.51100000000E-03 0. -1.
         11   -1    0    0    0    0 -0.00000000000E+00 -0.00000000000E+00 -0.45593999997E+02  0.45594000000E+02  0.51100000000E-03 0.  1.
    9900012    2    1    2    0    0  0.18470676640E+02 -0.13813127471E+02  0.38692959949E+02  0.46142317236E+02  0.99999952092E+01 0.  0.
        -12    1    1    2    0    0 -0.18470676640E+02  0.13813127471E+02 -0.38692959949E+02  0.45045682764E+02  0.00000000000E+00 0.  1.
         11    1    3    3    0    0  0.25406169011E+01 -0.59647608133E+01  0.82574444699E+01  0.10498499666E+02  0.51100000000E-03 0.  1.
        -11    1    3    3    0    0  0.98097665249E+01 -0.28711222287E+01  0.20920478807E+02  0.23283927845E+02  0.51100000000E-03 0. -1.
        -12    1    3    3    0    0  0.61202932145E+01 -0.49772444294E+01  0.95150366723E+01  0.12359889725E+02  0.00000000000E+00 0.  1.
</event>
<event>
 7    1  0.3766050E-009  0.4614232E+02  0.7816164E-02  0.1320468E+00
        -11   -1    0    0    0    0  0.00000000000E+00  0.00000000000E+00  0.45593999997E+02  0.45594000000E+02  0.51100000000E-03 0. -1.
         11   -1    0    0    0    0 -0.00000000000E+00 -0.00000000000E+00 -0.45593999997E+02  0.45594000000E+02  0.51100000000E-03 0.  1.
    9900012    2    1    2    0    0 -0.44913266811E+02 -0.32245441204E+01  0.12305108323E+01  0.46142318993E+02  0.10000011236E+02 0.  0.
        -12    1    1    2    0    0  0.44913266811E+02  0.32245441204E+01 -0.12305108323E+01  0.45045681007E+02  0.00000000000E+00 0.  1.
         11    1    3    3    0    0 -0.21308295205E+02 -0.52230674269E+01 -0.14858449153E+01  0.21989352270E+02  0.51100000000E-03 0. -1.
        -11    1    3    3    0    0 -0.19747168576E+02  0.53198415662E+00  0.31469097442E+01  0.20003417586E+02  0.51100000000E-03 0.  1.
        -12    1    3    3    0    0 -0.38578030308E+01  0.14665391499E+01 -0.43055399665E+00  0.41495491378E+01  0.00000000000E+00 0.  1.
</event>
<event>
 7    1  0.3766050E-009  0.4614232E+02  0.7816164E-02  0.1320468E+00
        -11   -1    0    0    0    0  0.00000000000E+00  0.00000000000E+00  0.45593999997E+02  0.45594000000E+02  0.51100000000E-03 0. -1.
         11   -1    0    0    0    0 -0.00000000000E+00 -0.00000000000E+00 -0.45593999997E+02  0.45594000000E+02  0.51100000000E-03 0.  1.
    9900012    2    1    2    0    0  0.43300941670E+02 -0.65826746705E+01  0.10526642661E+02  0.46142319175E+02  0.10000012891E+02 0.  0.
        -12    1    1    2    0    0 -0.43300941670E+02  0.65826746705E+01 -0.10526642661E+02  0.45045680825E+02  0.00000000000E+00 0.  1.
         11    1    3    3    0    0  0.23655205938E+02  0.39327757669E+00  0.74112889631E+01  0.24792148749E+02  0.51100000000E-03 0. -1.
        -11    1    3    3    0    0  0.44038226820E+01 -0.30764485024E+01  0.11655981672E+01  0.54969818038E+01  0.51100000000E-03 0.  1.
         12    1    3    3    0    0  0.15241913050E+02 -0.38995037447E+01  0.19497555309E+01  0.15853188622E+02  0.00000000000E+00 0. -1.
</event>
<event>
 7    1  0.3766050E-009  0.4614232E+02  0.7816164E-02  0.1320468E+00
        -11   -1    0    0    0    0  0.00000000000E+00  0.00000000000E+00  0.45593999997E+02  0.45594000000E+02  0.51100000000E-03 0. -1.
         11   -1    0    0    0    0 -0.00000000000E+00 -0.00000000000E+00 -0.45593999997E+02  0.45594000000E+02  0.51100000000E-03 0.  1.
    9900012    2    1    2    0    0 -0.24317474116E+02  0.70650833090E+01  0.37253974257E+02  0.46142317105E+02  0.99999940161E+01 0.  0.
        -12    1    1    2    0    0  0.24317474116E+02 -0.70650833090E+01 -0.37253974257E+02  0.45045682895E+02  0.00000000000E+00 0.  1.
         11    1    3    3    0    0 -0.10644878583E+02  0.25061382138E+01  0.13932540930E+02  0.17711856645E+02  0.51100000000E-03 0. -1.
        -11    1    3    3    0    0 -0.10455133270E+02  0.39008010487E+01  0.10963751452E+02  0.15643845649E+02  0.51100000000E-03 0.  1.
        -12    1    3    3    0    0 -0.32174622622E+01  0.65814404653E+00  0.12357681875E+02  0.12786614810E+02  0.00000000000E+00 0.  1.
</event>
<event>
 7    1  0.3766050E-009  0.4614231E+02  0.7816164E-02  0.1320468E+00
        -11   -1    0    0    0    0  0.00000000000E+00  0.00000000000E+00  0.45593999997E+02  0.45594000000E+02  0.51100000000E-03 0. -1.
         11   -1    0    0    0    0 -0.00000000000E+00 -0.00000000000E+00 -0.45593999997E+02  0.45594000000E+02  0.51100000000E-03 0.  1.
    9900012    2    1    2    0    0  0.29685718245E+01  0.23742745536E+02 -0.38165214224E+02  0.46142312515E+02  0.99999521627E+01 0.  0.
         12    1    1    2    0    0 -0.29685718245E+01 -0.23742745536E+02  0.38165214224E+02  0.45045687485E+02  0.00000000000E+00 0. -1.
         11    1    3    3    0    0  0.14359796024E+00  0.25209617968E+01 -0.13733754848E+01  0.28743745821E+01  0.51100000000E-03 0. -1.
        -11    1    3    3    0    0  0.53469174310E+01  0.11064443453E+02 -0.19068675204E+02  0.22685365531E+02  0.51100000000E-03 0.  1.
        -12    1    3    3    0    0 -0.25219435667E+01  0.10157340286E+02 -0.17723163534E+02  0.20582572402E+02  0.00000000000E+00 0.  1.
</event>
<event>
 7    1  0.3766050E-009  0.4614232E+02  0.7816164E-02  0.1320468E+00
        -11   -1    0    0    0    0  0.00000000000E+00  0.00000000000E+00  0.45593999997E+02  0.45594000000E+02  0.51100000000E-03 0. -1.
         11   -1    0    0    0    0 -0.00000000000E+00 -0.00000000000E+00 -0.45593999997E+02  0.45594000000E+02  0.51100000000E-03 0.  1.
    9900012    2    1    2    0    0 -0.25045760960E+02  0.27399012511E+02 -0.25517003470E+02  0.46142317690E+02  0.99999993559E+01 0.  0.
         12    1    1    2    0    0  0.25045760960E+02 -0.27399012511E+02  0.25517003470E+02  0.45045682310E+02  0.00000000000E+00 0. -1.
         11    1    3    3    0    0 -0.15735661131E+01  0.11778826798E+01 -0.48530770909E+00  0.20246090372E+01  0.51100000000E-03 0. -1.
        -11    1    3    3    0    0 -0.10086708340E+02  0.16366268299E+02 -0.16972926434E+02  0.25645207255E+02  0.51100000000E-03 0.  1.
        -12    1    3    3    0    0 -0.13385486506E+02  0.98548615324E+01 -0.80587693273E+01  0.18472501398E+02  0.00000000000E+00 0.  1.
</event>
<event>
 7    1  0.3766050E-009  0.4614232E+02  0.7816164E-02  0.1320468E+00
        -11   -1    0    0    0    0  0.00000000000E+00  0.00000000000E+00  0.45593999997E+02  0.45594000000E+02  0.51100000000E-03 0. -1.
         11   -1    0    0    0    0 -0.00000000000E+00 -0.00000000000E+00 -0.45593999997E+02  0.45594000000E+02  0.51100000000E-03 0.  1.
    9900012    2    1    2    0    0 -0.75225648817E+01 -0.52529134418E+00  0.44410005866E+02  0.46142317250E+02  0.99999953411E+01 0.  0.
        -12    1    1    2    0    0  0.75225648817E+01  0.52529134418E+00 -0.44410005866E+02  0.45045682750E+02  0.00000000000E+00 0.  1.
         11    1    3    3    0    0 -0.33912106600E+01  0.43420371660E+00  0.18883381396E+02  0.19190386547E+02  0.51100000000E-03 0. -1.
        -11    1    3    3    0    0  0.53257770492E-01  0.27163174472E+01  0.50873882293E+01  0.57673855534E+01  0.51100000000E-03 0.  1.
        -12    1    3    3    0    0 -0.41846119921E+01 -0.36758125080E+01  0.20439236241E+02  0.21184545150E+02  0.00000000000E+00 0.  1.
</event>
<event>
 7    1  0.3766050E-009  0.4614232E+02  0.7816164E-02  0.1320468E+00
        -11   -1    0    0    0    0  0.00000000000E+00  0.00000000000E+00  0.45593999997E+02  0.45594000000E+02  0.51100000000E-03 0. -1.
         11   -1    0    0    0    0 -0.00000000000E+00 -0.00000000000E+00 -0.45593999997E+02  0.45594000000E+02  0.51100000000E-03 0.  1.
    9900012    2    1    2    0    0  0.21739803052E+02 -0.38613794506E+02 -0.80913159924E+01  0.46142316995E+02  0.99999930164E+01 0.  0.
         12    1    1    2    0    0 -0.21739803052E+02  0.38613794506E+02  0.80913159924E+01  0.45045683005E+02  0.00000000000E+00 0. -1.
         11    1    3    3    0    0  0.40729171360E+00 -0.31993960940E+01  0.25112864850E-01  0.32253143759E+01  0.51100000000E-03 0. -1.
        -11    1    3    3    0    0  0.12798180433E+02 -0.24690131308E+02 -0.19214179419E+01  0.27876295550E+02  0.51100000000E-03 0.  1.
        -12    1    3    3    0    0  0.85343309050E+01 -0.10724267103E+02 -0.61950109153E+01  0.15040707069E+02  0.00000000000E+00 0.  1.
</event>
<event>
 7    1  0.3766050E-009  0.4614232E+02  0.7816164E-02  0.1320468E+00
        -11   -1    0    0    0    0  0.00000000000E+00  0.00000000000E+00  0.45593999997E+02  0.45594000000E+02  0.51100000000E-03 0.  1.
         11   -1    0    0    0    0 -0.00000000000E+00 -0.00000000000E+00 -0.45593999997E+02  0.45594000000E+02  0.51100000000E-03 0. -1.
    9900012    2    1    2    0    0 -0.84828503757E+01  0.39610383276E+02 -0.19702086990E+02  0.46142318236E+02  0.10000004333E+02 0.  0.
         12    1    1    2    0    0  0.84828503757E+01 -0.39610383276E+02  0.19702086990E+02  0.45045681764E+02  0.00000000000E+00 0. -1.
         11    1    3    3    0    0 -0.11687427126E+01  0.11777320169E+02 -0.10513192564E+02  0.15830301578E+02  0.51100000000E-03 0. -1.
        -11    1    3    3    0    0 -0.58953826180E+01  0.23167280639E+02 -0.66465537219E+01  0.24812398212E+02  0.51100000000E-03 0.  1.
        -12    1    3    3    0    0 -0.14187250451E+01  0.46657824689E+01 -0.25423407042E+01  0.54996184465E+01  0.00000000000E+00 0.  1.
</event>
<event>
 7    1  0.3766050E-009  0.4614232E+02  0.7816164E-02  0.1320468E+00
        -11   -1    0    0    0    0  0.00000000000E+00  0.00000000000E+00  0.45593999997E+02  0.45594000000E+02  0.51100000000E-03 0. -1.
         11   -1    0    0    0    0 -0.00000000000E+00 -0.00000000000E+00 -0.45593999997E+02  0.45594000000E+02  0.51100000000E-03 0.  1.
    9900012    2    1    2    0    0  0.33583679913E+01  0.34523998047E+02  0.28738971571E+02  0.46142316925E+02  0.99999923770E+01 0.  0.
        -12    1    1    2    0    0 -0.33583679913E+01 -0.34523998047E+02 -0.28738971571E+02  0.45045683075E+02  0.00000000000E+00 0.  1.
         11    1    3    3    0    0  0.17851096713E-01  0.25281987089E+01  0.21414197103E+01  0.33132742130E+01  0.51100000000E-03 0. -1.
        -11    1    3    3    0    0  0.23963541503E+01  0.10653740780E+02  0.37401163557E+01  0.11542667648E+02  0.51100000000E-03 0.  1.
        -12    1    3    3    0    0  0.94416274433E+00  0.21342058559E+02  0.22857435505E+02  0.31286375064E+02  0.00000000000E+00 0.  1.
</event>
<event>
 7    1  0.3777329E-009  0.4614232E+02  0.7816164E-02  0.1320468E+00
        -11   -1    0    0    0    0  0.00000000000E+00  0.00000000000E+00  0.45593999997E+02  0.45594000000E+02  0.51100000000E-03 0. -1.
         11   -1    0    0    0    0 -0.00000000000E+00 -0.00000000000E+00 -0.45593999997E+02  0.45594000000E+02  0.51100000000E-03 0.  1.
    9900012    2    1    2    0    0 -0.95792665764E+01 -0.14024404502E+02  0.41721303728E+02  0.46142318137E+02  0.10000003428E+02 0.  0.
        -12    1    1    2    0    0  0.95792665764E+01  0.14024404502E+02 -0.41721303728E+02  0.45045681863E+02  0.00000000000E+00 0.  1.
         11    1    3    3    0    0 -0.50265314075E+01 -0.33137303126E+01  0.64943242815E+01  0.88556803641E+01  0.51100000000E-03 0. -1.
        -11    1    3    3    0    0 -0.34743907662E+00 -0.39893032174E+01  0.15902323463E+02  0.16398754399E+02  0.51100000000E-03 0.  1.
         12    1    3    3    0    0 -0.42052960923E+01 -0.67213709718E+01  0.19324655983E+02  0.20887883374E+02  0.00000000000E+00 0. -1.
</event>
<event>
 7    1  0.3766050E-009  0.4614231E+02  0.7816164E-02  0.1320468E+00
        -11   -1    0    0    0    0  0.00000000000E+00  0.00000000000E+00  0.45593999997E+02  0.45594000000E+02  0.51100000000E-03 0. -1.
         11   -1    0    0    0    0 -0.00000000000E+00 -0.00000000000E+00 -0.45593999997E+02  0.45594000000E+02  0.51100000000E-03 0.  1.
    9900012    2    1    2    0    0 -0.28196767823E+02 -0.10894821849E+02  0.33396991023E+02  0.46142313545E+02  0.99999615549E+01 0.  0.
        -12    1    1    2    0    0  0.28196767823E+02  0.10894821849E+02 -0.33396991023E+02  0.45045686455E+02  0.00000000000E+00 0.  1.
         11    1    3    3    0    0 -0.22487832907E+02 -0.11894028983E+02  0.28318128240E+02  0.38066874597E+02  0.51100000000E-03 0. -1.
        -11    1    3    3    0    0 -0.52934543712E+01  0.14817436703E+01  0.50055017835E+01  0.74344651355E+01  0.51100000000E-03 0.  1.
        -12    1    3    3    0    0 -0.41548054572E+00 -0.48253653638E+00  0.73360999505E-01  0.64097381309E+00  0.00000000000E+00 0.  1.
</event>
<event>
 7    1  0.3766050E-009  0.4614232E+02  0.7816164E-02  0.1320468E+00
        -11   -1    0    0    0    0  0.00000000000E+00  0.00000000000E+00  0.45593999997E+02  0.45594000000E+02  0.51100000000E-03 0. -1.
         11   -1    0    0    0    0 -0.00000000000E+00 -0.00000000000E+00 -0.45593999997E+02  0.45594000000E+02  0.51100000000E-03 0.  1.
    9900012    2    1    2    0    0 -0.15132706324E+02 -0.37648991696E+02 -0.19561902627E+02  0.46142318622E+02  0.10000007854E+02 0.  0.
         12    1    1    2    0    0  0.15132706324E+02  0.37648991696E+02  0.19561902627E+02  0.45045681378E+02  0.00000000000E+00 0. -1.
         11    1    3    3    0    0 -0.21444773832E+01 -0.24569604828E+01 -0.26958003514E+01  0.42311674342E+01  0.51100000000E-03 0.  1.
        -11    1    3    3    0    0 -0.88567407084E+00 -0.22108869599E+01 -0.36861543059E+01  0.43886414227E+01  0.51100000000E-03 0. -1.
         12    1    3    3    0    0 -0.12102554870E+02 -0.32981144253E+02 -0.13179947970E+02  0.37522509765E+02  0.00000000000E+00 0. -1.
</event>
<event>
 7    1  0.3766050E-009  0.4614232E+02  0.7816164E-02  0.1320468E+00
        -11   -1    0    0    0    0  0.00000000000E+00  0.00000000000E+00  0.45593999997E+02  0.45594000000E+02  0.51100000000E-03 0. -1.
         11   -1    0    0    0    0 -0.00000000000E+00 -0.00000000000E+00 -0.45593999997E+02  0.45594000000E+02  0.51100000000E-03 0.  1.
    9900012    2    1    2    0    0  0.29891330769E+02 -0.26879710302E+02  0.20324938080E+02  0.46142316644E+02  0.99999898110E+01 0.  0.
        -12    1    1    2    0    0 -0.29891330769E+02  0.26879710302E+02 -0.20324938080E+02  0.45045683356E+02  0.00000000000E+00 0.  1.
         11    1    3    3    0    0  0.91298618913E+00 -0.29238000107E+01 -0.10038372195E+00  0.30646741159E+01  0.51100000000E-03 0.  1.
        -11    1    3    3    0    0  0.10143964113E+02 -0.73472095007E+01  0.93607446832E+01  0.15636656825E+02  0.51100000000E-03 0. -1.
         12    1    3    3    0    0  0.18834380467E+02 -0.16608700791E+02  0.11064577119E+02  0.27440985703E+02  0.00000000000E+00 0. -1.
</event>
<event>
 7    1  0.3766050E-009  0.4614232E+02  0.7816164E-02  0.1320468E+00
        -11   -1    0    0    0    0  0.00000000000E+00  0.00000000000E+00  0.45593999997E+02  0.45594000000E+02  0.51100000000E-03 0. -1.
         11   -1    0    0    0    0 -0.00000000000E+00 -0.00000000000E+00 -0.45593999997E+02  0.45594000000E+02  0.51100000000E-03 0.  1.
    9900012    2    1    2    0    0  0.23025737785E+02 -0.80972668188E+01  0.37859782566E+02  0.46142318005E+02  0.10000002222E+02 0.  0.
        -12    1    1    2    0    0 -0.23025737785E+02  0.80972668188E+01 -0.37859782566E+02  0.45045681995E+02  0.00000000000E+00 0.  1.
         11    1    3    3    0    0  0.19220502547E+02 -0.41551055799E+01  0.29715012020E+02  0.35632493039E+02  0.51100000000E-03 0. -1.
        -11    1    3    3    0    0  0.89028824087E+00 -0.18567023458E+01  0.58048653903E+00  0.21393741224E+01  0.51100000000E-03 0.  1.
         12    1    3    3    0    0  0.29149469971E+01 -0.20854588932E+01  0.75642840066E+01  0.83704508435E+01  0.00000000000E+00 0. -1.
</event>
<event>
 7    1  0.3766050E-009  0.4614232E+02  0.7816164E-02  0.1320468E+00
        -11   -1    0    0    0    0  0.00000000000E+00  0.00000000000E+00  0.45593999997E+02  0.45594000000E+02  0.51100000000E-03 0. -1.
         11   -1    0    0    0    0 -0.00000000000E+00 -0.00000000000E+00 -0.45593999997E+02  0.45594000000E+02  0.51100000000E-03 0.  1.
    9900012    2    1    2    0    0  0.28849977673E+02  0.16001894936E+02  0.30671351933E+02  0.46142315604E+02  0.99999803315E+01 0.  0.
        -12    1    1    2    0    0 -0.28849977673E+02 -0.16001894936E+02 -0.30671351933E+02  0.45045684396E+02  0.00000000000E+00 0.  1.
         11    1    3    3    0    0  0.14209455306E+02  0.84911238439E+01  0.14025089271E+02  0.21695873652E+02  0.51100000000E-03 0. -1.
        -11    1    3    3    0    0  0.93537623885E+01  0.36549151471E+01  0.53167883901E+01  0.11363076810E+02  0.51100000000E-03 0.  1.
         12    1    3    3    0    0  0.52867599789E+01  0.38558559452E+01  0.11329474272E+02  0.13083365142E+02  0.00000000000E+00 0. -1.
</event>
<event>
 7    1  0.3766050E-009  0.4614232E+02  0.7816164E-02  0.1320468E+00
        -11   -1    0    0    0    0  0.00000000000E+00  0.00000000000E+00  0.45593999997E+02  0.45594000000E+02  0.51100000000E-03 0. -1.
         11   -1    0    0    0    0 -0.00000000000E+00 -0.00000000000E+00 -0.45593999997E+02  0.45594000000E+02  0.51100000000E-03 0.  1.
    9900012    2    1    2    0    0  0.31854278961E+02 -0.19218856451E+02  0.25397911656E+02  0.46142318211E+02  0.10000004098E+02 0.  0.
        -12    1    1    2    0    0 -0.31854278961E+02  0.19218856451E+02 -0.25397911656E+02  0.45045681789E+02  0.00000000000E+00 0.  1.
         11    1    3    3    0    0  0.25890733501E+02 -0.14654581912E+02  0.18556386686E+02  0.35063176401E+02  0.51100000000E-03 0. -1.
        -11    1    3    3    0    0  0.26940194430E+00 -0.27082768010E+01  0.19875893402E+01  0.33701412856E+01  0.51100000000E-03 0.  1.
         12    1    3    3    0    0  0.56941435160E+01 -0.18559977378E+01  0.48539356290E+01  0.77090005237E+01  0.00000000000E+00 0. -1.
</event>
<event>
 7    1  0.3766050E-009  0.4614232E+02  0.7816164E-02  0.1320468E+00
        -11   -1    0    0    0    0  0.00000000000E+00  0.00000000000E+00  0.45593999997E+02  0.45594000000E+02  0.51100000000E-03 0. -1.
         11   -1    0    0    0    0 -0.00000000000E+00 -0.00000000000E+00 -0.45593999997E+02  0.45594000000E+02  0.51100000000E-03 0.  1.
    9900012    2    1    2    0    0  0.25085902874E+02  0.22203460968E+02  0.30113408054E+02  0.46142317115E+02  0.99999941047E+01 0.  0.
        -12    1    1    2    0    0 -0.25085902874E+02 -0.22203460968E+02 -0.30113408054E+02  0.45045682885E+02  0.00000000000E+00 0.  1.
         11    1    3    3    0    0  0.99747017141E+01  0.55523875112E+01  0.85839302176E+01  0.14283120793E+02  0.51100000000E-03 0. -1.
        -11    1    3    3    0    0  0.52402989366E-01 -0.94757682858E-01 -0.40653082564E+00  0.42070496202E+00  0.51100000000E-03 0.  1.
        -12    1    3    3    0    0  0.15058798171E+02  0.16745831140E+02  0.21936008662E+02  0.31438491359E+02  0.00000000000E+00 0.  1.
</event>
<event>
 7    1  0.3766050E-009  0.4614232E+02  0.7816164E-02  0.1320468E+00
        -11   -1    0    0    0    0  0.00000000000E+00  0.00000000000E+00  0.45593999997E+02  0.45594000000E+02  0.51100000000E-03 0. -1.
         11   -1    0    0    0    0 -0.00000000000E+00 -0.00000000000E+00 -0.45593999997E+02  0.45594000000E+02  0.51100000000E-03 0.  1.
    9900012    2    1    2    0    0  0.25968165769E+02  0.85220180746E+01  0.35807025965E+02  0.46142317255E+02  0.99999953846E+01 0.  0.
        -12    1    1    2    0    0 -0.25968165769E+02 -0.85220180746E+01 -0.35807025965E+02  0.45045682745E+02  0.00000000000E+00 0.  1.
         11    1    3    3    0    0  0.88712938859E+01  0.31693626280E+01  0.11812796224E+02  0.15109165085E+02  0.51100000000E-03 0. -1.
        -11    1    3    3    0    0  0.71049527870E+01  0.64864750856E+01  0.11410815930E+02  0.14925194591E+02  0.51100000000E-03 0.  1.
        -12    1    3    3    0    0  0.99919190966E+01 -0.11338196390E+01  0.12583413812E+02  0.16107957579E+02  0.00000000000E+00 0.  1.
</event>
<event>
 7    1  0.3766050E-009  0.4614232E+02  0.7816164E-02  0.1320468E+00
        -11   -1    0    0    0    0  0.00000000000E+00  0.00000000000E+00  0.45593999997E+02  0.45594000000E+02  0.51100000000E-03 0. -1.
         11   -1    0    0    0    0 -0.00000000000E+00 -0.00000000000E+00 -0.45593999997E+02  0.45594000000E+02  0.51100000000E-03 0.  1.
    9900012    2    1    2    0    0 -0.12624454780E+02 -0.20178570889E+02  0.38243457545E+02  0.46142316227E+02  0.99999860119E+01 0.  0.
        -12    1    1    2    0    0  0.12624454780E+02  0.20178570889E+02 -0.38243457545E+02  0.45045683773E+02  0.00000000000E+00 0.  1.
         11    1    3    3    0    0 -0.11030281279E+01 -0.76288243268E+01  0.86059442037E+01  0.11553263935E+02  0.51100000000E-03 0. -1.
        -11    1    3    3    0    0 -0.42135951314E+01 -0.45672004867E+01  0.16098210995E+02  0.17255900490E+02  0.51100000000E-03 0.  1.
         12    1    3    3    0    0 -0.73078315205E+01 -0.79825460752E+01  0.13539302346E+02  0.17333151802E+02  0.00000000000E+00 0. -1.
</event>
<event>
 7    1  0.3766050E-009  0.4614232E+02  0.7816164E-02  0.1320468E+00
        -11   -1    0    0    0    0  0.00000000000E+00  0.00000000000E+00  0.45593999997E+02  0.45594000000E+02  0.51100000000E-03 0. -1.
         11   -1    0    0    0    0 -0.00000000000E+00 -0.00000000000E+00 -0.45593999997E+02  0.45594000000E+02  0.51100000000E-03 0.  1.
    9900012    2    1    2    0    0  0.16197143632E+01  0.41944269652E+02  0.16345282899E+02  0.46142317584E+02  0.99999983823E+01 0.  0.
        -12    1    1    2    0    0 -0.16197143632E+01 -0.41944269652E+02 -0.16345282899E+02  0.45045682416E+02  0.00000000000E+00 0.  1.
         11    1    3    3    0    0 -0.25094478157E+01  0.12095895774E+02  0.18219904422E+01  0.12487100238E+02  0.51100000000E-03 0. -1.
        -11    1    3    3    0    0  0.13414310028E+01  0.13292344251E+02  0.84165572390E+01  0.15790005979E+02  0.51100000000E-03 0.  1.
         12    1    3    3    0    0  0.27877311761E+01  0.16556029628E+02  0.61067352179E+01  0.17865211366E+02  0.00000000000E+00 0. -1.
</event>
<event>
 7    1  0.3766050E-009  0.4614232E+02  0.7816164E-02  0.1320468E+00
        -11   -1    0    0    0    0  0.00000000000E+00  0.00000000000E+00  0.45593999997E+02  0.45594000000E+02  0.51100000000E-03 0. -1.
         11   -1    0    0    0    0 -0.00000000000E+00 -0.00000000000E+00 -0.45593999997E+02  0.45594000000E+02  0.51100000000E-03 0.  1.
    9900012    2    1    2    0    0  0.24035453826E+02 -0.88753721410E+01 -0.37049133000E+02  0.46142317328E+02  0.99999960539E+01 0.  0.
         12    1    1    2    0    0 -0.24035453826E+02  0.88753721410E+01  0.37049133000E+02  0.45045682672E+02  0.00000000000E+00 0. -1.
         11    1    3    3    0    0  0.63919967062E+01  0.14011545431E+01 -0.11664610069E+02  0.13374751746E+02  0.51100000000E-03 0. -1.
        -11    1    3    3    0    0  0.31287610795E+01 -0.16890068799E+01 -0.25282379728E+01  0.43627832448E+01  0.51100000000E-03 0.  1.
         12    1    3    3    0    0  0.14514696040E+02 -0.85875198041E+01 -0.22856284959E+02  0.28404782338E+02  0.00000000000E+00 0. -1.
</event>
<event>
 7    1  0.3766050E-009  0.4614232E+02  0.7816164E-02  0.1320468E+00
        -11   -1    0    0    0    0  0.00000000000E+00  0.00000000000E+00  0.45593999997E+02  0.45594000000E+02  0.51100000000E-03 0. -1.
         11   -1    0    0    0    0 -0.00000000000E+00 -0.00000000000E+00 -0.45593999997E+02  0.45594000000E+02  0.51100000000E-03 0.  1.
    9900012    2    1    2    0    0  0.23558895169E+02  0.23886382942E+02  0.30058820615E+02  0.46142317316E+02  0.99999959430E+01 0.  0.
        -12    1    1    2    0    0 -0.23558895169E+02 -0.23886382942E+02 -0.30058820615E+02  0.45045682684E+02  0.00000000000E+00 0.  1.
         11    1    3    3    0    0  0.77849488235E+01  0.12760459309E+02  0.14996875923E+02  0.21174065214E+02  0.51100000000E-03 0. -1.
        -11    1    3    3    0    0  0.10519710445E+02  0.94144379445E+01  0.88861454276E+01  0.16681112987E+02  0.51100000000E-03 0.  1.
         12    1    3    3    0    0  0.52542359003E+01  0.17114856887E+01  0.61757992649E+01  0.82871391155E+01  0.00000000000E+00 0. -1.
</event>
<event>
 7    1  0.3766050E-009  0.4614232E+02  0.7816164E-02  0.1320468E+00
        -11   -1    0    0    0    0  0.00000000000E+00  0.00000000000E+00  0.45593999997E+02  0.45594000000E+02  0.51100000000E-03 0.  1.
         11   -1    0    0    0    0 -0.00000000000E+00 -0.00000000000E+00 -0.45593999997E+02  0.45594000000E+02  0.51100000000E-03 0. -1.
    9900012    2    1    2    0    0  0.42650304485E+02 -0.13810742766E+02  0.43963505457E+01  0.46142323332E+02  0.10000050795E+02 0.  0.
        -12    1    1    2    0    0 -0.42650304485E+02  0.13810742766E+02 -0.43963505457E+01  0.45045676668E+02  0.00000000000E+00 0.  1.
         11    1    3    3    0    0  0.46527808910E+01 -0.41035643667E+01  0.86044606671E+00  0.62632242676E+01  0.51100000000E-03 0. -1.
        -11    1    3    3    0    0  0.27643188667E+02 -0.51152632646E+01  0.46618861299E+01  0.28496402939E+02  0.51100000000E-03 0.  1.
        -12    1    3    3    0    0  0.10354334927E+02 -0.45919151345E+01 -0.11259816510E+01  0.11382696125E+02  0.00000000000E+00 0.  1.
</event>
<event>
 7    1  0.3766050E-009  0.4614232E+02  0.7816164E-02  0.1320468E+00
        -11   -1    0    0    0    0  0.00000000000E+00  0.00000000000E+00  0.45593999997E+02  0.45594000000E+02  0.51100000000E-03 0. -1.
         11   -1    0    0    0    0 -0.00000000000E+00 -0.00000000000E+00 -0.45593999997E+02  0.45594000000E+02  0.51100000000E-03 0.  1.
    9900012    2    1    2    0    0  0.35190736808E+01  0.18325239414E+02 -0.40998965875E+02  0.46142317832E+02  0.10000000645E+02 0.  0.
         12    1    1    2    0    0 -0.35190736808E+01 -0.18325239414E+02  0.40998965875E+02  0.45045682168E+02  0.00000000000E+00 0. -1.
         11    1    3    3    0    0 -0.93804818171E-01  0.39929292285E+01 -0.47461785052E+01  0.62031035645E+01  0.51100000000E-03 0. -1.
        -11    1    3    3    0    0  0.56383767059E+01  0.71882780968E+01 -0.16909971744E+02  0.19220035861E+02  0.51100000000E-03 0.  1.
        -12    1    3    3    0    0 -0.20254982069E+01  0.71440320887E+01 -0.19342815626E+02  0.20719178406E+02  0.00000000000E+00 0.  1.
</event>
<event>
 7    1  0.3766050E-009  0.4614232E+02  0.7816164E-02  0.1320468E+00
        -11   -1    0    0    0    0  0.00000000000E+00  0.00000000000E+00  0.45593999997E+02  0.45594000000E+02  0.51100000000E-03 0. -1.
         11   -1    0    0    0    0 -0.00000000000E+00 -0.00000000000E+00 -0.45593999997E+02  0.45594000000E+02  0.51100000000E-03 0.  1.
    9900012    2    1    2    0    0 -0.11860427780E+01 -0.17042842998E+02  0.41680312771E+02  0.46142315772E+02  0.99999818592E+01 0.  0.
        -12    1    1    2    0    0  0.11860427780E+01  0.17042842998E+02 -0.41680312771E+02  0.45045684228E+02  0.00000000000E+00 0.  1.
         11    1    3    3    0    0 -0.39057992702E+01 -0.59204143801E+01  0.13241098570E+02  0.15021094033E+02  0.51100000000E-03 0. -1.
        -11    1    3    3    0    0 -0.43852379661E+00 -0.13059263009E+01  0.91074895812E+01  0.92110864374E+01  0.51100000000E-03 0.  1.
         12    1    3    3    0    0  0.31582802887E+01 -0.98165023173E+01  0.19331724620E+02  0.21910135301E+02  0.00000000000E+00 0. -1.
</event>
<event>
 7    1  0.3766050E-009  0.4614232E+02  0.7816164E-02  0.1320468E+00
        -11   -1    0    0    0    0  0.00000000000E+00  0.00000000000E+00  0.45593999997E+02  0.45594000000E+02  0.51100000000E-03 0.  1.
         11   -1    0    0    0    0 -0.00000000000E+00 -0.00000000000E+00 -0.45593999997E+02  0.45594000000E+02  0.51100000000E-03 0. -1.
    9900012    2    1    2    0    0  0.34527492391E+02 -0.24383999650E+02  0.15568763380E+02  0.46142316934E+02  0.99999924553E+01 0.  0.
        -12    1    1    2    0    0 -0.34527492391E+02  0.24383999650E+02 -0.15568763380E+02  0.45045683066E+02  0.00000000000E+00 0.  1.
         11    1    3    3    0    0  0.21547226356E+02 -0.13040725811E+02  0.83238284863E+01  0.26526017686E+02  0.51100000000E-03 0. -1.
        -11    1    3    3    0    0  0.31403025291E+01 -0.77958147279E+00 -0.43377656284E+00  0.32645688252E+01  0.51100000000E-03 0.  1.
        -12    1    3    3    0    0  0.98399635056E+01 -0.10563692366E+02  0.76787114565E+01  0.16351730423E+02  0.00000000000E+00 0.  1.
</event>
<event>
 7    1  0.3766050E-009  0.4614231E+02  0.7816164E-02  0.1320468E+00
        -11   -1    0    0    0    0  0.00000000000E+00  0.00000000000E+00  0.45593999997E+02  0.45594000000E+02  0.51100000000E-03 0. -1.
         11   -1    0    0    0    0 -0.00000000000E+00 -0.00000000000E+00 -0.45593999997E+02  0.45594000000E+02  0.51100000000E-03 0.  1.
    9900012    2    1    2    0    0 -0.24100559181E+02 -0.20504145373E+02 -0.32060208041E+02  0.46142313526E+02  0.99999613802E+01 0.  0.
         12    1    1    2    0    0  0.24100559181E+02  0.20504145373E+02  0.32060208041E+02  0.45045686474E+02  0.00000000000E+00 0. -1.
         11    1    3    3    0    0 -0.67225822636E+01 -0.37762927729E+01 -0.56603082172E+01  0.95651758360E+01  0.51100000000E-03 0.  1.
        -11    1    3    3    0    0 -0.18794836580E+01 -0.12171496491E+00 -0.18857447482E+00  0.18928375384E+01  0.51100000000E-03 0. -1.
        -12    1    3    3    0    0 -0.15498493259E+02 -0.16606137635E+02 -0.26211325349E+02  0.34684300152E+02  0.00000000000E+00 0.  1.
</event>
<event>
 7    1  0.3766050E-009  0.4614232E+02  0.7816164E-02  0.1320468E+00
        -11   -1    0    0    0    0  0.00000000000E+00  0.00000000000E+00  0.45593999997E+02  0.45594000000E+02  0.51100000000E-03 0. -1.
         11   -1    0    0    0    0 -0.00000000000E+00 -0.00000000000E+00 -0.45593999997E+02  0.45594000000E+02  0.51100000000E-03 0.  1.
    9900012    2    1    2    0    0  0.25349697860E+02  0.73015864959E+01  0.36512912691E+02  0.46142321627E+02  0.10000035248E+02 0.  0.
        -12    1    1    2    0    0 -0.25349697860E+02 -0.73015864959E+01 -0.36512912691E+02  0.45045678373E+02  0.00000000000E+00 0.  1.
         11    1    3    3    0    0  0.20837101983E+02  0.76554956427E+01  0.26901183504E+02  0.34877859837E+02  0.51100000000E-03 0. -1.
        -11    1    3    3    0    0  0.18114474254E+01 -0.10956855434E+01  0.12787427722E+01  0.24732674589E+01  0.51100000000E-03 0.  1.
         12    1    3    3    0    0  0.27011484509E+01  0.74177639652E+00  0.83329864148E+01  0.87911943310E+01  0.00000000000E+00 0. -1.
</event>
<event>
 7    1  0.3771336E-009  0.4614232E+02  0.7816164E-02  0.1320468E+00
        -11   -1    0    0    0    0  0.00000000000E+00  0.00000000000E+00  0.45593999997E+02  0.45594000000E+02  0.51100000000E-03 0. -1.
         11   -1    0    0    0    0 -0.00000000000E+00 -0.00000000000E+00 -0.45593999997E+02  0.45594000000E+02  0.51100000000E-03 0.  1.
    9900012    2    1    2    0    0  0.35393974185E+02  0.15599260472E+01 -0.27819895590E+02  0.46142319092E+02  0.10000012132E+02 0.  0.
         12    1    1    2    0    0 -0.35393974185E+02 -0.15599260472E+01  0.27819895590E+02  0.45045680908E+02  0.00000000000E+00 0. -1.
         11    1    3    3    0    0  0.79166925654E+01  0.12925990701E+01 -0.10163410478E+02  0.12947576852E+02  0.51100000000E-03 0. -1.
        -11    1    3    3    0    0  0.12302539075E+02  0.54585054971E+00 -0.11390658793E+02  0.16774907705E+02  0.51100000000E-03 0.  1.
         12    1    3    3    0    0  0.15174742545E+02 -0.27852357260E+00 -0.62658263180E+01  0.16419834534E+02  0.00000000000E+00 0. -1.
</event>
<event>
 7    1  0.3766050E-009  0.4614232E+02  0.7816164E-02  0.1320468E+00
        -11   -1    0    0    0    0  0.00000000000E+00  0.00000000000E+00  0.45593999997E+02  0.45594000000E+02  0.51100000000E-03 0.  1.
         11   -1    0    0    0    0 -0.00000000000E+00 -0.00000000000E+00 -0.45593999997E+02  0.45594000000E+02  0.51100000000E-03 0. -1.
    9900012    2    1    2    0    0 -0.16063025380E+02  0.36174887083E+02  0.21505123028E+02  0.46142317008E+02  0.99999931302E+01 0.  0.
        -12    1    1    2    0    0  0.16063025380E+02 -0.36174887083E+02 -0.21505123028E+02  0.45045682992E+02  0.00000000000E+00 0.  1.
         11    1    3    3    0    0 -0.26142359481E+01  0.77815334982E+01  0.45193505057E+01  0.93707535679E+01  0.51100000000E-03 0. -1.
        -11    1    3    3    0    0 -0.66563731332E+01  0.11534386437E+02  0.25469899578E+01  0.13558633112E+02  0.51100000000E-03 0.  1.
        -12    1    3    3    0    0 -0.67924162983E+01  0.16858967147E+02  0.14438782564E+02  0.23212930327E+02  0.00000000000E+00 0.  1.
</event>
<event>
 7    1  0.3766050E-009  0.4614232E+02  0.7816164E-02  0.1320468E+00
        -11   -1    0    0    0    0  0.00000000000E+00  0.00000000000E+00  0.45593999997E+02  0.45594000000E+02  0.51100000000E-03 0. -1.
         11   -1    0    0    0    0 -0.00000000000E+00 -0.00000000000E+00 -0.45593999997E+02  0.45594000000E+02  0.51100000000E-03 0.  1.
    9900012    2    1    2    0    0 -0.36444806184E+02  0.60094758650E+01  0.25783246695E+02  0.46142317542E+02  0.99999980004E+01 0.  0.
        -12    1    1    2    0    0  0.36444806184E+02 -0.60094758650E+01 -0.25783246695E+02  0.45045682458E+02  0.00000000000E+00 0.  1.
         11    1    3    3    0    0 -0.10779765728E+02  0.71341237575E+00  0.32976649371E+01  0.11295437161E+02  0.51100000000E-03 0. -1.
        -11    1    3    3    0    0 -0.22727554242E+02  0.59362529591E+01  0.20930124940E+02  0.31461896816E+02  0.51100000000E-03 0.  1.
        -12    1    3    3    0    0 -0.29374862146E+01 -0.64018946984E+00  0.15554568180E+01  0.33849835643E+01  0.00000000000E+00 0.  1.
</event>
<event>
 7    1  0.3766050E-009  0.4614232E+02  0.7816164E-02  0.1320468E+00
        -11   -1    0    0    0    0  0.00000000000E+00  0.00000000000E+00  0.45593999997E+02  0.45594000000E+02  0.51100000000E-03 0. -1.
         11   -1    0    0    0    0 -0.00000000000E+00 -0.00000000000E+00 -0.45593999997E+02  0.45594000000E+02  0.51100000000E-03 0.  1.
    9900012    2    1    2    0    0  0.29442656543E+02 -0.50146088141E+01  0.33720874179E+02  0.46142315620E+02  0.99999804753E+01 0.  0.
        -12    1    1    2    0    0 -0.29442656543E+02  0.50146088141E+01 -0.33720874179E+02  0.45045684380E+02  0.00000000000E+00 0.  1.
         11    1    3    3    0    0  0.55775771358E+01 -0.15911068676E+01  0.12312526617E+02  0.13610264499E+02  0.51100000000E-03 0. -1.
        -11    1    3    3    0    0  0.21999607326E+01 -0.16603081042E+01  0.22688098931E+01  0.35698667787E+01  0.51100000000E-03 0.  1.
         12    1    3    3    0    0  0.21665118675E+02 -0.17631938424E+01  0.19139537669E+02  0.28962184343E+02  0.00000000000E+00 0. -1.
</event>
<event>
 7    1  0.3766050E-009  0.4614233E+02  0.7816164E-02  0.1320468E+00
        -11   -1    0    0    0    0  0.00000000000E+00  0.00000000000E+00  0.45593999997E+02  0.45594000000E+02  0.51100000000E-03 0. -1.
         11   -1    0    0    0    0 -0.00000000000E+00 -0.00000000000E+00 -0.45593999997E+02  0.45594000000E+02  0.51100000000E-03 0.  1.
    9900012    2    1    2    0    0  0.44762432816E+02  0.44317384922E+01 -0.24077215382E+01  0.46142325172E+02  0.10000067580E+02 0.  0.
        -12    1    1    2    0    0 -0.44762432816E+02 -0.44317384922E+01  0.24077215382E+01  0.45045674828E+02  0.00000000000E+00 0.  1.
         11    1    3    3    0    0  0.42345540476E+01  0.19539772057E+01 -0.21208328041E+01  0.51232223206E+01  0.51100000000E-03 0. -1.
        -11    1    3    3    0    0  0.16594831537E+02  0.69792308339E+00 -0.29612649538E+01  0.16871414308E+02  0.51100000000E-03 0.  1.
         12    1    3    3    0    0  0.23933047232E+02  0.17798382031E+01  0.26743762197E+01  0.24147688544E+02  0.00000000000E+00 0. -1.
</event>
<event>
 7    1  0.3766050E-009  0.4614232E+02  0.7816164E-02  0.1320468E+00
        -11   -1    0    0    0    0  0.00000000000E+00  0.00000000000E+00  0.45593999997E+02  0.45594000000E+02  0.51100000000E-03 0. -1.
         11   -1    0    0    0    0 -0.00000000000E+00 -0.00000000000E+00 -0.45593999997E+02  0.45594000000E+02  0.51100000000E-03 0.  1.
    9900012    2    1    2    0    0 -0.10410131536E+02  0.29926036863E+02 -0.32018351485E+02  0.46142319267E+02  0.10000013732E+02 0.  0.
         12    1    1    2    0    0  0.10410131536E+02 -0.29926036863E+02  0.32018351485E+02  0.45045680733E+02  0.00000000000E+00 0. -1.
         11    1    3    3    0    0 -0.58151967335E+01  0.19194835788E+02 -0.13650160463E+02  0.24260773172E+02  0.51100000000E-03 0. -1.
        -11    1    3    3    0    0 -0.44955356236E+01  0.81431069621E+01 -0.14342688484E+02  0.17094816312E+02  0.51100000000E-03 0.  1.
         12    1    3    3    0    0 -0.99399178499E-01  0.25880941129E+01 -0.40255025378E+01  0.47867297830E+01  0.00000000000E+00 0. -1.
</event>
<event>
 7    1  0.3766050E-009  0.4614232E+02  0.7816164E-02  0.1320468E+00
        -11   -1    0    0    0    0  0.00000000000E+00  0.00000000000E+00  0.45593999997E+02  0.45594000000E+02  0.51100000000E-03 0. -1.
         11   -1    0    0    0    0 -0.00000000000E+00 -0.00000000000E+00 -0.45593999997E+02  0.45594000000E+02  0.51100000000E-03 0.  1.
    9900012    2    1    2    0    0 -0.31429702738E+02 -0.11982643729E+02 -0.29961703271E+02  0.46142316213E+02  0.99999858796E+01 0.  0.
         12    1    1    2    0    0  0.31429702738E+02  0.11982643729E+02  0.29961703271E+02  0.45045683787E+02  0.00000000000E+00 0. -1.
         11    1    3    3    0    0 -0.68480005682E+01 -0.33794243177E+01 -0.21564335202E+01  0.79351008997E+01  0.51100000000E-03 0. -1.
        -11    1    3    3    0    0 -0.52608034262E+01 -0.17918170654E+01 -0.77639441659E+01  0.95480621257E+01  0.51100000000E-03 0.  1.
         12    1    3    3    0    0 -0.19320898744E+02 -0.68114023462E+01 -0.20041325585E+02  0.28659153187E+02  0.00000000000E+00 0. -1.
</event>
<event>
 7    1  0.3766050E-009  0.4614232E+02  0.7816164E-02  0.1320468E+00
        -11   -1    0    0    0    0  0.00000000000E+00  0.00000000000E+00  0.45593999997E+02  0.45594000000E+02  0.51100000000E-03 0. -1.
         11   -1    0    0    0    0 -0.00000000000E+00 -0.00000000000E+00 -0.45593999997E+02  0.45594000000E+02  0.51100000000E-03 0.  1.
    9900012    2    1    2    0    0 -0.37205741998E+01 -0.87520836342E+01 -0.44030351324E+02  0.46142317876E+02  0.10000001044E+02 0.  0.
         12    1    1    2    0    0  0.37205741998E+01  0.87520836342E+01  0.44030351324E+02  0.45045682124E+02  0.00000000000E+00 0. -1.
         11    1    3    3    0    0  0.97244382776E+00 -0.60514389069E+01 -0.15184436460E+02  0.16374757119E+02  0.51100000000E-03 0. -1.
        -11    1    3    3    0    0 -0.31783469084E+01 -0.27010110831E+00 -0.23382186568E+02  0.23598760405E+02  0.51100000000E-03 0.  1.
        -12    1    3    3    0    0 -0.15146711191E+01 -0.24305436190E+01 -0.54637282961E+01  0.61688003515E+01  0.00000000000E+00 0.  1.
</event>
<event>
 7    1  0.3766050E-009  0.4614232E+02  0.7816164E-02  0.1320468E+00
        -11   -1    0    0    0    0  0.00000000000E+00  0.00000000000E+00  0.45593999997E+02  0.45594000000E+02  0.51100000000E-03 0. -1.
         11   -1    0    0    0    0 -0.00000000000E+00 -0.00000000000E+00 -0.45593999997E+02  0.45594000000E+02  0.51100000000E-03 0.  1.
    9900012    2    1    2    0    0  0.33978555811E+02 -0.28071593178E+02  0.93035955277E+01  0.46142317762E+02  0.10000000006E+02 0.  0.
        -12    1    1    2    0    0 -0.33978555811E+02  0.28071593178E+02 -0.93035955277E+01  0.45045682238E+02  0.00000000000E+00 0.  1.
         11    1    3    3    0    0  0.21636687315E+02 -0.18050968849E+02  0.64525362954E+01  0.28907074207E+02  0.51100000000E-03 0. -1.
        -11    1    3    3    0    0  0.79193813021E+01 -0.28753539532E+01  0.21371956021E+00  0.84279260127E+01  0.51100000000E-03 0.  1.
        -12    1    3    3    0    0  0.44224871944E+01 -0.71452703761E+01  0.26373396721E+01  0.88073175416E+01  0.00000000000E+00 0.  1.
</event>
<event>
 7    1  0.3766050E-009  0.4614232E+02  0.7816164E-02  0.1320468E+00
        -11   -1    0    0    0    0  0.00000000000E+00  0.00000000000E+00  0.45593999997E+02  0.45594000000E+02  0.51100000000E-03 0. -1.
         11   -1    0    0    0    0 -0.00000000000E+00 -0.00000000000E+00 -0.45593999997E+02  0.45594000000E+02  0.51100000000E-03 0.  1.
    9900012    2    1    2    0    0 -0.17156281292E+02 -0.13514363230E+02 -0.39397175862E+02  0.46142317996E+02  0.10000002140E+02 0.  0.
         12    1    1    2    0    0  0.17156281292E+02  0.13514363230E+02  0.39397175862E+02  0.45045682004E+02  0.00000000000E+00 0. -1.
         11    1    3    3    0    0 -0.33292070794E+01 -0.44088269417E+01 -0.13148548053E+02  0.14262036704E+02  0.51100000000E-03 0. -1.
        -11    1    3    3    0    0 -0.13153549797E+02 -0.90765594607E+01 -0.26665425239E+02  0.31087693825E+02  0.51100000000E-03 0.  1.
        -12    1    3    3    0    0 -0.67352441541E+00 -0.28976827322E-01  0.41679742994E+00  0.79258746665E+00  0.00000000000E+00 0.  1.
</event>
<event>
 7    1  0.4249536E-009  0.4614232E+02  0.7816164E-02  0.1320468E+00
        -11   -1    0    0    0    0  0.00000000000E+00  0.00000000000E+00  0.45593999997E+02  0.45594000000E+02  0.51100000000E-03 0. -1.
         11   -1    0    0    0    0 -0.00000000000E+00 -0.00000000000E+00 -0.45593999997E+02  0.45594000000E+02  0.51100000000E-03 0.  1.
    9900012    2    1    2    0    0  0.61830204417E+00  0.75354023260E+01 -0.44406631183E+02  0.46142317869E+02  0.10000000987E+02 0.  0.
         12    1    1    2    0    0 -0.61830204417E+00 -0.75354023260E+01  0.44406631183E+02  0.45045682131E+02  0.00000000000E+00 0. -1.
         11    1    3    3    0    0  0.44145950258E+01  0.26236882793E+01 -0.13102792652E+02  0.14073221556E+02  0.51100000000E-03 0. -1.
        -11    1    3    3    0    0 -0.98439874992E+00  0.36807260841E+01 -0.14822622533E+02  0.15304474000E+02  0.51100000000E-03 0.  1.
         12    1    3    3    0    0 -0.28118942317E+01  0.12309879625E+01 -0.16481215997E+02  0.16764622313E+02  0.00000000000E+00 0. -1.
</event>
<event>
 7    1  0.3766050E-009  0.4614232E+02  0.7816164E-02  0.1320468E+00
        -11   -1    0    0    0    0  0.00000000000E+00  0.00000000000E+00  0.45593999997E+02  0.45594000000E+02  0.51100000000E-03 0. -1.
         11   -1    0    0    0    0 -0.00000000000E+00 -0.00000000000E+00 -0.45593999997E+02  0.45594000000E+02  0.51100000000E-03 0.  1.
    9900012    2    1    2    0    0 -0.28564719237E+02  0.32501506849E+02 -0.12522873964E+02  0.46142317578E+02  0.99999983282E+01 0.  0.
         12    1    1    2    0    0  0.28564719237E+02 -0.32501506849E+02  0.12522873964E+02  0.45045682422E+02  0.00000000000E+00 0. -1.
         11    1    3    3    0    0 -0.16146477550E+02  0.21047013604E+02 -0.61515685875E+01  0.27230999161E+02  0.51100000000E-03 0. -1.
        -11    1    3    3    0    0 -0.11065069597E+02  0.75929291027E+01 -0.62851558101E+01  0.14818620764E+02  0.51100000000E-03 0.  1.
         12    1    3    3    0    0 -0.13531720904E+01  0.38615641419E+01 -0.86149566200E-01  0.40926976526E+01  0.00000000000E+00 0. -1.
</event>
<event>
 7    1  0.3766050E-009  0.4614232E+02  0.7816164E-02  0.1320468E+00
        -11   -1    0    0    0    0  0.00000000000E+00  0.00000000000E+00  0.45593999997E+02  0.45594000000E+02  0.51100000000E-03 0. -1.
         11   -1    0    0    0    0 -0.00000000000E+00 -0.00000000000E+00 -0.45593999997E+02  0.45594000000E+02  0.51100000000E-03 0.  1.
    9900012    2    1    2    0    0  0.70409869535E+01  0.18540942377E+02  0.40444672432E+02  0.46142316859E+02  0.99999917736E+01 0.  0.
        -12    1    1    2    0    0 -0.70409869535E+01 -0.18540942377E+02 -0.40444672432E+02  0.45045683141E+02  0.00000000000E+00 0.  1.
         11    1    3    3    0    0  0.28914437321E+01  0.13692944652E+02  0.22626669543E+02  0.26604949821E+02  0.51100000000E-03 0. -1.
        -11    1    3    3    0    0  0.42877172610E+01  0.56162949061E+01  0.16983097602E+02  0.18394371210E+02  0.51100000000E-03 0.  1.
        -12    1    3    3    0    0 -0.13817403952E+00 -0.76829718177E+00  0.83490528705E+00  0.11429958281E+01  0.00000000000E+00 0.  1.
</event>
<event>
 7    1  0.3766050E-009  0.4614232E+02  0.7816164E-02  0.1320468E+00
        -11   -1    0    0    0    0  0.00000000000E+00  0.00000000000E+00  0.45593999997E+02  0.45594000000E+02  0.51100000000E-03 0. -1.
         11   -1    0    0    0    0 -0.00000000000E+00 -0.00000000000E+00 -0.45593999997E+02  0.45594000000E+02  0.51100000000E-03 0.  1.
    9900012    2    1    2    0    0  0.38697272116E+01 -0.95566640151E+01 -0.43849844300E+02  0.46142318066E+02  0.10000002780E+02 0.  0.
         12    1    1    2    0    0 -0.38697272116E+01  0.95566640151E+01  0.43849844300E+02  0.45045681934E+02  0.00000000000E+00 0. -1.
         11    1    3    3    0    0 -0.46260121500E-01 -0.18832006533E+00 -0.14478561202E+02  0.14479859778E+02  0.51100000000E-03 0.  1.
        -11    1    3    3    0    0  0.15796278082E+01 -0.38041298680E+00 -0.10554462112E+02  0.10678792477E+02  0.51100000000E-03 0. -1.
         12    1    3    3    0    0  0.23363595249E+01 -0.89879309629E+01 -0.18816820986E+02  0.20983665811E+02  0.00000000000E+00 0. -1.
</event>
<event>
 7    1  0.3766050E-009  0.4614232E+02  0.7816164E-02  0.1320468E+00
        -11   -1    0    0    0    0  0.00000000000E+00  0.00000000000E+00  0.45593999997E+02  0.45594000000E+02  0.51100000000E-03 0. -1.
         11   -1    0    0    0    0 -0.00000000000E+00 -0.00000000000E+00 -0.45593999997E+02  0.45594000000E+02  0.51100000000E-03 0.  1.
    9900012    2    1    2    0    0 -0.34622138579E+01  0.19283024779E+01 -0.44871017392E+02  0.46142317887E+02  0.10000001150E+02 0.  0.
         12    1    1    2    0    0  0.34622138579E+01 -0.19283024779E+01  0.44871017392E+02  0.45045682113E+02  0.00000000000E+00 0. -1.
         11    1    3    3    0    0 -0.21705379393E+01 -0.75403954880E+00 -0.70190066002E+01  0.73855442929E+01  0.51100000000E-03 0. -1.
        -11    1    3    3    0    0  0.31564742384E+01  0.15804751935E+01 -0.12276125734E+02  0.12773585822E+02  0.51100000000E-03 0.  1.
        -12    1    3    3    0    0 -0.44481501571E+01  0.11018668331E+01 -0.25575885057E+02  0.25983187772E+02  0.00000000000E+00 0.  1.
</event>
<event>
 7    1  0.3766050E-009  0.4614232E+02  0.7816164E-02  0.1320468E+00
        -11   -1    0    0    0    0  0.00000000000E+00  0.00000000000E+00  0.45593999997E+02  0.45594000000E+02  0.51100000000E-03 0. -1.
         11   -1    0    0    0    0 -0.00000000000E+00 -0.00000000000E+00 -0.45593999997E+02  0.45594000000E+02  0.51100000000E-03 0.  1.
    9900012    2    1    2    0    0 -0.39112899011E+02 -0.44555244418E+01  0.21896186459E+02  0.46142317093E+02  0.99999939105E+01 0.  0.
        -12    1    1    2    0    0  0.39112899011E+02  0.44555244418E+01 -0.21896186459E+02  0.45045682907E+02  0.00000000000E+00 0.  1.
         11    1    3    3    0    0 -0.38445469272E+01 -0.16126970480E+01  0.58318534810E+01  0.71688107890E+01  0.51100000000E-03 0.  1.
        -11    1    3    3    0    0 -0.17973796026E+02 -0.27435320265E+01  0.90586362802E+01  0.20313621122E+02  0.51100000000E-03 0. -1.
        -12    1    3    3    0    0 -0.17294556057E+02 -0.99295367255E-01  0.70056966982E+01  0.18659885182E+02  0.00000000000E+00 0.  1.
</event>
<event>
 7    1  0.3766050E-009  0.4614232E+02  0.7816164E-02  0.1320468E+00
        -11   -1    0    0    0    0  0.00000000000E+00  0.00000000000E+00  0.45593999997E+02  0.45594000000E+02  0.51100000000E-03 0. -1.
         11   -1    0    0    0    0 -0.00000000000E+00 -0.00000000000E+00 -0.45593999997E+02  0.45594000000E+02  0.51100000000E-03 0.  1.
    9900012    2    1    2    0    0  0.13818148006E+02 -0.15239664747E+02  0.40073993664E+02  0.46142316920E+02  0.99999923319E+01 0.  0.
        -12    1    1    2    0    0 -0.13818148006E+02  0.15239664747E+02 -0.40073993664E+02  0.45045683080E+02  0.00000000000E+00 0.  1.
         11    1    3    3    0    0  0.66812075145E+01 -0.58591306882E+01  0.13941906804E+02  0.16533139807E+02  0.51100000000E-03 0. -1.
        -11    1    3    3    0    0  0.68463260943E+00 -0.50408352593E+01  0.51780426693E+01  0.72588475716E+01  0.51100000000E-03 0.  1.
         12    1    3    3    0    0  0.64523078824E+01 -0.43396987992E+01  0.20954044191E+02  0.22350329542E+02  0.00000000000E+00 0. -1.
</event>
<event>
 7    1  0.3766050E-009  0.4614231E+02  0.7816164E-02  0.1320468E+00
        -11   -1    0    0    0    0  0.00000000000E+00  0.00000000000E+00  0.45593999997E+02  0.45594000000E+02  0.51100000000E-03 0. -1.
         11   -1    0    0    0    0 -0.00000000000E+00 -0.00000000000E+00 -0.45593999997E+02  0.45594000000E+02  0.51100000000E-03 0.  1.
    9900012    2    1    2    0    0 -0.17317926543E+00  0.81407237154E+01 -0.44303638439E+02  0.46142314828E+02  0.99999732514E+01 0.  0.
         12    1    1    2    0    0  0.17317926543E+00 -0.81407237154E+01  0.44303638439E+02  0.45045685172E+02  0.00000000000E+00 0. -1.
         11    1    3    3    0    0  0.11633397919E+01  0.64625523505E+01 -0.11327300609E+02  0.13092963061E+02  0.51100000000E-03 0. -1.
        -11    1    3    3    0    0 -0.96957463432E+00  0.15021828504E+01 -0.26518076057E+02  0.26578280349E+02  0.51100000000E-03 0.  1.
         12    1    3    3    0    0 -0.36694442298E+00  0.17598851445E+00 -0.64582617732E+01  0.64710714181E+01  0.00000000000E+00 0. -1.
</event>
<event>
 7    1  0.3766050E-009  0.4614232E+02  0.7816164E-02  0.1320468E+00
        -11   -1    0    0    0    0  0.00000000000E+00  0.00000000000E+00  0.45593999997E+02  0.45594000000E+02  0.51100000000E-03 0.  1.
         11   -1    0    0    0    0 -0.00000000000E+00 -0.00000000000E+00 -0.45593999997E+02  0.45594000000E+02  0.51100000000E-03 0. -1.
    9900012    2    1    2    0    0  0.25484878574E+02 -0.37142111635E+02 -0.31296278258E+00  0.46142318317E+02  0.10000005067E+02 0.  0.
         12    1    1    2    0    0 -0.25484878574E+02  0.37142111635E+02  0.31296278258E+00  0.45045681683E+02  0.00000000000E+00 0. -1.
         11    1    3    3    0    0  0.20753645016E+02 -0.22889411397E+02 -0.13279670482E+01  0.30925756778E+02  0.51100000000E-03 0.  1.
        -11    1    3    3    0    0  0.39134992052E+01 -0.13353521589E+02  0.12756514384E+01  0.13973521450E+02  0.51100000000E-03 0. -1.
         12    1    3    3    0    0  0.81773435225E+00 -0.89917864853E+00 -0.26064717282E+00  0.12430400885E+01  0.00000000000E+00 0. -1.
</event>
<event>
 7    1  0.3766050E-009  0.4614232E+02  0.7816164E-02  0.1320468E+00
        -11   -1    0    0    0    0  0.00000000000E+00  0.00000000000E+00  0.45593999997E+02  0.45594000000E+02  0.51100000000E-03 0. -1.
         11   -1    0    0    0    0 -0.00000000000E+00 -0.00000000000E+00 -0.45593999997E+02  0.45594000000E+02  0.51100000000E-03 0.  1.
    9900012    2    1    2    0    0  0.92242086461E+01 -0.85788180260E+01 -0.43248484294E+02  0.46142317215E+02  0.99999950172E+01 0.  0.
         12    1    1    2    0    0 -0.92242086461E+01  0.85788180260E+01  0.43248484294E+02  0.45045682785E+02  0.00000000000E+00 0. -1.
         11    1    3    3    0    0 -0.69532684780E+00 -0.27424329079E+01 -0.38991448550E+01  0.48174421160E+01  0.51100000000E-03 0. -1.
        -11    1    3    3    0    0  0.70699892753E+01 -0.22568108496E+01 -0.17621482789E+02  0.19120528222E+02  0.51100000000E-03 0.  1.
        -12    1    3    3    0    0  0.28495462186E+01 -0.35795742685E+01 -0.21727856650E+02  0.22204346876E+02  0.00000000000E+00 0.  1.
</event>
<event>
 7    1  0.3766050E-009  0.4614232E+02  0.7816164E-02  0.1320468E+00
        -11   -1    0    0    0    0  0.00000000000E+00  0.00000000000E+00  0.45593999997E+02  0.45594000000E+02  0.51100000000E-03 0. -1.
         11   -1    0    0    0    0 -0.00000000000E+00 -0.00000000000E+00 -0.45593999997E+02  0.45594000000E+02  0.51100000000E-03 0.  1.
    9900012    2    1    2    0    0  0.36936634596E+01 -0.41942937699E+02 -0.16008133780E+02  0.46142317414E+02  0.99999968315E+01 0.  0.
         12    1    1    2    0    0 -0.36936634596E+01  0.41942937699E+02  0.16008133780E+02  0.45045682586E+02  0.00000000000E+00 0. -1.
         11    1    3    3    0    0 -0.13526975896E-01 -0.39060629296E+00  0.75276706304E+00  0.84818321576E+00  0.51100000000E-03 0. -1.
        -11    1    3    3    0    0  0.48214515893E+01 -0.25820737074E+02 -0.11434686291E+02  0.28648017546E+02  0.51100000000E-03 0.  1.
        -12    1    3    3    0    0 -0.11142611538E+01 -0.15731594332E+02 -0.53262145519E+01  0.16646116652E+02  0.00000000000E+00 0.  1.
</event>
<event>
 7    1  0.3766050E-009  0.4614232E+02  0.7816164E-02  0.1320468E+00
        -11   -1    0    0    0    0  0.00000000000E+00  0.00000000000E+00  0.45593999997E+02  0.45594000000E+02  0.51100000000E-03 0. -1.
         11   -1    0    0    0    0 -0.00000000000E+00 -0.00000000000E+00 -0.45593999997E+02  0.45594000000E+02  0.51100000000E-03 0.  1.
    9900012    2    1    2    0    0 -0.24269100632E+02 -0.10708977268E+02 -0.36406620797E+02  0.46142317882E+02  0.10000001102E+02 0.  0.
         12    1    1    2    0    0  0.24269100632E+02  0.10708977268E+02  0.36406620797E+02  0.45045682118E+02  0.00000000000E+00 0. -1.
         11    1    3    3    0    0 -0.92560302276E+01 -0.56601072847E+00 -0.18355890509E+02  0.20565339296E+02  0.51100000000E-03 0. -1.
        -11    1    3    3    0    0 -0.98380113983E+01 -0.65517718807E+01 -0.11619269946E+02  0.16574667942E+02  0.51100000000E-03 0.  1.
         12    1    3    3    0    0 -0.51750590061E+01 -0.35911946593E+01 -0.64314603420E+01  0.90023106439E+01  0.00000000000E+00 0. -1.
</event>
<event>
 7    1  0.3766050E-009  0.4614232E+02  0.7816164E-02  0.1320468E+00
        -11   -1    0    0    0    0  0.00000000000E+00  0.00000000000E+00  0.45593999997E+02  0.45594000000E+02  0.51100000000E-03 0. -1.
         11   -1    0    0    0    0 -0.00000000000E+00 -0.00000000000E+00 -0.45593999997E+02  0.45594000000E+02  0.51100000000E-03 0.  1.
    9900012    2    1    2    0    0  0.13522919626E+02 -0.31997425259E+02 -0.28677674989E+02  0.46142316287E+02  0.99999865581E+01 0.  0.
         12    1    1    2    0    0 -0.13522919626E+02  0.31997425259E+02  0.28677674989E+02  0.45045683713E+02  0.00000000000E+00 0. -1.
         11    1    3    3    0    0  0.97984147268E+01 -0.12783026075E+02 -0.11800145814E+02  0.19966425025E+02  0.51100000000E-03 0. -1.
        -11    1    3    3    0    0  0.46137479359E+01 -0.14873081256E+02 -0.13365617123E+02  0.20521572488E+02  0.51100000000E-03 0.  1.
        -12    1    3    3    0    0 -0.88924303688E+00 -0.43413179285E+01 -0.35119120524E+01  0.56543187740E+01  0.00000000000E+00 0.  1.
</event>
<event>
 7    1  0.3766050E-009  0.4614232E+02  0.7816164E-02  0.1320468E+00
        -11   -1    0    0    0    0  0.00000000000E+00  0.00000000000E+00  0.45593999997E+02  0.45594000000E+02  0.51100000000E-03 0. -1.
         11   -1    0    0    0    0 -0.00000000000E+00 -0.00000000000E+00 -0.45593999997E+02  0.45594000000E+02  0.51100000000E-03 0.  1.
    9900012    2    1    2    0    0  0.77189786440E+01 -0.11358007594E+02 -0.42901357825E+02  0.46142317953E+02  0.10000001753E+02 0.  0.
         12    1    1    2    0    0 -0.77189786440E+01  0.11358007594E+02  0.42901357825E+02  0.45045682047E+02  0.00000000000E+00 0. -1.
         11    1    3    3    0    0 -0.14277127162E+01 -0.56496558456E+01 -0.15785648257E+02  0.16826873326E+02  0.51100000000E-03 0. -1.
        -11    1    3    3    0    0  0.38848611715E+01 -0.27367740232E+01 -0.84330887619E+01  0.96798277207E+01  0.51100000000E-03 0.  1.
         12    1    3    3    0    0  0.52618301888E+01 -0.29715777251E+01 -0.18682620806E+02  0.19635616906E+02  0.00000000000E+00 0. -1.
</event>
<event>
 7    1  0.3766050E-009  0.4614232E+02  0.7816164E-02  0.1320468E+00
        -11   -1    0    0    0    0  0.00000000000E+00  0.00000000000E+00  0.45593999997E+02  0.45594000000E+02  0.51100000000E-03 0. -1.
         11   -1    0    0    0    0 -0.00000000000E+00 -0.00000000000E+00 -0.45593999997E+02  0.45594000000E+02  0.51100000000E-03 0.  1.
    9900012    2    1    2    0    0 -0.31424640398E+02  0.99523990379E+00 -0.32258564332E+02  0.46142317638E+02  0.99999988814E+01 0.  0.
         12    1    1    2    0    0  0.31424640398E+02 -0.99523990379E+00  0.32258564332E+02  0.45045682362E+02  0.00000000000E+00 0. -1.
         11    1    3    3    0    0 -0.13520128448E+02  0.11979060622E+01 -0.12928561347E+02  0.18745040703E+02  0.51100000000E-03 0.  1.
        -11    1    3    3    0    0 -0.39052068384E+01 -0.74227985259E+00 -0.61959558708E+00  0.40231230137E+01  0.51100000000E-03 0. -1.
         12    1    3    3    0    0 -0.13999305112E+02  0.53961369414E+00 -0.18710407399E+02  0.23374153922E+02  0.00000000000E+00 0. -1.
</event>
<event>
 7    1  0.3766050E-009  0.4614233E+02  0.7816164E-02  0.1320468E+00
        -11   -1    0    0    0    0  0.00000000000E+00  0.00000000000E+00  0.45593999997E+02  0.45594000000E+02  0.51100000000E-03 0. -1.
         11   -1    0    0    0    0 -0.00000000000E+00 -0.00000000000E+00 -0.45593999997E+02  0.45594000000E+02  0.51100000000E-03 0.  1.
    9900012    2    1    2    0    0 -0.20967450571E+02 -0.11101091910E+00  0.39868112436E+02  0.46142326556E+02  0.10000080194E+02 0.  0.
        -12    1    1    2    0    0  0.20967450571E+02  0.11101091910E+00 -0.39868112436E+02  0.45045673444E+02  0.00000000000E+00 0.  1.
         11    1    3    3    0    0 -0.17182551356E+02  0.33321146698E+01  0.32829240847E+02  0.37203522873E+02  0.51100000000E-03 0. -1.
        -11    1    3    3    0    0 -0.34574974845E+01 -0.34787792584E+01  0.55181528537E+01  0.73828317847E+01  0.51100000000E-03 0.  1.
         12    1    3    3    0    0 -0.32740173075E+00  0.35653669477E-01  0.15207187348E+01  0.15559718982E+01  0.00000000000E+00 0. -1.
</event>
<event>
 7    1  0.3766050E-009  0.4614232E+02  0.7816164E-02  0.1320468E+00
        -11   -1    0    0    0    0  0.00000000000E+00  0.00000000000E+00  0.45593999997E+02  0.45594000000E+02  0.51100000000E-03 0. -1.
         11   -1    0    0    0    0 -0.00000000000E+00 -0.00000000000E+00 -0.45593999997E+02  0.45594000000E+02  0.51100000000E-03 0.  1.
    9900012    2    1    2    0    0 -0.34244172720E+02 -0.82732198389E+01 -0.28071409439E+02  0.46142316970E+02  0.99999927818E+01 0.  0.
         12    1    1    2    0    0  0.34244172720E+02  0.82732198389E+01  0.28071409439E+02  0.45045683030E+02  0.00000000000E+00 0. -1.
         11    1    3    3    0    0 -0.49214829698E+00 -0.15147988455E+01 -0.24057809440E+00  0.16108083589E+01  0.51100000000E-03 0. -1.
        -11    1    3    3    0    0 -0.19888405083E+02 -0.58533611572E+01 -0.18588638331E+02  0.27845070818E+02  0.51100000000E-03 0.  1.
         12    1    3    3    0    0 -0.13863619340E+02 -0.90505983617E+00 -0.92421930136E+01  0.16686437793E+02  0.00000000000E+00 0. -1.
</event>
<event>
 7    1  0.3766050E-009  0.4614232E+02  0.7816164E-02  0.1320468E+00
        -11   -1    0    0    0    0  0.00000000000E+00  0.00000000000E+00  0.45593999997E+02  0.45594000000E+02  0.51100000000E-03 0. -1.
         11   -1    0    0    0    0 -0.00000000000E+00 -0.00000000000E+00 -0.45593999997E+02  0.45594000000E+02  0.51100000000E-03 0.  1.
    9900012    2    1    2    0    0  0.16978567564E+02 -0.21518524851E+02  0.35746249565E+02  0.46142322891E+02  0.10000046775E+02 0.  0.
        -12    1    1    2    0    0 -0.16978567564E+02  0.21518524851E+02 -0.35746249565E+02  0.45045677109E+02  0.00000000000E+00 0.  1.
         11    1    3    3    0    0  0.82435443548E+01 -0.10046838104E+02  0.20195999382E+02  0.24016106485E+02  0.51100000000E-03 0. -1.
        -11    1    3    3    0    0  0.53045626086E+01 -0.97050618708E+01  0.80100121756E+01  0.13656020859E+02  0.51100000000E-03 0.  1.
        -12    1    3    3    0    0  0.34304606008E+01 -0.17666248760E+01  0.75402380072E+01  0.84701955463E+01  0.00000000000E+00 0.  1.
</event>
<event>
 7    1  0.3766050E-009  0.4614232E+02  0.7816164E-02  0.1320468E+00
        -11   -1    0    0    0    0  0.00000000000E+00  0.00000000000E+00  0.45593999997E+02  0.45594000000E+02  0.51100000000E-03 0. -1.
         11   -1    0    0    0    0 -0.00000000000E+00 -0.00000000000E+00 -0.45593999997E+02  0.45594000000E+02  0.51100000000E-03 0.  1.
    9900012    2    1    2    0    0  0.11973424027E+02  0.43422877805E+02  0.45193968514E+00  0.46142318195E+02  0.10000003958E+02 0.  0.
         12    1    1    2    0    0 -0.11973424027E+02 -0.43422877805E+02 -0.45193968514E+00  0.45045681805E+02  0.00000000000E+00 0. -1.
         11    1    3    3    0    0  0.24390325449E+01  0.10853929612E+01 -0.65148343776E-01  0.26704310894E+01  0.51100000000E-03 0. -1.
        -11    1    3    3    0    0  0.56469956865E+01  0.19922332249E+02 -0.26101690228E+00  0.20708838997E+02  0.51100000000E-03 0.  1.
         12    1    3    3    0    0  0.38873957951E+01  0.22415152595E+02  0.77810493120E+00  0.22763048109E+02  0.00000000000E+00 0. -1.
</event>
<event>
 7    1  0.5692750E-009  0.4614232E+02  0.7816164E-02  0.1320468E+00
        -11   -1    0    0    0    0  0.00000000000E+00  0.00000000000E+00  0.45593999997E+02  0.45594000000E+02  0.51100000000E-03 0. -1.
         11   -1    0    0    0    0 -0.00000000000E+00 -0.00000000000E+00 -0.45593999997E+02  0.45594000000E+02  0.51100000000E-03 0.  1.
    9900012    2    1    2    0    0 -0.27409891554E+02  0.28107568388E+01  0.35635809539E+02  0.46142318403E+02  0.10000005857E+02 0.  0.
        -12    1    1    2    0    0  0.27409891554E+02 -0.28107568388E+01 -0.35635809539E+02  0.45045681597E+02  0.00000000000E+00 0.  1.
         11    1    3    3    0    0 -0.20324916723E+02  0.41280636359E+01  0.31338969454E+02  0.37580236241E+02  0.51100000000E-03 0. -1.
        -11    1    3    3    0    0 -0.24119198801E+01 -0.10782107639E+01  0.94340789533E+00  0.28053368207E+01  0.51100000000E-03 0.  1.
         12    1    3    3    0    0 -0.46730549508E+01 -0.23909603315E+00  0.33534321893E+01  0.57567453422E+01  0.00000000000E+00 0. -1.
</event>
<event>
 7    1  0.3766050E-009  0.4614232E+02  0.7816164E-02  0.1320468E+00
        -11   -1    0    0    0    0  0.00000000000E+00  0.00000000000E+00  0.45593999997E+02  0.45594000000E+02  0.51100000000E-03 0. -1.
         11   -1    0    0    0    0 -0.00000000000E+00 -0.00000000000E+00 -0.45593999997E+02  0.45594000000E+02  0.51100000000E-03 0.  1.
    9900012    2    1    2    0    0  0.39550654850E+02 -0.12178151914E+02 -0.17791895999E+02  0.46142320447E+02  0.10000024495E+02 0.  0.
         12    1    1    2    0    0 -0.39550654850E+02  0.12178151914E+02  0.17791895999E+02  0.45045679553E+02  0.00000000000E+00 0. -1.
         11    1    3    3    0    0  0.17652090900E+02 -0.71583516694E+01 -0.57252672851E+01  0.19890123114E+02  0.51100000000E-03 0. -1.
        -11    1    3    3    0    0  0.16242840204E+02 -0.60589751245E+01 -0.74124252198E+01  0.18854312115E+02  0.51100000000E-03 0.  1.
         12    1    3    3    0    0  0.56557237468E+01  0.10391748796E+01 -0.46542034940E+01  0.73978852177E+01  0.00000000000E+00 0. -1.
</event>
<event>
 7    1  0.3766050E-009  0.4614231E+02  0.7816164E-02  0.1320468E+00
        -11   -1    0    0    0    0  0.00000000000E+00  0.00000000000E+00  0.45593999997E+02  0.45594000000E+02  0.51100000000E-03 0.  1.
         11   -1    0    0    0    0 -0.00000000000E+00 -0.00000000000E+00 -0.45593999997E+02  0.45594000000E+02  0.51100000000E-03 0. -1.
    9900012    2    1    2    0    0 -0.21336851914E+02  0.38296363007E+02 -0.10355730995E+02  0.46142313929E+02  0.99999650548E+01 0.  0.
         12    1    1    2    0    0  0.21336851914E+02 -0.38296363007E+02  0.10355730995E+02  0.45045686071E+02  0.00000000000E+00 0. -1.
         11    1    3    3    0    0 -0.67504022710E+01  0.69679086438E+01 -0.20454740463E+01  0.99148195154E+01  0.51100000000E-03 0. -1.
        -11    1    3    3    0    0 -0.10989214630E+02  0.16251706570E+02 -0.30191691703E+01  0.19849337202E+02  0.51100000000E-03 0.  1.
         12    1    3    3    0    0 -0.35972350132E+01  0.15076747794E+02 -0.52910877780E+01  0.16378157212E+02  0.00000000000E+00 0. -1.
</event>
<event>
 7    1  0.3766050E-009  0.4614232E+02  0.7816164E-02  0.1320468E+00
        -11   -1    0    0    0    0  0.00000000000E+00  0.00000000000E+00  0.45593999997E+02  0.45594000000E+02  0.51100000000E-03 0. -1.
         11   -1    0    0    0    0 -0.00000000000E+00 -0.00000000000E+00 -0.45593999997E+02  0.45594000000E+02  0.51100000000E-03 0.  1.
    9900012    2    1    2    0    0  0.57627489751E+01 -0.10205609520E+02 -0.43494249957E+02  0.46142317402E+02  0.99999967220E+01 0.  0.
         12    1    1    2    0    0 -0.57627489751E+01  0.10205609520E+02  0.43494249957E+02  0.45045682598E+02  0.00000000000E+00 0. -1.
         11    1    3    3    0    0  0.16481590191E+01 -0.43737375468E+01 -0.69851786726E+01  0.84046849810E+01  0.51100000000E-03 0. -1.
        -11    1    3    3    0    0  0.90253870136E+00 -0.74556450058E+00 -0.57635762278E+00  0.13048489960E+01  0.51100000000E-03 0.  1.
         12    1    3    3    0    0  0.32120512547E+01 -0.50863074723E+01 -0.35932713662E+02  0.36432783425E+02  0.00000000000E+00 0. -1.
</event>
<event>
 7    1  0.3830007E-009  0.4614232E+02  0.7816164E-02  0.1320468E+00
        -11   -1    0    0    0    0  0.00000000000E+00  0.00000000000E+00  0.45593999997E+02  0.45594000000E+02  0.51100000000E-03 0. -1.
         11   -1    0    0    0    0 -0.00000000000E+00 -0.00000000000E+00 -0.45593999997E+02  0.45594000000E+02  0.51100000000E-03 0.  1.
    9900012    2    1    2    0    0 -0.72907711371E+01 -0.21020451040E+02 -0.39167573005E+02  0.46142317845E+02  0.10000000764E+02 0.  0.
         12    1    1    2    0    0  0.72907711371E+01  0.21020451040E+02  0.39167573005E+02  0.45045682155E+02  0.00000000000E+00 0. -1.
         11    1    3    3    0    0  0.92746887459E+00 -0.37455471061E+01 -0.12687745757E+02  0.13261531370E+02  0.51100000000E-03 0. -1.
        -11    1    3    3    0    0 -0.71964122539E+01 -0.11897121182E+02 -0.20535842296E+02  0.24800214935E+02  0.51100000000E-03 0.  1.
         12    1    3    3    0    0 -0.10218277578E+01 -0.53777827522E+01 -0.59439849522E+01  0.80805715397E+01  0.00000000000E+00 0. -1.
</event>
<event>
 7    1  0.3766050E-009  0.4614232E+02  0.7816164E-02  0.1320468E+00
        -11   -1    0    0    0    0  0.00000000000E+00  0.00000000000E+00  0.45593999997E+02  0.45594000000E+02  0.51100000000E-03 0. -1.
         11   -1    0    0    0    0 -0.00000000000E+00 -0.00000000000E+00 -0.45593999997E+02  0.45594000000E+02  0.51100000000E-03 0.  1.
    9900012    2    1    2    0    0  0.17804426089E+01 -0.42294508512E+02  0.15398636009E+02  0.46142318552E+02  0.10000007209E+02 0.  0.
        -12    1    1    2    0    0 -0.17804426089E+01  0.42294508512E+02 -0.15398636009E+02  0.45045681448E+02  0.00000000000E+00 0.  1.
         11    1    3    3    0    0  0.33785218666E+01 -0.13370683886E+02  0.70538095876E+01  0.15490184877E+02  0.51100000000E-03 0. -1.
        -11    1    3    3    0    0 -0.10902566929E+01 -0.28957873271E+02  0.82861672068E+01  0.30139801779E+02  0.51100000000E-03 0.  1.
        -12    1    3    3    0    0 -0.50782256479E+00  0.34048644327E-01  0.58659215111E-01  0.51233189536E+00  0.00000000000E+00 0.  1.
</event>
<event>
 7    1  0.3766050E-009  0.4614232E+02  0.7816164E-02  0.1320468E+00
        -11   -1    0    0    0    0  0.00000000000E+00  0.00000000000E+00  0.45593999997E+02  0.45594000000E+02  0.51100000000E-03 0. -1.
         11   -1    0    0    0    0 -0.00000000000E+00 -0.00000000000E+00 -0.45593999997E+02  0.45594000000E+02  0.51100000000E-03 0.  1.
    9900012    2    1    2    0    0 -0.18723747433E+01 -0.24945772295E+02  0.37460860926E+02  0.46142318255E+02  0.10000004502E+02 0.  0.
        -12    1    1    2    0    0  0.18723747433E+01  0.24945772295E+02 -0.37460860926E+02  0.45045681745E+02  0.00000000000E+00 0.  1.
         11    1    3    3    0    0  0.33482086522E+01 -0.10018158519E+02  0.17096254308E+02  0.20096166622E+02  0.51100000000E-03 0. -1.
        -11    1    3    3    0    0 -0.39551561511E+01 -0.59565891325E+01  0.82220845025E+01  0.10896186861E+02  0.51100000000E-03 0.  1.
        -12    1    3    3    0    0 -0.12654272444E+01 -0.89710246443E+01  0.12142522115E+02  0.15149964772E+02  0.00000000000E+00 0.  1.
</event>
<event>
 7    1  0.3766050E-009  0.4614232E+02  0.7816164E-02  0.1320468E+00
        -11   -1    0    0    0    0  0.00000000000E+00  0.00000000000E+00  0.45593999997E+02  0.45594000000E+02  0.51100000000E-03 0. -1.
         11   -1    0    0    0    0 -0.00000000000E+00 -0.00000000000E+00 -0.45593999997E+02  0.45594000000E+02  0.51100000000E-03 0.  1.
    9900012    2    1    2    0    0  0.20956016783E+01 -0.26746723531E+01 -0.44917347126E+02  0.46142317727E+02  0.99999996867E+01 0.  0.
         12    1    1    2    0    0 -0.20956016783E+01  0.26746723531E+01  0.44917347126E+02  0.45045682273E+02  0.00000000000E+00 0. -1.
         11    1    3    3    0    0 -0.23170955692E+01 -0.31991014014E+01 -0.31014583177E+02  0.31265117168E+02  0.51100000000E-03 0.  1.
        -11    1    3    3    0    0  0.46936602905E+00  0.99352313170E+00 -0.15366060092E+01  0.18890608701E+01  0.51100000000E-03 0. -1.
        -12    1    3    3    0    0  0.39433312185E+01 -0.46909408339E+00 -0.12366157941E+02  0.12988139689E+02  0.00000000000E+00 0.  1.
</event>
<event>
 7    1  0.3766050E-009  0.4614232E+02  0.7816164E-02  0.1320468E+00
        -11   -1    0    0    0    0  0.00000000000E+00  0.00000000000E+00  0.45593999997E+02  0.45594000000E+02  0.51100000000E-03 0. -1.
         11   -1    0    0    0    0 -0.00000000000E+00 -0.00000000000E+00 -0.45593999997E+02  0.45594000000E+02  0.51100000000E-03 0.  1.
    9900012    2    1    2    0    0 -0.32521486092E+02  0.40562917496E+01 -0.30903283352E+02  0.46142317828E+02  0.10000000614E+02 0.  0.
         12    1    1    2    0    0  0.32521486092E+02 -0.40562917496E+01  0.30903283352E+02  0.45045682172E+02  0.00000000000E+00 0. -1.
         11    1    3    3    0    0 -0.14348729457E+01 -0.74528859007E+00 -0.27792593636E+01  0.32153690805E+01  0.51100000000E-03 0. -1.
        -11    1    3    3    0    0 -0.23094545802E+02  0.82148774208E+00 -0.17138601711E+02  0.28770897740E+02  0.51100000000E-03 0.  1.
        -12    1    3    3    0    0 -0.79920673437E+01  0.39800925976E+01 -0.10985422278E+02  0.14156051008E+02  0.00000000000E+00 0.  1.
</event>
<event>
 7    1  0.3766050E-009  0.4614232E+02  0.7816164E-02  0.1320468E+00
        -11   -1    0    0    0    0  0.00000000000E+00  0.00000000000E+00  0.45593999997E+02  0.45594000000E+02  0.51100000000E-03 0.  1.
         11   -1    0    0    0    0 -0.00000000000E+00 -0.00000000000E+00 -0.45593999997E+02  0.45594000000E+02  0.51100000000E-03 0. -1.
    9900012    2    1    2    0    0  0.37394176190E+02  0.71867131765E+01  0.24065333370E+02  0.46142317306E+02  0.99999958480E+01 0.  0.
        -12    1    1    2    0    0 -0.37394176190E+02 -0.71867131765E+01 -0.24065333370E+02  0.45045682694E+02  0.00000000000E+00 0.  1.
         11    1    3    3    0    0  0.10056053332E+02  0.40109326725E+01  0.81611751802E+01  0.13557896965E+02  0.51100000000E-03 0. -1.
        -11    1    3    3    0    0  0.15057179794E+02 -0.16912712214E+01  0.72953885108E+01  0.16816710602E+02  0.51100000000E-03 0.  1.
        -12    1    3    3    0    0  0.12280943064E+02  0.48670517254E+01  0.86087696788E+01  0.15767709739E+02  0.00000000000E+00 0.  1.
</event>
<event>
 7    1  0.3766050E-009  0.4614232E+02  0.7816164E-02  0.1320468E+00
        -11   -1    0    0    0    0  0.00000000000E+00  0.00000000000E+00  0.45593999997E+02  0.45594000000E+02  0.51100000000E-03 0. -1.
         11   -1    0    0    0    0 -0.00000000000E+00 -0.00000000000E+00 -0.45593999997E+02  0.45594000000E+02  0.51100000000E-03 0.  1.
    9900012    2    1    2    0    0 -0.17120681827E+02 -0.20257202873E+02 -0.36409360130E+02  0.46142317415E+02  0.99999968448E+01 0.  0.
         12    1    1    2    0    0  0.17120681827E+02  0.20257202873E+02  0.36409360130E+02  0.45045682585E+02  0.00000000000E+00 0. -1.
         11    1    3    3    0    0 -0.47994330698E+01 -0.26305946673E+01 -0.31240091112E+01  0.63019060040E+01  0.51100000000E-03 0. -1.
        -11    1    3    3    0    0 -0.19561610181E+01 -0.50726321809E+01 -0.10664280262E+02  0.11970172804E+02  0.51100000000E-03 0.  1.
         12    1    3    3    0    0 -0.10365087739E+02 -0.12553976024E+02 -0.22621070757E+02  0.27870238608E+02  0.00000000000E+00 0. -1.
</event>
<event>
 7    1  0.3766050E-009  0.4614232E+02  0.7816164E-02  0.1320468E+00
        -11   -1    0    0    0    0  0.00000000000E+00  0.00000000000E+00  0.45593999997E+02  0.45594000000E+02  0.51100000000E-03 0. -1.
         11   -1    0    0    0    0 -0.00000000000E+00 -0.00000000000E+00 -0.45593999997E+02  0.45594000000E+02  0.51100000000E-03 0.  1.
    9900012    2    1    2    0    0  0.19724418814E+02  0.54176867163E+01 -0.40133644092E+02  0.46142318576E+02  0.10000007427E+02 0.  0.
         12    1    1    2    0    0 -0.19724418814E+02 -0.54176867163E+01  0.40133644092E+02  0.45045681424E+02  0.00000000000E+00 0. -1.
         11    1    3    3    0    0  0.25664702531E+01  0.39996971065E+01 -0.48213576349E+01  0.67697737191E+01  0.51100000000E-03 0. -1.
        -11    1    3    3    0    0  0.16398597384E+02  0.15017676477E+01 -0.34639968498E+02  0.38354878699E+02  0.51100000000E-03 0.  1.
        -12    1    3    3    0    0  0.75935117718E+00 -0.83778037950E-01 -0.67231795865E+00  0.10176661572E+01  0.00000000000E+00 0.  1.
</event>
<event>
 7    1  0.3766050E-009  0.4614232E+02  0.7816164E-02  0.1320468E+00
        -11   -1    0    0    0    0  0.00000000000E+00  0.00000000000E+00  0.45593999997E+02  0.45594000000E+02  0.51100000000E-03 0. -1.
         11   -1    0    0    0    0 -0.00000000000E+00 -0.00000000000E+00 -0.45593999997E+02  0.45594000000E+02  0.51100000000E-03 0.  1.
    9900012    2    1    2    0    0  0.18314540108E+02 -0.27196245891E+02  0.30887785437E+02  0.46142318085E+02  0.10000002957E+02 0.  0.
        -12    1    1    2    0    0 -0.18314540108E+02  0.27196245891E+02 -0.30887785437E+02  0.45045681915E+02  0.00000000000E+00 0.  1.
         11    1    3    3    0    0  0.21256937607E+01  0.74160234113E-01  0.61454044833E+00  0.22139859820E+01  0.51100000000E-03 0.  1.
        -11    1    3    3    0    0  0.13919513851E+02 -0.22438289077E+02  0.23905462506E+02  0.35618826769E+02  0.51100000000E-03 0. -1.
        -12    1    3    3    0    0  0.22693324970E+01 -0.48321170478E+01  0.63677824830E+01  0.83095053340E+01  0.00000000000E+00 0.  1.
</event>
<event>
 7    1  0.3766050E-009  0.4614232E+02  0.7816164E-02  0.1320468E+00
        -11   -1    0    0    0    0  0.00000000000E+00  0.00000000000E+00  0.45593999997E+02  0.45594000000E+02  0.51100000000E-03 0. -1.
         11   -1    0    0    0    0 -0.00000000000E+00 -0.00000000000E+00 -0.45593999997E+02  0.45594000000E+02  0.51100000000E-03 0.  1.
    9900012    2    1    2    0    0  0.14013984047E+02  0.13929029690E+02  0.40480906531E+02  0.46142318625E+02  0.10000007878E+02 0.  0.
        -12    1    1    2    0    0 -0.14013984047E+02 -0.13929029690E+02 -0.40480906531E+02  0.45045681375E+02  0.00000000000E+00 0.  1.
         11    1    3    3    0    0  0.11816106095E+02  0.92787973036E+01  0.30678396866E+02  0.34159632275E+02  0.51100000000E-03 0. -1.
        -11    1    3    3    0    0 -0.29904438577E+00 -0.78805763812E+00  0.18246714721E+01  0.20099474192E+01  0.51100000000E-03 0.  1.
         12    1    3    3    0    0  0.24969223384E+01  0.54382900244E+01  0.79778381929E+01  0.99727389310E+01  0.00000000000E+00 0. -1.
</event>
<event>
 7    1  0.3766050E-009  0.4614232E+02  0.7816164E-02  0.1320468E+00
        -11   -1    0    0    0    0  0.00000000000E+00  0.00000000000E+00  0.45593999997E+02  0.45594000000E+02  0.51100000000E-03 0. -1.
         11   -1    0    0    0    0 -0.00000000000E+00 -0.00000000000E+00 -0.45593999997E+02  0.45594000000E+02  0.51100000000E-03 0.  1.
    9900012    2    1    2    0    0 -0.17591141930E+02 -0.31531116188E+02 -0.26934256445E+02  0.46142315049E+02  0.99999752699E+01 0.  0.
         12    1    1    2    0    0  0.17591141930E+02  0.31531116188E+02  0.26934256445E+02  0.45045684951E+02  0.00000000000E+00 0. -1.
         11    1    3    3    0    0 -0.24370504105E+01 -0.26649247654E+00 -0.16534406445E+01  0.29570423009E+01  0.51100000000E-03 0. -1.
        -11    1    3    3    0    0 -0.70289690475E+01 -0.98098495668E+01 -0.84838335117E+01  0.14751779069E+02  0.51100000000E-03 0.  1.
         12    1    3    3    0    0 -0.81251224716E+01 -0.21454774145E+02 -0.16796982288E+02  0.28433493679E+02  0.00000000000E+00 0. -1.
</event>
<event>
 7    1  0.3766050E-009  0.4614232E+02  0.7816164E-02  0.1320468E+00
        -11   -1    0    0    0    0  0.00000000000E+00  0.00000000000E+00  0.45593999997E+02  0.45594000000E+02  0.51100000000E-03 0. -1.
         11   -1    0    0    0    0 -0.00000000000E+00 -0.00000000000E+00 -0.45593999997E+02  0.45594000000E+02  0.51100000000E-03 0.  1.
    9900012    2    1    2    0    0  0.24823936662E+01 -0.22042329859E+02  0.39205701428E+02  0.46142316429E+02  0.99999878527E+01 0.  0.
        -12    1    1    2    0    0 -0.24823936662E+01  0.22042329859E+02 -0.39205701428E+02  0.45045683571E+02  0.00000000000E+00 0.  1.
         11    1    3    3    0    0 -0.16371916874E+00 -0.17262363020E+02  0.29649141373E+02  0.34308709760E+02  0.51100000000E-03 0. -1.
        -11    1    3    3    0    0  0.70557331061E+00 -0.42186049895E+01  0.37592544145E+01  0.56944232165E+01  0.51100000000E-03 0.  1.
         12    1    3    3    0    0  0.19405395243E+01 -0.56136184939E+00  0.57973056405E+01  0.61391834523E+01  0.00000000000E+00 0. -1.
</event>
<event>
 7    1  0.3766050E-009  0.4614232E+02  0.7816164E-02  0.1320468E+00
        -11   -1    0    0    0    0  0.00000000000E+00  0.00000000000E+00  0.45593999997E+02  0.45594000000E+02  0.51100000000E-03 0. -1.
         11   -1    0    0    0    0 -0.00000000000E+00 -0.00000000000E+00 -0.45593999997E+02  0.45594000000E+02  0.51100000000E-03 0.  1.
    9900012    2    1    2    0    0  0.60379791765E+01 -0.44553879739E+02 -0.27582974987E+01  0.46142316551E+02  0.99999889654E+01 0.  0.
         12    1    1    2    0    0 -0.60379791765E+01  0.44553879739E+02  0.27582974987E+01  0.45045683449E+02  0.00000000000E+00 0. -1.
         11    1    3    3    0    0  0.93410761218E+00 -0.15274305653E+02 -0.48272463724E+01  0.16046160850E+02  0.51100000000E-03 0. -1.
        -11    1    3    3    0    0  0.13688257368E-02 -0.12096140056E+02  0.10687709042E+01  0.12143264703E+02  0.51100000000E-03 0.  1.
         12    1    3    3    0    0  0.51025027386E+01 -0.17183434029E+02  0.10001779695E+01  0.17952890999E+02  0.00000000000E+00 0. -1.
</event>
<event>
 7    1  0.3766050E-009  0.4614232E+02  0.7816164E-02  0.1320468E+00
        -11   -1    0    0    0    0  0.00000000000E+00  0.00000000000E+00  0.45593999997E+02  0.45594000000E+02  0.51100000000E-03 0. -1.
         11   -1    0    0    0    0 -0.00000000000E+00 -0.00000000000E+00 -0.45593999997E+02  0.45594000000E+02  0.51100000000E-03 0.  1.
    9900012    2    1    2    0    0  0.26164542891E+02 -0.20481090529E+01  0.36610591687E+02  0.46142317865E+02  0.10000000944E+02 0.  0.
        -12    1    1    2    0    0 -0.26164542891E+02  0.20481090529E+01 -0.36610591687E+02  0.45045682135E+02  0.00000000000E+00 0.  1.
         11    1    3    3    0    0 -0.26931631342E+00  0.31099918590E+00 -0.19909244693E+00  0.45704467380E+00  0.51100000000E-03 0.  1.
        -11    1    3    3    0    0  0.14227086970E+02  0.79211902820E+00  0.16726125749E+02  0.21972727164E+02  0.51100000000E-03 0. -1.
         12    1    3    3    0    0  0.12206772234E+02 -0.31512272670E+01  0.20083558385E+02  0.23712546027E+02  0.00000000000E+00 0. -1.
</event>
<event>
 7    1  0.3766050E-009  0.4614232E+02  0.7816164E-02  0.1320468E+00
        -11   -1    0    0    0    0  0.00000000000E+00  0.00000000000E+00  0.45593999997E+02  0.45594000000E+02  0.51100000000E-03 0. -1.
         11   -1    0    0    0    0 -0.00000000000E+00 -0.00000000000E+00 -0.45593999997E+02  0.45594000000E+02  0.51100000000E-03 0.  1.
    9900012    2    1    2    0    0 -0.36229182718E+01  0.58093230818E+01 -0.44522346957E+02  0.46142321517E+02  0.10000034246E+02 0.  0.
         12    1    1    2    0    0  0.36229182718E+01 -0.58093230818E+01  0.44522346957E+02  0.45045678483E+02  0.00000000000E+00 0. -1.
         11    1    3    3    0    0  0.95010519016E+00  0.70147300673E+00 -0.94218966880E+01  0.94956253987E+01  0.51100000000E-03 0. -1.
        -11    1    3    3    0    0 -0.16043696319E+01  0.39599380621E+01 -0.59617827314E+01  0.73347096036E+01  0.51100000000E-03 0.  1.
        -12    1    3    3    0    0 -0.29686538300E+01  0.11479120130E+01 -0.29138667538E+02  0.29311986514E+02  0.00000000000E+00 0.  1.
</event>
<event>
 7    1  0.3766050E-009  0.4614232E+02  0.7816164E-02  0.1320468E+00
        -11   -1    0    0    0    0  0.00000000000E+00  0.00000000000E+00  0.45593999997E+02  0.45594000000E+02  0.51100000000E-03 0.  1.
         11   -1    0    0    0    0 -0.00000000000E+00 -0.00000000000E+00 -0.45593999997E+02  0.45594000000E+02  0.51100000000E-03 0. -1.
    9900012    2    1    2    0    0  0.14838412282E+02 -0.39620167235E+02  0.15465360510E+02  0.46142317560E+02  0.99999981695E+01 0.  0.
         12    1    1    2    0    0 -0.14838412282E+02  0.39620167235E+02 -0.15465360510E+02  0.45045682440E+02  0.00000000000E+00 0. -1.
         11    1    3    3    0    0  0.56652632266E+01 -0.25476173899E+02  0.10513704401E+02  0.28136606484E+02  0.51100000000E-03 0. -1.
        -11    1    3    3    0    0  0.57593587963E+01 -0.79592346063E+01  0.90899071915E+00  0.98664022648E+01  0.51100000000E-03 0.  1.
         12    1    3    3    0    0  0.34137902586E+01 -0.61847587297E+01  0.40426653898E+01  0.81393088115E+01  0.00000000000E+00 0. -1.
</event>
<event>
 7    1  0.3766050E-009  0.4614232E+02  0.7816164E-02  0.1320468E+00
        -11   -1    0    0    0    0  0.00000000000E+00  0.00000000000E+00  0.45593999997E+02  0.45594000000E+02  0.51100000000E-03 0.  1.
         11   -1    0    0    0    0 -0.00000000000E+00 -0.00000000000E+00 -0.45593999997E+02  0.45594000000E+02  0.51100000000E-03 0. -1.
    9900012    2    1    2    0    0  0.38388506258E+02  0.23506639228E+02  0.16952671121E+01  0.46142318397E+02  0.10000005798E+02 0.  0.
         12    1    1    2    0    0 -0.38388506258E+02 -0.23506639228E+02 -0.16952671121E+01  0.45045681603E+02  0.00000000000E+00 0. -1.
         11    1    3    3    0    0  0.17139668412E+02  0.70117918517E+01 -0.16885469297E+01  0.18595285672E+02  0.51100000000E-03 0. -1.
        -11    1    3    3    0    0  0.14556381862E+02  0.10456463633E+02  0.44592057801E+01  0.18469174347E+02  0.51100000000E-03 0.  1.
        -12    1    3    3    0    0  0.66924559845E+01  0.60383837430E+01 -0.10753917384E+01  0.90778583776E+01  0.00000000000E+00 0.  1.
</event>
<event>
 7    1  0.3766050E-009  0.4614232E+02  0.7816164E-02  0.1320468E+00
        -11   -1    0    0    0    0  0.00000000000E+00  0.00000000000E+00  0.45593999997E+02  0.45594000000E+02  0.51100000000E-03 0. -1.
         11   -1    0    0    0    0 -0.00000000000E+00 -0.00000000000E+00 -0.45593999997E+02  0.45594000000E+02  0.51100000000E-03 0.  1.
    9900012    2    1    2    0    0 -0.15056211118E+02  0.41743312782E+02 -0.77407898249E+01  0.46142317828E+02  0.10000000609E+02 0.  0.
         12    1    1    2    0    0  0.15056211118E+02 -0.41743312782E+02  0.77407898249E+01  0.45045682172E+02  0.00000000000E+00 0. -1.
         11    1    3    3    0    0 -0.13748516731E+02  0.29469954628E+02 -0.60026364931E+01  0.33068589072E+02  0.51100000000E-03 0. -1.
        -11    1    3    3    0    0 -0.22055234670E+01  0.76467315490E+01 -0.24048911379E+01  0.83138642515E+01  0.51100000000E-03 0.  1.
         12    1    3    3    0    0  0.89782908024E+00  0.46266266049E+01  0.66673780614E+00  0.47598645044E+01  0.00000000000E+00 0. -1.
</event>
<event>
 7    1  0.3766050E-009  0.4614232E+02  0.7816164E-02  0.1320468E+00
        -11   -1    0    0    0    0  0.00000000000E+00  0.00000000000E+00  0.45593999997E+02  0.45594000000E+02  0.51100000000E-03 0. -1.
         11   -1    0    0    0    0 -0.00000000000E+00 -0.00000000000E+00 -0.45593999997E+02  0.45594000000E+02  0.51100000000E-03 0.  1.
    9900012    2    1    2    0    0 -0.30107182130E+02  0.85085774504E+01 -0.32407949069E+02  0.46142317977E+02  0.10000001972E+02 0.  0.
         12    1    1    2    0    0  0.30107182130E+02 -0.85085774504E+01  0.32407949069E+02  0.45045682023E+02  0.00000000000E+00 0. -1.
         11    1    3    3    0    0 -0.20603094674E+02  0.25637083835E+01 -0.20086862789E+02  0.28888443499E+02  0.51100000000E-03 0.  1.
        -11    1    3    3    0    0 -0.15615096586E+01  0.14077492865E+01 -0.26282498648E+00  0.21187608884E+01  0.51100000000E-03 0. -1.
         12    1    3    3    0    0 -0.79425777977E+01  0.45371197804E+01 -0.12058261294E+02  0.15135113590E+02  0.00000000000E+00 0. -1.
</event>
<event>
 7    1  0.3766050E-009  0.4614232E+02  0.7816164E-02  0.1320468E+00
        -11   -1    0    0    0    0  0.00000000000E+00  0.00000000000E+00  0.45593999997E+02  0.45594000000E+02  0.51100000000E-03 0. -1.
         11   -1    0    0    0    0 -0.00000000000E+00 -0.00000000000E+00 -0.45593999997E+02  0.45594000000E+02  0.51100000000E-03 0.  1.
    9900012    2    1    2    0    0  0.11952197430E+02  0.23561531022E+02  0.36484415618E+02  0.46142319291E+02  0.10000013955E+02 0.  0.
        -12    1    1    2    0    0 -0.11952197430E+02 -0.23561531022E+02 -0.36484415618E+02  0.45045680709E+02  0.00000000000E+00 0.  1.
         11    1    3    3    0    0  0.45015885214E+01  0.11075076420E+02  0.14934069185E+02  0.19129768415E+02  0.51100000000E-03 0. -1.
        -11    1    3    3    0    0  0.75564787560E+01  0.76226136496E+01  0.18117951035E+02  0.21058602992E+02  0.51100000000E-03 0.  1.
        -12    1    3    3    0    0 -0.10586984738E+00  0.48638409523E+01  0.34323953986E+01  0.59539478841E+01  0.00000000000E+00 0.  1.
</event>
<event>
 7    1  0.3766050E-009  0.4614231E+02  0.7816164E-02  0.1320468E+00
        -11   -1    0    0    0    0  0.00000000000E+00  0.00000000000E+00  0.45593999997E+02  0.45594000000E+02  0.51100000000E-03 0. -1.
         11   -1    0    0    0    0 -0.00000000000E+00 -0.00000000000E+00 -0.45593999997E+02  0.45594000000E+02  0.51100000000E-03 0.  1.
    9900012    2    1    2    0    0  0.20089422386E+02 -0.47545254109E+01 -0.40036525008E+02  0.46142314985E+02  0.99999746894E+01 0.  0.
         12    1    1    2    0    0 -0.20089422386E+02  0.47545254109E+01  0.40036525008E+02  0.45045685015E+02  0.00000000000E+00 0. -1.
         11    1    3    3    0    0  0.14521387624E+01 -0.35290798821E+00 -0.46151498242E+01  0.48510678406E+01  0.51100000000E-03 0. -1.
        -11    1    3    3    0    0  0.14592034248E+02 -0.27088859197E+01 -0.18015362615E+02  0.23341354220E+02  0.51100000000E-03 0.  1.
        -12    1    3    3    0    0  0.40452493757E+01 -0.16927315030E+01 -0.17406012569E+02  0.17949892925E+02  0.00000000000E+00 0.  1.
</event>
<event>
 7    1  0.3766050E-009  0.4614232E+02  0.7816164E-02  0.1320468E+00
        -11   -1    0    0    0    0  0.00000000000E+00  0.00000000000E+00  0.45593999997E+02  0.45594000000E+02  0.51100000000E-03 0.  1.
         11   -1    0    0    0    0 -0.00000000000E+00 -0.00000000000E+00 -0.45593999997E+02  0.45594000000E+02  0.51100000000E-03 0. -1.
    9900012    2    1    2    0    0 -0.44569158153E+02  0.63998796483E+01  0.13208475034E+01  0.46142323669E+02  0.10000053873E+02 0.  0.
         12    1    1    2    0    0  0.44569158153E+02 -0.63998796483E+01 -0.13208475034E+01  0.45045676331E+02  0.00000000000E+00 0. -1.
         11    1    3    3    0    0 -0.62808162437E+01  0.11755416621E+00  0.24227416811E+01  0.67329153555E+01  0.51100000000E-03 0. -1.
        -11    1    3    3    0    0 -0.36563682488E+02  0.50780272530E+01  0.23801321351E+00  0.36915388233E+02  0.51100000000E-03 0.  1.
        -12    1    3    3    0    0 -0.17246594216E+01  0.12042982292E+01 -0.13399073912E+01  0.24940200806E+01  0.00000000000E+00 0.  1.
</event>
<event>
 7    1  0.3766050E-009  0.4614231E+02  0.7816164E-02  0.1320468E+00
        -11   -1    0    0    0    0  0.00000000000E+00  0.00000000000E+00  0.45593999997E+02  0.45594000000E+02  0.51100000000E-03 0. -1.
         11   -1    0    0    0    0 -0.00000000000E+00 -0.00000000000E+00 -0.45593999997E+02  0.45594000000E+02  0.51100000000E-03 0.  1.
    9900012    2    1    2    0    0  0.14457729973E+02  0.41140358534E+02 -0.11294200337E+02  0.46142311887E+02  0.99999464396E+01 0.  0.
         12    1    1    2    0    0 -0.14457729973E+02 -0.41140358534E+02  0.11294200337E+02  0.45045688113E+02  0.00000000000E+00 0. -1.
         11    1    3    3    0    0  0.74218944681E+01  0.12709116499E+02 -0.54474181004E+01  0.15693327368E+02  0.51100000000E-03 0. -1.
        -11    1    3    3    0    0  0.46111462614E+01  0.23727942448E+02 -0.67137962386E+01  0.25086908595E+02  0.51100000000E-03 0.  1.
         12    1    3    3    0    0  0.24246892436E+01  0.47032995871E+01  0.86701400183E+00  0.53620759239E+01  0.00000000000E+00 0. -1.
</event>
<event>
 7    1  0.3766050E-009  0.4614232E+02  0.7816164E-02  0.1320468E+00
        -11   -1    0    0    0    0  0.00000000000E+00  0.00000000000E+00  0.45593999997E+02  0.45594000000E+02  0.51100000000E-03 0. -1.
         11   -1    0    0    0    0 -0.00000000000E+00 -0.00000000000E+00 -0.45593999997E+02  0.45594000000E+02  0.51100000000E-03 0.  1.
    9900012    2    1    2    0    0 -0.33478815281E+02 -0.72264279938E+01  0.29258522970E+02  0.46142317626E+02  0.99999987656E+01 0.  0.
        -12    1    1    2    0    0  0.33478815281E+02  0.72264279938E+01 -0.29258522970E+02  0.45045682374E+02  0.00000000000E+00 0.  1.
         11    1    3    3    0    0 -0.64364517723E+01 -0.27755208396E+01  0.49895971799E+01  0.86039239668E+01  0.51100000000E-03 0. -1.
        -11    1    3    3    0    0 -0.10642687701E+02  0.16347363989E+01  0.63668423551E+01  0.12509030595E+02  0.51100000000E-03 0.  1.
        -12    1    3    3    0    0 -0.16399675807E+02 -0.60856435531E+01  0.17902083435E+02  0.25029363064E+02  0.00000000000E+00 0.  1.
</event>
<event>
 7    1  0.3766050E-009  0.4614232E+02  0.7816164E-02  0.1320468E+00
        -11   -1    0    0    0    0  0.00000000000E+00  0.00000000000E+00  0.45593999997E+02  0.45594000000E+02  0.51100000000E-03 0. -1.
         11   -1    0    0    0    0 -0.00000000000E+00 -0.00000000000E+00 -0.45593999997E+02  0.45594000000E+02  0.51100000000E-03 0.  1.
    9900012    2    1    2    0    0  0.80901881173E-01 -0.18523069711E+01  0.45007509208E+02  0.46142317950E+02  0.10000001724E+02 0.  0.
        -12    1    1    2    0    0 -0.80901881173E-01  0.18523069711E+01 -0.45007509208E+02  0.45045682050E+02  0.00000000000E+00 0.  1.
         11    1    3    3    0    0 -0.24602777329E+01 -0.18221738477E+01  0.28364911900E+02  0.28529660205E+02  0.51100000000E-03 0. -1.
        -11    1    3    3    0    0 -0.46882941726E+00 -0.12410318246E+01  0.10662882226E+01  0.17020375575E+01  0.51100000000E-03 0.  1.
         12    1    3    3    0    0  0.30100090313E+01  0.12108987012E+01  0.15576309085E+02  0.15910620188E+02  0.00000000000E+00 0. -1.
</event>
<event>
 7    1  0.3766050E-009  0.4614232E+02  0.7816164E-02  0.1320468E+00
        -11   -1    0    0    0    0  0.00000000000E+00  0.00000000000E+00  0.45593999997E+02  0.45594000000E+02  0.51100000000E-03 0. -1.
         11   -1    0    0    0    0 -0.00000000000E+00 -0.00000000000E+00 -0.45593999997E+02  0.45594000000E+02  0.51100000000E-03 0.  1.
    9900012    2    1    2    0    0 -0.19643906095E+02 -0.40415554309E+02  0.31326422215E+01  0.46142317364E+02  0.99999963814E+01 0.  0.
        -12    1    1    2    0    0  0.19643906095E+02  0.40415554309E+02 -0.31326422215E+01  0.45045682636E+02  0.00000000000E+00 0.  1.
         11    1    3    3    0    0 -0.88914983514E+01 -0.90931805520E+01  0.23970383331E+01  0.12941810867E+02  0.51100000000E-03 0. -1.
        -11    1    3    3    0    0 -0.95601074241E+01 -0.28576624676E+02  0.12682872260E+01  0.30160034558E+02  0.51100000000E-03 0.  1.
         12    1    3    3    0    0 -0.11923003199E+01 -0.27457490819E+01 -0.53268333766E+00  0.30404719390E+01  0.00000000000E+00 0. -1.
</event>
<event>
 7    1  0.3766050E-009  0.4614232E+02  0.7816164E-02  0.1320468E+00
        -11   -1    0    0    0    0  0.00000000000E+00  0.00000000000E+00  0.45593999997E+02  0.45594000000E+02  0.51100000000E-03 0. -1.
         11   -1    0    0    0    0 -0.00000000000E+00 -0.00000000000E+00 -0.45593999997E+02  0.45594000000E+02  0.51100000000E-03 0.  1.
    9900012    2    1    2    0    0  0.19774544486E+02  0.12400640078E+02  0.38526677548E+02  0.46142319110E+02  0.10000012299E+02 0.  0.
        -12    1    1    2    0    0 -0.19774544486E+02 -0.12400640078E+02 -0.38526677548E+02  0.45045680890E+02  0.00000000000E+00 0.  1.
         11    1    3    3    0    0  0.11985850306E+02  0.82059265316E+01  0.31295752549E+02  0.34502492166E+02  0.51100000000E-03 0. -1.
        -11    1    3    3    0    0  0.12597851979E-01  0.44865290055E+00  0.14272531957E+00  0.47097654827E+00  0.51100000000E-03 0.  1.
         12    1    3    3    0    0  0.77760963283E+01  0.37460606461E+01  0.70881996795E+01  0.11168850396E+02  0.00000000000E+00 0. -1.
</event>
<event>
 7    1  0.3766050E-009  0.4614232E+02  0.7816164E-02  0.1320468E+00
        -11   -1    0    0    0    0  0.00000000000E+00  0.00000000000E+00  0.45593999997E+02  0.45594000000E+02  0.51100000000E-03 0. -1.
         11   -1    0    0    0    0 -0.00000000000E+00 -0.00000000000E+00 -0.45593999997E+02  0.45594000000E+02  0.51100000000E-03 0.  1.
    9900012    2    1    2    0    0  0.34275106771E+02 -0.32092894481E+01 -0.29052212883E+02  0.46142317007E+02  0.99999931230E+01 0.  0.
         12    1    1    2    0    0 -0.34275106771E+02  0.32092894481E+01  0.29052212883E+02  0.45045682993E+02  0.00000000000E+00 0. -1.
         11    1    3    3    0    0  0.92159229603E+01 -0.35457888750E+01 -0.52566140942E+01  0.11186502883E+02  0.51100000000E-03 0. -1.
        -11    1    3    3    0    0  0.13107142125E+02 -0.22906867813E+01 -0.11168447602E+02  0.17371777190E+02  0.51100000000E-03 0.  1.
         12    1    3    3    0    0  0.11952041686E+02  0.26271862082E+01 -0.12627151186E+02  0.17584036934E+02  0.00000000000E+00 0. -1.
</event>
<event>
 7    1  0.3766050E-009  0.4614232E+02  0.7816164E-02  0.1320468E+00
        -11   -1    0    0    0    0  0.00000000000E+00  0.00000000000E+00  0.45593999997E+02  0.45594000000E+02  0.51100000000E-03 0. -1.
         11   -1    0    0    0    0 -0.00000000000E+00 -0.00000000000E+00 -0.45593999997E+02  0.45594000000E+02  0.51100000000E-03 0.  1.
    9900012    2    1    2    0    0  0.75941816392E+01  0.32664799549E+01  0.44280605054E+02  0.46142317965E+02  0.10000001861E+02 0.  0.
        -12    1    1    2    0    0 -0.75941816392E+01 -0.32664799549E+01 -0.44280605054E+02  0.45045682035E+02  0.00000000000E+00 0.  1.
         11    1    3    3    0    0  0.43952554448E+01  0.65236722635E+01  0.22457683820E+02  0.23795464548E+02  0.51100000000E-03 0. -1.
        -11    1    3    3    0    0  0.18523582083E+01 -0.28555540705E+01  0.15711867623E+02  0.16076324345E+02  0.51100000000E-03 0.  1.
         12    1    3    3    0    0  0.13465679861E+01 -0.40163823805E+00  0.61110536111E+01  0.62705290728E+01  0.00000000000E+00 0. -1.
</event>
<event>
 7    1  0.3766050E-009  0.4614232E+02  0.7816164E-02  0.1320468E+00
        -11   -1    0    0    0    0  0.00000000000E+00  0.00000000000E+00  0.45593999997E+02  0.45594000000E+02  0.51100000000E-03 0. -1.
         11   -1    0    0    0    0 -0.00000000000E+00 -0.00000000000E+00 -0.45593999997E+02  0.45594000000E+02  0.51100000000E-03 0.  1.
    9900012    2    1    2    0    0  0.44699759702E+01  0.86525745201E+01  0.43980291098E+02  0.46142315011E+02  0.99999749264E+01 0.  0.
        -12    1    1    2    0    0 -0.44699759702E+01 -0.86525745201E+01 -0.43980291098E+02  0.45045684989E+02  0.00000000000E+00 0.  1.
         11    1    3    3    0    0  0.21981449862E+01 -0.28850648004E+00  0.23632581161E+01  0.32403806186E+01  0.51100000000E-03 0. -1.
        -11    1    3    3    0    0  0.62158400571E+00 -0.40837438878E+00  0.58194020421E+01  0.58667347568E+01  0.51100000000E-03 0.  1.
         12    1    3    3    0    0  0.16502469783E+01  0.93494553889E+01  0.35797630940E+02  0.37035199636E+02  0.00000000000E+00 0. -1.
</event>
<event>
 7    1  0.3766050E-009  0.4614233E+02  0.7816164E-02  0.1320468E+00
        -11   -1    0    0    0    0  0.00000000000E+00  0.00000000000E+00  0.45593999997E+02  0.45594000000E+02  0.51100000000E-03 0.  1.
         11   -1    0    0    0    0 -0.00000000000E+00 -0.00000000000E+00 -0.45593999997E+02  0.45594000000E+02  0.51100000000E-03 0. -1.
    9900012    2    1    2    0    0  0.40345529995E+02 -0.19448079919E+02  0.48085974074E+01  0.46142331927E+02  0.10000129173E+02 0.  0.
        -12    1    1    2    0    0 -0.40345529995E+02  0.19448079919E+02 -0.48085974074E+01  0.45045668073E+02  0.00000000000E+00 0.  1.
         11    1    3    3    0    0  0.27839853735E+02 -0.10693904595E+02  0.14986785679E+01  0.29860728210E+02  0.51100000000E-03 0. -1.
        -11    1    3    3    0    0  0.98917658376E+01 -0.54949095303E+01  0.40889242409E+01  0.12031640114E+02  0.51100000000E-03 0.  1.
        -12    1    3    3    0    0  0.26139104224E+01 -0.32592657938E+01 -0.77900540135E+00  0.42499636029E+01  0.00000000000E+00 0.  1.
</event>
<event>
 7    1  0.3766050E-009  0.4614232E+02  0.7816164E-02  0.1320468E+00
        -11   -1    0    0    0    0  0.00000000000E+00  0.00000000000E+00  0.45593999997E+02  0.45594000000E+02  0.51100000000E-03 0. -1.
         11   -1    0    0    0    0 -0.00000000000E+00 -0.00000000000E+00 -0.45593999997E+02  0.45594000000E+02  0.51100000000E-03 0.  1.
    9900012    2    1    2    0    0 -0.12166841934E+02  0.17894657709E+02 -0.39507753536E+02  0.46142318668E+02  0.10000008269E+02 0.  0.
         12    1    1    2    0    0  0.12166841934E+02 -0.17894657709E+02  0.39507753536E+02  0.45045681332E+02  0.00000000000E+00 0. -1.
         11    1    3    3    0    0 -0.81908182242E+01  0.78943084812E+01 -0.11783615444E+02  0.16378742405E+02  0.51100000000E-03 0. -1.
        -11    1    3    3    0    0 -0.13682136753E+01  0.50245666901E+01 -0.13011439579E+02  0.14014843534E+02  0.51100000000E-03 0.  1.
         12    1    3    3    0    0 -0.26078100345E+01  0.49757825382E+01 -0.14712698513E+02  0.15748732729E+02  0.00000000000E+00 0. -1.
</event>
<event>
 7    1  0.3766050E-009  0.4614232E+02  0.7816164E-02  0.1320468E+00
        -11   -1    0    0    0    0  0.00000000000E+00  0.00000000000E+00  0.45593999997E+02  0.45594000000E+02  0.51100000000E-03 0. -1.
         11   -1    0    0    0    0 -0.00000000000E+00 -0.00000000000E+00 -0.45593999997E+02  0.45594000000E+02  0.51100000000E-03 0.  1.
    9900012    2    1    2    0    0 -0.21451968074E+02 -0.20701666829E+02 -0.33769331003E+02  0.46142315855E+02  0.99999826161E+01 0.  0.
         12    1    1    2    0    0  0.21451968074E+02  0.20701666829E+02  0.33769331003E+02  0.45045684145E+02  0.00000000000E+00 0. -1.
         11    1    3    3    0    0 -0.45583326747E+01 -0.63664625049E+01 -0.13894819008E+02  0.15949176691E+02  0.51100000000E-03 0. -1.
        -11    1    3    3    0    0 -0.13139033810E+01 -0.23173848288E+01 -0.44717932040E+01  0.52051464206E+01  0.51100000000E-03 0.  1.
         12    1    3    3    0    0 -0.15579732018E+02 -0.12017819495E+02 -0.15402718791E+02  0.24987992743E+02  0.00000000000E+00 0. -1.
</event>
<event>
 7    1  0.3766050E-009  0.4614232E+02  0.7816164E-02  0.1320468E+00
        -11   -1    0    0    0    0  0.00000000000E+00  0.00000000000E+00  0.45593999997E+02  0.45594000000E+02  0.51100000000E-03 0. -1.
         11   -1    0    0    0    0 -0.00000000000E+00 -0.00000000000E+00 -0.45593999997E+02  0.45594000000E+02  0.51100000000E-03 0.  1.
    9900012    2    1    2    0    0  0.31168492922E+02  0.13552406287E+02  0.29562997148E+02  0.46142317992E+02  0.10000002106E+02 0.  0.
        -12    1    1    2    0    0 -0.31168492922E+02 -0.13552406287E+02 -0.29562997148E+02  0.45045682008E+02  0.00000000000E+00 0.  1.
         11    1    3    3    0    0  0.88483642903E+01  0.17186396836E+01  0.74886754821E+01  0.11718683105E+02  0.51100000000E-03 0. -1.
        -11    1    3    3    0    0  0.14208046612E+02  0.34923227209E+01  0.14087893964E+02  0.20310924723E+02  0.51100000000E-03 0.  1.
        -12    1    3    3    0    0  0.81120820205E+01  0.83414438821E+01  0.79864277017E+01  0.14112710164E+02  0.00000000000E+00 0.  1.
</event>
<event>
 7    1  0.3766050E-009  0.4614232E+02  0.7816164E-02  0.1320468E+00
        -11   -1    0    0    0    0  0.00000000000E+00  0.00000000000E+00  0.45593999997E+02  0.45594000000E+02  0.51100000000E-03 0. -1.
         11   -1    0    0    0    0 -0.00000000000E+00 -0.00000000000E+00 -0.45593999997E+02  0.45594000000E+02  0.51100000000E-03 0.  1.
    9900012    2    1    2    0    0 -0.37167704837E+02  0.99397163571E+01 -0.23428124314E+02  0.46142320374E+02  0.10000023826E+02 0.  0.
         12    1    1    2    0    0  0.37167704837E+02 -0.99397163571E+01  0.23428124314E+02  0.45045679626E+02  0.00000000000E+00 0. -1.
         11    1    3    3    0    0 -0.11310751024E+01 -0.12617708032E+01 -0.83433797336E+00  0.18887870610E+01  0.51100000000E-03 0. -1.
        -11    1    3    3    0    0 -0.20368386731E+02  0.70495904716E+01 -0.10179648670E+02  0.23836802452E+02  0.51100000000E-03 0.  1.
        -12    1    3    3    0    0 -0.15668243003E+02  0.41518966887E+01 -0.12414137671E+02  0.20416730861E+02  0.00000000000E+00 0.  1.
</event>
<event>
 7    1  0.3766050E-009  0.4614232E+02  0.7816164E-02  0.1320468E+00
        -11   -1    0    0    0    0  0.00000000000E+00  0.00000000000E+00  0.45593999997E+02  0.45594000000E+02  0.51100000000E-03 0. -1.
         11   -1    0    0    0    0 -0.00000000000E+00 -0.00000000000E+00 -0.45593999997E+02  0.45594000000E+02  0.51100000000E-03 0.  1.
    9900012    2    1    2    0    0  0.11833531923E+01 -0.60386017169E+01  0.44623407550E+02  0.46142317223E+02  0.99999950895E+01 0.  0.
        -12    1    1    2    0    0 -0.11833531923E+01  0.60386017169E+01 -0.44623407550E+02  0.45045682777E+02  0.00000000000E+00 0.  1.
         11    1    3    3    0    0 -0.19380797267E+00  0.20214298697E+01  0.52666122046E+01  0.56445499930E+01  0.51100000000E-03 0. -1.
        -11    1    3    3    0    0  0.10155488396E+00 -0.73590503105E+01  0.37021912087E+02  0.37746362867E+02  0.51100000000E-03 0.  1.
         12    1    3    3    0    0  0.12756062810E+01 -0.70098127610E+00  0.23348832592E+01  0.27514043628E+01  0.00000000000E+00 0. -1.
</event>
<event>
 7    1  0.3766050E-009  0.4614232E+02  0.7816164E-02  0.1320468E+00
        -11   -1    0    0    0    0  0.00000000000E+00  0.00000000000E+00  0.45593999997E+02  0.45594000000E+02  0.51100000000E-03 0. -1.
         11   -1    0    0    0    0 -0.00000000000E+00 -0.00000000000E+00 -0.45593999997E+02  0.45594000000E+02  0.51100000000E-03 0.  1.
    9900012    2    1    2    0    0 -0.10602080196E+02  0.18615893802E+02 -0.39625218062E+02  0.46142317487E+02  0.99999975042E+01 0.  0.
         12    1    1    2    0    0  0.10602080196E+02 -0.18615893802E+02  0.39625218062E+02  0.45045682513E+02  0.00000000000E+00 0. -1.
         11    1    3    3    0    0 -0.23824310465E+01  0.58629777621E+00 -0.96720123011E+01  0.99783538215E+01  0.51100000000E-03 0. -1.
        -11    1    3    3    0    0 -0.67881238235E+01  0.11833261251E+02 -0.17581199174E+02  0.22253162956E+02  0.51100000000E-03 0.  1.
        -12    1    3    3    0    0 -0.14315253260E+01  0.61963347749E+01 -0.12372006587E+02  0.13910800710E+02  0.00000000000E+00 0.  1.
</event>
<event>
 7    1  0.5189556E-009  0.4614232E+02  0.7816164E-02  0.1320468E+00
        -11   -1    0    0    0    0  0.00000000000E+00  0.00000000000E+00  0.45593999997E+02  0.45594000000E+02  0.51100000000E-03 0. -1.
         11   -1    0    0    0    0 -0.00000000000E+00 -0.00000000000E+00 -0.45593999997E+02  0.45594000000E+02  0.51100000000E-03 0.  1.
    9900012    2    1    2    0    0 -0.20732895065E+01 -0.27051623958E+02 -0.35958651481E+02  0.46142317583E+02  0.99999983729E+01 0.  0.
         12    1    1    2    0    0  0.20732895065E+01  0.27051623958E+02  0.35958651481E+02  0.45045682417E+02  0.00000000000E+00 0. -1.
         11    1    3    3    0    0  0.63762514685E+00 -0.46489087350E+00  0.46508362020E+00  0.91596527612E+00  0.51100000000E-03 0. -1.
        -11    1    3    3    0    0 -0.74206012914E+00 -0.16371200483E+02 -0.23074943039E+02  0.28302294165E+02  0.51100000000E-03 0.  1.
         12    1    3    3    0    0 -0.19688545242E+01 -0.10215532601E+02 -0.13348792062E+02  0.16924058141E+02  0.00000000000E+00 0. -1.
</event>
<event>
 7    1  0.3766050E-009  0.4614232E+02  0.7816164E-02  0.1320468E+00
        -11   -1    0    0    0    0  0.00000000000E+00  0.00000000000E+00  0.45593999997E+02  0.45594000000E+02  0.51100000000E-03 0. -1.
         11   -1    0    0    0    0 -0.00000000000E+00 -0.00000000000E+00 -0.45593999997E+02  0.45594000000E+02  0.51100000000E-03 0.  1.
    9900012    2    1    2    0    0 -0.21881526986E+02  0.92359428709E+01  0.38275443774E+02  0.46142318075E+02  0.10000002867E+02 0.  0.
        -12    1    1    2    0    0  0.21881526986E+02 -0.92359428709E+01 -0.38275443774E+02  0.45045681925E+02  0.00000000000E+00 0.  1.
         11    1    3    3    0    0 -0.60560156073E+01  0.27163684811E+00  0.61487565422E+01  0.86346001002E+01  0.51100000000E-03 0. -1.
        -11    1    3    3    0    0 -0.82720602522E+01  0.18960567176E+01  0.18885018294E+02  0.20704249035E+02  0.51100000000E-03 0.  1.
        -12    1    3    3    0    0 -0.75534511263E+01  0.70682493051E+01  0.13241668938E+02  0.16803468940E+02  0.00000000000E+00 0.  1.
</event>
<event>
 7    1  0.3766050E-009  0.4614231E+02  0.7816164E-02  0.1320468E+00
        -11   -1    0    0    0    0  0.00000000000E+00  0.00000000000E+00  0.45593999997E+02  0.45594000000E+02  0.51100000000E-03 0. -1.
         11   -1    0    0    0    0 -0.00000000000E+00 -0.00000000000E+00 -0.45593999997E+02  0.45594000000E+02  0.51100000000E-03 0.  1.
    9900012    2    1    2    0    0 -0.38477020668E+02  0.12529803682E+02  0.19789816532E+02  0.46142312768E+02  0.99999544690E+01 0.  0.
        -12    1    1    2    0    0  0.38477020668E+02 -0.12529803682E+02 -0.19789816532E+02  0.45045687232E+02  0.00000000000E+00 0.  1.
         11    1    3    3    0    0 -0.21825622332E+02  0.79387003108E+01  0.15669330142E+02  0.28016221375E+02  0.51100000000E-03 0. -1.
        -11    1    3    3    0    0 -0.16505666243E+01 -0.50796178975E+00  0.94008156153E+00  0.19662525180E+01  0.51100000000E-03 0.  1.
         12    1    3    3    0    0 -0.15000831713E+02  0.50990651608E+01  0.31804048283E+01  0.16159838875E+02  0.00000000000E+00 0. -1.
</event>
<event>
 7    1  0.3766050E-009  0.4614232E+02  0.7816164E-02  0.1320468E+00
        -11   -1    0    0    0    0  0.00000000000E+00  0.00000000000E+00  0.45593999997E+02  0.45594000000E+02  0.51100000000E-03 0. -1.
         11   -1    0    0    0    0 -0.00000000000E+00 -0.00000000000E+00 -0.45593999997E+02  0.45594000000E+02  0.51100000000E-03 0.  1.
    9900012    2    1    2    0    0  0.10742588428E+02  0.11587417422E+02  0.42183433471E+02  0.46142317543E+02  0.99999980111E+01 0.  0.
        -12    1    1    2    0    0 -0.10742588428E+02 -0.11587417422E+02 -0.42183433471E+02  0.45045682457E+02  0.00000000000E+00 0.  1.
         11    1    3    3    0    0  0.47214567085E+01  0.45369908556E+01  0.22857692018E+02  0.23777100835E+02  0.51100000000E-03 0. -1.
        -11    1    3    3    0    0  0.47906077043E+01  0.82366769902E+01  0.16833214830E+02  0.19342954578E+02  0.51100000000E-03 0.  1.
        -12    1    3    3    0    0  0.12305240150E+01 -0.11862504236E+01  0.24925266221E+01  0.30222621298E+01  0.00000000000E+00 0.  1.
</event>
<event>
 7    1  0.3766050E-009  0.4614232E+02  0.7816164E-02  0.1320468E+00
        -11   -1    0    0    0    0  0.00000000000E+00  0.00000000000E+00  0.45593999997E+02  0.45594000000E+02  0.51100000000E-03 0. -1.
         11   -1    0    0    0    0 -0.00000000000E+00 -0.00000000000E+00 -0.45593999997E+02  0.45594000000E+02  0.51100000000E-03 0.  1.
    9900012    2    1    2    0    0  0.33534246636E+02  0.35664170526E+01  0.29863830823E+02  0.46142318527E+02  0.10000006979E+02 0.  0.
        -12    1    1    2    0    0 -0.33534246636E+02 -0.35664170526E+01 -0.29863830823E+02  0.45045681473E+02  0.00000000000E+00 0.  1.
         11    1    3    3    0    0  0.14471144297E+01  0.10087271102E+01  0.39645984272E+01  0.43393215490E+01  0.51100000000E-03 0. -1.
        -11    1    3    3    0    0  0.26635995717E+02  0.45092698227E+01  0.21685985374E+02  0.34642340338E+02  0.51100000000E-03 0.  1.
        -12    1    3    3    0    0  0.54511364885E+01 -0.19515798804E+01  0.42132470212E+01  0.71606566394E+01  0.00000000000E+00 0.  1.
</event>
<event>
 7    1  0.3766050E-009  0.4614232E+02  0.7816164E-02  0.1320468E+00
        -11   -1    0    0    0    0  0.00000000000E+00  0.00000000000E+00  0.45593999997E+02  0.45594000000E+02  0.51100000000E-03 0. -1.
         11   -1    0    0    0    0 -0.00000000000E+00 -0.00000000000E+00 -0.45593999997E+02  0.45594000000E+02  0.51100000000E-03 0.  1.
    9900012    2    1    2    0    0 -0.28059491156E+02  0.11075708433E+02  0.33453058230E+02  0.46142318007E+02  0.10000002245E+02 0.  0.
        -12    1    1    2    0    0  0.28059491156E+02 -0.11075708433E+02 -0.33453058230E+02  0.45045681993E+02  0.00000000000E+00 0.  1.
         11    1    3    3    0    0 -0.54472417163E+01  0.25154205387E+01  0.38940101798E+01  0.71528384816E+01  0.51100000000E-03 0. -1.
        -11    1    3    3    0    0 -0.10534098797E+02  0.81733109106E+01  0.15988302457E+02  0.20818166692E+02  0.51100000000E-03 0.  1.
        -12    1    3    3    0    0 -0.12078150642E+02  0.38697698398E+00  0.13570745593E+02  0.18171312833E+02  0.00000000000E+00 0.  1.
</event>
<event>
 7    1  0.3766050E-009  0.4614232E+02  0.7816164E-02  0.1320468E+00
        -11   -1    0    0    0    0  0.00000000000E+00  0.00000000000E+00  0.45593999997E+02  0.45594000000E+02  0.51100000000E-03 0. -1.
         11   -1    0    0    0    0 -0.00000000000E+00 -0.00000000000E+00 -0.45593999997E+02  0.45594000000E+02  0.51100000000E-03 0.  1.
    9900012    2    1    2    0    0 -0.19099847580E+02 -0.32750903367E+02  0.24324631602E+02  0.46142317060E+02  0.99999936107E+01 0.  0.
        -12    1    1    2    0    0  0.19099847580E+02  0.32750903367E+02 -0.24324631602E+02  0.45045682940E+02  0.00000000000E+00 0.  1.
         11    1    3    3    0    0 -0.10027649521E+02 -0.13171803100E+02  0.98501444180E+01  0.19263319992E+02  0.51100000000E-03 0. -1.
        -11    1    3    3    0    0  0.10999676243E+01 -0.12754531834E+01  0.14182169523E+01  0.22018285997E+01  0.51100000000E-03 0.  1.
        -12    1    3    3    0    0 -0.10172165683E+02 -0.18303647084E+02  0.13056270232E+02  0.24677168468E+02  0.00000000000E+00 0.  1.
</event>
<event>
 7    1  0.3766050E-009  0.4614232E+02  0.7816164E-02  0.1320468E+00
        -11   -1    0    0    0    0  0.00000000000E+00  0.00000000000E+00  0.45593999997E+02  0.45594000000E+02  0.51100000000E-03 0. -1.
         11   -1    0    0    0    0 -0.00000000000E+00 -0.00000000000E+00 -0.45593999997E+02  0.45594000000E+02  0.51100000000E-03 0.  1.
    9900012    2    1    2    0    0 -0.13465958051E+02  0.79357283248E+01  0.42246959964E+02  0.46142318337E+02  0.10000005253E+02 0.  0.
        -12    1    1    2    0    0  0.13465958051E+02 -0.79357283248E+01 -0.42246959964E+02  0.45045681663E+02  0.00000000000E+00 0.  1.
         11    1    3    3    0    0 -0.44741249196E+01  0.38927426665E+00  0.11865902922E+02  0.12687355148E+02  0.51100000000E-03 0. -1.
        -11    1    3    3    0    0 -0.22488354420E+01  0.11549073761E+01  0.11396718795E+01  0.27730712480E+01  0.51100000000E-03 0.  1.
         12    1    3    3    0    0 -0.67429976892E+01  0.63915466821E+01  0.29241385163E+02  0.30681891941E+02  0.00000000000E+00 0. -1.
</event>
<event>
 7    1  0.3766050E-009  0.4614231E+02  0.7816164E-02  0.1320468E+00
        -11   -1    0    0    0    0  0.00000000000E+00  0.00000000000E+00  0.45593999997E+02  0.45594000000E+02  0.51100000000E-03 0. -1.
         11   -1    0    0    0    0 -0.00000000000E+00 -0.00000000000E+00 -0.45593999997E+02  0.45594000000E+02  0.51100000000E-03 0.  1.
    9900012    2    1    2    0    0 -0.34499751261E+02  0.12615035415E+01 -0.28935956294E+02  0.46142314358E+02  0.99999689699E+01 0.  0.
         12    1    1    2    0    0  0.34499751261E+02 -0.12615035415E+01  0.28935956294E+02  0.45045685642E+02  0.00000000000E+00 0. -1.
         11    1    3    3    0    0 -0.24554592354E+02  0.76030504783E+00 -0.22010864970E+02  0.32984606204E+02  0.51100000000E-03 0.  1.
        -11    1    3    3    0    0 -0.61889877427E+01  0.26635764014E+01 -0.51212760433E+01  0.84631954425E+01  0.51100000000E-03 0. -1.
         12    1    3    3    0    0 -0.37561711643E+01 -0.21623779077E+01 -0.18038152806E+01  0.46945127114E+01  0.00000000000E+00 0. -1.
</event>
<event>
 7    1  0.3766050E-009  0.4614232E+02  0.7816164E-02  0.1320468E+00
        -11   -1    0    0    0    0  0.00000000000E+00  0.00000000000E+00  0.45593999997E+02  0.45594000000E+02  0.51100000000E-03 0. -1.
         11   -1    0    0    0    0 -0.00000000000E+00 -0.00000000000E+00 -0.45593999997E+02  0.45594000000E+02  0.51100000000E-03 0.  1.
    9900012    2    1    2    0    0  0.23622336242E+01 -0.27632502166E+02  0.35496171104E+02  0.46142317780E+02  0.10000000168E+02 0.  0.
        -12    1    1    2    0    0 -0.23622336242E+01  0.27632502166E+02 -0.35496171104E+02  0.45045682220E+02  0.00000000000E+00 0.  1.
         11    1    3    3    0    0  0.42572645669E+01 -0.84399519846E+01  0.11410902584E+02  0.14817752500E+02  0.51100000000E-03 0.  1.
        -11    1    3    3    0    0 -0.16376725650E+01 -0.19523069548E+02  0.23370661500E+02  0.30496229853E+02  0.51100000000E-03 0. -1.
        -12    1    3    3    0    0 -0.25735837775E+00  0.33051936711E+00  0.71460701992E+00  0.82833542695E+00  0.00000000000E+00 0.  1.
</event>
<event>
 7    1  0.3766050E-009  0.4614232E+02  0.7816164E-02  0.1320468E+00
        -11   -1    0    0    0    0  0.00000000000E+00  0.00000000000E+00  0.45593999997E+02  0.45594000000E+02  0.51100000000E-03 0. -1.
         11   -1    0    0    0    0 -0.00000000000E+00 -0.00000000000E+00 -0.45593999997E+02  0.45594000000E+02  0.51100000000E-03 0.  1.
    9900012    2    1    2    0    0 -0.34247901826E+02 -0.18219129990E+02 -0.22896681903E+02  0.46142317419E+02  0.99999968778E+01 0.  0.
         12    1    1    2    0    0  0.34247901826E+02  0.18219129990E+02  0.22896681903E+02  0.45045682581E+02  0.00000000000E+00 0. -1.
         11    1    3    3    0    0 -0.60374878351E+01 -0.42193849909E+01 -0.20957004460E+01  0.76580956955E+01  0.51100000000E-03 0. -1.
        -11    1    3    3    0    0 -0.33465978750E+01 -0.32269202203E+01 -0.60569532634E+01  0.76354053292E+01  0.51100000000E-03 0.  1.
        -12    1    3    3    0    0 -0.24863816116E+02 -0.10772824778E+02 -0.14744028194E+02  0.30848816394E+02  0.00000000000E+00 0.  1.
</event>
<event>
 7    1  0.3766050E-009  0.4614231E+02  0.7816164E-02  0.1320468E+00
        -11   -1    0    0    0    0  0.00000000000E+00  0.00000000000E+00  0.45593999997E+02  0.45594000000E+02  0.51100000000E-03 0. -1.
         11   -1    0    0    0    0 -0.00000000000E+00 -0.00000000000E+00 -0.45593999997E+02  0.45594000000E+02  0.51100000000E-03 0.  1.
    9900012    2    1    2    0    0 -0.32980997311E+02  0.32884522639E+01  0.30504980503E+02  0.46142312776E+02  0.99999545440E+01 0.  0.
        -12    1    1    2    0    0  0.32980997311E+02 -0.32884522639E+01 -0.30504980503E+02  0.45045687224E+02  0.00000000000E+00 0.  1.
         11    1    3    3    0    0  0.12588526830E+00  0.71630389898E+00  0.11013934910E+01  0.13198508475E+01  0.51100000000E-03 0.  1.
        -11    1    3    3    0    0 -0.28020711286E+02  0.26442966872E+01  0.21474730760E+02  0.35402212183E+02  0.51100000000E-03 0. -1.
         12    1    3    3    0    0 -0.50861712935E+01 -0.72148322180E-01  0.79288562523E+01  0.94202497460E+01  0.00000000000E+00 0. -1.
</event>
<event>
 7    1  0.3766050E-009  0.4614232E+02  0.7816164E-02  0.1320468E+00
        -11   -1    0    0    0    0  0.00000000000E+00  0.00000000000E+00  0.45593999997E+02  0.45594000000E+02  0.51100000000E-03 0. -1.
         11   -1    0    0    0    0 -0.00000000000E+00 -0.00000000000E+00 -0.45593999997E+02  0.45594000000E+02  0.51100000000E-03 0.  1.
    9900012    2    1    2    0    0 -0.38196621166E+02  0.14231942045E+01  0.23834971041E+02  0.46142321020E+02  0.10000029715E+02 0.  0.
        -12    1    1    2    0    0  0.38196621166E+02 -0.14231942045E+01 -0.23834971041E+02  0.45045678980E+02  0.00000000000E+00 0.  1.
         11    1    3    3    0    0 -0.53301146472E+01  0.21351919377E+01  0.89857713620E+00  0.58117646110E+01  0.51100000000E-03 0. -1.
        -11    1    3    3    0    0 -0.40774835269E+01  0.37274396916E+00  0.47045490098E+01  0.62367933768E+01  0.51100000000E-03 0.  1.
         12    1    3    3    0    0 -0.28789022992E+02 -0.10847417024E+01  0.18231844895E+02  0.34093763032E+02  0.00000000000E+00 0. -1.
</event>
<event>
 7    1  0.3766050E-009  0.4614232E+02  0.7816164E-02  0.1320468E+00
        -11   -1    0    0    0    0  0.00000000000E+00  0.00000000000E+00  0.45593999997E+02  0.45594000000E+02  0.51100000000E-03 0. -1.
         11   -1    0    0    0    0 -0.00000000000E+00 -0.00000000000E+00 -0.45593999997E+02  0.45594000000E+02  0.51100000000E-03 0.  1.
    9900012    2    1    2    0    0 -0.80427260485E+01  0.40436356261E+02  0.18147427899E+02  0.46142317751E+02  0.99999999064E+01 0.  0.
        -12    1    1    2    0    0  0.80427260485E+01 -0.40436356261E+02 -0.18147427899E+02  0.45045682249E+02  0.00000000000E+00 0.  1.
         11    1    3    3    0    0 -0.78212408435E+01  0.32194878870E+02  0.10300856992E+02  0.34695672480E+02  0.51100000000E-03 0. -1.
        -11    1    3    3    0    0  0.28568516168E+00  0.64916118115E+01  0.63982656833E+01  0.91192348329E+01  0.51100000000E-03 0.  1.
         12    1    3    3    0    0 -0.50717036666E+00  0.17498655791E+01  0.14483052240E+01  0.23274104381E+01  0.00000000000E+00 0. -1.
</event>
<event>
 7    1  0.5285654E-009  0.4614232E+02  0.7816164E-02  0.1320468E+00
        -11   -1    0    0    0    0  0.00000000000E+00  0.00000000000E+00  0.45593999997E+02  0.45594000000E+02  0.51100000000E-03 0. -1.
         11   -1    0    0    0    0 -0.00000000000E+00 -0.00000000000E+00 -0.45593999997E+02  0.45594000000E+02  0.51100000000E-03 0.  1.
    9900012    2    1    2    0    0  0.18903150787E+02 -0.17405708677E+02 -0.36997644382E+02  0.46142317699E+02  0.99999994303E+01 0.  0.
         12    1    1    2    0    0 -0.18903150787E+02  0.17405708677E+02  0.36997644382E+02  0.45045682301E+02  0.00000000000E+00 0. -1.
         11    1    3    3    0    0  0.16331270711E+01  0.66963640433E-01 -0.56795242857E-01  0.16354858973E+01  0.51100000000E-03 0. -1.
        -11    1    3    3    0    0  0.12674007472E+02 -0.11180143657E+02 -0.23085389174E+02  0.28610509803E+02  0.51100000000E-03 0.  1.
         12    1    3    3    0    0  0.45960162437E+01 -0.62925286599E+01 -0.13855459965E+02  0.15896321998E+02  0.00000000000E+00 0. -1.
</event>
<event>
 7    1  0.3766050E-009  0.4614232E+02  0.7816164E-02  0.1320468E+00
        -11   -1    0    0    0    0  0.00000000000E+00  0.00000000000E+00  0.45593999997E+02  0.45594000000E+02  0.51100000000E-03 0. -1.
         11   -1    0    0    0    0 -0.00000000000E+00 -0.00000000000E+00 -0.45593999997E+02  0.45594000000E+02  0.51100000000E-03 0.  1.
    9900012    2    1    2    0    0  0.95936486896E+01  0.73280804107E+01  0.43397862548E+02  0.46142319503E+02  0.10000015887E+02 0.  0.
        -12    1    1    2    0    0 -0.95936486896E+01 -0.73280804107E+01 -0.43397862548E+02  0.45045680497E+02  0.00000000000E+00 0.  1.
         11    1    3    3    0    0  0.58463840261E+01  0.62922460190E+01  0.38432758408E+02  0.39380826366E+02  0.51100000000E-03 0. -1.
        -11    1    3    3    0    0  0.30534908011E+01 -0.13773860165E+00  0.25177097460E+01  0.39600051289E+01  0.51100000000E-03 0.  1.
         12    1    3    3    0    0  0.69377386244E+00  0.11735729933E+01  0.24473943939E+01  0.28014880085E+01  0.00000000000E+00 0. -1.
</event>
<event>
 7    1  0.3766050E-009  0.4614232E+02  0.7816164E-02  0.1320468E+00
        -11   -1    0    0    0    0  0.00000000000E+00  0.00000000000E+00  0.45593999997E+02  0.45594000000E+02  0.51100000000E-03 0. -1.
         11   -1    0    0    0    0 -0.00000000000E+00 -0.00000000000E+00 -0.45593999997E+02  0.45594000000E+02  0.51100000000E-03 0.  1.
    9900012    2    1    2    0    0 -0.31460581839E+02 -0.40062230455E+01 -0.31988988785E+02  0.46142318340E+02  0.10000005278E+02 0.  0.
         12    1    1    2    0    0  0.31460581839E+02  0.40062230455E+01  0.31988988785E+02  0.45045681660E+02  0.00000000000E+00 0. -1.
         11    1    3    3    0    0 -0.20585646620E+02  0.57638006947E-01 -0.23606451500E+02  0.31321505736E+02  0.51100000000E-03 0.  1.
        -11    1    3    3    0    0 -0.15861828616E+01 -0.37028415123E+00  0.20599247509E+00  0.16418037593E+01  0.51100000000E-03 0. -1.
        -12    1    3    3    0    0 -0.92887523572E+01 -0.36935769012E+01 -0.85885297604E+01  0.13179008845E+02  0.00000000000E+00 0.  1.
</event>
<event>
 7    1  0.3766050E-009  0.4614232E+02  0.7816164E-02  0.1320468E+00
        -11   -1    0    0    0    0  0.00000000000E+00  0.00000000000E+00  0.45593999997E+02  0.45594000000E+02  0.51100000000E-03 0. -1.
         11   -1    0    0    0    0 -0.00000000000E+00 -0.00000000000E+00 -0.45593999997E+02  0.45594000000E+02  0.51100000000E-03 0.  1.
    9900012    2    1    2    0    0  0.13634009500E+02  0.41383337672E+02 -0.11430077664E+02  0.46142317328E+02  0.99999960517E+01 0.  0.
         12    1    1    2    0    0 -0.13634009500E+02 -0.41383337672E+02  0.11430077664E+02  0.45045682672E+02  0.00000000000E+00 0. -1.
         11    1    3    3    0    0 -0.14371727168E+01  0.22464925393E+01 -0.13832287760E+01  0.30042496991E+01  0.51100000000E-03 0. -1.
        -11    1    3    3    0    0  0.10767599005E+02  0.26986001755E+02 -0.73084428607E+01  0.29959953544E+02  0.51100000000E-03 0.  1.
         12    1    3    3    0    0  0.43035832118E+01  0.12150843378E+02 -0.27384060275E+01  0.13178114085E+02  0.00000000000E+00 0. -1.
</event>
<event>
 7    1  0.3766050E-009  0.4614232E+02  0.7816164E-02  0.1320468E+00
        -11   -1    0    0    0    0  0.00000000000E+00  0.00000000000E+00  0.45593999997E+02  0.45594000000E+02  0.51100000000E-03 0. -1.
         11   -1    0    0    0    0 -0.00000000000E+00 -0.00000000000E+00 -0.45593999997E+02  0.45594000000E+02  0.51100000000E-03 0.  1.
    9900012    2    1    2    0    0  0.13658005413E+02 -0.17637494874E+01  0.42888944318E+02  0.46142317978E+02  0.10000001978E+02 0.  0.
        -12    1    1    2    0    0 -0.13658005413E+02  0.17637494874E+01 -0.42888944318E+02  0.45045682022E+02  0.00000000000E+00 0.  1.
         11    1    3    3    0    0  0.11426841984E+01  0.13250520875E+01  0.23518265661E+01  0.29313100603E+01  0.51100000000E-03 0.  1.
        -11    1    3    3    0    0  0.11821208832E+02 -0.47521804000E+01  0.38140928198E+02  0.40212617434E+02  0.51100000000E-03 0. -1.
         12    1    3    3    0    0  0.69411238287E+00  0.16633788252E+01  0.23961895536E+01  0.29983904837E+01  0.00000000000E+00 0. -1.
</event>
<event>
 7    1  0.3766050E-009  0.4614232E+02  0.7816164E-02  0.1320468E+00
        -11   -1    0    0    0    0  0.00000000000E+00  0.00000000000E+00  0.45593999997E+02  0.45594000000E+02  0.51100000000E-03 0.  1.
         11   -1    0    0    0    0 -0.00000000000E+00 -0.00000000000E+00 -0.45593999997E+02  0.45594000000E+02  0.51100000000E-03 0. -1.
    9900012    2    1    2    0    0 -0.24259695945E+02 -0.37952487224E+02  0.43514536930E+00  0.46142317795E+02  0.10000000312E+02 0.  0.
        -12    1    1    2    0    0  0.24259695945E+02  0.37952487224E+02 -0.43514536930E+00  0.45045682205E+02  0.00000000000E+00 0.  1.
         11    1    3    3    0    0 -0.37795209874E+01 -0.38033873211E+01 -0.17253244620E+01  0.56326972907E+01  0.51100000000E-03 0. -1.
        -11    1    3    3    0    0 -0.16083607343E+02 -0.21895432394E+02  0.36263951097E+01  0.27408814761E+02  0.51100000000E-03 0.  1.
        -12    1    3    3    0    0 -0.43965676148E+01 -0.12253667509E+02 -0.14659252784E+01  0.13100805743E+02  0.00000000000E+00 0.  1.
</event>
<event>
 7    1  0.3766050E-009  0.4614232E+02  0.7816164E-02  0.1320468E+00
        -11   -1    0    0    0    0  0.00000000000E+00  0.00000000000E+00  0.45593999997E+02  0.45594000000E+02  0.51100000000E-03 0. -1.
         11   -1    0    0    0    0 -0.00000000000E+00 -0.00000000000E+00 -0.45593999997E+02  0.45594000000E+02  0.51100000000E-03 0.  1.
    9900012    2    1    2    0    0  0.23823396312E+02 -0.34088480141E+02 -0.17307059336E+02  0.46142323259E+02  0.10000050138E+02 0.  0.
         12    1    1    2    0    0 -0.23823396312E+02  0.34088480141E+02  0.17307059336E+02  0.45045676741E+02  0.00000000000E+00 0. -1.
         11    1    3    3    0    0 -0.18789799332E+00 -0.34489054173E+01 -0.28192376965E+01  0.44585149640E+01  0.51100000000E-03 0. -1.
        -11    1    3    3    0    0  0.17857003092E+02 -0.20239067768E+02 -0.95803477513E+01  0.28640451932E+02  0.51100000000E-03 0.  1.
         12    1    3    3    0    0  0.61542912133E+01 -0.10400506955E+02 -0.49074738885E+01  0.13043356364E+02  0.00000000000E+00 0. -1.
</event>
<event>
 7    1  0.3766050E-009  0.4614232E+02  0.7816164E-02  0.1320468E+00
        -11   -1    0    0    0    0  0.00000000000E+00  0.00000000000E+00  0.45593999997E+02  0.45594000000E+02  0.51100000000E-03 0. -1.
         11   -1    0    0    0    0 -0.00000000000E+00 -0.00000000000E+00 -0.45593999997E+02  0.45594000000E+02  0.51100000000E-03 0.  1.
    9900012    2    1    2    0    0 -0.12096225315E+02  0.14670650398E+02  0.40835852908E+02  0.46142317269E+02  0.99999955160E+01 0.  0.
        -12    1    1    2    0    0  0.12096225315E+02 -0.14670650398E+02 -0.40835852908E+02  0.45045682731E+02  0.00000000000E+00 0.  1.
         11    1    3    3    0    0 -0.80618307589E+00 -0.27735848810E+00 -0.85862478869E-01  0.85687309980E+00  0.51100000000E-03 0. -1.
        -11    1    3    3    0    0 -0.24217890285E+01  0.55040969872E+00  0.54754885495E+01  0.60124028518E+01  0.51100000000E-03 0.  1.
         12    1    3    3    0    0 -0.88682532101E+01  0.14397599187E+02  0.35446226837E+02  0.39273041318E+02  0.00000000000E+00 0. -1.
</event>
<event>
 7    1  0.3766050E-009  0.4614232E+02  0.7816164E-02  0.1320468E+00
        -11   -1    0    0    0    0  0.00000000000E+00  0.00000000000E+00  0.45593999997E+02  0.45594000000E+02  0.51100000000E-03 0. -1.
         11   -1    0    0    0    0 -0.00000000000E+00 -0.00000000000E+00 -0.45593999997E+02  0.45594000000E+02  0.51100000000E-03 0.  1.
    9900012    2    1    2    0    0 -0.18500941411E+02 -0.36538745863E+02 -0.18754965017E+02  0.46142317686E+02  0.99999993132E+01 0.  0.
         12    1    1    2    0    0  0.18500941411E+02  0.36538745863E+02  0.18754965017E+02  0.45045682314E+02  0.00000000000E+00 0. -1.
         11    1    3    3    0    0 -0.10106234527E+02 -0.10987855412E+02 -0.55414370519E+01  0.15924084518E+02  0.51100000000E-03 0. -1.
        -11    1    3    3    0    0 -0.73437273986E+01 -0.23963836167E+02 -0.13172051719E+02  0.28314284782E+02  0.51100000000E-03 0.  1.
        -12    1    3    3    0    0 -0.10509794852E+01 -0.15870542841E+01 -0.41476246912E-01  0.19039483864E+01  0.00000000000E+00 0.  1.
</event>
<event>
 7    1  0.3766050E-009  0.4614232E+02  0.7816164E-02  0.1320468E+00
        -11   -1    0    0    0    0  0.00000000000E+00  0.00000000000E+00  0.45593999997E+02  0.45594000000E+02  0.51100000000E-03 0.  1.
         11   -1    0    0    0    0 -0.00000000000E+00 -0.00000000000E+00 -0.45593999997E+02  0.45594000000E+02  0.51100000000E-03 0. -1.
    9900012    2    1    2    0    0 -0.44078501380E+02 -0.75283266392E+01  0.54335460487E+01  0.46142318647E+02  0.10000008079E+02 0.  0.
         12    1    1    2    0    0  0.44078501380E+02  0.75283266392E+01 -0.54335460487E+01  0.45045681353E+02  0.00000000000E+00 0. -1.
         11    1    3    3    0    0 -0.35092680903E+01  0.13858283437E+01  0.77354245992E+00  0.38514738641E+01  0.51100000000E-03 0. -1.
        -11    1    3    3    0    0 -0.33226123775E+02 -0.85378152836E+01  0.16480194068E+01  0.34345095125E+02  0.51100000000E-03 0.  1.
        -12    1    3    3    0    0 -0.73431095146E+01 -0.37633969923E+00  0.30119841821E+01  0.79457496579E+01  0.00000000000E+00 0.  1.
</event>
<event>
 7    1  0.3766050E-009  0.4614232E+02  0.7816164E-02  0.1320468E+00
        -11   -1    0    0    0    0  0.00000000000E+00  0.00000000000E+00  0.45593999997E+02  0.45594000000E+02  0.51100000000E-03 0.  1.
         11   -1    0    0    0    0 -0.00000000000E+00 -0.00000000000E+00 -0.45593999997E+02  0.45594000000E+02  0.51100000000E-03 0. -1.
    9900012    2    1    2    0    0  0.15672731733E+02  0.41333244900E+02  0.86626758807E+01  0.46142316441E+02  0.99999879592E+01 0.  0.
        -12    1    1    2    0    0 -0.15672731733E+02 -0.41333244900E+02 -0.86626758807E+01  0.45045683559E+02  0.00000000000E+00 0.  1.
         11    1    3    3    0    0  0.10656391878E+02  0.20605731311E+02  0.67922824511E+01  0.24172090350E+02  0.51100000000E-03 0. -1.
        -11    1    3    3    0    0 -0.51653745504E+00  0.78978126812E+01  0.47772115878E+00  0.79290903549E+01  0.51100000000E-03 0.  1.
         12    1    3    3    0    0  0.55328773106E+01  0.12829700907E+02  0.13926722709E+01  0.14041135736E+02  0.00000000000E+00 0. -1.
</event>
<event>
 7    1  0.3766050E-009  0.4614232E+02  0.7816164E-02  0.1320468E+00
        -11   -1    0    0    0    0  0.00000000000E+00  0.00000000000E+00  0.45593999997E+02  0.45594000000E+02  0.51100000000E-03 0. -1.
         11   -1    0    0    0    0 -0.00000000000E+00 -0.00000000000E+00 -0.45593999997E+02  0.45594000000E+02  0.51100000000E-03 0.  1.
    9900012    2    1    2    0    0 -0.33926786802E+02 -0.17113204141E+02  0.24191421274E+02  0.46142317833E+02  0.10000000652E+02 0.  0.
        -12    1    1    2    0    0  0.33926786802E+02  0.17113204141E+02 -0.24191421274E+02  0.45045682167E+02  0.00000000000E+00 0.  1.
         11    1    3    3    0    0 -0.12307649804E+02 -0.85134531959E+01  0.64312397214E+01  0.16288584151E+02  0.51100000000E-03 0. -1.
        -11    1    3    3    0    0 -0.21921839677E+02 -0.86870789013E+01  0.17788397284E+02  0.29537424953E+02  0.51100000000E-03 0.  1.
        -12    1    3    3    0    0  0.30270267962E+00  0.87327956209E-01 -0.28215731727E-01  0.31630872847E+00  0.00000000000E+00 0.  1.
</event>
<event>
 7    1  0.3766050E-009  0.4614233E+02  0.7816164E-02  0.1320468E+00
        -11   -1    0    0    0    0  0.00000000000E+00  0.00000000000E+00  0.45593999997E+02  0.45594000000E+02  0.51100000000E-03 0. -1.
         11   -1    0    0    0    0 -0.00000000000E+00 -0.00000000000E+00 -0.45593999997E+02  0.45594000000E+02  0.51100000000E-03 0.  1.
    9900012    2    1    2    0    0 -0.30627600562E+02 -0.27167692779E+02 -0.18787732118E+02  0.46142330672E+02  0.10000117729E+02 0.  0.
         12    1    1    2    0    0  0.30627600562E+02  0.27167692779E+02  0.18787732118E+02  0.45045669328E+02  0.00000000000E+00 0. -1.
         11    1    3    3    0    0 -0.37346446762E+01 -0.41131978409E+00 -0.33112725318E+01  0.50081214905E+01  0.51100000000E-03 0. -1.
        -11    1    3    3    0    0 -0.25384677179E+02 -0.25123272068E+02 -0.15443414505E+02  0.38910919890E+02  0.51100000000E-03 0.  1.
        -12    1    3    3    0    0 -0.15082787069E+01 -0.16331009268E+01 -0.33045080957E-01  0.22232892912E+01  0.00000000000E+00 0.  1.
</event>
<event>
 7    1  0.3766050E-009  0.4614232E+02  0.7816164E-02  0.1320468E+00
        -11   -1    0    0    0    0  0.00000000000E+00  0.00000000000E+00  0.45593999997E+02  0.45594000000E+02  0.51100000000E-03 0. -1.
         11   -1    0    0    0    0 -0.00000000000E+00 -0.00000000000E+00 -0.45593999997E+02  0.45594000000E+02  0.51100000000E-03 0.  1.
    9900012    2    1    2    0    0 -0.14331397032E+02  0.21567086078E+02 -0.36858993483E+02  0.46142317150E+02  0.99999944275E+01 0.  0.
         12    1    1    2    0    0  0.14331397032E+02 -0.21567086078E+02  0.36858993483E+02  0.45045682850E+02  0.00000000000E+00 0. -1.
         11    1    3    3    0    0 -0.31103341298E+01  0.11600655421E+02 -0.21520193590E+02  0.24644839561E+02  0.51100000000E-03 0. -1.
        -11    1    3    3    0    0 -0.89811400943E+01  0.74036632309E+01 -0.11406875017E+02  0.16296990659E+02  0.51100000000E-03 0.  1.
         12    1    3    3    0    0 -0.22399228084E+01  0.25627674269E+01 -0.39319248760E+01  0.52004869293E+01  0.00000000000E+00 0. -1.
</event>
<event>
 7    1  0.3766050E-009  0.4614232E+02  0.7816164E-02  0.1320468E+00
        -11   -1    0    0    0    0  0.00000000000E+00  0.00000000000E+00  0.45593999997E+02  0.45594000000E+02  0.51100000000E-03 0. -1.
         11   -1    0    0    0    0 -0.00000000000E+00 -0.00000000000E+00 -0.45593999997E+02  0.45594000000E+02  0.51100000000E-03 0.  1.
    9900012    2    1    2    0    0 -0.17502040583E+02 -0.10579803803E+02  0.40135515338E+02  0.46142320246E+02  0.10000022657E+02 0.  0.
        -12    1    1    2    0    0  0.17502040583E+02  0.10579803803E+02 -0.40135515338E+02  0.45045679754E+02  0.00000000000E+00 0.  1.
         11    1    3    3    0    0 -0.90717405522E+01 -0.93626342388E+01  0.27740724168E+02  0.30651316027E+02  0.51100000000E-03 0. -1.
        -11    1    3    3    0    0 -0.41664617494E+01 -0.15325891461E+01  0.36133023269E+01  0.57240009579E+01  0.51100000000E-03 0.  1.
         12    1    3    3    0    0 -0.42638382811E+01  0.31541958233E+00  0.87814888428E+01  0.97670032608E+01  0.00000000000E+00 0. -1.
</event>
<event>
 7    1  0.3766050E-009  0.4614232E+02  0.7816164E-02  0.1320468E+00
        -11   -1    0    0    0    0  0.00000000000E+00  0.00000000000E+00  0.45593999997E+02  0.45594000000E+02  0.51100000000E-03 0. -1.
         11   -1    0    0    0    0 -0.00000000000E+00 -0.00000000000E+00 -0.45593999997E+02  0.45594000000E+02  0.51100000000E-03 0.  1.
    9900012    2    1    2    0    0  0.29712594429E+02  0.28232016902E+02  0.18687655679E+02  0.46142317401E+02  0.99999967174E+01 0.  0.
        -12    1    1    2    0    0 -0.29712594429E+02 -0.28232016902E+02 -0.18687655679E+02  0.45045682599E+02  0.00000000000E+00 0.  1.
         11    1    3    3    0    0  0.20003630402E+02  0.21692028413E+02  0.12930236135E+02  0.32216150184E+02  0.51100000000E-03 0. -1.
        -11    1    3    3    0    0  0.49545572275E+01  0.65090865647E+00  0.13861444231E+01  0.51858187418E+01  0.51100000000E-03 0.  1.
        -12    1    3    3    0    0  0.47544067993E+01  0.58890798326E+01  0.43712751210E+01  0.87403484755E+01  0.00000000000E+00 0.  1.
</event>
<event>
 7    1  0.3766050E-009  0.4614232E+02  0.7816164E-02  0.1320468E+00
        -11   -1    0    0    0    0  0.00000000000E+00  0.00000000000E+00  0.45593999997E+02  0.45594000000E+02  0.51100000000E-03 0. -1.
         11   -1    0    0    0    0 -0.00000000000E+00 -0.00000000000E+00 -0.45593999997E+02  0.45594000000E+02  0.51100000000E-03 0.  1.
    9900012    2    1    2    0    0  0.38008495951E+02  0.19959502384E+02  0.13641334205E+02  0.46142317645E+02  0.99999989436E+01 0.  0.
        -12    1    1    2    0    0 -0.38008495951E+02 -0.19959502384E+02 -0.13641334205E+02  0.45045682355E+02  0.00000000000E+00 0.  1.
         11    1    3    3    0    0  0.11112988866E+02  0.31151138158E+01  0.54024077405E+01  0.12743173282E+02  0.51100000000E-03 0. -1.
        -11    1    3    3    0    0  0.60793216195E+00 -0.56854595209E+00  0.14103599329E+00  0.84422593285E+00  0.51100000000E-03 0.  1.
        -12    1    3    3    0    0  0.26287574923E+02  0.17412934521E+02  0.80978904709E+01  0.32554918431E+02  0.00000000000E+00 0.  1.
</event>
<event>
 7    1  0.3766050E-009  0.4614232E+02  0.7816164E-02  0.1320468E+00
        -11   -1    0    0    0    0  0.00000000000E+00  0.00000000000E+00  0.45593999997E+02  0.45594000000E+02  0.51100000000E-03 0. -1.
         11   -1    0    0    0    0 -0.00000000000E+00 -0.00000000000E+00 -0.45593999997E+02  0.45594000000E+02  0.51100000000E-03 0.  1.
    9900012    2    1    2    0    0  0.46266131178E+01  0.10315921557E+02 -0.43603780402E+02  0.46142318167E+02  0.10000003700E+02 0.  0.
         12    1    1    2    0    0 -0.46266131178E+01 -0.10315921557E+02  0.43603780402E+02  0.45045681833E+02  0.00000000000E+00 0. -1.
         11    1    3    3    0    0  0.18275271849E+01  0.86533333384E+00 -0.11073641153E+01  0.23054094940E+01  0.51100000000E-03 0. -1.
        -11    1    3    3    0    0  0.30990904727E+01  0.57802077262E+01 -0.20189965791E+02  0.21228515776E+02  0.51100000000E-03 0.  1.
        -12    1    3    3    0    0 -0.30000453978E+00  0.36703804969E+01 -0.22306450495E+02  0.22608392897E+02  0.00000000000E+00 0.  1.
</event>
<event>
 7    1  0.3766050E-009  0.4614232E+02  0.7816164E-02  0.1320468E+00
        -11   -1    0    0    0    0  0.00000000000E+00  0.00000000000E+00  0.45593999997E+02  0.45594000000E+02  0.51100000000E-03 0. -1.
         11   -1    0    0    0    0 -0.00000000000E+00 -0.00000000000E+00 -0.45593999997E+02  0.45594000000E+02  0.51100000000E-03 0.  1.
    9900012    2    1    2    0    0  0.23180272902E+02 -0.11382683707E+02  0.36908303370E+02  0.46142318766E+02  0.10000009166E+02 0.  0.
        -12    1    1    2    0    0 -0.23180272902E+02  0.11382683707E+02 -0.36908303370E+02  0.45045681234E+02  0.00000000000E+00 0.  1.
         11    1    3    3    0    0  0.12009426681E+02 -0.85397364481E+01  0.24177111233E+02  0.28314062507E+02  0.51100000000E-03 0. -1.
        -11    1    3    3    0    0  0.10163256396E+02 -0.29314239822E+01  0.13021162245E+02  0.16776045231E+02  0.51100000000E-03 0.  1.
        -12    1    3    3    0    0  0.10075898250E+01  0.88476722908E-01 -0.28997010745E+00  0.10522110288E+01  0.00000000000E+00 0.  1.
</event>
<event>
 7    1  0.3766050E-009  0.4614232E+02  0.7816164E-02  0.1320468E+00
        -11   -1    0    0    0    0  0.00000000000E+00  0.00000000000E+00  0.45593999997E+02  0.45594000000E+02  0.51100000000E-03 0.  1.
         11   -1    0    0    0    0 -0.00000000000E+00 -0.00000000000E+00 -0.45593999997E+02  0.45594000000E+02  0.51100000000E-03 0. -1.
    9900012    2    1    2    0    0 -0.41682216363E+02 -0.15154972589E+02 -0.78761127609E+01  0.46142317551E+02  0.99999980798E+01 0.  0.
         12    1    1    2    0    0  0.41682216363E+02  0.15154972589E+02  0.78761127609E+01  0.45045682449E+02  0.00000000000E+00 0. -1.
         11    1    3    3    0    0 -0.33304761196E+02 -0.13717143298E+02 -0.34260101904E+01  0.36181551717E+02  0.51100000000E-03 0. -1.
        -11    1    3    3    0    0 -0.32752611397E+01  0.61044126150E+00 -0.10361395532E+01  0.34890628400E+01  0.51100000000E-03 0.  1.
         12    1    3    3    0    0 -0.51021940272E+01 -0.20482705529E+01 -0.34139630172E+01  0.64717029932E+01  0.00000000000E+00 0. -1.
</event>
<event>
 7    1  0.3766050E-009  0.4614232E+02  0.7816164E-02  0.1320468E+00
        -11   -1    0    0    0    0  0.00000000000E+00  0.00000000000E+00  0.45593999997E+02  0.45594000000E+02  0.51100000000E-03 0.  1.
         11   -1    0    0    0    0 -0.00000000000E+00 -0.00000000000E+00 -0.45593999997E+02  0.45594000000E+02  0.51100000000E-03 0. -1.
    9900012    2    1    2    0    0  0.22667681141E+02  0.34243617258E+02  0.18511197657E+02  0.46142317300E+02  0.99999957942E+01 0.  0.
        -12    1    1    2    0    0 -0.22667681141E+02 -0.34243617258E+02 -0.18511197657E+02  0.45045682700E+02  0.00000000000E+00 0.  1.
         11    1    3    3    0    0  0.37330822079E+01  0.65725619089E+01 -0.14577663591E+00  0.75601404687E+01  0.51100000000E-03 0. -1.
        -11    1    3    3    0    0  0.74063137156E+01  0.12431608112E+02  0.10089391222E+02  0.17640696658E+02  0.51100000000E-03 0.  1.
         12    1    3    3    0    0  0.11528285218E+02  0.15239447237E+02  0.85675830706E+01  0.20941480173E+02  0.00000000000E+00 0. -1.
</event>
<event>
 7    1  0.3766050E-009  0.4614232E+02  0.7816164E-02  0.1320468E+00
        -11   -1    0    0    0    0  0.00000000000E+00  0.00000000000E+00  0.45593999997E+02  0.45594000000E+02  0.51100000000E-03 0. -1.
         11   -1    0    0    0    0 -0.00000000000E+00 -0.00000000000E+00 -0.45593999997E+02  0.45594000000E+02  0.51100000000E-03 0.  1.
    9900012    2    1    2    0    0  0.16405918362E+02 -0.19175856333E+02  0.37312809911E+02  0.46142318666E+02  0.10000008251E+02 0.  0.
        -12    1    1    2    0    0 -0.16405918362E+02  0.19175856333E+02 -0.37312809911E+02  0.45045681334E+02  0.00000000000E+00 0.  1.
         11    1    3    3    0    0  0.33495621088E+01 -0.48153988416E+01  0.46106520856E+01  0.74609480122E+01  0.51100000000E-03 0. -1.
        -11    1    3    3    0    0  0.39734611378E+01 -0.96316349252E+01  0.16604432561E+02  0.19602652006E+02  0.51100000000E-03 0.  1.
        -12    1    3    3    0    0  0.90828951154E+01 -0.47288225656E+01  0.16097725265E+02  0.19078718648E+02  0.00000000000E+00 0.  1.
</event>
<event>
 7    1  0.3766050E-009  0.4614232E+02  0.7816164E-02  0.1320468E+00
        -11   -1    0    0    0    0  0.00000000000E+00  0.00000000000E+00  0.45593999997E+02  0.45594000000E+02  0.51100000000E-03 0. -1.
         11   -1    0    0    0    0 -0.00000000000E+00 -0.00000000000E+00 -0.45593999997E+02  0.45594000000E+02  0.51100000000E-03 0.  1.
    9900012    2    1    2    0    0 -0.25428614371E+02 -0.13507160122E+02  0.34641820599E+02  0.46142317213E+02  0.99999949978E+01 0.  0.
        -12    1    1    2    0    0  0.25428614371E+02  0.13507160122E+02 -0.34641820599E+02  0.45045682787E+02  0.00000000000E+00 0.  1.
         11    1    3    3    0    0 -0.80892240951E+01 -0.57912663358E+01  0.97327372431E+01  0.13917632225E+02  0.51100000000E-03 0. -1.
        -11    1    3    3    0    0 -0.16089076091E+02 -0.90647499946E+01  0.23603437852E+02  0.29969156489E+02  0.51100000000E-03 0.  1.
        -12    1    3    3    0    0 -0.12503141841E+01  0.13488562083E+01  0.13056455036E+01  0.22555284992E+01  0.00000000000E+00 0.  1.
</event>
<event>
 7    1  0.3766050E-009  0.4614232E+02  0.7816164E-02  0.1320468E+00
        -11   -1    0    0    0    0  0.00000000000E+00  0.00000000000E+00  0.45593999997E+02  0.45594000000E+02  0.51100000000E-03 0. -1.
         11   -1    0    0    0    0 -0.00000000000E+00 -0.00000000000E+00 -0.45593999997E+02  0.45594000000E+02  0.51100000000E-03 0.  1.
    9900012    2    1    2    0    0  0.18343833121E+02 -0.12084840471E+02 -0.39326501287E+02  0.46142320004E+02  0.10000020453E+02 0.  0.
         12    1    1    2    0    0 -0.18343833121E+02  0.12084840471E+02  0.39326501287E+02  0.45045679996E+02  0.00000000000E+00 0. -1.
         11    1    3    3    0    0  0.16299251209E+01  0.23981860723E+00 -0.80659535418E+01  0.82324829586E+01  0.51100000000E-03 0. -1.
        -11    1    3    3    0    0  0.16759947305E+02 -0.11078194295E+02 -0.30202904514E+02  0.36274476755E+02  0.51100000000E-03 0.  1.
         12    1    3    3    0    0 -0.46039304942E-01 -0.12464647836E+01 -0.10576432314E+01  0.16353602904E+01  0.00000000000E+00 0. -1.
</event>
<event>
 7    1  0.3766050E-009  0.4614232E+02  0.7816164E-02  0.1320468E+00
        -11   -1    0    0    0    0  0.00000000000E+00  0.00000000000E+00  0.45593999997E+02  0.45594000000E+02  0.51100000000E-03 0. -1.
         11   -1    0    0    0    0 -0.00000000000E+00 -0.00000000000E+00 -0.45593999997E+02  0.45594000000E+02  0.51100000000E-03 0.  1.
    9900012    2    1    2    0    0 -0.39158778475E+02  0.16112717342E+02  0.15365024661E+02  0.46142316803E+02  0.99999912659E+01 0.  0.
        -12    1    1    2    0    0  0.39158778475E+02 -0.16112717342E+02 -0.15365024661E+02  0.45045683197E+02  0.00000000000E+00 0.  1.
         11    1    3    3    0    0 -0.75536219188E+01  0.52504905163E+01  0.41686401945E+01  0.10099624552E+02  0.51100000000E-03 0. -1.
        -11    1    3    3    0    0 -0.26600237377E+02  0.79026331639E+01  0.63339745938E+01  0.28463019408E+02  0.51100000000E-03 0.  1.
        -12    1    3    3    0    0 -0.50049191798E+01  0.29595936613E+01  0.48624098729E+01  0.75796728431E+01  0.00000000000E+00 0.  1.
</event>
<event>
 7    1  0.3766050E-009  0.4614232E+02  0.7816164E-02  0.1320468E+00
        -11   -1    0    0    0    0  0.00000000000E+00  0.00000000000E+00  0.45593999997E+02  0.45594000000E+02  0.51100000000E-03 0. -1.
         11   -1    0    0    0    0 -0.00000000000E+00 -0.00000000000E+00 -0.45593999997E+02  0.45594000000E+02  0.51100000000E-03 0.  1.
    9900012    2    1    2    0    0  0.16175263048E+01  0.11196390060E+02  0.43602041347E+02  0.46142317062E+02  0.99999936262E+01 0.  0.
        -12    1    1    2    0    0 -0.16175263048E+01 -0.11196390060E+02 -0.43602041347E+02  0.45045682938E+02  0.00000000000E+00 0.  1.
         11    1    3    3    0    0 -0.61559486472E+00  0.37488441196E+01  0.53578874015E+01  0.65680854850E+01  0.51100000000E-03 0. -1.
        -11    1    3    3    0    0  0.11543343405E+01  0.40443158500E+01  0.73007215020E+01  0.84255274716E+01  0.51100000000E-03 0.  1.
         12    1    3    3    0    0  0.10787868291E+01  0.34032300903E+01  0.30943432443E+02  0.31148704105E+02  0.00000000000E+00 0. -1.
</event>
<event>
 7    1  0.3766050E-009  0.4614232E+02  0.7816164E-02  0.1320468E+00
        -11   -1    0    0    0    0  0.00000000000E+00  0.00000000000E+00  0.45593999997E+02  0.45594000000E+02  0.51100000000E-03 0. -1.
         11   -1    0    0    0    0 -0.00000000000E+00 -0.00000000000E+00 -0.45593999997E+02  0.45594000000E+02  0.51100000000E-03 0.  1.
    9900012    2    1    2    0    0  0.39596568972E+02  0.84746259017E+01 -0.19733371623E+02  0.46142317475E+02  0.99999973932E+01 0.  0.
         12    1    1    2    0    0 -0.39596568972E+02 -0.84746259017E+01  0.19733371623E+02  0.45045682525E+02  0.00000000000E+00 0. -1.
         11    1    3    3    0    0  0.27726462947E+02  0.62709240498E+01 -0.10953293710E+02  0.30464009574E+02  0.51100000000E-03 0. -1.
        -11    1    3    3    0    0  0.12003250939E+02  0.27912307639E+01 -0.86652268623E+01  0.15065031003E+02  0.51100000000E-03 0.  1.
         12    1    3    3    0    0 -0.13314491351E+00 -0.58752891202E+00 -0.11485105062E+00  0.61327689853E+00  0.00000000000E+00 0. -1.
</event>
<event>
 7    1  0.3766050E-009  0.4614232E+02  0.7816164E-02  0.1320468E+00
        -11   -1    0    0    0    0  0.00000000000E+00  0.00000000000E+00  0.45593999997E+02  0.45594000000E+02  0.51100000000E-03 0. -1.
         11   -1    0    0    0    0 -0.00000000000E+00 -0.00000000000E+00 -0.45593999997E+02  0.45594000000E+02  0.51100000000E-03 0.  1.
    9900012    2    1    2    0    0 -0.64706718396E+01 -0.36591779229E+02 -0.25461455680E+02  0.46142316227E+02  0.99999860135E+01 0.  0.
         12    1    1    2    0    0  0.64706718396E+01  0.36591779229E+02  0.25461455680E+02  0.45045683773E+02  0.00000000000E+00 0. -1.
         11    1    3    3    0    0 -0.40573587818E+01 -0.83356584841E+01 -0.58365643795E+01  0.10954946219E+02  0.51100000000E-03 0.  1.
        -11    1    3    3    0    0  0.10143248639E+01 -0.21907352735E+02 -0.13767466104E+02  0.25894093573E+02  0.51100000000E-03 0. -1.
         12    1    3    3    0    0 -0.34276379217E+01 -0.63487680101E+01 -0.58574251961E+01  0.92932764349E+01  0.00000000000E+00 0. -1.
</event>
<event>
 7    1  0.4608943E-009  0.4614232E+02  0.7816164E-02  0.1320468E+00
        -11   -1    0    0    0    0  0.00000000000E+00  0.00000000000E+00  0.45593999997E+02  0.45594000000E+02  0.51100000000E-03 0. -1.
         11   -1    0    0    0    0 -0.00000000000E+00 -0.00000000000E+00 -0.45593999997E+02  0.45594000000E+02  0.51100000000E-03 0.  1.
    9900012    2    1    2    0    0 -0.98328183109E+01  0.19309975033E+01 -0.43916972563E+02  0.46142317117E+02  0.99999941278E+01 0.  0.
         12    1    1    2    0    0  0.98328183109E+01 -0.19309975033E+01  0.43916972563E+02  0.45045682883E+02  0.00000000000E+00 0. -1.
         11    1    3    3    0    0  0.25956830191E+00 -0.11989133335E+01 -0.21396775852E+01  0.24663716902E+01  0.51100000000E-03 0. -1.
        -11    1    3    3    0    0 -0.95497462203E+01  0.17586739224E+01 -0.24777570334E+02  0.26612376421E+02  0.51100000000E-03 0.  1.
        -12    1    3    3    0    0 -0.54264039251E+00  0.13712369144E+01 -0.16999724644E+02  0.17063569006E+02  0.00000000000E+00 0.  1.
</event>
<event>
 7    1  0.3766050E-009  0.4614232E+02  0.7816164E-02  0.1320468E+00
        -11   -1    0    0    0    0  0.00000000000E+00  0.00000000000E+00  0.45593999997E+02  0.45594000000E+02  0.51100000000E-03 0. -1.
         11   -1    0    0    0    0 -0.00000000000E+00 -0.00000000000E+00 -0.45593999997E+02  0.45594000000E+02  0.51100000000E-03 0.  1.
    9900012    2    1    2    0    0 -0.34007447138E+02  0.15831366304E+02 -0.24939411876E+02  0.46142324463E+02  0.10000061112E+02 0.  0.
         12    1    1    2    0    0  0.34007447138E+02 -0.15831366304E+02  0.24939411876E+02  0.45045675537E+02  0.00000000000E+00 0. -1.
         11    1    3    3    0    0 -0.63319970554E+00  0.14225778541E+01 -0.63139265187E-01  0.15584147221E+01  0.51100000000E-03 0. -1.
        -11    1    3    3    0    0 -0.19186776162E+02  0.52373853242E+01 -0.15836949278E+02  0.25423838169E+02  0.51100000000E-03 0.  1.
        -12    1    3    3    0    0 -0.14187471270E+02  0.91714031256E+01 -0.90393233325E+01  0.19160071572E+02  0.00000000000E+00 0.  1.
</event>
<event>
 7    1  0.3766050E-009  0.4614231E+02  0.7816164E-02  0.1320468E+00
        -11   -1    0    0    0    0  0.00000000000E+00  0.00000000000E+00  0.45593999997E+02  0.45594000000E+02  0.51100000000E-03 0. -1.
         11   -1    0    0    0    0 -0.00000000000E+00 -0.00000000000E+00 -0.45593999997E+02  0.45594000000E+02  0.51100000000E-03 0.  1.
    9900012    2    1    2    0    0  0.66828400111E+01  0.21447103495E+02  0.39044530940E+02  0.46142312134E+02  0.99999486873E+01 0.  0.
        -12    1    1    2    0    0 -0.66828400111E+01 -0.21447103495E+02 -0.39044530940E+02  0.45045687866E+02  0.00000000000E+00 0.  1.
         11    1    3    3    0    0 -0.32337295752E+00  0.41937474587E+01  0.50832487760E+01  0.65978410254E+01  0.51100000000E-03 0. -1.
        -11    1    3    3    0    0  0.76921385132E+01  0.14731144358E+02  0.23636298238E+02  0.28893774480E+02  0.51100000000E-03 0.  1.
        -12    1    3    3    0    0 -0.68592554461E+00  0.25222116783E+01  0.10324983926E+02  0.10650696629E+02  0.00000000000E+00 0.  1.
</event>
<event>
 7    1  0.3766050E-009  0.4614232E+02  0.7816164E-02  0.1320468E+00
        -11   -1    0    0    0    0  0.00000000000E+00  0.00000000000E+00  0.45593999997E+02  0.45594000000E+02  0.51100000000E-03 0. -1.
         11   -1    0    0    0    0 -0.00000000000E+00 -0.00000000000E+00 -0.45593999997E+02  0.45594000000E+02  0.51100000000E-03 0.  1.
    9900012    2    1    2    0    0  0.18351582886E+01  0.16398885637E+01  0.44978398622E+02  0.46142318930E+02  0.10000010659E+02 0.  0.
        -12    1    1    2    0    0 -0.18351582886E+01 -0.16398885637E+01 -0.44978398622E+02  0.45045681070E+02  0.00000000000E+00 0.  1.
         11    1    3    3    0    0 -0.21867800960E+00 -0.99937515042E+00  0.30162487948E+02  0.30179831846E+02  0.51100000000E-03 0. -1.
        -11    1    3    3    0    0 -0.38292988486E+00  0.24680341843E+01  0.11896763505E+02  0.12156101768E+02  0.51100000000E-03 0.  1.
        -12    1    3    3    0    0  0.24367661830E+01  0.17122952982E+00  0.29191471691E+01  0.38063853165E+01  0.00000000000E+00 0.  1.
</event>
<event>
 7    1  0.3766050E-009  0.4614232E+02  0.7816164E-02  0.1320468E+00
        -11   -1    0    0    0    0  0.00000000000E+00  0.00000000000E+00  0.45593999997E+02  0.45594000000E+02  0.51100000000E-03 0. -1.
         11   -1    0    0    0    0 -0.00000000000E+00 -0.00000000000E+00 -0.45593999997E+02  0.45594000000E+02  0.51100000000E-03 0.  1.
    9900012    2    1    2    0    0  0.35074300057E+02 -0.75369939264E+01 -0.27241524655E+02  0.46142317993E+02  0.10000002112E+02 0.  0.
         12    1    1    2    0    0 -0.35074300057E+02  0.75369939264E+01  0.27241524655E+02  0.45045682007E+02  0.00000000000E+00 0. -1.
         11    1    3    3    0    0  0.37002804796E+01  0.15067629782E+01 -0.50157341248E+01  0.64124877678E+01  0.51100000000E-03 0. -1.
        -11    1    3    3    0    0  0.26616851747E+02 -0.64311332162E+01 -0.17225551711E+02  0.32350207162E+02  0.51100000000E-03 0.  1.
        -12    1    3    3    0    0  0.47571678302E+01 -0.26126236885E+01 -0.50002388199E+01  0.73796230634E+01  0.00000000000E+00 0.  1.
</event>
<event>
 7    1  0.3766050E-009  0.4614232E+02  0.7816164E-02  0.1320468E+00
        -11   -1    0    0    0    0  0.00000000000E+00  0.00000000000E+00  0.45593999997E+02  0.45594000000E+02  0.51100000000E-03 0. -1.
         11   -1    0    0    0    0 -0.00000000000E+00 -0.00000000000E+00 -0.45593999997E+02  0.45594000000E+02  0.51100000000E-03 0.  1.
    9900012    2    1    2    0    0  0.18641578450E+02 -0.39672736376E+02  0.10376851490E+02  0.46142317571E+02  0.99999982698E+01 0.  0.
        -12    1    1    2    0    0 -0.18641578450E+02  0.39672736376E+02 -0.10376851490E+02  0.45045682429E+02  0.00000000000E+00 0.  1.
         11    1    3    3    0    0  0.80143203643E+01 -0.10543867635E+02  0.22188141341E+00  0.13245818481E+02  0.51100000000E-03 0. -1.
        -11    1    3    3    0    0  0.60566319669E+01 -0.20818244639E+02  0.57020746565E+01  0.22418647513E+02  0.51100000000E-03 0.  1.
        -12    1    3    3    0    0  0.45706261186E+01 -0.83106241012E+01  0.44528954200E+01  0.10477851578E+02  0.00000000000E+00 0.  1.
</event>
<event>
 7    1  0.3766050E-009  0.4614232E+02  0.7816164E-02  0.1320468E+00
        -11   -1    0    0    0    0  0.00000000000E+00  0.00000000000E+00  0.45593999997E+02  0.45594000000E+02  0.51100000000E-03 0. -1.
         11   -1    0    0    0    0 -0.00000000000E+00 -0.00000000000E+00 -0.45593999997E+02  0.45594000000E+02  0.51100000000E-03 0.  1.
    9900012    2    1    2    0    0 -0.22172947197E+02  0.10742836549E+02  0.37710282939E+02  0.46142316923E+02  0.99999923580E+01 0.  0.
        -12    1    1    2    0    0  0.22172947197E+02 -0.10742836549E+02 -0.37710282939E+02  0.45045683077E+02  0.00000000000E+00 0.  1.
         11    1    3    3    0    0 -0.70967100773E+01 -0.32811356186E+00  0.76302054682E+01  0.10425497023E+02  0.51100000000E-03 0. -1.
        -11    1    3    3    0    0 -0.15110547111E+02  0.11101225994E+02  0.28370520269E+02  0.34006650425E+02  0.51100000000E-03 0.  1.
        -12    1    3    3    0    0  0.34309991383E-01 -0.30275883106E-01  0.17095572022E+01  0.17101694747E+01  0.00000000000E+00 0.  1.
</event>
<event>
 7    1  0.3766050E-009  0.4614232E+02  0.7816164E-02  0.1320468E+00
        -11   -1    0    0    0    0  0.00000000000E+00  0.00000000000E+00  0.45593999997E+02  0.45594000000E+02  0.51100000000E-03 0. -1.
         11   -1    0    0    0    0 -0.00000000000E+00 -0.00000000000E+00 -0.45593999997E+02  0.45594000000E+02  0.51100000000E-03 0.  1.
    9900012    2    1    2    0    0 -0.14626300084E+02 -0.16630980578E+02 -0.39224933157E+02  0.46142317074E+02  0.99999937330E+01 0.  0.
         12    1    1    2    0    0  0.14626300084E+02  0.16630980578E+02  0.39224933157E+02  0.45045682926E+02  0.00000000000E+00 0. -1.
         11    1    3    3    0    0 -0.14075219092E+02 -0.12287504804E+02 -0.29152336385E+02  0.34625904808E+02  0.51100000000E-03 0. -1.
        -11    1    3    3    0    0 -0.14991056980E+01 -0.42590355379E+01 -0.72844883580E+01  0.85703251109E+01  0.51100000000E-03 0.  1.
         12    1    3    3    0    0  0.94802470661E+00 -0.84440236151E-01 -0.27881084135E+01  0.29460871547E+01  0.00000000000E+00 0. -1.
</event>
<event>
 7    1  0.3766050E-009  0.4614232E+02  0.7816164E-02  0.1320468E+00
        -11   -1    0    0    0    0  0.00000000000E+00  0.00000000000E+00  0.45593999997E+02  0.45594000000E+02  0.51100000000E-03 0. -1.
         11   -1    0    0    0    0 -0.00000000000E+00 -0.00000000000E+00 -0.45593999997E+02  0.45594000000E+02  0.51100000000E-03 0.  1.
    9900012    2    1    2    0    0  0.30763517522E+02 -0.21114938628E+01  0.32836885937E+02  0.46142317691E+02  0.99999993607E+01 0.  0.
        -12    1    1    2    0    0 -0.30763517522E+02  0.21114938628E+01 -0.32836885937E+02  0.45045682309E+02  0.00000000000E+00 0.  1.
         11    1    3    3    0    0  0.14528806208E+02 -0.23466364734E+01  0.15358860249E+02  0.21271753594E+02  0.51100000000E-03 0. -1.
        -11    1    3    3    0    0  0.12118303932E+02 -0.20701838844E+01  0.92471917747E+01  0.15383416639E+02  0.51100000000E-03 0.  1.
        -12    1    3    3    0    0  0.41164073822E+01  0.23053264951E+01  0.82308339135E+01  0.94871474583E+01  0.00000000000E+00 0.  1.
</event>
<event>
 7    1  0.3766050E-009  0.4614232E+02  0.7816164E-02  0.1320468E+00
        -11   -1    0    0    0    0  0.00000000000E+00  0.00000000000E+00  0.45593999997E+02  0.45594000000E+02  0.51100000000E-03 0. -1.
         11   -1    0    0    0    0 -0.00000000000E+00 -0.00000000000E+00 -0.45593999997E+02  0.45594000000E+02  0.51100000000E-03 0.  1.
    9900012    2    1    2    0    0  0.37094948681E+01  0.32784714259E+01  0.44772812072E+02  0.46142318432E+02  0.10000006116E+02 0.  0.
        -12    1    1    2    0    0 -0.37094948681E+01 -0.32784714259E+01 -0.44772812072E+02  0.45045681568E+02  0.00000000000E+00 0.  1.
         11    1    3    3    0    0 -0.24115015382E+01  0.25940784192E+01  0.14405763482E+02  0.14834776853E+02  0.51100000000E-03 0. -1.
        -11    1    3    3    0    0  0.32910956406E+01  0.25943440650E+01  0.15883384717E+02  0.16426924301E+02  0.51100000000E-03 0.  1.
        -12    1    3    3    0    0  0.28299007657E+01 -0.19099510582E+01  0.14483663873E+02  0.14880617278E+02  0.00000000000E+00 0.  1.
</event>
<event>
 7    1  0.3766050E-009  0.4614232E+02  0.7816164E-02  0.1320468E+00
        -11   -1    0    0    0    0  0.00000000000E+00  0.00000000000E+00  0.45593999997E+02  0.45594000000E+02  0.51100000000E-03 0. -1.
         11   -1    0    0    0    0 -0.00000000000E+00 -0.00000000000E+00 -0.45593999997E+02  0.45594000000E+02  0.51100000000E-03 0.  1.
    9900012    2    1    2    0    0  0.31898447703E+02 -0.22927305513E+02  0.22044071556E+02  0.46142318800E+02  0.10000009477E+02 0.  0.
        -12    1    1    2    0    0 -0.31898447703E+02  0.22927305513E+02 -0.22044071556E+02  0.45045681200E+02  0.00000000000E+00 0.  1.
         11    1    3    3    0    0  0.10628017994E+02 -0.27420593909E+01  0.67706342201E+01  0.12896322894E+02  0.51100000000E-03 0. -1.
        -11    1    3    3    0    0  0.15494298047E+02 -0.15355106986E+02  0.12939488677E+02  0.25363023282E+02  0.51100000000E-03 0.  1.
         12    1    3    3    0    0  0.57761316620E+01 -0.48301391354E+01  0.23339486589E+01  0.78829726237E+01  0.00000000000E+00 0. -1.
</event>
<event>
 7    1  0.3766050E-009  0.4614232E+02  0.7816164E-02  0.1320468E+00
        -11   -1    0    0    0    0  0.00000000000E+00  0.00000000000E+00  0.45593999997E+02  0.45594000000E+02  0.51100000000E-03 0.  1.
         11   -1    0    0    0    0 -0.00000000000E+00 -0.00000000000E+00 -0.45593999997E+02  0.45594000000E+02  0.51100000000E-03 0. -1.
    9900012    2    1    2    0    0 -0.37373788583E+02 -0.21427177081E+02  0.13160152303E+02  0.46142316530E+02  0.99999887729E+01 0.  0.
         12    1    1    2    0    0  0.37373788583E+02  0.21427177081E+02 -0.13160152303E+02  0.45045683470E+02  0.00000000000E+00 0. -1.
         11    1    3    3    0    0 -0.58582481010E-01 -0.15537592632E+01  0.79874299660E+00  0.17480247112E+01  0.51100000000E-03 0. -1.
        -11    1    3    3    0    0 -0.23355918616E+02 -0.15149402216E+02  0.92225809380E+01  0.29326768000E+02  0.51100000000E-03 0.  1.
         12    1    3    3    0    0 -0.13959287486E+02 -0.47240156013E+01  0.31388283680E+01  0.15067523819E+02  0.00000000000E+00 0. -1.
</event>
<event>
 7    1  0.3766050E-009  0.4614232E+02  0.7816164E-02  0.1320468E+00
        -11   -1    0    0    0    0  0.00000000000E+00  0.00000000000E+00  0.45593999997E+02  0.45594000000E+02  0.51100000000E-03 0. -1.
         11   -1    0    0    0    0 -0.00000000000E+00 -0.00000000000E+00 -0.45593999997E+02  0.45594000000E+02  0.51100000000E-03 0.  1.
    9900012    2    1    2    0    0  0.18346599334E+02 -0.11292717772E+02 -0.39559956756E+02  0.46142319183E+02  0.10000012965E+02 0.  0.
         12    1    1    2    0    0 -0.18346599334E+02  0.11292717772E+02  0.39559956756E+02  0.45045680817E+02  0.00000000000E+00 0. -1.
         11    1    3    3    0    0  0.32321467052E+01 -0.44565651329E+01 -0.59554348296E+01  0.81101756688E+01  0.51100000000E-03 0. -1.
        -11    1    3    3    0    0  0.87595022358E+01 -0.43233359812E+01 -0.26171908806E+02  0.27935442081E+02  0.51100000000E-03 0.  1.
         12    1    3    3    0    0  0.63549503926E+01 -0.25128166576E+01 -0.74326131196E+01  0.10096701433E+02  0.00000000000E+00 0. -1.
</event>
<event>
 7    1  0.3766050E-009  0.4614232E+02  0.7816164E-02  0.1320468E+00
        -11   -1    0    0    0    0  0.00000000000E+00  0.00000000000E+00  0.45593999997E+02  0.45594000000E+02  0.51100000000E-03 0.  1.
         11   -1    0    0    0    0 -0.00000000000E+00 -0.00000000000E+00 -0.45593999997E+02  0.45594000000E+02  0.51100000000E-03 0. -1.
    9900012    2    1    2    0    0  0.19614910050E+02 -0.31473620763E+02 -0.25569124313E+02  0.46142316318E+02  0.99999868414E+01 0.  0.
        -12    1    1    2    0    0 -0.19614910050E+02  0.31473620763E+02  0.25569124313E+02  0.45045683682E+02  0.00000000000E+00 0.  1.
         11    1    3    3    0    0  0.63882926572E+00  0.24151934861E+00 -0.17744503391E+01  0.19013439177E+01  0.51100000000E-03 0.  1.
        -11    1    3    3    0    0  0.14926885209E+02 -0.22862456628E+02 -0.19755945683E+02  0.33701650037E+02  0.51100000000E-03 0. -1.
        -12    1    3    3    0    0  0.40491955751E+01 -0.88526834836E+01 -0.40387282909E+01  0.10539322363E+02  0.00000000000E+00 0.  1.
</event>
<event>
 7    1  0.3766050E-009  0.4614232E+02  0.7816164E-02  0.1320468E+00
        -11   -1    0    0    0    0  0.00000000000E+00  0.00000000000E+00  0.45593999997E+02  0.45594000000E+02  0.51100000000E-03 0. -1.
         11   -1    0    0    0    0 -0.00000000000E+00 -0.00000000000E+00 -0.45593999997E+02  0.45594000000E+02  0.51100000000E-03 0.  1.
    9900012    2    1    2    0    0 -0.42745799430E+02 -0.93574739184E+01 -0.10693355244E+02  0.46142317261E+02  0.99999954383E+01 0.  0.
         12    1    1    2    0    0  0.42745799430E+02  0.93574739184E+01  0.10693355244E+02  0.45045682739E+02  0.00000000000E+00 0. -1.
         11    1    3    3    0    0 -0.28110286630E+02 -0.51518719564E+01 -0.90430183392E+01  0.29975092661E+02  0.51100000000E-03 0.  1.
        -11    1    3    3    0    0 -0.32384852601E+01 -0.67764497448E+00  0.17749804654E+01  0.37546698130E+01  0.51100000000E-03 0. -1.
         12    1    3    3    0    0 -0.11397027540E+02 -0.35279569874E+01 -0.34253173698E+01  0.12412554787E+02  0.00000000000E+00 0. -1.
</event>
<event>
 7    1  0.3766050E-009  0.4614232E+02  0.7816164E-02  0.1320468E+00
        -11   -1    0    0    0    0  0.00000000000E+00  0.00000000000E+00  0.45593999997E+02  0.45594000000E+02  0.51100000000E-03 0. -1.
         11   -1    0    0    0    0 -0.00000000000E+00 -0.00000000000E+00 -0.45593999997E+02  0.45594000000E+02  0.51100000000E-03 0.  1.
    9900012    2    1    2    0    0 -0.19623559051E+02 -0.39173726116E+02 -0.10461766000E+02  0.46142318348E+02  0.10000005353E+02 0.  0.
         12    1    1    2    0    0  0.19623559051E+02  0.39173726116E+02  0.10461766000E+02  0.45045681652E+02  0.00000000000E+00 0. -1.
         11    1    3    3    0    0 -0.90603264227E+00 -0.96039629652E+01 -0.18417568963E+01  0.98208486656E+01  0.51100000000E-03 0. -1.
        -11    1    3    3    0    0 -0.10280412530E+01 -0.43574649572E+01 -0.13478572644E+01  0.46755843632E+01  0.51100000000E-03 0.  1.
         12    1    3    3    0    0 -0.17689485156E+02 -0.25212298194E+02 -0.72721518393E+01  0.31645885319E+02  0.00000000000E+00 0. -1.
</event>
<event>
 7    1  0.3766050E-009  0.4614232E+02  0.7816164E-02  0.1320468E+00
        -11   -1    0    0    0    0  0.00000000000E+00  0.00000000000E+00  0.45593999997E+02  0.45594000000E+02  0.51100000000E-03 0. -1.
         11   -1    0    0    0    0 -0.00000000000E+00 -0.00000000000E+00 -0.45593999997E+02  0.45594000000E+02  0.51100000000E-03 0.  1.
    9900012    2    1    2    0    0 -0.11797716568E+02  0.31593977176E+02 -0.29862151258E+02  0.46142316658E+02  0.99999899395E+01 0.  0.
         12    1    1    2    0    0  0.11797716568E+02 -0.31593977176E+02  0.29862151258E+02  0.45045683342E+02  0.00000000000E+00 0. -1.
         11    1    3    3    0    0  0.10220761673E+01  0.23123770505E+01 -0.57577186312E+00  0.25929212898E+01  0.51100000000E-03 0. -1.
        -11    1    3    3    0    0 -0.11803917195E+02  0.28602173871E+02 -0.27574225852E+02  0.41445804889E+02  0.51100000000E-03 0.  1.
        -12    1    3    3    0    0 -0.10158755409E+01  0.67942625421E+00 -0.17121535433E+01  0.21035904795E+01  0.00000000000E+00 0.  1.
</event>
<event>
 7    1  0.3766050E-009  0.4614232E+02  0.7816164E-02  0.1320468E+00
        -11   -1    0    0    0    0  0.00000000000E+00  0.00000000000E+00  0.45593999997E+02  0.45594000000E+02  0.51100000000E-03 0. -1.
         11   -1    0    0    0    0 -0.00000000000E+00 -0.00000000000E+00 -0.45593999997E+02  0.45594000000E+02  0.51100000000E-03 0.  1.
    9900012    2    1    2    0    0 -0.25602492009E+02  0.28908122127E+02  0.23193669298E+02  0.46142318548E+02  0.10000007173E+02 0.  0.
        -12    1    1    2    0    0  0.25602492009E+02 -0.28908122127E+02 -0.23193669298E+02  0.45045681452E+02  0.00000000000E+00 0.  1.
         11    1    3    3    0    0 -0.88954434809E+01  0.14320572533E+02  0.13508499363E+02  0.21602945810E+02  0.51100000000E-03 0. -1.
        -11    1    3    3    0    0 -0.28300287918E+01  0.33742934162E+01  0.38788380085E+00  0.44210149429E+01  0.51100000000E-03 0.  1.
         12    1    3    3    0    0 -0.13877019737E+02  0.11213256178E+02  0.92972861343E+01  0.20118357795E+02  0.00000000000E+00 0. -1.
</event>
<event>
 7    1  0.3766050E-009  0.4614232E+02  0.7816164E-02  0.1320468E+00
        -11   -1    0    0    0    0  0.00000000000E+00  0.00000000000E+00  0.45593999997E+02  0.45594000000E+02  0.51100000000E-03 0. -1.
         11   -1    0    0    0    0 -0.00000000000E+00 -0.00000000000E+00 -0.45593999997E+02  0.45594000000E+02  0.51100000000E-03 0.  1.
    9900012    2    1    2    0    0  0.41252314640E+02 -0.43885404438E+01 -0.17552796694E+02  0.46142318496E+02  0.10000006698E+02 0.  0.
         12    1    1    2    0    0 -0.41252314640E+02  0.43885404438E+01  0.17552796694E+02  0.45045681504E+02  0.00000000000E+00 0. -1.
         11    1    3    3    0    0  0.67459833728E+01  0.21438978314E+00 -0.23814381305E+01  0.71571993458E+01  0.51100000000E-03 0. -1.
        -11    1    3    3    0    0  0.12847731754E+02 -0.24125040055E+01 -0.10386898882E+02  0.16696468352E+02  0.51100000000E-03 0.  1.
        -12    1    3    3    0    0  0.21658599514E+02 -0.21904262214E+01 -0.47844596813E+01  0.22288650797E+02  0.00000000000E+00 0.  1.
</event>
<event>
 7    1  0.3766050E-009  0.4614232E+02  0.7816164E-02  0.1320468E+00
        -11   -1    0    0    0    0  0.00000000000E+00  0.00000000000E+00  0.45593999997E+02  0.45594000000E+02  0.51100000000E-03 0. -1.
         11   -1    0    0    0    0 -0.00000000000E+00 -0.00000000000E+00 -0.45593999997E+02  0.45594000000E+02  0.51100000000E-03 0.  1.
    9900012    2    1    2    0    0  0.39716878374E+02  0.11570089994E+02  0.17827396057E+02  0.46142318071E+02  0.10000002828E+02 0.  0.
        -12    1    1    2    0    0 -0.39716878374E+02 -0.11570089994E+02 -0.17827396057E+02  0.45045681929E+02  0.00000000000E+00 0.  1.
         11    1    3    3    0    0  0.15063630650E+02  0.43479409511E+01  0.71027351554E+01  0.17212391055E+02  0.51100000000E-03 0. -1.
        -11    1    3    3    0    0  0.14981313748E+02  0.76721051300E+00  0.41173711103E+01  0.15555742307E+02  0.51100000000E-03 0.  1.
         12    1    3    3    0    0  0.96719339754E+01  0.64549385303E+01  0.66072897915E+01  0.13374184710E+02  0.00000000000E+00 0. -1.
</event>
<event>
 7    1  0.3766050E-009  0.4614231E+02  0.7816164E-02  0.1320468E+00
        -11   -1    0    0    0    0  0.00000000000E+00  0.00000000000E+00  0.45593999997E+02  0.45594000000E+02  0.51100000000E-03 0.  1.
         11   -1    0    0    0    0 -0.00000000000E+00 -0.00000000000E+00 -0.45593999997E+02  0.45594000000E+02  0.51100000000E-03 0. -1.
    9900012    2    1    2    0    0 -0.29827995745E+02 -0.13012478913E+02  0.31146106225E+02  0.46142313518E+02  0.99999613069E+01 0.  0.
        -12    1    1    2    0    0  0.29827995745E+02  0.13012478913E+02 -0.31146106225E+02  0.45045686482E+02  0.00000000000E+00 0.  1.
         11    1    3    3    0    0 -0.23376220426E+02 -0.77456901137E+01  0.18882288354E+02  0.31031986892E+02  0.51100000000E-03 0. -1.
        -11    1    3    3    0    0 -0.26078928091E+01 -0.36926629772E+01  0.77810936692E+01  0.89990157082E+01  0.51100000000E-03 0.  1.
        -12    1    3    3    0    0 -0.38438825104E+01 -0.15741258227E+01  0.44827242021E+01  0.61113109176E+01  0.00000000000E+00 0.  1.
</event>
<event>
 7    1  0.3766050E-009  0.4614232E+02  0.7816164E-02  0.1320468E+00
        -11   -1    0    0    0    0  0.00000000000E+00  0.00000000000E+00  0.45593999997E+02  0.45594000000E+02  0.51100000000E-03 0.  1.
         11   -1    0    0    0    0 -0.00000000000E+00 -0.00000000000E+00 -0.45593999997E+02  0.45594000000E+02  0.51100000000E-03 0. -1.
    9900012    2    1    2    0    0 -0.79022185538E+01 -0.42862501485E+02  0.11378681593E+02  0.46142317783E+02  0.10000000195E+02 0.  0.
         12    1    1    2    0    0  0.79022185538E+01  0.42862501485E+02 -0.11378681593E+02  0.45045682217E+02  0.00000000000E+00 0. -1.
         11    1    3    3    0    0 -0.97349586502E+00 -0.66421103594E+01 -0.90946564368E+00  0.67743968177E+01  0.51100000000E-03 0. -1.
        -11    1    3    3    0    0 -0.19564658887E+01 -0.25064985102E+02  0.91849568362E+01  0.26766484066E+02  0.51100000000E-03 0.  1.
        -12    1    3    3    0    0 -0.49722568000E+01 -0.11155406024E+02  0.31031904008E+01  0.12601436898E+02  0.00000000000E+00 0.  1.
</event>
<event>
 7    1  0.4309782E-009  0.4614231E+02  0.7816164E-02  0.1320468E+00
        -11   -1    0    0    0    0  0.00000000000E+00  0.00000000000E+00  0.45593999997E+02  0.45594000000E+02  0.51100000000E-03 0. -1.
         11   -1    0    0    0    0 -0.00000000000E+00 -0.00000000000E+00 -0.45593999997E+02  0.45594000000E+02  0.51100000000E-03 0.  1.
    9900012    2    1    2    0    0 -0.17544158291E+02 -0.72641598494E+01 -0.40847867006E+02  0.46142314886E+02  0.99999737798E+01 0.  0.
         12    1    1    2    0    0  0.17544158291E+02  0.72641598494E+01  0.40847867006E+02  0.45045685114E+02  0.00000000000E+00 0. -1.
         11    1    3    3    0    0 -0.21064324503E+01 -0.48676185827E+01 -0.12895503457E+02  0.13943628581E+02  0.51100000000E-03 0. -1.
        -11    1    3    3    0    0 -0.11527716936E+02 -0.27093986045E+01 -0.23106809164E+02  0.25964470504E+02  0.51100000000E-03 0.  1.
         12    1    3    3    0    0 -0.39100089044E+01  0.31285733785E+00 -0.48455543852E+01  0.62342158004E+01  0.00000000000E+00 0. -1.
</event>
<event>
 7    1  0.3766050E-009  0.4614233E+02  0.7816164E-02  0.1320468E+00
        -11   -1    0    0    0    0  0.00000000000E+00  0.00000000000E+00  0.45593999997E+02  0.45594000000E+02  0.51100000000E-03 0. -1.
         11   -1    0    0    0    0 -0.00000000000E+00 -0.00000000000E+00 -0.45593999997E+02  0.45594000000E+02  0.51100000000E-03 0.  1.
    9900012    2    1    2    0    0  0.62888089270E+01 -0.25542216036E+02 -0.36567182057E+02  0.46142326275E+02  0.10000077632E+02 0.  0.
         12    1    1    2    0    0 -0.62888089270E+01  0.25542216036E+02  0.36567182057E+02  0.45045673725E+02  0.00000000000E+00 0. -1.
         11    1    3    3    0    0  0.28225021260E+00 -0.16519808921E+00 -0.39880977252E-01  0.32946372283E+00  0.51100000000E-03 0. -1.
        -11    1    3    3    0    0  0.24580961276E+00 -0.64883452826E+00 -0.62943674916E+01  0.63324932682E+01  0.51100000000E-03 0.  1.
        -12    1    3    3    0    0  0.57607491016E+01 -0.24728183419E+02 -0.30232933588E+02  0.39480369284E+02  0.00000000000E+00 0.  1.
</event>
<event>
 7    1  0.3766050E-009  0.4614232E+02  0.7816164E-02  0.1320468E+00
        -11   -1    0    0    0    0  0.00000000000E+00  0.00000000000E+00  0.45593999997E+02  0.45594000000E+02  0.51100000000E-03 0. -1.
         11   -1    0    0    0    0 -0.00000000000E+00 -0.00000000000E+00 -0.45593999997E+02  0.45594000000E+02  0.51100000000E-03 0.  1.
    9900012    2    1    2    0    0  0.31586096898E+02 -0.58917582242E+01 -0.31570859917E+02  0.46142317320E+02  0.99999959790E+01 0.  0.
         12    1    1    2    0    0 -0.31586096898E+02  0.58917582242E+01  0.31570859917E+02  0.45045682680E+02  0.00000000000E+00 0. -1.
         11    1    3    3    0    0  0.75213302795E+01 -0.22425742578E+01 -0.29321535325E+01  0.83783693565E+01  0.51100000000E-03 0. -1.
        -11    1    3    3    0    0  0.13865672325E+02 -0.32600749745E+01 -0.18808800049E+02  0.23593556693E+02  0.51100000000E-03 0.  1.
         12    1    3    3    0    0  0.10199094293E+02 -0.38910899189E+00 -0.98299063351E+01  0.14170391271E+02  0.00000000000E+00 0. -1.
</event>
<event>
 7    1  0.3766050E-009  0.4614232E+02  0.7816164E-02  0.1320468E+00
        -11   -1    0    0    0    0  0.00000000000E+00  0.00000000000E+00  0.45593999997E+02  0.45594000000E+02  0.51100000000E-03 0. -1.
         11   -1    0    0    0    0 -0.00000000000E+00 -0.00000000000E+00 -0.45593999997E+02  0.45594000000E+02  0.51100000000E-03 0.  1.
    9900012    2    1    2    0    0 -0.17329623931E+02 -0.41205806946E+02  0.55568976566E+01  0.46142317596E+02  0.99999984953E+01 0.  0.
        -12    1    1    2    0    0  0.17329623931E+02  0.41205806946E+02 -0.55568976566E+01  0.45045682404E+02  0.00000000000E+00 0.  1.
         11    1    3    3    0    0 -0.92167471253E+01 -0.28508213286E+02  0.63163025817E+01  0.30619639627E+02  0.51100000000E-03 0. -1.
        -11    1    3    3    0    0 -0.63642822155E+01 -0.72422042395E+01  0.51083192942E+00  0.96547687640E+01  0.51100000000E-03 0.  1.
         12    1    3    3    0    0 -0.17485945900E+01 -0.54553894207E+01 -0.12702368545E+01  0.58679092050E+01  0.00000000000E+00 0. -1.
</event>
<event>
 7    1  0.3766050E-009  0.4614232E+02  0.7816164E-02  0.1320468E+00
        -11   -1    0    0    0    0  0.00000000000E+00  0.00000000000E+00  0.45593999997E+02  0.45594000000E+02  0.51100000000E-03 0. -1.
         11   -1    0    0    0    0 -0.00000000000E+00 -0.00000000000E+00 -0.45593999997E+02  0.45594000000E+02  0.51100000000E-03 0.  1.
    9900012    2    1    2    0    0 -0.39352580050E+02 -0.11596972569E+02  0.18601027186E+02  0.46142317169E+02  0.99999946021E+01 0.  0.
        -12    1    1    2    0    0  0.39352580050E+02  0.11596972569E+02 -0.18601027186E+02  0.45045682831E+02  0.00000000000E+00 0.  1.
         11    1    3    3    0    0 -0.17606115606E+02 -0.56164387444E+01  0.64054925697E+01  0.19558886119E+02  0.51100000000E-03 0. -1.
        -11    1    3    3    0    0 -0.86090415873E+01  0.57192406275E+00  0.24743060135E+01  0.89757943768E+01  0.51100000000E-03 0.  1.
        -12    1    3    3    0    0 -0.13137422857E+02 -0.65524578875E+01  0.97212286024E+01  0.17607636673E+02  0.00000000000E+00 0.  1.
</event>
<event>
 7    1  0.3766050E-009  0.4614232E+02  0.7816164E-02  0.1320468E+00
        -11   -1    0    0    0    0  0.00000000000E+00  0.00000000000E+00  0.45593999997E+02  0.45594000000E+02  0.51100000000E-03 0. -1.
         11   -1    0    0    0    0 -0.00000000000E+00 -0.00000000000E+00 -0.45593999997E+02  0.45594000000E+02  0.51100000000E-03 0.  1.
    9900012    2    1    2    0    0  0.31724401947E+02  0.28041050164E+02 -0.15374494562E+02  0.46142320338E+02  0.10000023495E+02 0.  0.
         12    1    1    2    0    0 -0.31724401947E+02 -0.28041050164E+02  0.15374494562E+02  0.45045679662E+02  0.00000000000E+00 0. -1.
         11    1    3    3    0    0  0.47575529288E+01  0.43205972432E+01 -0.16315692349E+00  0.64287238898E+01  0.51100000000E-03 0.  1.
        -11    1    3    3    0    0  0.12983534801E+02  0.65764114080E+01 -0.56487203780E+01  0.15611835417E+02  0.51100000000E-03 0. -1.
        -12    1    3    3    0    0  0.13983314217E+02  0.17144041513E+02 -0.95626172605E+01  0.24101761030E+02  0.00000000000E+00 0.  1.
</event>
<event>
 7    1  0.3766050E-009  0.4614232E+02  0.7816164E-02  0.1320468E+00
        -11   -1    0    0    0    0  0.00000000000E+00  0.00000000000E+00  0.45593999997E+02  0.45594000000E+02  0.51100000000E-03 0. -1.
         11   -1    0    0    0    0 -0.00000000000E+00 -0.00000000000E+00 -0.45593999997E+02  0.45594000000E+02  0.51100000000E-03 0.  1.
    9900012    2    1    2    0    0 -0.13724924341E+00  0.14312303706E+02  0.42711270691E+02  0.46142317423E+02  0.99999969212E+01 0.  0.
        -12    1    1    2    0    0  0.13724924341E+00 -0.14312303706E+02 -0.42711270691E+02  0.45045682577E+02  0.00000000000E+00 0.  1.
         11    1    3    3    0    0  0.11855259932E+00  0.11469590808E+01  0.38206048941E+01  0.39908134346E+01  0.51100000000E-03 0. -1.
        -11    1    3    3    0    0 -0.55954158199E+00  0.11670726452E+02  0.19729401132E+02  0.22929636107E+02  0.51100000000E-03 0.  1.
        -12    1    3    3    0    0  0.30373973926E+00  0.14946181734E+01  0.19161264665E+02  0.19221867882E+02  0.00000000000E+00 0.  1.
</event>
<event>
 7    1  0.3766050E-009  0.4614232E+02  0.7816164E-02  0.1320468E+00
        -11   -1    0    0    0    0  0.00000000000E+00  0.00000000000E+00  0.45593999997E+02  0.45594000000E+02  0.51100000000E-03 0. -1.
         11   -1    0    0    0    0 -0.00000000000E+00 -0.00000000000E+00 -0.45593999997E+02  0.45594000000E+02  0.51100000000E-03 0.  1.
    9900012    2    1    2    0    0 -0.21728284896E+02  0.10028833472E+02  0.38163040851E+02  0.46142317051E+02  0.99999935244E+01 0.  0.
        -12    1    1    2    0    0  0.21728284896E+02 -0.10028833472E+02 -0.38163040851E+02  0.45045682949E+02  0.00000000000E+00 0.  1.
         11    1    3    3    0    0 -0.62209540238E+01 -0.64364294404E-01  0.68336417881E+01  0.92413782565E+01  0.51100000000E-03 0. -1.
        -11    1    3    3    0    0 -0.79614814018E+01  0.77716854235E+01  0.14198347825E+02  0.18038219470E+02  0.51100000000E-03 0.  1.
        -12    1    3    3    0    0 -0.75458494705E+01  0.23215123425E+01  0.17131051238E+02  0.18862719324E+02  0.00000000000E+00 0.  1.
</event>
<event>
 7    1  0.3766050E-009  0.4614232E+02  0.7816164E-02  0.1320468E+00
        -11   -1    0    0    0    0  0.00000000000E+00  0.00000000000E+00  0.45593999997E+02  0.45594000000E+02  0.51100000000E-03 0. -1.
         11   -1    0    0    0    0 -0.00000000000E+00 -0.00000000000E+00 -0.45593999997E+02  0.45594000000E+02  0.51100000000E-03 0.  1.
    9900012    2    1    2    0    0 -0.28404156702E+02 -0.32551005143E+02 -0.12757327612E+02  0.46142318058E+02  0.10000002711E+02 0.  0.
         12    1    1    2    0    0  0.28404156702E+02  0.32551005143E+02  0.12757327612E+02  0.45045681942E+02  0.00000000000E+00 0. -1.
         11    1    3    3    0    0 -0.60007938017E+01 -0.77370754818E+01  0.91051806713E+00  0.98336619157E+01  0.51100000000E-03 0. -1.
        -11    1    3    3    0    0 -0.12681037858E+02 -0.11317668792E+02 -0.72888444423E+01  0.18493934185E+02  0.51100000000E-03 0.  1.
         12    1    3    3    0    0 -0.97223250424E+01 -0.13496260869E+02 -0.63790012372E+01  0.17814721958E+02  0.00000000000E+00 0. -1.
</event>
<event>
 7    1  0.3766050E-009  0.4614232E+02  0.7816164E-02  0.1320468E+00
        -11   -1    0    0    0    0  0.00000000000E+00  0.00000000000E+00  0.45593999997E+02  0.45594000000E+02  0.51100000000E-03 0. -1.
         11   -1    0    0    0    0 -0.00000000000E+00 -0.00000000000E+00 -0.45593999997E+02  0.45594000000E+02  0.51100000000E-03 0.  1.
    9900012    2    1    2    0    0  0.18784436609E+02 -0.31302916238E+02 -0.26389122098E+02  0.46142318866E+02  0.10000010074E+02 0.  0.
         12    1    1    2    0    0 -0.18784436609E+02  0.31302916238E+02  0.26389122098E+02  0.45045681134E+02  0.00000000000E+00 0. -1.
         11    1    3    3    0    0  0.30995303011E+01 -0.10007999432E+01 -0.41227367493E+01  0.52541076482E+01  0.51100000000E-03 0. -1.
        -11    1    3    3    0    0  0.76246367108E+00 -0.37432135708E+01 -0.27899857096E+01  0.47304354141E+01  0.51100000000E-03 0.  1.
         12    1    3    3    0    0  0.14922442637E+02 -0.26558902724E+02 -0.19476399639E+02  0.36157775804E+02  0.00000000000E+00 0. -1.
</event>
<event>
 7    1  0.3766050E-009  0.4614232E+02  0.7816164E-02  0.1320468E+00
        -11   -1    0    0    0    0  0.00000000000E+00  0.00000000000E+00  0.45593999997E+02  0.45594000000E+02  0.51100000000E-03 0. -1.
         11   -1    0    0    0    0 -0.00000000000E+00 -0.00000000000E+00 -0.45593999997E+02  0.45594000000E+02  0.51100000000E-03 0.  1.
    9900012    2    1    2    0    0 -0.19232905705E+02  0.18326772779E+02 -0.36377715575E+02  0.46142318156E+02  0.10000003601E+02 0.  0.
         12    1    1    2    0    0  0.19232905705E+02 -0.18326772779E+02  0.36377715575E+02  0.45045681844E+02  0.00000000000E+00 0. -1.
         11    1    3    3    0    0 -0.68943055879E+01  0.44008998562E+01 -0.11202099070E+02  0.13870342206E+02  0.51100000000E-03 0.  1.
        -11    1    3    3    0    0 -0.51415298783E+01  0.71985967903E+01 -0.59253509250E+01  0.10647295858E+02  0.51100000000E-03 0. -1.
        -12    1    3    3    0    0 -0.71970702388E+01  0.67272761321E+01 -0.19250265580E+02  0.21624680092E+02  0.00000000000E+00 0.  1.
</event>
<event>
 7    1  0.3766050E-009  0.4614232E+02  0.7816164E-02  0.1320468E+00
        -11   -1    0    0    0    0  0.00000000000E+00  0.00000000000E+00  0.45593999997E+02  0.45594000000E+02  0.51100000000E-03 0. -1.
         11   -1    0    0    0    0 -0.00000000000E+00 -0.00000000000E+00 -0.45593999997E+02  0.45594000000E+02  0.51100000000E-03 0.  1.
    9900012    2    1    2    0    0 -0.23575717754E+02 -0.35636985669E+02  0.14258481823E+02  0.46142317420E+02  0.99999968870E+01 0.  0.
        -12    1    1    2    0    0  0.23575717754E+02  0.35636985669E+02 -0.14258481823E+02  0.45045682580E+02  0.00000000000E+00 0.  1.
         11    1    3    3    0    0 -0.11115491780E+02 -0.21971444936E+02  0.84374337166E+01  0.26028615754E+02  0.51100000000E-03 0. -1.
        -11    1    3    3    0    0 -0.43283353648E+01 -0.57046627784E+01 -0.34780334072E+00  0.71692839162E+01  0.51100000000E-03 0.  1.
         12    1    3    3    0    0 -0.81318906098E+01 -0.79608779551E+01  0.61688514471E+01  0.12944417750E+02  0.00000000000E+00 0. -1.
</event>
<event>
 7    1  0.3766050E-009  0.4614232E+02  0.7816164E-02  0.1320468E+00
        -11   -1    0    0    0    0  0.00000000000E+00  0.00000000000E+00  0.45593999997E+02  0.45594000000E+02  0.51100000000E-03 0. -1.
         11   -1    0    0    0    0 -0.00000000000E+00 -0.00000000000E+00 -0.45593999997E+02  0.45594000000E+02  0.51100000000E-03 0.  1.
    9900012    2    1    2    0    0  0.13694479040E+02 -0.27460867109E+02  0.32976894514E+02  0.46142317073E+02  0.99999937281E+01 0.  0.
        -12    1    1    2    0    0 -0.13694479040E+02  0.27460867109E+02 -0.32976894514E+02  0.45045682927E+02  0.00000000000E+00 0.  1.
         11    1    3    3    0    0  0.12710261769E+02 -0.19448545746E+02  0.22967884091E+02  0.32669869693E+02  0.51100000000E-03 0. -1.
        -11    1    3    3    0    0 -0.29256703398E-01 -0.36218747505E+01  0.16581444339E+01  0.39835004566E+01  0.51100000000E-03 0.  1.
        -12    1    3    3    0    0  0.10134739737E+01 -0.43904466125E+01  0.83508659893E+01  0.94889469239E+01  0.00000000000E+00 0.  1.
</event>
<event>
 7    1  0.3766050E-009  0.4614232E+02  0.7816164E-02  0.1320468E+00
        -11   -1    0    0    0    0  0.00000000000E+00  0.00000000000E+00  0.45593999997E+02  0.45594000000E+02  0.51100000000E-03 0. -1.
         11   -1    0    0    0    0 -0.00000000000E+00 -0.00000000000E+00 -0.45593999997E+02  0.45594000000E+02  0.51100000000E-03 0.  1.
    9900012    2    1    2    0    0  0.23766725581E+02 -0.10670136098E+02  0.36747849947E+02  0.46142317355E+02  0.99999962983E+01 0.  0.
        -12    1    1    2    0    0 -0.23766725581E+02  0.10670136098E+02 -0.36747849947E+02  0.45045682645E+02  0.00000000000E+00 0.  1.
         11    1    3    3    0    0  0.19557870293E+01  0.12910880597E+01  0.15854341404E+01  0.28294191907E+01  0.51100000000E-03 0. -1.
        -11    1    3    3    0    0  0.74173983724E+01 -0.62904597579E+01  0.11780314200E+02  0.15276239245E+02  0.51100000000E-03 0.  1.
         12    1    3    3    0    0  0.14393540180E+02 -0.56707643993E+01  0.23382101607E+02  0.28036658919E+02  0.00000000000E+00 0. -1.
</event>
<event>
 7    1  0.3766050E-009  0.4614231E+02  0.7816164E-02  0.1320468E+00
        -11   -1    0    0    0    0  0.00000000000E+00  0.00000000000E+00  0.45593999997E+02  0.45594000000E+02  0.51100000000E-03 0. -1.
         11   -1    0    0    0    0 -0.00000000000E+00 -0.00000000000E+00 -0.45593999997E+02  0.45594000000E+02  0.51100000000E-03 0.  1.
    9900012    2    1    2    0    0  0.55421597362E+01  0.29189631293E+02  0.33857994645E+02  0.46142313070E+02  0.99999572235E+01 0.  0.
        -12    1    1    2    0    0 -0.55421597362E+01 -0.29189631293E+02 -0.33857994645E+02  0.45045686930E+02  0.00000000000E+00 0.  1.
         11    1    3    3    0    0  0.32293747463E+01  0.90839856076E+01  0.10382430313E+02  0.14168363181E+02  0.51100000000E-03 0. -1.
        -11    1    3    3    0    0  0.11274391948E+01  0.16716956236E+02  0.13976198074E+02  0.21818841807E+02  0.51100000000E-03 0.  1.
         12    1    3    3    0    0  0.11853457951E+01  0.33886894496E+01  0.94993662585E+01  0.10155108082E+02  0.00000000000E+00 0. -1.
</event>
<event>
 7    1  0.3766050E-009  0.4614232E+02  0.7816164E-02  0.1320468E+00
        -11   -1    0    0    0    0  0.00000000000E+00  0.00000000000E+00  0.45593999997E+02  0.45594000000E+02  0.51100000000E-03 0. -1.
         11   -1    0    0    0    0 -0.00000000000E+00 -0.00000000000E+00 -0.45593999997E+02  0.45594000000E+02  0.51100000000E-03 0.  1.
    9900012    2    1    2    0    0  0.31247657028E+02  0.85966311948E+01  0.31285704764E+02  0.46142318073E+02  0.10000002847E+02 0.  0.
        -12    1    1    2    0    0 -0.31247657028E+02 -0.85966311948E+01 -0.31285704764E+02  0.45045681927E+02  0.00000000000E+00 0.  1.
         11    1    3    3    0    0  0.21868873122E+02  0.33725544599E+01  0.16768778681E+02  0.27763531366E+02  0.51100000000E-03 0. -1.
        -11    1    3    3    0    0  0.88903253694E+01  0.48468592525E+01  0.14587725344E+02  0.17757580375E+02  0.51100000000E-03 0.  1.
         12    1    3    3    0    0  0.48845853701E+00  0.37721748241E+00 -0.70799261701E-01  0.62120633196E+00  0.00000000000E+00 0. -1.
</event>
<event>
 7    1  0.3766050E-009  0.4614231E+02  0.7816164E-02  0.1320468E+00
        -11   -1    0    0    0    0  0.00000000000E+00  0.00000000000E+00  0.45593999997E+02  0.45594000000E+02  0.51100000000E-03 0. -1.
         11   -1    0    0    0    0 -0.00000000000E+00 -0.00000000000E+00 -0.45593999997E+02  0.45594000000E+02  0.51100000000E-03 0.  1.
    9900012    2    1    2    0    0 -0.39136809953E+02  0.22281650833E+02 -0.97566164669E+00  0.46142314605E+02  0.99999712162E+01 0.  0.
         12    1    1    2    0    0  0.39136809953E+02 -0.22281650833E+02  0.97566164669E+00  0.45045685395E+02  0.00000000000E+00 0. -1.
         11    1    3    3    0    0 -0.13218567526E+02  0.99088032155E+01  0.36625085769E+00  0.16524195852E+02  0.51100000000E-03 0. -1.
        -11    1    3    3    0    0 -0.67187583170E+01  0.44690244598E+00 -0.19424830799E+01  0.70081863485E+01  0.51100000000E-03 0.  1.
        -12    1    3    3    0    0 -0.19199484110E+02  0.11925945171E+02  0.60057057550E+00  0.22609932404E+02  0.00000000000E+00 0.  1.
</event>
<event>
 7    1  0.3766050E-009  0.4614232E+02  0.7816164E-02  0.1320468E+00
        -11   -1    0    0    0    0  0.00000000000E+00  0.00000000000E+00  0.45593999997E+02  0.45594000000E+02  0.51100000000E-03 0. -1.
         11   -1    0    0    0    0 -0.00000000000E+00 -0.00000000000E+00 -0.45593999997E+02  0.45594000000E+02  0.51100000000E-03 0.  1.
    9900012    2    1    2    0    0  0.17841206410E+02  0.40636891190E+02  0.77102470328E+01  0.46142317843E+02  0.10000000742E+02 0.  0.
        -12    1    1    2    0    0 -0.17841206410E+02 -0.40636891190E+02 -0.77102470328E+01  0.45045682157E+02  0.00000000000E+00 0.  1.
         11    1    3    3    0    0  0.46155093936E+01  0.20099725106E+02  0.63709319539E+01  0.21584500238E+02  0.51100000000E-03 0. -1.
        -11    1    3    3    0    0  0.77782829433E+01  0.12730649864E+02 -0.16925683442E+00  0.14919778136E+02  0.51100000000E-03 0.  1.
         12    1    3    3    0    0  0.54474140729E+01  0.78065162198E+01  0.15085719134E+01  0.96380394682E+01  0.00000000000E+00 0. -1.
</event>
<event>
 7    1  0.3766050E-009  0.4614232E+02  0.7816164E-02  0.1320468E+00
        -11   -1    0    0    0    0  0.00000000000E+00  0.00000000000E+00  0.45593999997E+02  0.45594000000E+02  0.51100000000E-03 0. -1.
         11   -1    0    0    0    0 -0.00000000000E+00 -0.00000000000E+00 -0.45593999997E+02  0.45594000000E+02  0.51100000000E-03 0.  1.
    9900012    2    1    2    0    0  0.13889634685E+02 -0.28348700698E+02 -0.32133205076E+02  0.46142315952E+02  0.99999834999E+01 0.  0.
         12    1    1    2    0    0 -0.13889634685E+02  0.28348700698E+02  0.32133205076E+02  0.45045684048E+02  0.00000000000E+00 0. -1.
         11    1    3    3    0    0  0.72181127912E+01 -0.80561863601E+01 -0.84765925124E+01  0.13742485649E+02  0.51100000000E-03 0. -1.
        -11    1    3    3    0    0  0.73397985866E+01 -0.15131744758E+02 -0.16586369820E+02  0.23620965407E+02  0.51100000000E-03 0.  1.
        -12    1    3    3    0    0 -0.66827669295E+00 -0.51607695802E+01 -0.70702427436E+01  0.87788648954E+01  0.00000000000E+00 0.  1.
</event>
<event>
 7    1  0.3766050E-009  0.4614232E+02  0.7816164E-02  0.1320468E+00
        -11   -1    0    0    0    0  0.00000000000E+00  0.00000000000E+00  0.45593999997E+02  0.45594000000E+02  0.51100000000E-03 0. -1.
         11   -1    0    0    0    0 -0.00000000000E+00 -0.00000000000E+00 -0.45593999997E+02  0.45594000000E+02  0.51100000000E-03 0.  1.
    9900012    2    1    2    0    0 -0.13102302403E+02 -0.35962653071E+02 -0.23751436053E+02  0.46142318090E+02  0.10000002997E+02 0.  0.
         12    1    1    2    0    0  0.13102302403E+02  0.35962653071E+02  0.23751436053E+02  0.45045681910E+02  0.00000000000E+00 0. -1.
         11    1    3    3    0    0 -0.57944445580E+01 -0.11934527187E+02 -0.11459073163E+02  0.17530512968E+02  0.51100000000E-03 0. -1.
        -11    1    3    3    0    0  0.63765068739E-01 -0.77381284757E+01 -0.20483633698E+01  0.80049041872E+01  0.51100000000E-03 0.  1.
        -12    1    3    3    0    0 -0.73716229137E+01 -0.16289997408E+02 -0.10243999520E+02  0.20606900934E+02  0.00000000000E+00 0.  1.
</event>
<event>
 7    1  0.3766050E-009  0.4614232E+02  0.7816164E-02  0.1320468E+00
        -11   -1    0    0    0    0  0.00000000000E+00  0.00000000000E+00  0.45593999997E+02  0.45594000000E+02  0.51100000000E-03 0. -1.
         11   -1    0    0    0    0 -0.00000000000E+00 -0.00000000000E+00 -0.45593999997E+02  0.45594000000E+02  0.51100000000E-03 0.  1.
    9900012    2    1    2    0    0  0.23856516019E+01  0.10546340393E+02 -0.43728673903E+02  0.46142317071E+02  0.99999937072E+01 0.  0.
         12    1    1    2    0    0 -0.23856516019E+01 -0.10546340393E+02  0.43728673903E+02  0.45045682929E+02  0.00000000000E+00 0. -1.
         11    1    3    3    0    0 -0.25156054662E+01  0.53777003077E+01 -0.12354030090E+02  0.13706567447E+02  0.51100000000E-03 0. -1.
        -11    1    3    3    0    0  0.38109643562E+01  0.10469927186E+01 -0.16005422171E+02  0.16486151225E+02  0.51100000000E-03 0.  1.
        -12    1    3    3    0    0  0.10902927119E+01  0.41216473669E+01 -0.15369221642E+02  0.15949598399E+02  0.00000000000E+00 0.  1.
</event>
<event>
 7    1  0.3766050E-009  0.4614232E+02  0.7816164E-02  0.1320468E+00
        -11   -1    0    0    0    0  0.00000000000E+00  0.00000000000E+00  0.45593999997E+02  0.45594000000E+02  0.51100000000E-03 0. -1.
         11   -1    0    0    0    0 -0.00000000000E+00 -0.00000000000E+00 -0.45593999997E+02  0.45594000000E+02  0.51100000000E-03 0.  1.
    9900012    2    1    2    0    0  0.11778396146E+02 -0.42290224388E+02 -0.10095535705E+02  0.46142317235E+02  0.99999952058E+01 0.  0.
         12    1    1    2    0    0 -0.11778396146E+02  0.42290224388E+02  0.10095535705E+02  0.45045682765E+02  0.00000000000E+00 0. -1.
         11    1    3    3    0    0  0.47454965106E+01 -0.69573546346E+01 -0.39701992181E+01  0.93105855206E+01  0.51100000000E-03 0. -1.
        -11    1    3    3    0    0  0.47621398798E+01 -0.25723073837E+02 -0.64805054694E+01  0.26950908245E+02  0.51100000000E-03 0.  1.
         12    1    3    3    0    0  0.22707597554E+01 -0.96097959166E+01  0.35516898268E+00  0.98808234693E+01  0.00000000000E+00 0. -1.
</event>
<event>
 7    1  0.3766050E-009  0.4614232E+02  0.7816164E-02  0.1320468E+00
        -11   -1    0    0    0    0  0.00000000000E+00  0.00000000000E+00  0.45593999997E+02  0.45594000000E+02  0.51100000000E-03 0. -1.
         11   -1    0    0    0    0 -0.00000000000E+00 -0.00000000000E+00 -0.45593999997E+02  0.45594000000E+02  0.51100000000E-03 0.  1.
    9900012    2    1    2    0    0 -0.27221294948E+02 -0.35884498280E+02 -0.64601287289E+00  0.46142318209E+02  0.10000004081E+02 0.  0.
        -12    1    1    2    0    0  0.27221294948E+02  0.35884498280E+02  0.64601287289E+00  0.45045681791E+02  0.00000000000E+00 0.  1.
         11    1    3    3    0    0 -0.85722309179E+01 -0.94495006845E+01  0.22490465137E+01  0.12955092303E+02  0.51100000000E-03 0. -1.
        -11    1    3    3    0    0 -0.54910593672E+01 -0.47224025009E+01 -0.28929512991E+01  0.77988451603E+01  0.51100000000E-03 0.  1.
         12    1    3    3    0    0 -0.13158004663E+02 -0.21712595094E+02 -0.21080875331E-02  0.25388380745E+02  0.00000000000E+00 0. -1.
</event>
<event>
 7    1  0.3766050E-009  0.4614232E+02  0.7816164E-02  0.1320468E+00
        -11   -1    0    0    0    0  0.00000000000E+00  0.00000000000E+00  0.45593999997E+02  0.45594000000E+02  0.51100000000E-03 0. -1.
         11   -1    0    0    0    0 -0.00000000000E+00 -0.00000000000E+00 -0.45593999997E+02  0.45594000000E+02  0.51100000000E-03 0.  1.
    9900012    2    1    2    0    0 -0.15575272212E+01  0.34174107377E+02 -0.29305598895E+02  0.46142316159E+02  0.99999853943E+01 0.  0.
         12    1    1    2    0    0  0.15575272212E+01 -0.34174107377E+02  0.29305598895E+02  0.45045683841E+02  0.00000000000E+00 0. -1.
         11    1    3    3    0    0  0.27168078334E+01  0.83259815837E+01 -0.11197813221E+02  0.14215978170E+02  0.51100000000E-03 0. -1.
        -11    1    3    3    0    0 -0.21642505043E+01  0.18518607735E+02 -0.13445272246E+02  0.22986912770E+02  0.51100000000E-03 0.  1.
         12    1    3    3    0    0 -0.21100845503E+01  0.73295180587E+01 -0.46625134286E+01  0.89394252195E+01  0.00000000000E+00 0. -1.
</event>
<event>
 7    1  0.5117080E-009  0.4614232E+02  0.7816164E-02  0.1320468E+00
        -11   -1    0    0    0    0  0.00000000000E+00  0.00000000000E+00  0.45593999997E+02  0.45594000000E+02  0.51100000000E-03 0. -1.
         11   -1    0    0    0    0 -0.00000000000E+00 -0.00000000000E+00 -0.45593999997E+02  0.45594000000E+02  0.51100000000E-03 0.  1.
    9900012    2    1    2    0    0  0.15163114712E+02 -0.28172248425E+02 -0.31709901801E+02  0.46142317618E+02  0.99999986908E+01 0.  0.
         12    1    1    2    0    0 -0.15163114712E+02  0.28172248425E+02  0.31709901801E+02  0.45045682382E+02  0.00000000000E+00 0. -1.
         11    1    3    3    0    0  0.23700909413E+01 -0.13526871187E+02 -0.13526510220E+02  0.19275893084E+02  0.51100000000E-03 0. -1.
        -11    1    3    3    0    0  0.10884637884E+02 -0.13771138947E+02 -0.15207631472E+02  0.23224807104E+02  0.51100000000E-03 0.  1.
         12    1    3    3    0    0  0.19083858862E+01 -0.87423829130E+00 -0.29757601094E+01  0.36416174304E+01  0.00000000000E+00 0. -1.
</event>
<event>
 7    1  0.3766050E-009  0.4614232E+02  0.7816164E-02  0.1320468E+00
        -11   -1    0    0    0    0  0.00000000000E+00  0.00000000000E+00  0.45593999997E+02  0.45594000000E+02  0.51100000000E-03 0. -1.
         11   -1    0    0    0    0 -0.00000000000E+00 -0.00000000000E+00 -0.45593999997E+02  0.45594000000E+02  0.51100000000E-03 0.  1.
    9900012    2    1    2    0    0 -0.24939633706E+02 -0.16583092852E+02 -0.33647127160E+02  0.46142318031E+02  0.10000002459E+02 0.  0.
         12    1    1    2    0    0  0.24939633706E+02  0.16583092852E+02  0.33647127160E+02  0.45045681969E+02  0.00000000000E+00 0. -1.
         11    1    3    3    0    0 -0.31801979720E+00 -0.26762874164E+01 -0.17075116532E+01  0.31904932586E+01  0.51100000000E-03 0. -1.
        -11    1    3    3    0    0 -0.21827664178E+02 -0.11699573255E+02 -0.29985163662E+02  0.38890062714E+02  0.51100000000E-03 0.  1.
         12    1    3    3    0    0 -0.27939497315E+01 -0.22072321812E+01 -0.19544518444E+01  0.40617620580E+01  0.00000000000E+00 0. -1.
</event>
<event>
 7    1  0.3766050E-009  0.4614232E+02  0.7816164E-02  0.1320468E+00
        -11   -1    0    0    0    0  0.00000000000E+00  0.00000000000E+00  0.45593999997E+02  0.45594000000E+02  0.51100000000E-03 0. -1.
         11   -1    0    0    0    0 -0.00000000000E+00 -0.00000000000E+00 -0.45593999997E+02  0.45594000000E+02  0.51100000000E-03 0.  1.
    9900012    2    1    2    0    0 -0.10215830665E+02 -0.22837270518E+02 -0.37459436828E+02  0.46142317317E+02  0.99999959510E+01 0.  0.
         12    1    1    2    0    0  0.10215830665E+02  0.22837270518E+02  0.37459436828E+02  0.45045682683E+02  0.00000000000E+00 0. -1.
         11    1    3    3    0    0 -0.62459724460E+01 -0.13842979871E+02 -0.14262962025E+02  0.20834403027E+02  0.51100000000E-03 0. -1.
        -11    1    3    3    0    0 -0.23788418709E+01 -0.38638206345E+01 -0.13224465225E+02  0.13981218806E+02  0.51100000000E-03 0.  1.
         12    1    3    3    0    0 -0.15910163477E+01 -0.51304700126E+01 -0.99720095776E+01  0.11326695484E+02  0.00000000000E+00 0. -1.
</event>
<event>
 7    1  0.3766050E-009  0.4614232E+02  0.7816164E-02  0.1320468E+00
        -11   -1    0    0    0    0  0.00000000000E+00  0.00000000000E+00  0.45593999997E+02  0.45594000000E+02  0.51100000000E-03 0. -1.
         11   -1    0    0    0    0 -0.00000000000E+00 -0.00000000000E+00 -0.45593999997E+02  0.45594000000E+02  0.51100000000E-03 0.  1.
    9900012    2    1    2    0    0  0.24335589046E+02  0.29391141242E+02  0.23938532279E+02  0.46142318682E+02  0.10000008397E+02 0.  0.
        -12    1    1    2    0    0 -0.24335589046E+02 -0.29391141242E+02 -0.23938532279E+02  0.45045681318E+02  0.00000000000E+00 0.  1.
         11    1    3    3    0    0  0.20878446078E+02  0.22472772278E+02  0.16619022363E+02  0.34887345973E+02  0.51100000000E-03 0. -1.
        -11    1    3    3    0    0  0.75416723335E+00  0.86516984657E+00  0.33197030953E+01  0.35125085027E+01  0.51100000000E-03 0.  1.
         12    1    3    3    0    0  0.27029757350E+01  0.60531991175E+01  0.39998068208E+01  0.77424642062E+01  0.00000000000E+00 0. -1.
</event>
<event>
 7    1  0.3766050E-009  0.4614231E+02  0.7816164E-02  0.1320468E+00
        -11   -1    0    0    0    0  0.00000000000E+00  0.00000000000E+00  0.45593999997E+02  0.45594000000E+02  0.51100000000E-03 0. -1.
         11   -1    0    0    0    0 -0.00000000000E+00 -0.00000000000E+00 -0.45593999997E+02  0.45594000000E+02  0.51100000000E-03 0.  1.
    9900012    2    1    2    0    0  0.18378722914E+02 -0.18509541813E+01  0.41084184912E+02  0.46142314999E+02  0.99999748113E+01 0.  0.
        -12    1    1    2    0    0 -0.18378722914E+02  0.18509541813E+01 -0.41084184912E+02  0.45045685001E+02  0.00000000000E+00 0.  1.
         11    1    3    3    0    0  0.50630697624E+01 -0.40985262022E+00  0.15984149326E+02  0.16771871825E+02  0.51100000000E-03 0. -1.
        -11    1    3    3    0    0  0.12196999438E+02 -0.24666669969E+01  0.24904399980E+02  0.27840265444E+02  0.51100000000E-03 0.  1.
        -12    1    3    3    0    0  0.11186537141E+01  0.10255654359E+01  0.19563560662E+00  0.15301777302E+01  0.00000000000E+00 0.  1.
</event>
<event>
 7    1  0.3766050E-009  0.4614232E+02  0.7816164E-02  0.1320468E+00
        -11   -1    0    0    0    0  0.00000000000E+00  0.00000000000E+00  0.45593999997E+02  0.45594000000E+02  0.51100000000E-03 0. -1.
         11   -1    0    0    0    0 -0.00000000000E+00 -0.00000000000E+00 -0.45593999997E+02  0.45594000000E+02  0.51100000000E-03 0.  1.
    9900012    2    1    2    0    0  0.71377508286E+01 -0.29134019533E+02  0.33606171688E+02  0.46142319224E+02  0.10000013341E+02 0.  0.
        -12    1    1    2    0    0 -0.71377508286E+01  0.29134019533E+02 -0.33606171688E+02  0.45045680776E+02  0.00000000000E+00 0.  1.
         11    1    3    3    0    0 -0.11485218646E+00 -0.83726609445E+01  0.78331333729E+01  0.11466151099E+02  0.51100000000E-03 0. -1.
        -11    1    3    3    0    0  0.84348989021E+01 -0.14789540668E+02  0.20250246869E+02  0.26456578221E+02  0.51100000000E-03 0.  1.
        -12    1    3    3    0    0 -0.11822958871E+01 -0.59718179203E+01  0.55227914469E+01  0.82195899048E+01  0.00000000000E+00 0.  1.
</event>
<event>
 7    1  0.3766050E-009  0.4614232E+02  0.7816164E-02  0.1320468E+00
        -11   -1    0    0    0    0  0.00000000000E+00  0.00000000000E+00  0.45593999997E+02  0.45594000000E+02  0.51100000000E-03 0. -1.
         11   -1    0    0    0    0 -0.00000000000E+00 -0.00000000000E+00 -0.45593999997E+02  0.45594000000E+02  0.51100000000E-03 0.  1.
    9900012    2    1    2    0    0 -0.31767241430E+02 -0.28443910944E+02  0.14522383950E+02  0.46142319481E+02  0.10000015681E+02 0.  0.
        -12    1    1    2    0    0  0.31767241430E+02  0.28443910944E+02 -0.14522383950E+02  0.45045680519E+02  0.00000000000E+00 0.  1.
         11    1    3    3    0    0 -0.10320317267E+02 -0.11510728203E+02  0.97138450422E+01  0.18258274782E+02  0.51100000000E-03 0. -1.
        -11    1    3    3    0    0 -0.43541634683E+01 -0.40642536090E+01  0.68449476054E-02  0.59562525149E+01  0.51100000000E-03 0.  1.
         12    1    3    3    0    0 -0.17092760694E+02 -0.12868929132E+02  0.48016939600E+01  0.21927792184E+02  0.00000000000E+00 0. -1.
</event>
<event>
 7    1  0.3766050E-009  0.4614232E+02  0.7816164E-02  0.1320468E+00
        -11   -1    0    0    0    0  0.00000000000E+00  0.00000000000E+00  0.45593999997E+02  0.45594000000E+02  0.51100000000E-03 0. -1.
         11   -1    0    0    0    0 -0.00000000000E+00 -0.00000000000E+00 -0.45593999997E+02  0.45594000000E+02  0.51100000000E-03 0.  1.
    9900012    2    1    2    0    0  0.44348029624E+02  0.28480089228E+00 -0.78920671742E+01  0.46142316885E+02  0.99999920070E+01 0.  0.
         12    1    1    2    0    0 -0.44348029624E+02 -0.28480089228E+00  0.78920671742E+01  0.45045683115E+02  0.00000000000E+00 0. -1.
         11    1    3    3    0    0  0.10614027045E+02 -0.92457176316E-01 -0.57318421150E+01  0.12063172582E+02  0.51100000000E-03 0. -1.
        -11    1    3    3    0    0  0.23401622532E+02  0.12265899077E+01 -0.32365273898E+01  0.23656195166E+02  0.51100000000E-03 0.  1.
         12    1    3    3    0    0  0.10332380046E+02 -0.84933183913E+00  0.10763023306E+01  0.10422949136E+02  0.00000000000E+00 0. -1.
</event>
<event>
 7    1  0.3766050E-009  0.4614232E+02  0.7816164E-02  0.1320468E+00
        -11   -1    0    0    0    0  0.00000000000E+00  0.00000000000E+00  0.45593999997E+02  0.45594000000E+02  0.51100000000E-03 0. -1.
         11   -1    0    0    0    0 -0.00000000000E+00 -0.00000000000E+00 -0.45593999997E+02  0.45594000000E+02  0.51100000000E-03 0.  1.
    9900012    2    1    2    0    0  0.13669404674E+02  0.11170975025E+02  0.41442371650E+02  0.46142317908E+02  0.10000001342E+02 0.  0.
        -12    1    1    2    0    0 -0.13669404674E+02 -0.11170975025E+02 -0.41442371650E+02  0.45045682092E+02  0.00000000000E+00 0.  1.
         11    1    3    3    0    0  0.91855265057E+01  0.48592562180E+01  0.27300595305E+02  0.29211449339E+02  0.51100000000E-03 0. -1.
        -11    1    3    3    0    0  0.22368118560E+01 -0.23976721836E+00  0.23341227469E+01  0.32417502768E+01  0.51100000000E-03 0.  1.
         12    1    3    3    0    0  0.22470663119E+01  0.65514860257E+01  0.11807653597E+02  0.13689118293E+02  0.00000000000E+00 0. -1.
</event>
<event>
 7    1  0.3766050E-009  0.4614232E+02  0.7816164E-02  0.1320468E+00
        -11   -1    0    0    0    0  0.00000000000E+00  0.00000000000E+00  0.45593999997E+02  0.45594000000E+02  0.51100000000E-03 0.  1.
         11   -1    0    0    0    0 -0.00000000000E+00 -0.00000000000E+00 -0.45593999997E+02  0.45594000000E+02  0.51100000000E-03 0. -1.
    9900012    2    1    2    0    0  0.32837984366E+00 -0.42826570960E+02  0.13960313570E+02  0.46142319091E+02  0.10000012130E+02 0.  0.
         12    1    1    2    0    0 -0.32837984366E+00  0.42826570960E+02 -0.13960313570E+02  0.45045680909E+02  0.00000000000E+00 0. -1.
         11    1    3    3    0    0  0.10121425309E+01 -0.51763033802E+00  0.16528331309E+01  0.20060486757E+01  0.51100000000E-03 0. -1.
        -11    1    3    3    0    0 -0.10221972363E+01 -0.16869940270E+02  0.58933943077E+01  0.17898934846E+02  0.51100000000E-03 0.  1.
         12    1    3    3    0    0  0.33843454900E+00 -0.25439000353E+02  0.64140861315E+01  0.26237335570E+02  0.00000000000E+00 0. -1.
</event>
<event>
 7    1  0.3766050E-009  0.4614232E+02  0.7816164E-02  0.1320468E+00
        -11   -1    0    0    0    0  0.00000000000E+00  0.00000000000E+00  0.45593999997E+02  0.45594000000E+02  0.51100000000E-03 0. -1.
         11   -1    0    0    0    0 -0.00000000000E+00 -0.00000000000E+00 -0.45593999997E+02  0.45594000000E+02  0.51100000000E-03 0.  1.
    9900012    2    1    2    0    0  0.43308867949E+02  0.10859970540E+02  0.59595708047E+01  0.46142317772E+02  0.10000000102E+02 0.  0.
        -12    1    1    2    0    0 -0.43308867949E+02 -0.10859970540E+02 -0.59595708047E+01  0.45045682228E+02  0.00000000000E+00 0.  1.
         11    1    3    3    0    0  0.21561231119E+02  0.64409326076E+01  0.53735579134E+01  0.23135414955E+02  0.51100000000E-03 0. -1.
        -11    1    3    3    0    0  0.11336407986E+02  0.11148847097E+01  0.30855535886E+01  0.11801599686E+02  0.51100000000E-03 0.  1.
        -12    1    3    3    0    0  0.10411228844E+02  0.33041532226E+01 -0.24995406973E+01  0.11205303131E+02  0.00000000000E+00 0.  1.
</event>
<event>
 7    1  0.3766050E-009  0.4614232E+02  0.7816164E-02  0.1320468E+00
        -11   -1    0    0    0    0  0.00000000000E+00  0.00000000000E+00  0.45593999997E+02  0.45594000000E+02  0.51100000000E-03 0.  1.
         11   -1    0    0    0    0 -0.00000000000E+00 -0.00000000000E+00 -0.45593999997E+02  0.45594000000E+02  0.51100000000E-03 0. -1.
    9900012    2    1    2    0    0 -0.40885894364E+02 -0.76547324883E+01  0.17287630834E+02  0.46142317995E+02  0.10000002137E+02 0.  0.
         12    1    1    2    0    0  0.40885894364E+02  0.76547324883E+01 -0.17287630834E+02  0.45045682005E+02  0.00000000000E+00 0. -1.
         11    1    3    3    0    0 -0.31165531930E+02 -0.56593576564E+01  0.95037214448E+01  0.33070219702E+02  0.51100000000E-03 0. -1.
        -11    1    3    3    0    0 -0.75677875607E+01 -0.28044868693E+01  0.68656314914E+01  0.10595916723E+02  0.51100000000E-03 0.  1.
         12    1    3    3    0    0 -0.21525748731E+01  0.80911203740E+00  0.91827789758E+00  0.24761815706E+01  0.00000000000E+00 0. -1.
</event>
<event>
 7    1  0.3766050E-009  0.4614232E+02  0.7816164E-02  0.1320468E+00
        -11   -1    0    0    0    0  0.00000000000E+00  0.00000000000E+00  0.45593999997E+02  0.45594000000E+02  0.51100000000E-03 0. -1.
         11   -1    0    0    0    0 -0.00000000000E+00 -0.00000000000E+00 -0.45593999997E+02  0.45594000000E+02  0.51100000000E-03 0.  1.
    9900012    2    1    2    0    0  0.36476964907E+02  0.12247442705E+02  0.23421030003E+02  0.46142317987E+02  0.10000002056E+02 0.  0.
        -12    1    1    2    0    0 -0.36476964907E+02 -0.12247442705E+02 -0.23421030003E+02  0.45045682013E+02  0.00000000000E+00 0.  1.
         11    1    3    3    0    0  0.10739493672E+02  0.53215158397E+01  0.32039445734E+01  0.12406470741E+02  0.51100000000E-03 0.  1.
        -11    1    3    3    0    0  0.17898685068E+02  0.66169281407E+01  0.13126532771E+02  0.23161444861E+02  0.51100000000E-03 0. -1.
        -12    1    3    3    0    0  0.78387861667E+01  0.30899872488E+00  0.70905526595E+01  0.10574402385E+02  0.00000000000E+00 0.  1.
</event>
<event>
 7    1  0.3766050E-009  0.4614232E+02  0.7816164E-02  0.1320468E+00
        -11   -1    0    0    0    0  0.00000000000E+00  0.00000000000E+00  0.45593999997E+02  0.45594000000E+02  0.51100000000E-03 0. -1.
         11   -1    0    0    0    0 -0.00000000000E+00 -0.00000000000E+00 -0.45593999997E+02  0.45594000000E+02  0.51100000000E-03 0.  1.
    9900012    2    1    2    0    0  0.79947075963E+01 -0.49799334603E+01  0.44049954625E+02  0.46142316641E+02  0.99999897894E+01 0.  0.
        -12    1    1    2    0    0 -0.79947075963E+01  0.49799334603E+01 -0.44049954625E+02  0.45045683359E+02  0.00000000000E+00 0.  1.
         11    1    3    3    0    0  0.22463073573E+01 -0.10259294020E+01  0.14794177497E+02  0.14998870490E+02  0.51100000000E-03 0. -1.
        -11    1    3    3    0    0  0.34913780752E+01  0.11301447655E+01  0.46864742375E+01  0.59523095597E+01  0.51100000000E-03 0.  1.
        -12    1    3    3    0    0  0.22570221638E+01 -0.50841488237E+01  0.24569302890E+02  0.25191136592E+02  0.00000000000E+00 0.  1.
</event>
<event>
 7    1  0.3766050E-009  0.4614233E+02  0.7816164E-02  0.1320468E+00
        -11   -1    0    0    0    0  0.00000000000E+00  0.00000000000E+00  0.45593999997E+02  0.45594000000E+02  0.51100000000E-03 0. -1.
         11   -1    0    0    0    0 -0.00000000000E+00 -0.00000000000E+00 -0.45593999997E+02  0.45594000000E+02  0.51100000000E-03 0.  1.
    9900012    2    1    2    0    0 -0.80981753488E+01  0.15947033986E+02 -0.41342765201E+02  0.46142327940E+02  0.10000092816E+02 0.  0.
         12    1    1    2    0    0  0.80981753488E+01 -0.15947033986E+02  0.41342765201E+02  0.45045672060E+02  0.00000000000E+00 0. -1.
         11    1    3    3    0    0 -0.29434754427E+01  0.12075516869E+02 -0.18604274488E+02  0.22374118638E+02  0.51100000000E-03 0. -1.
        -11    1    3    3    0    0 -0.11497573593E+01  0.19354229343E+01 -0.50517012862E+01  0.55305958147E+01  0.51100000000E-03 0.  1.
         12    1    3    3    0    0 -0.40049425468E+01  0.19360941827E+01 -0.17686789426E+02  0.18237613487E+02  0.00000000000E+00 0. -1.
</event>
<event>
 7    1  0.3766050E-009  0.4614232E+02  0.7816164E-02  0.1320468E+00
        -11   -1    0    0    0    0  0.00000000000E+00  0.00000000000E+00  0.45593999997E+02  0.45594000000E+02  0.51100000000E-03 0. -1.
         11   -1    0    0    0    0 -0.00000000000E+00 -0.00000000000E+00 -0.45593999997E+02  0.45594000000E+02  0.51100000000E-03 0.  1.
    9900012    2    1    2    0    0  0.91991012850E+01  0.35689882221E+02 -0.25898308409E+02  0.46142317234E+02  0.99999951929E+01 0.  0.
         12    1    1    2    0    0 -0.91991012850E+01 -0.35689882221E+02  0.25898308409E+02  0.45045682766E+02  0.00000000000E+00 0. -1.
         11    1    3    3    0    0  0.38999729717E+01  0.22952119294E+02 -0.19559373590E+02  0.30406885154E+02  0.51100000000E-03 0. -1.
        -11    1    3    3    0    0  0.59785256526E+01  0.10749302233E+02 -0.53548525203E+01  0.13415092741E+02  0.51100000000E-03 0.  1.
         12    1    3    3    0    0 -0.67939733933E+00  0.19884606945E+01 -0.98408229784E+00  0.23203393388E+01  0.00000000000E+00 0. -1.
</event>
<event>
 7    1  0.3766050E-009  0.4614232E+02  0.7816164E-02  0.1320468E+00
        -11   -1    0    0    0    0  0.00000000000E+00  0.00000000000E+00  0.45593999997E+02  0.45594000000E+02  0.51100000000E-03 0. -1.
         11   -1    0    0    0    0 -0.00000000000E+00 -0.00000000000E+00 -0.45593999997E+02  0.45594000000E+02  0.51100000000E-03 0.  1.
    9900012    2    1    2    0    0  0.18327635801E+02 -0.27392679666E+02 -0.30705900727E+02  0.46142317934E+02  0.10000001575E+02 0.  0.
         12    1    1    2    0    0 -0.18327635801E+02  0.27392679666E+02  0.30705900727E+02  0.45045682066E+02  0.00000000000E+00 0. -1.
         11    1    3    3    0    0  0.72153450168E+01 -0.81707946025E+01 -0.16285970745E+02  0.19597345012E+02  0.51100000000E-03 0. -1.
        -11    1    3    3    0    0  0.24742064385E+01 -0.59318493097E+01 -0.45048393996E+01  0.78487012945E+01  0.51100000000E-03 0.  1.
         12    1    3    3    0    0  0.86380843459E+01 -0.13290035754E+02 -0.99150905826E+01  0.18696271627E+02  0.00000000000E+00 0. -1.
</event>
<event>
 7    1  0.3766050E-009  0.4614231E+02  0.7816164E-02  0.1320468E+00
        -11   -1    0    0    0    0  0.00000000000E+00  0.00000000000E+00  0.45593999997E+02  0.45594000000E+02  0.51100000000E-03 0. -1.
         11   -1    0    0    0    0 -0.00000000000E+00 -0.00000000000E+00 -0.45593999997E+02  0.45594000000E+02  0.51100000000E-03 0.  1.
    9900012    2    1    2    0    0  0.42724139292E+01  0.11931274218E+02  0.43226212707E+02  0.46142308860E+02  0.99999188330E+01 0.  0.
        -12    1    1    2    0    0 -0.42724139292E+01 -0.11931274218E+02 -0.43226212707E+02  0.45045691140E+02  0.00000000000E+00 0.  1.
         11    1    3    3    0    0  0.37697625513E+00  0.34249366299E+01  0.14088897061E+02  0.14504113991E+02  0.51100000000E-03 0. -1.
        -11    1    3    3    0    0  0.36018216830E+00 -0.15885720451E+01  0.35987631024E+01  0.39502390390E+01  0.51100000000E-03 0.  1.
        -12    1    3    3    0    0  0.35352555057E+01  0.10094909633E+02  0.25538552545E+02  0.27687955830E+02  0.00000000000E+00 0.  1.
</event>
<event>
 7    1  0.3766050E-009  0.4614232E+02  0.7816164E-02  0.1320468E+00
        -11   -1    0    0    0    0  0.00000000000E+00  0.00000000000E+00  0.45593999997E+02  0.45594000000E+02  0.51100000000E-03 0.  1.
         11   -1    0    0    0    0 -0.00000000000E+00 -0.00000000000E+00 -0.45593999997E+02  0.45594000000E+02  0.51100000000E-03 0. -1.
    9900012    2    1    2    0    0  0.43842085312E+02 -0.15160692371E+01 -0.10231647329E+02  0.46142317438E+02  0.99999970504E+01 0.  0.
         12    1    1    2    0    0 -0.43842085312E+02  0.15160692371E+01  0.10231647329E+02  0.45045682562E+02  0.00000000000E+00 0. -1.
         11    1    3    3    0    0  0.33134682048E+02 -0.38398614373E+01 -0.49393122560E+01  0.33720149705E+02  0.51100000000E-03 0. -1.
        -11    1    3    3    0    0  0.10465397561E+02  0.24245031518E+01 -0.46076477903E+01  0.11689019637E+02  0.51100000000E-03 0.  1.
         12    1    3    3    0    0  0.24200570249E+00 -0.10071095163E+00 -0.68468728236E+00  0.73314809584E+00  0.00000000000E+00 0. -1.
</event>
<event>
 7    1  0.5031752E-009  0.4614232E+02  0.7816164E-02  0.1320468E+00
        -11   -1    0    0    0    0  0.00000000000E+00  0.00000000000E+00  0.45593999997E+02  0.45594000000E+02  0.51100000000E-03 0. -1.
         11   -1    0    0    0    0 -0.00000000000E+00 -0.00000000000E+00 -0.45593999997E+02  0.45594000000E+02  0.51100000000E-03 0.  1.
    9900012    2    1    2    0    0 -0.25890078278E+02 -0.22252611074E+02 -0.29387730771E+02  0.46142316825E+02  0.99999914593E+01 0.  0.
         12    1    1    2    0    0  0.25890078278E+02  0.22252611074E+02  0.29387730771E+02  0.45045683175E+02  0.00000000000E+00 0. -1.
         11    1    3    3    0    0  0.20068318424E+00 -0.24694396557E+01 -0.68961422814E+00  0.25717647635E+01  0.51100000000E-03 0. -1.
        -11    1    3    3    0    0 -0.12581170347E+02 -0.95150355625E+01 -0.12734014267E+02  0.20272564433E+02  0.51100000000E-03 0.  1.
         12    1    3    3    0    0 -0.13509591115E+02 -0.10268135856E+02 -0.15964102276E+02  0.23297987628E+02  0.00000000000E+00 0. -1.
</event>
<event>
 7    1  0.3766050E-009  0.4614232E+02  0.7816164E-02  0.1320468E+00
        -11   -1    0    0    0    0  0.00000000000E+00  0.00000000000E+00  0.45593999997E+02  0.45594000000E+02  0.51100000000E-03 0. -1.
         11   -1    0    0    0    0 -0.00000000000E+00 -0.00000000000E+00 -0.45593999997E+02  0.45594000000E+02  0.51100000000E-03 0.  1.
    9900012    2    1    2    0    0  0.14670563983E+01  0.21251114279E+02  0.39690696313E+02  0.46142317783E+02  0.10000000201E+02 0.  0.
        -12    1    1    2    0    0 -0.14670563983E+01 -0.21251114279E+02 -0.39690696313E+02  0.45045682217E+02  0.00000000000E+00 0.  1.
         11    1    3    3    0    0 -0.74562925171E-01 -0.48234668045E+00 -0.27072827721E-01  0.48882629745E+00  0.51100000000E-03 0. -1.
        -11    1    3    3    0    0 -0.15831088376E+01  0.54760369800E+01  0.73866367118E+01  0.93303599487E+01  0.51100000000E-03 0.  1.
         12    1    3    3    0    0  0.31247281611E+01  0.16257423979E+02  0.32331132429E+02  0.36323131537E+02  0.00000000000E+00 0. -1.
</event>
<event>
 7    1  0.3766050E-009  0.4614232E+02  0.7816164E-02  0.1320468E+00
        -11   -1    0    0    0    0  0.00000000000E+00  0.00000000000E+00  0.45593999997E+02  0.45594000000E+02  0.51100000000E-03 0. -1.
         11   -1    0    0    0    0 -0.00000000000E+00 -0.00000000000E+00 -0.45593999997E+02  0.45594000000E+02  0.51100000000E-03 0.  1.
    9900012    2    1    2    0    0 -0.13184095856E+02  0.34614053650E+02 -0.25635139409E+02  0.46142318008E+02  0.10000002254E+02 0.  0.
         12    1    1    2    0    0  0.13184095856E+02 -0.34614053650E+02  0.25635139409E+02  0.45045681992E+02  0.00000000000E+00 0. -1.
         11    1    3    3    0    0 -0.47688735376E+01  0.12338143591E+02 -0.14914674226E+02  0.19935381852E+02  0.51100000000E-03 0. -1.
        -11    1    3    3    0    0 -0.35877858212E+01  0.11604079918E+02 -0.63446911522E+01  0.13703356666E+02  0.51100000000E-03 0.  1.
         12    1    3    3    0    0 -0.48274364971E+01  0.10671830140E+02 -0.43757740308E+01  0.12503579489E+02  0.00000000000E+00 0. -1.
</event>
<event>
 7    1  0.3766050E-009  0.4614232E+02  0.7816164E-02  0.1320468E+00
        -11   -1    0    0    0    0  0.00000000000E+00  0.00000000000E+00  0.45593999997E+02  0.45594000000E+02  0.51100000000E-03 0. -1.
         11   -1    0    0    0    0 -0.00000000000E+00 -0.00000000000E+00 -0.45593999997E+02  0.45594000000E+02  0.51100000000E-03 0.  1.
    9900012    2    1    2    0    0  0.21349849355E+02  0.39255622560E+02 -0.56827369207E+01  0.46142317976E+02  0.10000001964E+02 0.  0.
         12    1    1    2    0    0 -0.21349849355E+02 -0.39255622560E+02  0.56827369207E+01  0.45045682024E+02  0.00000000000E+00 0. -1.
         11    1    3    3    0    0  0.26970012690E+01  0.31103294691E+01 -0.27276179093E+01  0.49384071290E+01  0.51100000000E-03 0. -1.
        -11    1    3    3    0    0  0.39319784396E+01  0.10301506031E+02 -0.31265572499E+01  0.11461101232E+02  0.51100000000E-03 0.  1.
         12    1    3    3    0    0  0.14720869647E+02  0.25843787060E+02  0.17143823849E+00  0.29742809615E+02  0.00000000000E+00 0. -1.
</event>
<event>
 7    1  0.3766050E-009  0.4614232E+02  0.7816164E-02  0.1320468E+00
        -11   -1    0    0    0    0  0.00000000000E+00  0.00000000000E+00  0.45593999997E+02  0.45594000000E+02  0.51100000000E-03 0. -1.
         11   -1    0    0    0    0 -0.00000000000E+00 -0.00000000000E+00 -0.45593999997E+02  0.45594000000E+02  0.51100000000E-03 0.  1.
    9900012    2    1    2    0    0  0.20225652609E+02 -0.20845027515E+02  0.34431400445E+02  0.46142317275E+02  0.99999955661E+01 0.  0.
        -12    1    1    2    0    0 -0.20225652609E+02  0.20845027515E+02 -0.34431400445E+02  0.45045682725E+02  0.00000000000E+00 0.  1.
         11    1    3    3    0    0  0.53652321920E+01 -0.54781481317E+01  0.13405117527E+02  0.15443218564E+02  0.51100000000E-03 0. -1.
        -11    1    3    3    0    0  0.12247201809E+02 -0.11376447164E+02  0.12297426115E+02  0.20751968377E+02  0.51100000000E-03 0.  1.
        -12    1    3    3    0    0  0.26132186082E+01 -0.39904322196E+01  0.87288568028E+01  0.99471303338E+01  0.00000000000E+00 0.  1.
</event>
<event>
 7    1  0.3766050E-009  0.4614232E+02  0.7816164E-02  0.1320468E+00
        -11   -1    0    0    0    0  0.00000000000E+00  0.00000000000E+00  0.45593999997E+02  0.45594000000E+02  0.51100000000E-03 0. -1.
         11   -1    0    0    0    0 -0.00000000000E+00 -0.00000000000E+00 -0.45593999997E+02  0.45594000000E+02  0.51100000000E-03 0.  1.
    9900012    2    1    2    0    0  0.16701977336E+02  0.30040544067E+02 -0.29115685366E+02  0.46142317975E+02  0.10000001950E+02 0.  0.
         12    1    1    2    0    0 -0.16701977336E+02 -0.30040544067E+02  0.29115685366E+02  0.45045682025E+02  0.00000000000E+00 0. -1.
         11    1    3    3    0    0 -0.46468499564E+00  0.51527841904E+00  0.17386686600E-01  0.69407964406E+00  0.51100000000E-03 0. -1.
        -11    1    3    3    0    0  0.12189261357E+02  0.24325983176E+02 -0.25873342059E+02  0.37546789203E+02  0.51100000000E-03 0.  1.
        -12    1    3    3    0    0  0.49774009746E+01  0.51992824725E+01 -0.32597299935E+01  0.79014491280E+01  0.00000000000E+00 0.  1.
</event>
<event>
 7    1  0.3766050E-009  0.4614232E+02  0.7816164E-02  0.1320468E+00
        -11   -1    0    0    0    0  0.00000000000E+00  0.00000000000E+00  0.45593999997E+02  0.45594000000E+02  0.51100000000E-03 0. -1.
         11   -1    0    0    0    0 -0.00000000000E+00 -0.00000000000E+00 -0.45593999997E+02  0.45594000000E+02  0.51100000000E-03 0.  1.
    9900012    2    1    2    0    0 -0.23333082935E+02  0.31540685450E+02 -0.22132912082E+02  0.46142318796E+02  0.10000009435E+02 0.  0.
         12    1    1    2    0    0  0.23333082935E+02 -0.31540685450E+02  0.22132912082E+02  0.45045681204E+02  0.00000000000E+00 0. -1.
         11    1    3    3    0    0 -0.48768807751E+01  0.54229395029E+01 -0.76270942646E+01  0.10552952484E+02  0.51100000000E-03 0. -1.
        -11    1    3    3    0    0 -0.89280120885E+01  0.91158090456E+01 -0.79158707747E+01  0.15015604709E+02  0.51100000000E-03 0.  1.
         12    1    3    3    0    0 -0.95281900713E+01  0.17001936902E+02 -0.65899470427E+01  0.20573761602E+02  0.00000000000E+00 0. -1.
</event>
<event>
 7    1  0.3766050E-009  0.4614232E+02  0.7816164E-02  0.1320468E+00
        -11   -1    0    0    0    0  0.00000000000E+00  0.00000000000E+00  0.45593999997E+02  0.45594000000E+02  0.51100000000E-03 0.  1.
         11   -1    0    0    0    0 -0.00000000000E+00 -0.00000000000E+00 -0.45593999997E+02  0.45594000000E+02  0.51100000000E-03 0. -1.
    9900012    2    1    2    0    0 -0.24362300219E+02 -0.37859417683E+02 -0.15021047382E+01  0.46142317655E+02  0.99999990325E+01 0.  0.
        -12    1    1    2    0    0  0.24362300219E+02  0.37859417683E+02  0.15021047382E+01  0.45045682345E+02  0.00000000000E+00 0.  1.
         11    1    3    3    0    0 -0.13693082009E+02 -0.28838212762E+02 -0.20758094313E+01  0.31991436280E+02  0.51100000000E-03 0. -1.
        -11    1    3    3    0    0 -0.69240235610E+01 -0.59520826096E+01  0.14043292633E+01  0.92380479868E+01  0.51100000000E-03 0.  1.
         12    1    3    3    0    0 -0.37451946491E+01 -0.30691223121E+01 -0.83062457021E+00  0.49128333884E+01  0.00000000000E+00 0. -1.
</event>
<event>
 7    1  0.3766050E-009  0.4614232E+02  0.7816164E-02  0.1320468E+00
        -11   -1    0    0    0    0  0.00000000000E+00  0.00000000000E+00  0.45593999997E+02  0.45594000000E+02  0.51100000000E-03 0. -1.
         11   -1    0    0    0    0 -0.00000000000E+00 -0.00000000000E+00 -0.45593999997E+02  0.45594000000E+02  0.51100000000E-03 0.  1.
    9900012    2    1    2    0    0  0.11996806591E+02 -0.21241655446E+02  0.37867957256E+02  0.46142317840E+02  0.10000000723E+02 0.  0.
        -12    1    1    2    0    0 -0.11996806591E+02  0.21241655446E+02 -0.37867957256E+02  0.45045682160E+02  0.00000000000E+00 0.  1.
         11    1    3    3    0    0  0.21314242007E+00 -0.71310838285E+01  0.13993469679E+02  0.15707163340E+02  0.51100000000E-03 0. -1.
        -11    1    3    3    0    0  0.11655335440E+02 -0.12679082154E+02  0.20544532545E+02  0.26808278315E+02  0.51100000000E-03 0.  1.
        -12    1    3    3    0    0  0.12832873086E+00 -0.14314894642E+01  0.33299550325E+01  0.36268761859E+01  0.00000000000E+00 0.  1.
</event>
<event>
 7    1  0.3766050E-009  0.4614232E+02  0.7816164E-02  0.1320468E+00
        -11   -1    0    0    0    0  0.00000000000E+00  0.00000000000E+00  0.45593999997E+02  0.45594000000E+02  0.51100000000E-03 0. -1.
         11   -1    0    0    0    0 -0.00000000000E+00 -0.00000000000E+00 -0.45593999997E+02  0.45594000000E+02  0.51100000000E-03 0.  1.
    9900012    2    1    2    0    0  0.28774946219E+01 -0.12994743781E+02  0.43034522616E+02  0.46142317876E+02  0.10000001043E+02 0.  0.
        -12    1    1    2    0    0 -0.28774946219E+01  0.12994743781E+02 -0.43034522616E+02  0.45045682124E+02  0.00000000000E+00 0.  1.
         11    1    3    3    0    0  0.48920826434E+01 -0.71326610069E+01  0.32509408652E+02  0.33640288001E+02  0.51100000000E-03 0. -1.
        -11    1    3    3    0    0 -0.17618039347E+01 -0.59361910675E+01  0.10554655679E+02  0.12236955269E+02  0.51100000000E-03 0.  1.
        -12    1    3    3    0    0 -0.25278408678E+00  0.74108293317E-01 -0.29541714254E-01  0.26507460563E+00  0.00000000000E+00 0.  1.
</event>
<event>
 7    1  0.3766050E-009  0.4614232E+02  0.7816164E-02  0.1320468E+00
        -11   -1    0    0    0    0  0.00000000000E+00  0.00000000000E+00  0.45593999997E+02  0.45594000000E+02  0.51100000000E-03 0. -1.
         11   -1    0    0    0    0 -0.00000000000E+00 -0.00000000000E+00 -0.45593999997E+02  0.45594000000E+02  0.51100000000E-03 0.  1.
    9900012    2    1    2    0    0 -0.24224150682E+02  0.37576938565E+02  0.55025139420E+01  0.46142318211E+02  0.10000004102E+02 0.  0.
        -12    1    1    2    0    0  0.24224150682E+02 -0.37576938565E+02 -0.55025139420E+01  0.45045681789E+02  0.00000000000E+00 0.  1.
         11    1    3    3    0    0 -0.10296853060E+02  0.17180498636E+02  0.96583215598E+00  0.20053118170E+02  0.51100000000E-03 0. -1.
        -11    1    3    3    0    0 -0.59948977404E+01  0.89699709150E+01  0.55682621212E+01  0.12141034571E+02  0.51100000000E-03 0.  1.
        -12    1    3    3    0    0 -0.79323998813E+01  0.11426469014E+02 -0.10315803351E+01  0.13948165471E+02  0.00000000000E+00 0.  1.
</event>
<event>
 7    1  0.3766050E-009  0.4614232E+02  0.7816164E-02  0.1320468E+00
        -11   -1    0    0    0    0  0.00000000000E+00  0.00000000000E+00  0.45593999997E+02  0.45594000000E+02  0.51100000000E-03 0. -1.
         11   -1    0    0    0    0 -0.00000000000E+00 -0.00000000000E+00 -0.45593999997E+02  0.45594000000E+02  0.51100000000E-03 0.  1.
    9900012    2    1    2    0    0 -0.41530928691E+02  0.37754240777E+01  0.17030608877E+02  0.46142317592E+02  0.99999984587E+01 0.  0.
        -12    1    1    2    0    0  0.41530928691E+02 -0.37754240777E+01 -0.17030608877E+02  0.45045682408E+02  0.00000000000E+00 0.  1.
         11    1    3    3    0    0 -0.28427941503E+02  0.51103945703E+01  0.10848807246E+02  0.30853858911E+02  0.51100000000E-03 0. -1.
        -11    1    3    3    0    0 -0.44495762379E+01  0.10938451278E+01  0.38961361458E+01  0.60145742151E+01  0.51100000000E-03 0.  1.
         12    1    3    3    0    0 -0.86534109496E+01 -0.24288156205E+01  0.22856654852E+01  0.92738844661E+01  0.00000000000E+00 0. -1.
</event>
<event>
 7    1  0.3766050E-009  0.4614232E+02  0.7816164E-02  0.1320468E+00
        -11   -1    0    0    0    0  0.00000000000E+00  0.00000000000E+00  0.45593999997E+02  0.45594000000E+02  0.51100000000E-03 0. -1.
         11   -1    0    0    0    0 -0.00000000000E+00 -0.00000000000E+00 -0.45593999997E+02  0.45594000000E+02  0.51100000000E-03 0.  1.
    9900012    2    1    2    0    0 -0.34830719722E+02 -0.15240005311E+02 -0.24159401372E+02  0.46142317933E+02  0.10000001568E+02 0.  0.
         12    1    1    2    0    0  0.34830719722E+02  0.15240005311E+02  0.24159401372E+02  0.45045682067E+02  0.00000000000E+00 0. -1.
         11    1    3    3    0    0 -0.26297888158E+02 -0.98152743955E+01 -0.14344768476E+02  0.31522863384E+02  0.51100000000E-03 0. -1.
        -11    1    3    3    0    0 -0.35945692307E+01 -0.45391413055E+01 -0.47317662058E+01  0.74775894133E+01  0.51100000000E-03 0.  1.
        -12    1    3    3    0    0 -0.49382623332E+01 -0.88558960992E+00 -0.50828666902E+01  0.71418651358E+01  0.00000000000E+00 0.  1.
</event>
<event>
 7    1  0.3766050E-009  0.4614232E+02  0.7816164E-02  0.1320468E+00
        -11   -1    0    0    0    0  0.00000000000E+00  0.00000000000E+00  0.45593999997E+02  0.45594000000E+02  0.51100000000E-03 0. -1.
         11   -1    0    0    0    0 -0.00000000000E+00 -0.00000000000E+00 -0.45593999997E+02  0.45594000000E+02  0.51100000000E-03 0.  1.
    9900012    2    1    2    0    0  0.26782938889E+02 -0.26352617372E+02  0.24846070402E+02  0.46142317940E+02  0.10000001629E+02 0.  0.
        -12    1    1    2    0    0 -0.26782938889E+02  0.26352617372E+02 -0.24846070402E+02  0.45045682060E+02  0.00000000000E+00 0.  1.
         11    1    3    3    0    0  0.19876749744E+02 -0.14121640954E+02  0.15759490714E+02  0.29032179930E+02  0.51100000000E-03 0. -1.
        -11    1    3    3    0    0  0.26556797773E+01 -0.76682305661E+01  0.63314255336E+01  0.10292781191E+02  0.51100000000E-03 0.  1.
         12    1    3    3    0    0  0.42505093668E+01 -0.45627458523E+01  0.27551541538E+01  0.68173568193E+01  0.00000000000E+00 0. -1.
</event>
<event>
 7    1  0.3831886E-009  0.4614232E+02  0.7816164E-02  0.1320468E+00
        -11   -1    0    0    0    0  0.00000000000E+00  0.00000000000E+00  0.45593999997E+02  0.45594000000E+02  0.51100000000E-03 0. -1.
         11   -1    0    0    0    0 -0.00000000000E+00 -0.00000000000E+00 -0.45593999997E+02  0.45594000000E+02  0.51100000000E-03 0.  1.
    9900012    2    1    2    0    0  0.34366780873E+02  0.78831934141E+01 -0.28033786037E+02  0.46142317349E+02  0.99999962394E+01 0.  0.
         12    1    1    2    0    0 -0.34366780873E+02 -0.78831934141E+01  0.28033786037E+02  0.45045682651E+02  0.00000000000E+00 0. -1.
         11    1    3    3    0    0  0.17083009768E+02  0.57073898716E+01 -0.17684394964E+02  0.25241658967E+02  0.51100000000E-03 0. -1.
        -11    1    3    3    0    0  0.14763438510E+02  0.14744040649E+01 -0.10655485910E+02  0.18266700967E+02  0.51100000000E-03 0.  1.
         12    1    3    3    0    0  0.25203325938E+01  0.70139947762E+00  0.30609483719E+00  0.26339574142E+01  0.00000000000E+00 0. -1.
</event>
<event>
 7    1  0.3766050E-009  0.4614232E+02  0.7816164E-02  0.1320468E+00
        -11   -1    0    0    0    0  0.00000000000E+00  0.00000000000E+00  0.45593999997E+02  0.45594000000E+02  0.51100000000E-03 0.  1.
         11   -1    0    0    0    0 -0.00000000000E+00 -0.00000000000E+00 -0.45593999997E+02  0.45594000000E+02  0.51100000000E-03 0. -1.
    9900012    2    1    2    0    0  0.30673810215E+02  0.30097163017E+02  0.13505243910E+02  0.46142317988E+02  0.10000002071E+02 0.  0.
        -12    1    1    2    0    0 -0.30673810215E+02 -0.30097163017E+02 -0.13505243910E+02  0.45045682012E+02  0.00000000000E+00 0.  1.
         11    1    3    3    0    0  0.21644863457E+02  0.23326894652E+02  0.84208095541E+01  0.32917383887E+02  0.51100000000E-03 0. -1.
        -11    1    3    3    0    0  0.51088130598E+01  0.47793993909E+01  0.53695481327E+01  0.88189952277E+01  0.51100000000E-03 0.  1.
         12    1    3    3    0    0  0.39201336989E+01  0.19908689749E+01 -0.28511377629E+00  0.44059388736E+01  0.00000000000E+00 0. -1.
</event>
<event>
 7    1  0.3766050E-009  0.4614232E+02  0.7816164E-02  0.1320468E+00
        -11   -1    0    0    0    0  0.00000000000E+00  0.00000000000E+00  0.45593999997E+02  0.45594000000E+02  0.51100000000E-03 0.  1.
         11   -1    0    0    0    0 -0.00000000000E+00 -0.00000000000E+00 -0.45593999997E+02  0.45594000000E+02  0.51100000000E-03 0. -1.
    9900012    2    1    2    0    0  0.18153788355E+02  0.40601881111E+02  0.71442810782E+01  0.46142317260E+02  0.99999954286E+01 0.  0.
         12    1    1    2    0    0 -0.18153788355E+02 -0.40601881111E+02 -0.71442810782E+01  0.45045682740E+02  0.00000000000E+00 0. -1.
         11    1    3    3    0    0 -0.21816830521E+00  0.71454914167E+01  0.21072298491E+01  0.74529231107E+01  0.51100000000E-03 0. -1.
        -11    1    3    3    0    0  0.57064467350E+01  0.10793828744E+02 -0.17048715629E+00  0.12210624039E+02  0.51100000000E-03 0.  1.
         12    1    3    3    0    0  0.12665509925E+02  0.22662560950E+02  0.52075383854E+01  0.26478770110E+02  0.00000000000E+00 0. -1.
</event>
<event>
 7    1  0.3766050E-009  0.4614231E+02  0.7816164E-02  0.1320468E+00
        -11   -1    0    0    0    0  0.00000000000E+00  0.00000000000E+00  0.45593999997E+02  0.45594000000E+02  0.51100000000E-03 0.  1.
         11   -1    0    0    0    0 -0.00000000000E+00 -0.00000000000E+00 -0.45593999997E+02  0.45594000000E+02  0.51100000000E-03 0. -1.
    9900012    2    1    2    0    0  0.19644303815E+02 -0.40185541442E+02 -0.53232834102E+01  0.46142314750E+02  0.99999725452E+01 0.  0.
        -12    1    1    2    0    0 -0.19644303815E+02  0.40185541442E+02  0.53232834102E+01  0.45045685250E+02  0.00000000000E+00 0.  1.
         11    1    3    3    0    0  0.13290514616E+02 -0.20488022007E+02  0.66791465048E+00  0.24430369108E+02  0.51100000000E-03 0. -1.
        -11    1    3    3    0    0  0.47600261615E+01 -0.17612374728E+02 -0.52048566339E+01  0.18972193481E+02  0.51100000000E-03 0.  1.
        -12    1    3    3    0    0  0.15937630374E+01 -0.20851447061E+01 -0.78634142674E+00  0.27397521611E+01  0.00000000000E+00 0.  1.
</event>
<event>
 7    1  0.3766050E-009  0.4614232E+02  0.7816164E-02  0.1320468E+00
        -11   -1    0    0    0    0  0.00000000000E+00  0.00000000000E+00  0.45593999997E+02  0.45594000000E+02  0.51100000000E-03 0. -1.
         11   -1    0    0    0    0 -0.00000000000E+00 -0.00000000000E+00 -0.45593999997E+02  0.45594000000E+02  0.51100000000E-03 0.  1.
    9900012    2    1    2    0    0 -0.89767694987E+00  0.37493192837E+02 -0.24951314781E+02  0.46142318273E+02  0.10000004665E+02 0.  0.
         12    1    1    2    0    0  0.89767694987E+00 -0.37493192837E+02  0.24951314781E+02  0.45045681727E+02  0.00000000000E+00 0. -1.
         11    1    3    3    0    0 -0.24005208811E+01  0.28737870797E+01 -0.27375082877E+01  0.46384377290E+01  0.51100000000E-03 0. -1.
        -11    1    3    3    0    0  0.17589963693E+01  0.34708413602E+02 -0.22186887156E+02  0.41231371610E+02  0.51100000000E-03 0.  1.
        -12    1    3    3    0    0 -0.25615243809E+00 -0.89007844671E-01 -0.26919337640E-01  0.27250893323E+00  0.00000000000E+00 0.  1.
</event>
<event>
 7    1  0.3766050E-009  0.4614232E+02  0.7816164E-02  0.1320468E+00
        -11   -1    0    0    0    0  0.00000000000E+00  0.00000000000E+00  0.45593999997E+02  0.45594000000E+02  0.51100000000E-03 0. -1.
         11   -1    0    0    0    0 -0.00000000000E+00 -0.00000000000E+00 -0.45593999997E+02  0.45594000000E+02  0.51100000000E-03 0.  1.
    9900012    2    1    2    0    0 -0.11460513580E+02  0.20205043409E+02  0.38594382355E+02  0.46142317632E+02  0.99999988182E+01 0.  0.
        -12    1    1    2    0    0  0.11460513580E+02 -0.20205043409E+02 -0.38594382355E+02  0.45045682368E+02  0.00000000000E+00 0.  1.
         11    1    3    3    0    0 -0.11511249120E+00  0.38386075990E+01  0.13702526470E+02  0.14230509165E+02  0.51100000000E-03 0. -1.
        -11    1    3    3    0    0 -0.71539691870E+01  0.11278095740E+02  0.15970425330E+02  0.20818962609E+02  0.51100000000E-03 0.  1.
         12    1    3    3    0    0 -0.41914319013E+01  0.50883400701E+01  0.89214305558E+01  0.11092845857E+02  0.00000000000E+00 0. -1.
</event>
<event>
 7    1  0.3766050E-009  0.4614232E+02  0.7816164E-02  0.1320468E+00
        -11   -1    0    0    0    0  0.00000000000E+00  0.00000000000E+00  0.45593999997E+02  0.45594000000E+02  0.51100000000E-03 0. -1.
         11   -1    0    0    0    0 -0.00000000000E+00 -0.00000000000E+00 -0.45593999997E+02  0.45594000000E+02  0.51100000000E-03 0.  1.
    9900012    2    1    2    0    0  0.17200297487E+02 -0.18062747824E+02  0.37510002995E+02  0.46142318550E+02  0.10000007193E+02 0.  0.
        -12    1    1    2    0    0 -0.17200297487E+02  0.18062747824E+02 -0.37510002995E+02  0.45045681450E+02  0.00000000000E+00 0.  1.
         11    1    3    3    0    0  0.73273872721E+01 -0.33438538417E+01  0.62861169587E+01  0.10217006872E+02  0.51100000000E-03 0. -1.
        -11    1    3    3    0    0  0.58105123680E+01 -0.96126810534E+01  0.20339496443E+02  0.23234904924E+02  0.51100000000E-03 0.  1.
         12    1    3    3    0    0  0.40623978466E+01 -0.51062129289E+01  0.10884389594E+02  0.12690406754E+02  0.00000000000E+00 0. -1.
</event>
<event>
 7    1  0.3766050E-009  0.4614232E+02  0.7816164E-02  0.1320468E+00
        -11   -1    0    0    0    0  0.00000000000E+00  0.00000000000E+00  0.45593999997E+02  0.45594000000E+02  0.51100000000E-03 0. -1.
         11   -1    0    0    0    0 -0.00000000000E+00 -0.00000000000E+00 -0.45593999997E+02  0.45594000000E+02  0.51100000000E-03 0.  1.
    9900012    2    1    2    0    0 -0.29235176057E+02  0.18230977803E+02 -0.29018088947E+02  0.46142317001E+02  0.99999930651E+01 0.  0.
         12    1    1    2    0    0  0.29235176057E+02 -0.18230977803E+02  0.29018088947E+02  0.45045682999E+02  0.00000000000E+00 0. -1.
         11    1    3    3    0    0 -0.17434359190E+02  0.90993495035E+01 -0.10763704004E+02  0.22419017951E+02  0.51100000000E-03 0. -1.
        -11    1    3    3    0    0 -0.60056596163E+01  0.58107636887E+01 -0.86751112868E+01  0.12045350894E+02  0.51100000000E-03 0.  1.
         12    1    3    3    0    0 -0.57951572510E+01  0.33208646106E+01 -0.95792736562E+01  0.11677948155E+02  0.00000000000E+00 0. -1.
</event>
<event>
 7    1  0.3766050E-009  0.4614232E+02  0.7816164E-02  0.1320468E+00
        -11   -1    0    0    0    0  0.00000000000E+00  0.00000000000E+00  0.45593999997E+02  0.45594000000E+02  0.51100000000E-03 0. -1.
         11   -1    0    0    0    0 -0.00000000000E+00 -0.00000000000E+00 -0.45593999997E+02  0.45594000000E+02  0.51100000000E-03 0.  1.
    9900012    2    1    2    0    0  0.23398753728E+02 -0.19421716979E+02  0.33232645016E+02  0.46142318063E+02  0.10000002750E+02 0.  0.
        -12    1    1    2    0    0 -0.23398753728E+02  0.19421716979E+02 -0.33232645016E+02  0.45045681937E+02  0.00000000000E+00 0.  1.
         11    1    3    3    0    0  0.14207241688E+02 -0.13871685589E+02  0.25897878671E+02  0.32633870401E+02  0.51100000000E-03 0. -1.
        -11    1    3    3    0    0  0.73240091817E+01 -0.58577724646E+01  0.54988113033E+01  0.10871593018E+02  0.51100000000E-03 0.  1.
        -12    1    3    3    0    0  0.18675028588E+01  0.30774107424E+00  0.18359550420E+01  0.26368546438E+01  0.00000000000E+00 0.  1.
</event>
<event>
 7    1  0.3766050E-009  0.4614232E+02  0.7816164E-02  0.1320468E+00
        -11   -1    0    0    0    0  0.00000000000E+00  0.00000000000E+00  0.45593999997E+02  0.45594000000E+02  0.51100000000E-03 0. -1.
         11   -1    0    0    0    0 -0.00000000000E+00 -0.00000000000E+00 -0.45593999997E+02  0.45594000000E+02  0.51100000000E-03 0.  1.
    9900012    2    1    2    0    0  0.73998966047E+01  0.10461294219E+02  0.43184677289E+02  0.46142317642E+02  0.99999989162E+01 0.  0.
        -12    1    1    2    0    0 -0.73998966047E+01 -0.10461294219E+02 -0.43184677289E+02  0.45045682358E+02  0.00000000000E+00 0.  1.
         11    1    3    3    0    0  0.38075004089E+01  0.10456775726E+01  0.10877132657E+02  0.11571625472E+02  0.51100000000E-03 0. -1.
        -11    1    3    3    0    0  0.15618263937E+01 -0.46999509813E-01  0.11374561652E+01  0.19326969309E+01  0.51100000000E-03 0.  1.
         12    1    3    3    0    0  0.20305698021E+01  0.94626161561E+01  0.31170088467E+02  0.32637995240E+02  0.00000000000E+00 0. -1.
</event>
<event>
 7    1  0.3766050E-009  0.4614232E+02  0.7816164E-02  0.1320468E+00
        -11   -1    0    0    0    0  0.00000000000E+00  0.00000000000E+00  0.45593999997E+02  0.45594000000E+02  0.51100000000E-03 0. -1.
         11   -1    0    0    0    0 -0.00000000000E+00 -0.00000000000E+00 -0.45593999997E+02  0.45594000000E+02  0.51100000000E-03 0.  1.
    9900012    2    1    2    0    0  0.99340695962E+00 -0.24721034358E+02 -0.37643021022E+02  0.46142318423E+02  0.10000006034E+02 0.  0.
         12    1    1    2    0    0 -0.99340695962E+00  0.24721034358E+02  0.37643021022E+02  0.45045681577E+02  0.00000000000E+00 0. -1.
         11    1    3    3    0    0 -0.98819615190E-03 -0.67202726653E+01 -0.13555909593E+02  0.15130259443E+02  0.51100000000E-03 0. -1.
        -11    1    3    3    0    0  0.37126631244E+01 -0.13486299917E+02 -0.15019207455E+02  0.20524150306E+02  0.51100000000E-03 0.  1.
         12    1    3    3    0    0 -0.27182679686E+01 -0.45144617753E+01 -0.90679039738E+01  0.10487908674E+02  0.00000000000E+00 0. -1.
</event>
<event>
 7    1  0.3766050E-009  0.4614232E+02  0.7816164E-02  0.1320468E+00
        -11   -1    0    0    0    0  0.00000000000E+00  0.00000000000E+00  0.45593999997E+02  0.45594000000E+02  0.51100000000E-03 0. -1.
         11   -1    0    0    0    0 -0.00000000000E+00 -0.00000000000E+00 -0.45593999997E+02  0.45594000000E+02  0.51100000000E-03 0.  1.
    9900012    2    1    2    0    0 -0.17620239338E+02  0.29628214395E+02  0.28996716162E+02  0.46142317956E+02  0.10000001780E+02 0.  0.
        -12    1    1    2    0    0  0.17620239338E+02 -0.29628214395E+02 -0.28996716162E+02  0.45045682044E+02  0.00000000000E+00 0.  1.
         11    1    3    3    0    0 -0.12177669928E+02  0.22545667579E+02  0.25773026139E+02  0.36343522781E+02  0.51100000000E-03 0. -1.
        -11    1    3    3    0    0 -0.12950147483E+01  0.31808473551E+01  0.44632927983E+00  0.34632446033E+01  0.51100000000E-03 0.  1.
         12    1    3    3    0    0 -0.41475546620E+01  0.39016994611E+01  0.27773607429E+01  0.63355505724E+01  0.00000000000E+00 0. -1.
</event>
<event>
 7    1  0.3766050E-009  0.4614232E+02  0.7816164E-02  0.1320468E+00
        -11   -1    0    0    0    0  0.00000000000E+00  0.00000000000E+00  0.45593999997E+02  0.45594000000E+02  0.51100000000E-03 0. -1.
         11   -1    0    0    0    0 -0.00000000000E+00 -0.00000000000E+00 -0.45593999997E+02  0.45594000000E+02  0.51100000000E-03 0.  1.
    9900012    2    1    2    0    0  0.12193957175E+02 -0.19067628887E+02 -0.38946714760E+02  0.46142315928E+02  0.99999832837E+01 0.  0.
         12    1    1    2    0    0 -0.12193957175E+02  0.19067628887E+02  0.38946714760E+02  0.45045684072E+02  0.00000000000E+00 0. -1.
         11    1    3    3    0    0  0.28724001778E+01 -0.67627827198E+01 -0.16306484372E+02  0.17885394761E+02  0.51100000000E-03 0. -1.
        -11    1    3    3    0    0  0.57522384075E+01 -0.92150646560E+01 -0.20216463946E+02  0.22950186885E+02  0.51100000000E-03 0.  1.
        -12    1    3    3    0    0  0.35693185898E+01 -0.30897815113E+01 -0.24237664411E+01  0.53067342824E+01  0.00000000000E+00 0.  1.
</event>
<event>
 7    1  0.3766050E-009  0.4614232E+02  0.7816164E-02  0.1320468E+00
        -11   -1    0    0    0    0  0.00000000000E+00  0.00000000000E+00  0.45593999997E+02  0.45594000000E+02  0.51100000000E-03 0. -1.
         11   -1    0    0    0    0 -0.00000000000E+00 -0.00000000000E+00 -0.45593999997E+02  0.45594000000E+02  0.51100000000E-03 0.  1.
    9900012    2    1    2    0    0 -0.12983102514E+02  0.26396219380E+02 -0.34114397017E+02  0.46142318383E+02  0.10000005674E+02 0.  0.
         12    1    1    2    0    0  0.12983102514E+02 -0.26396219380E+02  0.34114397017E+02  0.45045681617E+02  0.00000000000E+00 0. -1.
         11    1    3    3    0    0 -0.24772810879E+01  0.70422623733E+01 -0.14926736981E+02  0.16689453499E+02  0.51100000000E-03 0. -1.
        -11    1    3    3    0    0 -0.78912011868E+01  0.14462839081E+02 -0.12040893579E+02  0.20406564848E+02  0.51100000000E-03 0.  1.
         12    1    3    3    0    0 -0.26146202397E+01  0.48911179259E+01 -0.71467664574E+01  0.90463000370E+01  0.00000000000E+00 0. -1.
</event>
<event>
 7    1  0.3766050E-009  0.4614232E+02  0.7816164E-02  0.1320468E+00
        -11   -1    0    0    0    0  0.00000000000E+00  0.00000000000E+00  0.45593999997E+02  0.45594000000E+02  0.51100000000E-03 0. -1.
         11   -1    0    0    0    0 -0.00000000000E+00 -0.00000000000E+00 -0.45593999997E+02  0.45594000000E+02  0.51100000000E-03 0.  1.
    9900012    2    1    2    0    0  0.21724640460E+02 -0.76963469485E+00  0.39453278830E+02  0.46142317065E+02  0.99999936491E+01 0.  0.
        -12    1    1    2    0    0 -0.21724640460E+02  0.76963469485E+00 -0.39453278830E+02  0.45045682935E+02  0.00000000000E+00 0.  1.
         11    1    3    3    0    0  0.61563477164E+01 -0.84872819261E+00  0.72129810948E+01  0.95209271232E+01  0.51100000000E-03 0. -1.
        -11    1    3    3    0    0  0.14214567703E+01 -0.19742929375E+01  0.19163253119E+01  0.30968814822E+01  0.51100000000E-03 0.  1.
         12    1    3    3    0    0  0.14146835973E+02  0.20533864353E+01  0.30323972423E+02  0.33524508459E+02  0.00000000000E+00 0. -1.
</event>
<event>
 7    1  0.3766050E-009  0.4614232E+02  0.7816164E-02  0.1320468E+00
        -11   -1    0    0    0    0  0.00000000000E+00  0.00000000000E+00  0.45593999997E+02  0.45594000000E+02  0.51100000000E-03 0. -1.
         11   -1    0    0    0    0 -0.00000000000E+00 -0.00000000000E+00 -0.45593999997E+02  0.45594000000E+02  0.51100000000E-03 0.  1.
    9900012    2    1    2    0    0  0.89352895368E+01 -0.35090923540E+02 -0.26793676344E+02  0.46142318675E+02  0.10000008333E+02 0.  0.
         12    1    1    2    0    0 -0.89352895368E+01  0.35090923540E+02  0.26793676344E+02  0.45045681325E+02  0.00000000000E+00 0. -1.
         11    1    3    3    0    0  0.46488225753E+00 -0.49512406571E+01 -0.68151700664E+00  0.50194985058E+01  0.51100000000E-03 0. -1.
        -11    1    3    3    0    0  0.65624308060E+01 -0.26946882292E+02 -0.24717670168E+02  0.37150547535E+02  0.51100000000E-03 0.  1.
         12    1    3    3    0    0  0.19079764733E+01 -0.31928005913E+01 -0.13944891690E+01  0.39722726342E+01  0.00000000000E+00 0. -1.
</event>
<event>
 7    1  0.3766050E-009  0.4614232E+02  0.7816164E-02  0.1320468E+00
        -11   -1    0    0    0    0  0.00000000000E+00  0.00000000000E+00  0.45593999997E+02  0.45594000000E+02  0.51100000000E-03 0. -1.
         11   -1    0    0    0    0 -0.00000000000E+00 -0.00000000000E+00 -0.45593999997E+02  0.45594000000E+02  0.51100000000E-03 0.  1.
    9900012    2    1    2    0    0 -0.74549687827E+01  0.78933273143E+01  0.43717642838E+02  0.46142317955E+02  0.10000001766E+02 0.  0.
        -12    1    1    2    0    0  0.74549687827E+01 -0.78933273143E+01 -0.43717642838E+02  0.45045682045E+02  0.00000000000E+00 0.  1.
         11    1    3    3    0    0 -0.26764853683E+01  0.78084327624E+01  0.18626181367E+02  0.20373262594E+02  0.51100000000E-03 0. -1.
        -11    1    3    3    0    0  0.44632226095E+00 -0.43078306666E+00  0.26424973825E+01  0.27143268574E+01  0.51100000000E-03 0.  1.
         12    1    3    3    0    0 -0.52248056753E+01  0.51567761856E+00  0.22448964088E+02  0.23054728504E+02  0.00000000000E+00 0. -1.
</event>
<event>
 7    1  0.3766050E-009  0.4614232E+02  0.7816164E-02  0.1320468E+00
        -11   -1    0    0    0    0  0.00000000000E+00  0.00000000000E+00  0.45593999997E+02  0.45594000000E+02  0.51100000000E-03 0. -1.
         11   -1    0    0    0    0 -0.00000000000E+00 -0.00000000000E+00 -0.45593999997E+02  0.45594000000E+02  0.51100000000E-03 0.  1.
    9900012    2    1    2    0    0  0.25292851512E+02  0.30460906609E+02  0.21482976744E+02  0.46142318089E+02  0.10000002987E+02 0.  0.
        -12    1    1    2    0    0 -0.25292851512E+02 -0.30460906609E+02 -0.21482976744E+02  0.45045681911E+02  0.00000000000E+00 0.  1.
         11    1    3    3    0    0  0.52237755375E+01  0.18762743665E+01  0.10768854190E+01  0.56540179369E+01  0.51100000000E-03 0.  1.
        -11    1    3    3    0    0  0.14614189804E+02  0.19449689205E+02  0.14392745649E+02  0.28266872508E+02  0.51100000000E-03 0. -1.
         12    1    3    3    0    0  0.54548861707E+01  0.91349430375E+01  0.60133456759E+01  0.12221427644E+02  0.00000000000E+00 0. -1.
</event>
<event>
 7    1  0.3766050E-009  0.4614232E+02  0.7816164E-02  0.1320468E+00
        -11   -1    0    0    0    0  0.00000000000E+00  0.00000000000E+00  0.45593999997E+02  0.45594000000E+02  0.51100000000E-03 0. -1.
         11   -1    0    0    0    0 -0.00000000000E+00 -0.00000000000E+00 -0.45593999997E+02  0.45594000000E+02  0.51100000000E-03 0.  1.
    9900012    2    1    2    0    0  0.36139968797E+02  0.78485952442E+01 -0.25718006543E+02  0.46142315939E+02  0.99999833838E+01 0.  0.
         12    1    1    2    0    0 -0.36139968797E+02 -0.78485952442E+01  0.25718006543E+02  0.45045684061E+02  0.00000000000E+00 0. -1.
         11    1    3    3    0    0  0.73356205481E+01 -0.13515068420E+01 -0.27848586290E+01  0.79619933066E+01  0.51100000000E-03 0. -1.
        -11    1    3    3    0    0  0.17538101892E+02  0.67050545323E+01 -0.16338938850E+02  0.24889831202E+02  0.51100000000E-03 0.  1.
         12    1    3    3    0    0  0.11266246357E+02  0.24950475539E+01 -0.65942090637E+01  0.13290491430E+02  0.00000000000E+00 0. -1.
</event>
<event>
 7    1  0.3766050E-009  0.4614232E+02  0.7816164E-02  0.1320468E+00
        -11   -1    0    0    0    0  0.00000000000E+00  0.00000000000E+00  0.45593999997E+02  0.45594000000E+02  0.51100000000E-03 0. -1.
         11   -1    0    0    0    0 -0.00000000000E+00 -0.00000000000E+00 -0.45593999997E+02  0.45594000000E+02  0.51100000000E-03 0.  1.
    9900012    2    1    2    0    0  0.17598292190E+02 -0.41402578750E+02  0.22891093552E+01  0.46142318334E+02  0.10000005223E+02 0.  0.
        -12    1    1    2    0    0 -0.17598292190E+02  0.41402578750E+02 -0.22891093552E+01  0.45045681666E+02  0.00000000000E+00 0.  1.
         11    1    3    3    0    0  0.35427191514E+01 -0.11288455336E+02  0.39780193513E+01  0.12482176135E+02  0.51100000000E-03 0. -1.
        -11    1    3    3    0    0  0.13633286757E+02 -0.30244199783E+02 -0.16383474946E+01  0.33215392683E+02  0.51100000000E-03 0.  1.
        -12    1    3    3    0    0  0.42228628137E+00  0.13007636875E+00 -0.50562501563E-01  0.44474951569E+00  0.00000000000E+00 0.  1.
</event>
<event>
 7    1  0.3972113E-009  0.4614232E+02  0.7816164E-02  0.1320468E+00
        -11   -1    0    0    0    0  0.00000000000E+00  0.00000000000E+00  0.45593999997E+02  0.45594000000E+02  0.51100000000E-03 0. -1.
         11   -1    0    0    0    0 -0.00000000000E+00 -0.00000000000E+00 -0.45593999997E+02  0.45594000000E+02  0.51100000000E-03 0.  1.
    9900012    2    1    2    0    0  0.48743543571E+01 -0.78331219165E+01 -0.44090774884E+02  0.46142316974E+02  0.99999928265E+01 0.  0.
         12    1    1    2    0    0 -0.48743543571E+01  0.78331219165E+01  0.44090774884E+02  0.45045683026E+02  0.00000000000E+00 0. -1.
         11    1    3    3    0    0  0.14885696003E+01  0.35521524963E+00 -0.34108588346E+01  0.37384456100E+01  0.51100000000E-03 0. -1.
        -11    1    3    3    0    0 -0.13823647584E+01 -0.28733543610E+01 -0.24652647186E+02  0.24857998937E+02  0.51100000000E-03 0.  1.
        -12    1    3    3    0    0  0.47681495152E+01 -0.53149828052E+01 -0.16027268864E+02  0.17545872428E+02  0.00000000000E+00 0.  1.
</event>
<event>
 7    1  0.3766050E-009  0.4614232E+02  0.7816164E-02  0.1320468E+00
        -11   -1    0    0    0    0  0.00000000000E+00  0.00000000000E+00  0.45593999997E+02  0.45594000000E+02  0.51100000000E-03 0. -1.
         11   -1    0    0    0    0 -0.00000000000E+00 -0.00000000000E+00 -0.45593999997E+02  0.45594000000E+02  0.51100000000E-03 0.  1.
    9900012    2    1    2    0    0 -0.35858031442E+02 -0.57094216067E+01  0.26659287127E+02  0.46142317586E+02  0.99999984033E+01 0.  0.
        -12    1    1    2    0    0  0.35858031442E+02  0.57094216067E+01 -0.26659287127E+02  0.45045682414E+02  0.00000000000E+00 0.  1.
         11    1    3    3    0    0 -0.18173205976E+02 -0.11333492440E+01  0.17677324531E+02  0.25377897840E+02  0.51100000000E-03 0. -1.
        -11    1    3    3    0    0 -0.99739816101E+01 -0.34828659400E+01  0.71716275634E+01  0.12768825572E+02  0.51100000000E-03 0.  1.
         12    1    3    3    0    0 -0.77108438567E+01 -0.10932064228E+01  0.18103350326E+01  0.79955941740E+01  0.00000000000E+00 0. -1.
</event>
<event>
 7    1  0.3766050E-009  0.4614232E+02  0.7816164E-02  0.1320468E+00
        -11   -1    0    0    0    0  0.00000000000E+00  0.00000000000E+00  0.45593999997E+02  0.45594000000E+02  0.51100000000E-03 0. -1.
         11   -1    0    0    0    0 -0.00000000000E+00 -0.00000000000E+00 -0.45593999997E+02  0.45594000000E+02  0.51100000000E-03 0.  1.
    9900012    2    1    2    0    0 -0.32047656068E+01  0.79859262643E+01  0.44216149791E+02  0.46142318262E+02  0.10000004565E+02 0.  0.
        -12    1    1    2    0    0  0.32047656068E+01 -0.79859262643E+01 -0.44216149791E+02  0.45045681738E+02  0.00000000000E+00 0.  1.
         11    1    3    3    0    0  0.58751931751E+00  0.39243147847E+01  0.11031890009E+02  0.11723822879E+02  0.51100000000E-03 0. -1.
        -11    1    3    3    0    0  0.73915559707E+00 -0.16680838078E+01  0.70927580244E+01  0.73236651507E+01  0.51100000000E-03 0.  1.
         12    1    3    3    0    0 -0.45314405214E+01  0.57296952873E+01  0.26091501758E+02  0.27094830232E+02  0.00000000000E+00 0. -1.
</event>
<event>
 7    1  0.3766050E-009  0.4614232E+02  0.7816164E-02  0.1320468E+00
        -11   -1    0    0    0    0  0.00000000000E+00  0.00000000000E+00  0.45593999997E+02  0.45594000000E+02  0.51100000000E-03 0. -1.
         11   -1    0    0    0    0 -0.00000000000E+00 -0.00000000000E+00 -0.45593999997E+02  0.45594000000E+02  0.51100000000E-03 0.  1.
    9900012    2    1    2    0    0  0.87958159116E+01 -0.23858960469E+02  0.37181944527E+02  0.46142319064E+02  0.10000011878E+02 0.  0.
        -12    1    1    2    0    0 -0.87958159116E+01  0.23858960469E+02 -0.37181944527E+02  0.45045680936E+02  0.00000000000E+00 0.  1.
         11    1    3    3    0    0  0.69111958209E+00 -0.74065574189E+01  0.86543793415E+01  0.11411968328E+02  0.51100000000E-03 0. -1.
        -11    1    3    3    0    0  0.16365139605E+01 -0.21289806536E+01  0.10388116543E+02  0.10729571387E+02  0.51100000000E-03 0.  1.
        -12    1    3    3    0    0  0.64681823690E+01 -0.14323422397E+02  0.18139448642E+02  0.24000779349E+02  0.00000000000E+00 0.  1.
</event>
<event>
 7    1  0.3766050E-009  0.4614232E+02  0.7816164E-02  0.1320468E+00
        -11   -1    0    0    0    0  0.00000000000E+00  0.00000000000E+00  0.45593999997E+02  0.45594000000E+02  0.51100000000E-03 0. -1.
         11   -1    0    0    0    0 -0.00000000000E+00 -0.00000000000E+00 -0.45593999997E+02  0.45594000000E+02  0.51100000000E-03 0.  1.
    9900012    2    1    2    0    0 -0.13255228423E+02  0.33241210760E+01 -0.42922751716E+02  0.46142317894E+02  0.10000001216E+02 0.  0.
         12    1    1    2    0    0  0.13255228423E+02 -0.33241210760E+01  0.42922751716E+02  0.45045682106E+02  0.00000000000E+00 0. -1.
         11    1    3    3    0    0  0.12009566985E+00  0.20735469470E+01 -0.33164456941E+01  0.39131614092E+01  0.51100000000E-03 0. -1.
        -11    1    3    3    0    0 -0.83603227333E+01 -0.15614400897E+01 -0.28216950907E+02  0.29470823031E+02  0.51100000000E-03 0.  1.
         12    1    3    3    0    0 -0.50150013600E+01  0.28120142187E+01 -0.11389355115E+02  0.12758333455E+02  0.00000000000E+00 0. -1.
</event>
<event>
 7    1  0.3766050E-009  0.4614232E+02  0.7816164E-02  0.1320468E+00
        -11   -1    0    0    0    0  0.00000000000E+00  0.00000000000E+00  0.45593999997E+02  0.45594000000E+02  0.51100000000E-03 0. -1.
         11   -1    0    0    0    0 -0.00000000000E+00 -0.00000000000E+00 -0.45593999997E+02  0.45594000000E+02  0.51100000000E-03 0.  1.
    9900012    2    1    2    0    0  0.41691676430E+02 -0.14656775647E+02 -0.87233190805E+01  0.46142320388E+02  0.10000023950E+02 0.  0.
        -12    1    1    2    0    0 -0.41691676430E+02  0.14656775647E+02  0.87233190805E+01  0.45045679612E+02  0.00000000000E+00 0.  1.
         11    1    3    3    0    0  0.32851865066E+02 -0.96988290793E+01 -0.10095967864E+02  0.35710515135E+02  0.51100000000E-03 0. -1.
        -11    1    3    3    0    0  0.53550414068E+01 -0.40928574727E+01  0.11193136732E+01  0.68323359197E+01  0.51100000000E-03 0.  1.
         12    1    3    3    0    0  0.34847699575E+01 -0.86508909539E+00  0.25333511035E+00  0.35994693328E+01  0.00000000000E+00 0. -1.
</event>
<event>
 7    1  0.3766050E-009  0.4614232E+02  0.7816164E-02  0.1320468E+00
        -11   -1    0    0    0    0  0.00000000000E+00  0.00000000000E+00  0.45593999997E+02  0.45594000000E+02  0.51100000000E-03 0. -1.
         11   -1    0    0    0    0 -0.00000000000E+00 -0.00000000000E+00 -0.45593999997E+02  0.45594000000E+02  0.51100000000E-03 0.  1.
    9900012    2    1    2    0    0  0.87718733267E+01 -0.13421747608E+02  0.42095420069E+02  0.46142318062E+02  0.10000002742E+02 0.  0.
        -12    1    1    2    0    0 -0.87718733267E+01  0.13421747608E+02 -0.42095420069E+02  0.45045681938E+02  0.00000000000E+00 0.  1.
         11    1    3    3    0    0 -0.11580655623E+01 -0.48306489922E+01  0.98066120242E+01  0.10992994369E+02  0.51100000000E-03 0. -1.
        -11    1    3    3    0    0  0.87746905497E+01 -0.77556956814E+01  0.23617153127E+02  0.26361258161E+02  0.51100000000E-03 0.  1.
        -12    1    3    3    0    0  0.11552483393E+01 -0.83540293444E+00  0.86716549181E+01  0.87880655327E+01  0.00000000000E+00 0.  1.
</event>
<event>
 7    1  0.3766050E-009  0.4614232E+02  0.7816164E-02  0.1320468E+00
        -11   -1    0    0    0    0  0.00000000000E+00  0.00000000000E+00  0.45593999997E+02  0.45594000000E+02  0.51100000000E-03 0. -1.
         11   -1    0    0    0    0 -0.00000000000E+00 -0.00000000000E+00 -0.45593999997E+02  0.45594000000E+02  0.51100000000E-03 0.  1.
    9900012    2    1    2    0    0  0.19960752126E+02 -0.21077908921E+02  0.34444210255E+02  0.46142317743E+02  0.99999998309E+01 0.  0.
        -12    1    1    2    0    0 -0.19960752126E+02  0.21077908921E+02 -0.34444210255E+02  0.45045682257E+02  0.00000000000E+00 0.  1.
         11    1    3    3    0    0  0.12128821257E+02 -0.13114683468E+02  0.19719345056E+02  0.26607438758E+02  0.51100000000E-03 0. -1.
        -11    1    3    3    0    0  0.79921487869E+01 -0.42547660050E+01  0.94766698713E+01  0.13106668078E+02  0.51100000000E-03 0.  1.
         12    1    3    3    0    0 -0.16021791853E+00 -0.37084594485E+01  0.52481953281E+01  0.64282109069E+01  0.00000000000E+00 0. -1.
</event>
<event>
 7    1  0.3766050E-009  0.4614232E+02  0.7816164E-02  0.1320468E+00
        -11   -1    0    0    0    0  0.00000000000E+00  0.00000000000E+00  0.45593999997E+02  0.45594000000E+02  0.51100000000E-03 0. -1.
         11   -1    0    0    0    0 -0.00000000000E+00 -0.00000000000E+00 -0.45593999997E+02  0.45594000000E+02  0.51100000000E-03 0.  1.
    9900012    2    1    2    0    0  0.24115202296E+02  0.71366635572E+01  0.37371625810E+02  0.46142319140E+02  0.10000012570E+02 0.  0.
        -12    1    1    2    0    0 -0.24115202296E+02 -0.71366635572E+01 -0.37371625810E+02  0.45045680860E+02  0.00000000000E+00 0.  1.
         11    1    3    3    0    0  0.14282300894E+02  0.53807356126E+01  0.20476306698E+02  0.25538511523E+02  0.51100000000E-03 0. -1.
        -11    1    3    3    0    0  0.78032305987E+01  0.16103730093E+00  0.73691199166E+01  0.10734070495E+02  0.51100000000E-03 0.  1.
        -12    1    3    3    0    0  0.20296708029E+01  0.15948906436E+01  0.95261991954E+01  0.98697371213E+01  0.00000000000E+00 0.  1.
</event>
<event>
 7    1  0.3766050E-009  0.4614232E+02  0.7816164E-02  0.1320468E+00
        -11   -1    0    0    0    0  0.00000000000E+00  0.00000000000E+00  0.45593999997E+02  0.45594000000E+02  0.51100000000E-03 0. -1.
         11   -1    0    0    0    0 -0.00000000000E+00 -0.00000000000E+00 -0.45593999997E+02  0.45594000000E+02  0.51100000000E-03 0.  1.
    9900012    2    1    2    0    0 -0.93169288327E+01  0.24458505852E+02  0.36661831222E+02  0.46142317188E+02  0.99999947774E+01 0.  0.
        -12    1    1    2    0    0  0.93169288327E+01 -0.24458505852E+02 -0.36661831222E+02  0.45045682812E+02  0.00000000000E+00 0.  1.
         11    1    3    3    0    0  0.62137031153E+00  0.22442935065E+00  0.30186669101E+01  0.30901164658E+01  0.51100000000E-03 0.  1.
        -11    1    3    3    0    0 -0.35957246628E+01  0.15277342839E+02  0.17217921812E+02  0.23297709585E+02  0.51100000000E-03 0. -1.
        -12    1    3    3    0    0 -0.63425744814E+01  0.89567336622E+01  0.16425242500E+02  0.19754491138E+02  0.00000000000E+00 0.  1.
</event>
<event>
 7    1  0.3766050E-009  0.4614232E+02  0.7816164E-02  0.1320468E+00
        -11   -1    0    0    0    0  0.00000000000E+00  0.00000000000E+00  0.45593999997E+02  0.45594000000E+02  0.51100000000E-03 0. -1.
         11   -1    0    0    0    0 -0.00000000000E+00 -0.00000000000E+00 -0.45593999997E+02  0.45594000000E+02  0.51100000000E-03 0.  1.
    9900012    2    1    2    0    0 -0.85838337404E+00  0.82070538534E+01  0.44283415455E+02  0.46142318306E+02  0.10000004967E+02 0.  0.
        -12    1    1    2    0    0  0.85838337404E+00 -0.82070538534E+01 -0.44283415455E+02  0.45045681694E+02  0.00000000000E+00 0.  1.
         11    1    3    3    0    0  0.29876708646E+01  0.22293929624E+01  0.73960307706E+01  0.82823693227E+01  0.51100000000E-03 0.  1.
        -11    1    3    3    0    0 -0.43977406011E+01  0.48433058242E+01  0.34886939148E+02  0.35495017356E+02  0.51100000000E-03 0. -1.
         12    1    3    3    0    0  0.55168636248E+00  0.11343550668E+01  0.20004455358E+01  0.23649316273E+01  0.00000000000E+00 0. -1.
</event>
<event>
 7    1  0.3766050E-009  0.4614232E+02  0.7816164E-02  0.1320468E+00
        -11   -1    0    0    0    0  0.00000000000E+00  0.00000000000E+00  0.45593999997E+02  0.45594000000E+02  0.51100000000E-03 0. -1.
         11   -1    0    0    0    0 -0.00000000000E+00 -0.00000000000E+00 -0.45593999997E+02  0.45594000000E+02  0.51100000000E-03 0.  1.
    9900012    2    1    2    0    0  0.22892161090E+02 -0.85711708553E+01  0.37836456984E+02  0.46142317784E+02  0.10000000211E+02 0.  0.
        -12    1    1    2    0    0 -0.22892161090E+02  0.85711708553E+01 -0.37836456984E+02  0.45045682216E+02  0.00000000000E+00 0.  1.
         11    1    3    3    0    0  0.21039616291E+02 -0.74929051299E+01  0.28502402222E+02  0.36210440672E+02  0.51100000000E-03 0. -1.
        -11    1    3    3    0    0 -0.86525419471E-01  0.43289572524E+00  0.43719363631E+01  0.43941680875E+01  0.51100000000E-03 0.  1.
         12    1    3    3    0    0  0.19390702183E+01 -0.15111614506E+01  0.49621183983E+01  0.55377090246E+01  0.00000000000E+00 0. -1.
</event>
<event>
 7    1  0.3766050E-009  0.4614232E+02  0.7816164E-02  0.1320468E+00
        -11   -1    0    0    0    0  0.00000000000E+00  0.00000000000E+00  0.45593999997E+02  0.45594000000E+02  0.51100000000E-03 0. -1.
         11   -1    0    0    0    0 -0.00000000000E+00 -0.00000000000E+00 -0.45593999997E+02  0.45594000000E+02  0.51100000000E-03 0.  1.
    9900012    2    1    2    0    0 -0.10745492822E+02  0.51584909646E+01  0.43440048190E+02  0.46142318389E+02  0.10000005725E+02 0.  0.
        -12    1    1    2    0    0  0.10745492822E+02 -0.51584909646E+01 -0.43440048190E+02  0.45045681611E+02  0.00000000000E+00 0.  1.
         11    1    3    3    0    0 -0.91323621573E+01  0.62660710315E+01  0.28309178957E+02  0.30398573950E+02  0.51100000000E-03 0. -1.
        -11    1    3    3    0    0 -0.58693947433E-01  0.13934042489E+01  0.53904672392E+01  0.55679581265E+01  0.51100000000E-03 0.  1.
         12    1    3    3    0    0 -0.15544367177E+01 -0.25009843158E+01  0.97404019945E+01  0.10175786312E+02  0.00000000000E+00 0. -1.
</event>
<event>
 7    1  0.3766050E-009  0.4614232E+02  0.7816164E-02  0.1320468E+00
        -11   -1    0    0    0    0  0.00000000000E+00  0.00000000000E+00  0.45593999997E+02  0.45594000000E+02  0.51100000000E-03 0.  1.
         11   -1    0    0    0    0 -0.00000000000E+00 -0.00000000000E+00 -0.45593999997E+02  0.45594000000E+02  0.51100000000E-03 0. -1.
    9900012    2    1    2    0    0 -0.19434587392E+02  0.40631593381E+02 -0.69562816710E+00  0.46142318005E+02  0.10000002227E+02 0.  0.
        -12    1    1    2    0    0  0.19434587392E+02 -0.40631593381E+02  0.69562816710E+00  0.45045681995E+02  0.00000000000E+00 0.  1.
         11    1    3    3    0    0 -0.13209065984E+02  0.21429315309E+02 -0.38274340148E+01  0.25462604544E+02  0.51100000000E-03 0. -1.
        -11    1    3    3    0    0 -0.15466439384E+01  0.17424245441E+01  0.74988894481E+00  0.24475466195E+01  0.51100000000E-03 0.  1.
         12    1    3    3    0    0 -0.46788774702E+01  0.17459853528E+02  0.23819169029E+01  0.18232166842E+02  0.00000000000E+00 0. -1.
</event>
<event>
 7    1  0.3766050E-009  0.4614232E+02  0.7816164E-02  0.1320468E+00
        -11   -1    0    0    0    0  0.00000000000E+00  0.00000000000E+00  0.45593999997E+02  0.45594000000E+02  0.51100000000E-03 0. -1.
         11   -1    0    0    0    0 -0.00000000000E+00 -0.00000000000E+00 -0.45593999997E+02  0.45594000000E+02  0.51100000000E-03 0.  1.
    9900012    2    1    2    0    0  0.22475835377E+02 -0.16047122877E+02 -0.35587076977E+02  0.46142319005E+02  0.10000011340E+02 0.  0.
         12    1    1    2    0    0 -0.22475835377E+02  0.16047122877E+02  0.35587076977E+02  0.45045680995E+02  0.00000000000E+00 0. -1.
         11    1    3    3    0    0  0.42479775790E+01 -0.12088152741E+01 -0.10382549483E+02  0.11282902193E+02  0.51100000000E-03 0. -1.
        -11    1    3    3    0    0  0.17508747248E+02 -0.15277011530E+02 -0.24408925010E+02  0.33700725984E+02  0.51100000000E-03 0.  1.
        -12    1    3    3    0    0  0.71911055064E+00  0.43870392671E+00 -0.79560248482E+00  0.11586908273E+01  0.00000000000E+00 0.  1.
</event>
<event>
 7    1  0.3766050E-009  0.4614232E+02  0.7816164E-02  0.1320468E+00
        -11   -1    0    0    0    0  0.00000000000E+00  0.00000000000E+00  0.45593999997E+02  0.45594000000E+02  0.51100000000E-03 0. -1.
         11   -1    0    0    0    0 -0.00000000000E+00 -0.00000000000E+00 -0.45593999997E+02  0.45594000000E+02  0.51100000000E-03 0.  1.
    9900012    2    1    2    0    0  0.10302714405E+02 -0.22549198820E+02 -0.37609853625E+02  0.46142318950E+02  0.10000010840E+02 0.  0.
         12    1    1    2    0    0 -0.10302714405E+02  0.22549198820E+02  0.37609853625E+02  0.45045681050E+02  0.00000000000E+00 0. -1.
         11    1    3    3    0    0 -0.45735645512E+00  0.35717006039E+00 -0.39834521059E-01  0.58166350175E+00  0.51100000000E-03 0. -1.
        -11    1    3    3    0    0  0.49271354221E+01 -0.14476632917E+02 -0.19447168112E+02  0.24739480834E+02  0.51100000000E-03 0.  1.
         12    1    3    3    0    0  0.58329354380E+01 -0.84297359637E+01 -0.18122850992E+02  0.20821174614E+02  0.00000000000E+00 0. -1.
</event>
<event>
 7    1  0.3766050E-009  0.4614232E+02  0.7816164E-02  0.1320468E+00
        -11   -1    0    0    0    0  0.00000000000E+00  0.00000000000E+00  0.45593999997E+02  0.45594000000E+02  0.51100000000E-03 0. -1.
         11   -1    0    0    0    0 -0.00000000000E+00 -0.00000000000E+00 -0.45593999997E+02  0.45594000000E+02  0.51100000000E-03 0.  1.
    9900012    2    1    2    0    0  0.18282427397E+02 -0.32500143796E+02  0.25270674969E+02  0.46142317502E+02  0.99999976407E+01 0.  0.
        -12    1    1    2    0    0 -0.18282427397E+02  0.32500143796E+02 -0.25270674969E+02  0.45045682498E+02  0.00000000000E+00 0.  1.
         11    1    3    3    0    0  0.10960085248E+02 -0.27005987478E+02  0.20092683661E+02  0.35400039057E+02  0.51100000000E-03 0. -1.
        -11    1    3    3    0    0  0.40029682215E+01 -0.16762150619E+01  0.21093215050E+01  0.48252138801E+01  0.51100000000E-03 0.  1.
        -12    1    3    3    0    0  0.33193739271E+01 -0.38179412564E+01  0.30686698029E+01  0.59170645648E+01  0.00000000000E+00 0.  1.
</event>
<event>
 7    1  0.3766050E-009  0.4614232E+02  0.7816164E-02  0.1320468E+00
        -11   -1    0    0    0    0  0.00000000000E+00  0.00000000000E+00  0.45593999997E+02  0.45594000000E+02  0.51100000000E-03 0. -1.
         11   -1    0    0    0    0 -0.00000000000E+00 -0.00000000000E+00 -0.45593999997E+02  0.45594000000E+02  0.51100000000E-03 0.  1.
    9900012    2    1    2    0    0  0.33664048189E+02  0.25130464341E+02  0.16257463816E+02  0.46142317541E+02  0.99999979944E+01 0.  0.
        -12    1    1    2    0    0 -0.33664048189E+02 -0.25130464341E+02 -0.16257463816E+02  0.45045682459E+02  0.00000000000E+00 0.  1.
         11    1    3    3    0    0  0.85310299926E+01  0.43032379707E+01  0.38846436091E+01  0.10314397025E+02  0.51100000000E-03 0. -1.
        -11    1    3    3    0    0  0.89274387629E+01  0.12349745453E+02  0.69743291115E+01  0.16758778071E+02  0.51100000000E-03 0.  1.
        -12    1    3    3    0    0  0.16205579433E+02  0.84774809180E+01  0.53984910951E+01  0.19069142445E+02  0.00000000000E+00 0.  1.
</event>
<event>
 7    1  0.3766050E-009  0.4614231E+02  0.7816164E-02  0.1320468E+00
        -11   -1    0    0    0    0  0.00000000000E+00  0.00000000000E+00  0.45593999997E+02  0.45594000000E+02  0.51100000000E-03 0. -1.
         11   -1    0    0    0    0 -0.00000000000E+00 -0.00000000000E+00 -0.45593999997E+02  0.45594000000E+02  0.51100000000E-03 0.  1.
    9900012    2    1    2    0    0  0.14932380908E+01  0.50318552127E+01 -0.44738848725E+02  0.46142313057E+02  0.99999571078E+01 0.  0.
         12    1    1    2    0    0 -0.14932380908E+01 -0.50318552127E+01  0.44738848725E+02  0.45045686943E+02  0.00000000000E+00 0. -1.
         11    1    3    3    0    0  0.47084454031E+00 -0.18223224581E+01 -0.94188971626E+01  0.96051120630E+01  0.51100000000E-03 0. -1.
        -11    1    3    3    0    0 -0.38844378116E+00  0.54543043474E+01 -0.33136538402E+02  0.33584676595E+02  0.51100000000E-03 0.  1.
        -12    1    3    3    0    0  0.14108373317E+01  0.13998733233E+01 -0.21834131609E+01  0.29525243994E+01  0.00000000000E+00 0.  1.
</event>
<event>
 7    1  0.3766050E-009  0.4614232E+02  0.7816164E-02  0.1320468E+00
        -11   -1    0    0    0    0  0.00000000000E+00  0.00000000000E+00  0.45593999997E+02  0.45594000000E+02  0.51100000000E-03 0. -1.
         11   -1    0    0    0    0 -0.00000000000E+00 -0.00000000000E+00 -0.45593999997E+02  0.45594000000E+02  0.51100000000E-03 0.  1.
    9900012    2    1    2    0    0 -0.12674675341E+02 -0.10860018329E+02  0.41839289201E+02  0.46142317477E+02  0.99999974094E+01 0.  0.
        -12    1    1    2    0    0  0.12674675341E+02  0.10860018329E+02 -0.41839289201E+02  0.45045682523E+02  0.00000000000E+00 0.  1.
         11    1    3    3    0    0 -0.12649997155E+02 -0.59011859445E+01  0.29266766225E+02  0.32425145012E+02  0.51100000000E-03 0.  1.
        -11    1    3    3    0    0  0.92749447816E+00 -0.37126144723E+01  0.99628086705E+01  0.10672455626E+02  0.51100000000E-03 0. -1.
        -12    1    3    3    0    0 -0.95217266470E+00 -0.12462179119E+01  0.26097143061E+01  0.30447168385E+01  0.00000000000E+00 0.  1.
</event>
<event>
 7    1  0.3766050E-009  0.4614232E+02  0.7816164E-02  0.1320468E+00
        -11   -1    0    0    0    0  0.00000000000E+00  0.00000000000E+00  0.45593999997E+02  0.45594000000E+02  0.51100000000E-03 0. -1.
         11   -1    0    0    0    0 -0.00000000000E+00 -0.00000000000E+00 -0.45593999997E+02  0.45594000000E+02  0.51100000000E-03 0.  1.
    9900012    2    1    2    0    0 -0.27138164289E+01  0.32493516552E+02  0.31079254207E+02  0.46142318081E+02  0.10000002913E+02 0.  0.
        -12    1    1    2    0    0  0.27138164289E+01 -0.32493516552E+02 -0.31079254207E+02  0.45045681919E+02  0.00000000000E+00 0.  1.
         11    1    3    3    0    0  0.25844441725E+01  0.77424822316E+01  0.90789914362E+01  0.12208745576E+02  0.51100000000E-03 0. -1.
        -11    1    3    3    0    0 -0.98416737331E+00  0.87850615911E+00  0.24284235652E+01  0.27636207705E+01  0.51100000000E-03 0.  1.
        -12    1    3    3    0    0 -0.43140932281E+01  0.23872528161E+02  0.19571839206E+02  0.31169951734E+02  0.00000000000E+00 0.  1.
</event>
<event>
 7    1  0.3766050E-009  0.4614232E+02  0.7816164E-02  0.1320468E+00
        -11   -1    0    0    0    0  0.00000000000E+00  0.00000000000E+00  0.45593999997E+02  0.45594000000E+02  0.51100000000E-03 0. -1.
         11   -1    0    0    0    0 -0.00000000000E+00 -0.00000000000E+00 -0.45593999997E+02  0.45594000000E+02  0.51100000000E-03 0.  1.
    9900012    2    1    2    0    0  0.27453927315E+02 -0.11029102222E+02  0.33966958606E+02  0.46142317657E+02  0.99999990478E+01 0.  0.
        -12    1    1    2    0    0 -0.27453927315E+02  0.11029102222E+02 -0.33966958606E+02  0.45045682343E+02  0.00000000000E+00 0.  1.
         11    1    3    3    0    0  0.22833061712E+02 -0.83419539591E+01  0.28875433444E+02  0.37745563446E+02  0.51100000000E-03 0. -1.
        -11    1    3    3    0    0  0.28623940078E+00 -0.11258608922E+01 -0.39992087274E+00  0.12285897235E+01  0.51100000000E-03 0.  1.
        -12    1    3    3    0    0  0.43346262021E+01 -0.15612873704E+01  0.54914460343E+01  0.71681644870E+01  0.00000000000E+00 0.  1.
</event>
<event>
 7    1  0.3766050E-009  0.4614232E+02  0.7816164E-02  0.1320468E+00
        -11   -1    0    0    0    0  0.00000000000E+00  0.00000000000E+00  0.45593999997E+02  0.45594000000E+02  0.51100000000E-03 0. -1.
         11   -1    0    0    0    0 -0.00000000000E+00 -0.00000000000E+00 -0.45593999997E+02  0.45594000000E+02  0.51100000000E-03 0.  1.
    9900012    2    1    2    0    0  0.32963584186E+02 -0.20267324616E+02 -0.23059730834E+02  0.46142317459E+02  0.99999972413E+01 0.  0.
         12    1    1    2    0    0 -0.32963584186E+02  0.20267324616E+02  0.23059730834E+02  0.45045682541E+02  0.00000000000E+00 0. -1.
         11    1    3    3    0    0  0.70393511077E+01 -0.68391672304E+01 -0.18635479862E+01  0.99899691581E+01  0.51100000000E-03 0. -1.
        -11    1    3    3    0    0  0.10600757132E+02 -0.47633884523E+01 -0.72931285576E+01  0.13720628475E+02  0.51100000000E-03 0.  1.
         12    1    3    3    0    0  0.15323475946E+02 -0.86647689332E+01 -0.13903054290E+02  0.22431719826E+02  0.00000000000E+00 0. -1.
</event>
<event>
 7    1  0.3766050E-009  0.4614232E+02  0.7816164E-02  0.1320468E+00
        -11   -1    0    0    0    0  0.00000000000E+00  0.00000000000E+00  0.45593999997E+02  0.45594000000E+02  0.51100000000E-03 0. -1.
         11   -1    0    0    0    0 -0.00000000000E+00 -0.00000000000E+00 -0.45593999997E+02  0.45594000000E+02  0.51100000000E-03 0.  1.
    9900012    2    1    2    0    0 -0.21899293794E+02 -0.11529929569E+02 -0.37637681944E+02  0.46142318224E+02  0.10000004220E+02 0.  0.
         12    1    1    2    0    0  0.21899293794E+02  0.11529929569E+02  0.37637681944E+02  0.45045681776E+02  0.00000000000E+00 0. -1.
         11    1    3    3    0    0 -0.81669703560E+01  0.19733815488E-01 -0.11843315251E+02  0.14386240322E+02  0.51100000000E-03 0. -1.
        -11    1    3    3    0    0 -0.12697501735E+02 -0.11155942512E+02 -0.21650303483E+02  0.27466656965E+02  0.51100000000E-03 0.  1.
        -12    1    3    3    0    0 -0.10348217031E+01 -0.39372087201E+00 -0.41440632109E+01  0.42894209373E+01  0.00000000000E+00 0.  1.
</event>
<event>
 7    1  0.3766050E-009  0.4614232E+02  0.7816164E-02  0.1320468E+00
        -11   -1    0    0    0    0  0.00000000000E+00  0.00000000000E+00  0.45593999997E+02  0.45594000000E+02  0.51100000000E-03 0. -1.
         11   -1    0    0    0    0 -0.00000000000E+00 -0.00000000000E+00 -0.45593999997E+02  0.45594000000E+02  0.51100000000E-03 0.  1.
    9900012    2    1    2    0    0 -0.27045841865E+02  0.11845222422E+02  0.34019502473E+02  0.46142318687E+02  0.10000008444E+02 0.  0.
        -12    1    1    2    0    0  0.27045841865E+02 -0.11845222422E+02 -0.34019502473E+02  0.45045681313E+02  0.00000000000E+00 0.  1.
         11    1    3    3    0    0 -0.92925680765E+00  0.26219952145E+01  0.38767798111E+01  0.47715614933E+01  0.51100000000E-03 0. -1.
        -11    1    3    3    0    0 -0.61872338267E+00  0.35898351913E+00 -0.21485463103E+00  0.74689394486E+00  0.51100000000E-03 0.  1.
         12    1    3    3    0    0 -0.25497861675E+02  0.88642436882E+01  0.30357577293E+02  0.40623863249E+02  0.00000000000E+00 0. -1.
</event>
<event>
 7    1  0.3766050E-009  0.4614232E+02  0.7816164E-02  0.1320468E+00
        -11   -1    0    0    0    0  0.00000000000E+00  0.00000000000E+00  0.45593999997E+02  0.45594000000E+02  0.51100000000E-03 0. -1.
         11   -1    0    0    0    0 -0.00000000000E+00 -0.00000000000E+00 -0.45593999997E+02  0.45594000000E+02  0.51100000000E-03 0.  1.
    9900012    2    1    2    0    0  0.30768889075E+02 -0.92993418849E+01  0.31558055421E+02  0.46142321446E+02  0.10000033601E+02 0.  0.
        -12    1    1    2    0    0 -0.30768889075E+02  0.92993418849E+01 -0.31558055421E+02  0.45045678554E+02  0.00000000000E+00 0.  1.
         11    1    3    3    0    0  0.19916419200E+02 -0.20569356602E+01  0.15412339029E+02  0.25267269989E+02  0.51100000000E-03 0. -1.
        -11    1    3    3    0    0  0.70584513894E+01 -0.59240232476E+01  0.11317642776E+02  0.14594684845E+02  0.51100000000E-03 0.  1.
         12    1    3    3    0    0  0.37940184861E+01 -0.13183829771E+01  0.48280736155E+01  0.62803666122E+01  0.00000000000E+00 0. -1.
</event>
<event>
 7    1  0.3766050E-009  0.4614232E+02  0.7816164E-02  0.1320468E+00
        -11   -1    0    0    0    0  0.00000000000E+00  0.00000000000E+00  0.45593999997E+02  0.45594000000E+02  0.51100000000E-03 0. -1.
         11   -1    0    0    0    0 -0.00000000000E+00 -0.00000000000E+00 -0.45593999997E+02  0.45594000000E+02  0.51100000000E-03 0.  1.
    9900012    2    1    2    0    0  0.16400493639E+02 -0.24078481497E+02 -0.34356426818E+02  0.46142317338E+02  0.99999961403E+01 0.  0.
         12    1    1    2    0    0 -0.16400493639E+02  0.24078481497E+02  0.34356426818E+02  0.45045682662E+02  0.00000000000E+00 0. -1.
         11    1    3    3    0    0  0.95822985158E+00 -0.74794814883E+01 -0.95944326356E+01  0.12203031822E+02  0.51100000000E-03 0. -1.
        -11    1    3    3    0    0  0.65129655280E+01 -0.10313526192E+02 -0.11546590846E+02  0.16796169293E+02  0.51100000000E-03 0.  1.
         12    1    3    3    0    0  0.89292982595E+01 -0.62854738164E+01 -0.13215403337E+02  0.17143116224E+02  0.00000000000E+00 0. -1.
</event>
<event>
 7    1  0.3766050E-009  0.4614232E+02  0.7816164E-02  0.1320468E+00
        -11   -1    0    0    0    0  0.00000000000E+00  0.00000000000E+00  0.45593999997E+02  0.45594000000E+02  0.51100000000E-03 0.  1.
         11   -1    0    0    0    0 -0.00000000000E+00 -0.00000000000E+00 -0.45593999997E+02  0.45594000000E+02  0.51100000000E-03 0. -1.
    9900012    2    1    2    0    0  0.34315797805E+02  0.29170855575E+02  0.77503898891E+00  0.46142317861E+02  0.10000000912E+02 0.  0.
         12    1    1    2    0    0 -0.34315797805E+02 -0.29170855575E+02 -0.77503898891E+00  0.45045682139E+02  0.00000000000E+00 0. -1.
         11    1    3    3    0    0  0.89260095699E+01  0.52111834375E+01  0.36378331760E+01  0.10957367847E+02  0.51100000000E-03 0. -1.
        -11    1    3    3    0    0  0.85249451689E+01  0.10184410471E+02 -0.15151877216E+01  0.13367598919E+02  0.51100000000E-03 0.  1.
        -12    1    3    3    0    0  0.16864843066E+02  0.13775261666E+02 -0.13476064655E+01  0.21817351095E+02  0.00000000000E+00 0.  1.
</event>
<event>
 7    1  0.3766050E-009  0.4614232E+02  0.7816164E-02  0.1320468E+00
        -11   -1    0    0    0    0  0.00000000000E+00  0.00000000000E+00  0.45593999997E+02  0.45594000000E+02  0.51100000000E-03 0. -1.
         11   -1    0    0    0    0 -0.00000000000E+00 -0.00000000000E+00 -0.45593999997E+02  0.45594000000E+02  0.51100000000E-03 0.  1.
    9900012    2    1    2    0    0 -0.14555048869E+02 -0.22465914124E+02 -0.36229086328E+02  0.46142318285E+02  0.10000004779E+02 0.  0.
         12    1    1    2    0    0  0.14555048869E+02  0.22465914124E+02  0.36229086328E+02  0.45045681715E+02  0.00000000000E+00 0. -1.
         11    1    3    3    0    0 -0.44277070715E+01 -0.99014350217E+01 -0.92311637260E+01  0.14242801318E+02  0.51100000000E-03 0. -1.
        -11    1    3    3    0    0 -0.10413012767E+01 -0.32985573189E+01 -0.28358405396E+01  0.44728939807E+01  0.51100000000E-03 0.  1.
         12    1    3    3    0    0 -0.90860405210E+01 -0.92659217836E+01 -0.24162082062E+02  0.27426622986E+02  0.00000000000E+00 0. -1.
</event>
<event>
 7    1  0.3766050E-009  0.4614232E+02  0.7816164E-02  0.1320468E+00
        -11   -1    0    0    0    0  0.00000000000E+00  0.00000000000E+00  0.45593999997E+02  0.45594000000E+02  0.51100000000E-03 0. -1.
         11   -1    0    0    0    0 -0.00000000000E+00 -0.00000000000E+00 -0.45593999997E+02  0.45594000000E+02  0.51100000000E-03 0.  1.
    9900012    2    1    2    0    0  0.27791835545E+02  0.10426297305E+02  0.33882438448E+02  0.46142318368E+02  0.10000005536E+02 0.  0.
        -12    1    1    2    0    0 -0.27791835545E+02 -0.10426297305E+02 -0.33882438448E+02  0.45045681632E+02  0.00000000000E+00 0.  1.
         11    1    3    3    0    0  0.37652974553E+01  0.33390911232E+01  0.58161203411E+01  0.76911800485E+01  0.51100000000E-03 0. -1.
        -11    1    3    3    0    0  0.87592262956E+01  0.47456993924E+01  0.16012557724E+02  0.18858624371E+02  0.51100000000E-03 0.  1.
        -12    1    3    3    0    0  0.15267311794E+02  0.23415067895E+01  0.12053760383E+02  0.19592513949E+02  0.00000000000E+00 0.  1.
</event>
<event>
 7    1  0.3766050E-009  0.4614232E+02  0.7816164E-02  0.1320468E+00
        -11   -1    0    0    0    0  0.00000000000E+00  0.00000000000E+00  0.45593999997E+02  0.45594000000E+02  0.51100000000E-03 0. -1.
         11   -1    0    0    0    0 -0.00000000000E+00 -0.00000000000E+00 -0.45593999997E+02  0.45594000000E+02  0.51100000000E-03 0.  1.
    9900012    2    1    2    0    0  0.81314935024E+01  0.27984474563E+02 -0.34349112179E+02  0.46142317514E+02  0.99999977484E+01 0.  0.
         12    1    1    2    0    0 -0.81314935024E+01 -0.27984474563E+02  0.34349112179E+02  0.45045682486E+02  0.00000000000E+00 0. -1.
         11    1    3    3    0    0  0.45019680417E+01  0.94793308398E+01 -0.16042319241E+02  0.19169805328E+02  0.51100000000E-03 0.  1.
        -11    1    3    3    0    0  0.40844549231E+01  0.17635259235E+02 -0.14957003098E+02  0.23481845801E+02  0.51100000000E-03 0. -1.
         12    1    3    3    0    0 -0.45492946239E+00  0.86988448783E+00 -0.33497898402E+01  0.34906663850E+01  0.00000000000E+00 0. -1.
</event>
<event>
 7    1  0.3766050E-009  0.4614232E+02  0.7816164E-02  0.1320468E+00
        -11   -1    0    0    0    0  0.00000000000E+00  0.00000000000E+00  0.45593999997E+02  0.45594000000E+02  0.51100000000E-03 0.  1.
         11   -1    0    0    0    0 -0.00000000000E+00 -0.00000000000E+00 -0.45593999997E+02  0.45594000000E+02  0.51100000000E-03 0. -1.
    9900012    2    1    2    0    0 -0.30092088923E+02  0.64051964303E+01 -0.32902174352E+02  0.46142318363E+02  0.10000005488E+02 0.  0.
         12    1    1    2    0    0  0.30092088923E+02 -0.64051964303E+01  0.32902174352E+02  0.45045681637E+02  0.00000000000E+00 0. -1.
         11    1    3    3    0    0 -0.74880792521E+01  0.37915162138E+01 -0.99566184256E+01  0.13022333770E+02  0.51100000000E-03 0. -1.
        -11    1    3    3    0    0 -0.18716811116E+02  0.30144872295E+01 -0.14680148224E+02  0.23977341466E+02  0.51100000000E-03 0.  1.
        -12    1    3    3    0    0 -0.38871985545E+01 -0.40080701295E+00 -0.82654077024E+01  0.91426431271E+01  0.00000000000E+00 0.  1.
</event>
<event>
 7    1  0.3766050E-009  0.4614232E+02  0.7816164E-02  0.1320468E+00
        -11   -1    0    0    0    0  0.00000000000E+00  0.00000000000E+00  0.45593999997E+02  0.45594000000E+02  0.51100000000E-03 0. -1.
         11   -1    0    0    0    0 -0.00000000000E+00 -0.00000000000E+00 -0.45593999997E+02  0.45594000000E+02  0.51100000000E-03 0.  1.
    9900012    2    1    2    0    0 -0.22415342907E+02 -0.18303921497E+02  0.34520028504E+02  0.46142317546E+02  0.99999980421E+01 0.  0.
        -12    1    1    2    0    0  0.22415342907E+02  0.18303921497E+02 -0.34520028504E+02  0.45045682454E+02  0.00000000000E+00 0.  1.
         11    1    3    3    0    0 -0.49937654960E+01 -0.41922880888E+01  0.32008661461E+01  0.72635058749E+01  0.51100000000E-03 0. -1.
        -11    1    3    3    0    0 -0.58327509860E+01 -0.36800913364E+01  0.13789962966E+02  0.15418402485E+02  0.51100000000E-03 0.  1.
         12    1    3    3    0    0 -0.11588826425E+02 -0.10431542072E+02  0.17529199391E+02  0.23460409187E+02  0.00000000000E+00 0. -1.
</event>
<event>
 7    1  0.3766050E-009  0.4614232E+02  0.7816164E-02  0.1320468E+00
        -11   -1    0    0    0    0  0.00000000000E+00  0.00000000000E+00  0.45593999997E+02  0.45594000000E+02  0.51100000000E-03 0. -1.
         11   -1    0    0    0    0 -0.00000000000E+00 -0.00000000000E+00 -0.45593999997E+02  0.45594000000E+02  0.51100000000E-03 0.  1.
    9900012    2    1    2    0    0  0.16531707741E+02  0.41876883693E+02  0.14637156542E+01  0.46142320826E+02  0.10000027949E+02 0.  0.
         12    1    1    2    0    0 -0.16531707741E+02 -0.41876883693E+02 -0.14637156542E+01  0.45045679174E+02  0.00000000000E+00 0. -1.
         11    1    3    3    0    0  0.41677946205E+00  0.79203065943E+01  0.25331449875E+01  0.83259705415E+01  0.51100000000E-03 0. -1.
        -11    1    3    3    0    0  0.14868182674E+02  0.30410517233E+02 -0.21095292812E+01  0.33916257583E+02  0.51100000000E-03 0.  1.
        -12    1    3    3    0    0  0.12467456054E+01  0.35460598663E+01  0.10400999479E+01  0.39000927017E+01  0.00000000000E+00 0.  1.
</event>
<event>
 7    1  0.3766050E-009  0.4614232E+02  0.7816164E-02  0.1320468E+00
        -11   -1    0    0    0    0  0.00000000000E+00  0.00000000000E+00  0.45593999997E+02  0.45594000000E+02  0.51100000000E-03 0. -1.
         11   -1    0    0    0    0 -0.00000000000E+00 -0.00000000000E+00 -0.45593999997E+02  0.45594000000E+02  0.51100000000E-03 0.  1.
    9900012    2    1    2    0    0  0.28986619078E+02  0.30022646717E+01  0.34349318907E+02  0.46142318874E+02  0.10000010147E+02 0.  0.
        -12    1    1    2    0    0 -0.28986619078E+02 -0.30022646717E+01 -0.34349318907E+02  0.45045681126E+02  0.00000000000E+00 0.  1.
         11    1    3    3    0    0  0.81951526160E+01  0.65688960699E+00  0.89603075148E+01  0.12160556787E+02  0.51100000000E-03 0. -1.
        -11    1    3    3    0    0  0.46525805479E+01  0.42434098387E+01  0.80120192240E+01  0.10190460496E+02  0.51100000000E-03 0.  1.
        -12    1    3    3    0    0  0.16138885914E+02 -0.18980347740E+01  0.17376992169E+02  0.23791301591E+02  0.00000000000E+00 0.  1.
</event>
<event>
 7    1  0.3766050E-009  0.4614232E+02  0.7816164E-02  0.1320468E+00
        -11   -1    0    0    0    0  0.00000000000E+00  0.00000000000E+00  0.45593999997E+02  0.45594000000E+02  0.51100000000E-03 0. -1.
         11   -1    0    0    0    0 -0.00000000000E+00 -0.00000000000E+00 -0.45593999997E+02  0.45594000000E+02  0.51100000000E-03 0.  1.
    9900012    2    1    2    0    0  0.30853956776E+02 -0.73478174129E+01 -0.31986815660E+02  0.46142318237E+02  0.10000004335E+02 0.  0.
         12    1    1    2    0    0 -0.30853956776E+02  0.73478174129E+01  0.31986815660E+02  0.45045681763E+02  0.00000000000E+00 0. -1.
         11    1    3    3    0    0  0.50720546315E+01  0.11469269732E+01 -0.50625089655E+01  0.72574221976E+01  0.51100000000E-03 0. -1.
        -11    1    3    3    0    0  0.25424702599E+00  0.51405742846E+00 -0.20246119270E+01  0.21042695422E+01  0.51100000000E-03 0.  1.
        -12    1    3    3    0    0  0.25527655119E+02 -0.90088018146E+01 -0.24899694767E+02  0.36780626497E+02  0.00000000000E+00 0.  1.
</event>
<event>
 7    1  0.3766050E-009  0.4614232E+02  0.7816164E-02  0.1320468E+00
        -11   -1    0    0    0    0  0.00000000000E+00  0.00000000000E+00  0.45593999997E+02  0.45594000000E+02  0.51100000000E-03 0. -1.
         11   -1    0    0    0    0 -0.00000000000E+00 -0.00000000000E+00 -0.45593999997E+02  0.45594000000E+02  0.51100000000E-03 0.  1.
    9900012    2    1    2    0    0  0.11670503974E+02 -0.43154381385E+02 -0.55328380535E+01  0.46142316603E+02  0.99999894430E+01 0.  0.
         12    1    1    2    0    0 -0.11670503974E+02  0.43154381385E+02  0.55328380535E+01  0.45045683397E+02  0.00000000000E+00 0. -1.
         11    1    3    3    0    0  0.47364678827E+01 -0.16642240296E+02  0.13484000822E+01  0.17355589103E+02  0.51100000000E-03 0. -1.
        -11    1    3    3    0    0  0.45842255527E+01 -0.12427605465E+02 -0.81142176139E+00  0.13270979883E+02  0.51100000000E-03 0.  1.
         12    1    3    3    0    0  0.23498105391E+01 -0.14084535624E+02 -0.60698163743E+01  0.15515747618E+02  0.00000000000E+00 0. -1.
</event>
<event>
 7    1  0.3766050E-009  0.4614232E+02  0.7816164E-02  0.1320468E+00
        -11   -1    0    0    0    0  0.00000000000E+00  0.00000000000E+00  0.45593999997E+02  0.45594000000E+02  0.51100000000E-03 0. -1.
         11   -1    0    0    0    0 -0.00000000000E+00 -0.00000000000E+00 -0.45593999997E+02  0.45594000000E+02  0.51100000000E-03 0.  1.
    9900012    2    1    2    0    0 -0.23923978617E+02  0.13152617451E+02  0.35829673368E+02  0.46142316607E+02  0.99999894763E+01 0.  0.
        -12    1    1    2    0    0  0.23923978617E+02 -0.13152617451E+02 -0.35829673368E+02  0.45045683393E+02  0.00000000000E+00 0.  1.
         11    1    3    3    0    0 -0.14827324069E+02  0.43871918621E+01  0.18477888745E+02  0.24094176978E+02  0.51100000000E-03 0. -1.
        -11    1    3    3    0    0 -0.25705346346E+01  0.29289552244E+01  0.95754088428E+01  0.10338030846E+02  0.51100000000E-03 0.  1.
         12    1    3    3    0    0 -0.65261199137E+01  0.58364703643E+01  0.77763757797E+01  0.11710108783E+02  0.00000000000E+00 0. -1.
</event>
