<event>
 7    1  0.6889665E-012  0.5052887E+02  0.7816164E-02  0.1300439E+00
        -11   -1    0    0    0    0  0.00000000000E+00  0.00000000000E+00  0.45593999997E+02  0.45594000000E+02  0.51100000000E-03 0. -1.
         11   -1    0    0    0    0 -0.00000000000E+00 -0.00000000000E+00 -0.45593999997E+02  0.45594000000E+02  0.51100000000E-03 0.  1.
    9900012    2    1    2    0    0 -0.79194240691E+01 -0.21332948652E+02  0.33694995958E+02  0.50528871525E+02  0.30000035487E+02 0.  0.
        -12    1    1    2    0    0  0.79194240691E+01  0.21332948652E+02 -0.33694995958E+02  0.40659128475E+02  0.00000000000E+00 0.  1.
         11    1    3    3    0    0  0.16778344324E+01 -0.20175508466E+02  0.34383559172E+02  0.39901070310E+02  0.51100000000E-03 0. -1.
        -11    1    3    3    0    0 -0.84323172060E+01  0.36699660569E+00  0.34728118669E+00  0.84474412964E+01  0.51100000000E-03 0.  1.
         12    1    3    3    0    0 -0.11649412955E+01 -0.15244367909E+01 -0.10358444013E+01  0.21803599187E+01  0.00000000000E+00 0. -1.
</event>
<event>
 7    1  0.6889665E-012  0.5052883E+02  0.7816164E-02  0.1300439E+00
        -11   -1    0    0    0    0  0.00000000000E+00  0.00000000000E+00  0.45593999997E+02  0.45594000000E+02  0.51100000000E-03 0.  1.
         11   -1    0    0    0    0 -0.00000000000E+00 -0.00000000000E+00 -0.45593999997E+02  0.45594000000E+02  0.51100000000E-03 0. -1.
    9900012    2    1    2    0    0  0.15510426757E+01  0.40496431030E+02  0.32865275345E+01  0.50528832242E+02  0.29999916083E+02 0.  0.
         12    1    1    2    0    0 -0.15510426757E+01 -0.40496431030E+02 -0.32865275345E+01  0.40659167758E+02  0.00000000000E+00 0. -1.
         11    1    3    3    0    0  0.63741939353E+01  0.30351639384E+02 -0.24413293398E+00  0.31014705589E+02  0.51100000000E-03 0. -1.
        -11    1    3    3    0    0 -0.72921488777E+01  0.64444969510E+01 -0.41965083667E+01  0.10598002592E+02  0.51100000000E-03 0.  1.
         12    1    3    3    0    0  0.24689976182E+01  0.37002946945E+01  0.77271688353E+01  0.89161240611E+01  0.00000000000E+00 0. -1.
</event>
<event>
 7    1  0.6889665E-012  0.5052885E+02  0.7816164E-02  0.1300439E+00
        -11   -1    0    0    0    0  0.00000000000E+00  0.00000000000E+00  0.45593999997E+02  0.45594000000E+02  0.51100000000E-03 0. -1.
         11   -1    0    0    0    0 -0.00000000000E+00 -0.00000000000E+00 -0.45593999997E+02  0.45594000000E+02  0.51100000000E-03 0.  1.
    9900012    2    1    2    0    0  0.25664924580E+02 -0.11283721996E+02 -0.29447514072E+02  0.50528845793E+02  0.29999957273E+02 0.  0.
         12    1    1    2    0    0 -0.25664924580E+02  0.11283721996E+02  0.29447514072E+02  0.40659154207E+02  0.00000000000E+00 0. -1.
         11    1    3    3    0    0  0.27156764517E+02 -0.83143046392E+01 -0.23893819765E+02  0.37115120152E+02  0.51100000000E-03 0. -1.
        -11    1    3    3    0    0 -0.26740592174E+01 -0.97095382056E+00 -0.88983699053E+01  0.93420731774E+01  0.51100000000E-03 0.  1.
         12    1    3    3    0    0  0.11822192799E+01 -0.19984635361E+01  0.33446755977E+01  0.40716524637E+01  0.00000000000E+00 0. -1.
</event>
<event>
 7    1  0.6889665E-012  0.5052885E+02  0.7816164E-02  0.1300439E+00
        -11   -1    0    0    0    0  0.00000000000E+00  0.00000000000E+00  0.45593999997E+02  0.45594000000E+02  0.51100000000E-03 0.  1.
         11   -1    0    0    0    0 -0.00000000000E+00 -0.00000000000E+00 -0.45593999997E+02  0.45594000000E+02  0.51100000000E-03 0. -1.
    9900012    2    1    2    0    0 -0.21285082952E+02  0.29152759391E+02  0.18714381976E+02  0.50528853069E+02  0.29999979390E+02 0.  0.
         12    1    1    2    0    0  0.21285082952E+02 -0.29152759391E+02 -0.18714381976E+02  0.40659146931E+02  0.00000000000E+00 0. -1.
         11    1    3    3    0    0  0.19235310278E+01  0.49440730485E+00  0.30940404436E+01  0.36766148460E+01  0.51100000000E-03 0. -1.
        -11    1    3    3    0    0 -0.87060014720E+01  0.21492926455E+02 -0.15766915837E+01  0.23242768894E+02  0.51100000000E-03 0.  1.
        -12    1    3    3    0    0 -0.14502612508E+02  0.71654256305E+01  0.17197033116E+02  0.23609469329E+02  0.00000000000E+00 0.  1.
</event>
<event>
 7    1  0.6889665E-012  0.5052886E+02  0.7816164E-02  0.1300439E+00
        -11   -1    0    0    0    0  0.00000000000E+00  0.00000000000E+00  0.45593999997E+02  0.45594000000E+02  0.51100000000E-03 0. -1.
         11   -1    0    0    0    0 -0.00000000000E+00 -0.00000000000E+00 -0.45593999997E+02  0.45594000000E+02  0.51100000000E-03 0.  1.
    9900012    2    1    2    0    0  0.28186913198E+02 -0.26209043764E+02  0.13105318965E+02  0.50528862825E+02  0.30000009042E+02 0.  0.
        -12    1    1    2    0    0 -0.28186913198E+02  0.26209043764E+02 -0.13105318965E+02  0.40659137175E+02  0.00000000000E+00 0.  1.
         11    1    3    3    0    0  0.12099015685E+02 -0.40788833799E+01  0.10208957692E+02  0.16347669179E+02  0.51100000000E-03 0. -1.
        -11    1    3    3    0    0  0.12674695118E+02 -0.19720108670E+02 -0.61337574091E+01  0.24231251773E+02  0.51100000000E-03 0.  1.
         12    1    3    3    0    0  0.34132023955E+01 -0.24100517140E+01  0.90301186819E+01  0.99499418724E+01  0.00000000000E+00 0. -1.
</event>
<event>
 7    1  0.6889665E-012  0.5052884E+02  0.7816164E-02  0.1300439E+00
        -11   -1    0    0    0    0  0.00000000000E+00  0.00000000000E+00  0.45593999997E+02  0.45594000000E+02  0.51100000000E-03 0. -1.
         11   -1    0    0    0    0 -0.00000000000E+00 -0.00000000000E+00 -0.45593999997E+02  0.45594000000E+02  0.51100000000E-03 0.  1.
    9900012    2    1    2    0    0  0.25557272741E+02 -0.28982859670E+02  0.12648604489E+02  0.50528836947E+02  0.29999930385E+02 0.  0.
        -12    1    1    2    0    0 -0.25557272741E+02  0.28982859670E+02 -0.12648604489E+02  0.40659163053E+02  0.00000000000E+00 0.  1.
         11    1    3    3    0    0  0.15668543747E+01 -0.20391128524E+02 -0.25369879418E+01  0.20607995128E+02  0.51100000000E-03 0.  1.
        -11    1    3    3    0    0  0.24138734152E+02 -0.85536160485E+01  0.15173890559E+02  0.29767260353E+02  0.51100000000E-03 0. -1.
         12    1    3    3    0    0 -0.14831578583E+00 -0.38115098070E-01  0.11701872265E-01  0.15358146647E+00  0.00000000000E+00 0. -1.
</event>
<event>
 7    1  0.6889665E-012  0.5052887E+02  0.7816164E-02  0.1300439E+00
        -11   -1    0    0    0    0  0.00000000000E+00  0.00000000000E+00  0.45593999997E+02  0.45594000000E+02  0.51100000000E-03 0. -1.
         11   -1    0    0    0    0 -0.00000000000E+00 -0.00000000000E+00 -0.45593999997E+02  0.45594000000E+02  0.51100000000E-03 0.  1.
    9900012    2    1    2    0    0  0.14707098258E+02  0.77736054742E+01 -0.37100363154E+02  0.50528872766E+02  0.30000039260E+02 0.  0.
         12    1    1    2    0    0 -0.14707098258E+02 -0.77736054742E+01  0.37100363154E+02  0.40659127234E+02  0.00000000000E+00 0. -1.
         11    1    3    3    0    0  0.21251280652E+02  0.51698925225E+01 -0.13200731850E+02  0.25546115941E+02  0.51100000000E-03 0. -1.
        -11    1    3    3    0    0 -0.36266906282E+01  0.24011146697E+01 -0.13977583493E+02  0.14638684269E+02  0.51100000000E-03 0.  1.
         12    1    3    3    0    0 -0.29174917660E+01  0.20259828208E+00 -0.99220478120E+01  0.10344072556E+02  0.00000000000E+00 0. -1.
</event>
<event>
 7    1  0.6889665E-012  0.5052886E+02  0.7816164E-02  0.1300439E+00
        -11   -1    0    0    0    0  0.00000000000E+00  0.00000000000E+00  0.45593999997E+02  0.45594000000E+02  0.51100000000E-03 0. -1.
         11   -1    0    0    0    0 -0.00000000000E+00 -0.00000000000E+00 -0.45593999997E+02  0.45594000000E+02  0.51100000000E-03 0.  1.
    9900012    2    1    2    0    0  0.29167569106E+02  0.23738627739E+02 -0.15456253725E+02  0.50528864327E+02  0.30000013607E+02 0.  0.
         12    1    1    2    0    0 -0.29167569106E+02 -0.23738627739E+02  0.15456253725E+02  0.40659135673E+02  0.00000000000E+00 0. -1.
         11    1    3    3    0    0  0.25890307821E+02  0.19499866649E+02 -0.22453929680E+01  0.32489915793E+02  0.51100000000E-03 0.  1.
        -11    1    3    3    0    0 -0.40025532686E+00  0.38920664022E+01 -0.13759167847E+02  0.14304652575E+02  0.51100000000E-03 0. -1.
         12    1    3    3    0    0  0.36775166122E+01  0.34669468786E+00  0.54830708993E+00  0.37342959583E+01  0.00000000000E+00 0. -1.
</event>
<event>
 7    1  0.6889665E-012  0.5052887E+02  0.7816164E-02  0.1300439E+00
        -11   -1    0    0    0    0  0.00000000000E+00  0.00000000000E+00  0.45593999997E+02  0.45594000000E+02  0.51100000000E-03 0. -1.
         11   -1    0    0    0    0 -0.00000000000E+00 -0.00000000000E+00 -0.45593999997E+02  0.45594000000E+02  0.51100000000E-03 0.  1.
    9900012    2    1    2    0    0  0.38188436550E+02 -0.13075489478E+02 -0.48826170553E+01  0.50528867440E+02  0.30000023071E+02 0.  0.
         12    1    1    2    0    0 -0.38188436550E+02  0.13075489478E+02  0.48826170553E+01  0.40659132560E+02  0.00000000000E+00 0. -1.
         11    1    3    3    0    0  0.16201873571E+02 -0.91119966182E+01  0.65464111202E+01  0.19707477982E+02  0.51100000000E-03 0. -1.
        -11    1    3    3    0    0  0.14385504908E+02  0.62821060634E+01 -0.79631211224E+01  0.17601673395E+02  0.51100000000E-03 0.  1.
         12    1    3    3    0    0  0.76010580709E+01 -0.10245598923E+02 -0.34659070531E+01  0.13219716063E+02  0.00000000000E+00 0. -1.
</event>
<event>
 7    1  0.6889665E-012  0.5052879E+02  0.7816164E-02  0.1300439E+00
        -11   -1    0    0    0    0  0.00000000000E+00  0.00000000000E+00  0.45593999997E+02  0.45594000000E+02  0.51100000000E-03 0. -1.
         11   -1    0    0    0    0 -0.00000000000E+00 -0.00000000000E+00 -0.45593999997E+02  0.45594000000E+02  0.51100000000E-03 0.  1.
    9900012    2    1    2    0    0 -0.19025960614E+00  0.33632200662E+01 -0.40519426935E+02  0.50528789394E+02  0.29999785842E+02 0.  0.
         12    1    1    2    0    0  0.19025960614E+00 -0.33632200662E+01  0.40519426935E+02  0.40659210606E+02  0.00000000000E+00 0. -1.
         11    1    3    3    0    0 -0.34623497102E+01  0.36310518285E+01  0.89606232006E+00  0.50965999293E+01  0.51100000000E-03 0. -1.
        -11    1    3    3    0    0  0.98280430263E+01 -0.35121129958E+01 -0.30961291717E+02  0.32673030965E+02  0.51100000000E-03 0.  1.
        -12    1    3    3    0    0 -0.65559529222E+01  0.32442812336E+01 -0.10454197539E+02  0.12759158500E+02  0.00000000000E+00 0.  1.
</event>
<event>
 7    1  0.6889665E-012  0.5052886E+02  0.7816164E-02  0.1300439E+00
        -11   -1    0    0    0    0  0.00000000000E+00  0.00000000000E+00  0.45593999997E+02  0.45594000000E+02  0.51100000000E-03 0. -1.
         11   -1    0    0    0    0 -0.00000000000E+00 -0.00000000000E+00 -0.45593999997E+02  0.45594000000E+02  0.51100000000E-03 0.  1.
    9900012    2    1    2    0    0  0.31500358962E+01  0.40380318591E+02 -0.35599259723E+01  0.50528856765E+02  0.29999990624E+02 0.  0.
         12    1    1    2    0    0 -0.31500358962E+01 -0.40380318591E+02  0.35599259723E+01  0.40659143235E+02  0.00000000000E+00 0. -1.
         11    1    3    3    0    0  0.24543537944E+01  0.10262737643E+02  0.11233909065E+02  0.15412603597E+02  0.51100000000E-03 0. -1.
        -11    1    3    3    0    0  0.15150037403E+01  0.13093468855E+02 -0.12038726041E+02  0.17851192900E+02  0.51100000000E-03 0.  1.
         12    1    3    3    0    0 -0.81932163852E+00  0.17024112093E+02 -0.27551089965E+01  0.17265060269E+02  0.00000000000E+00 0. -1.
</event>
<event>
 7    1  0.6889665E-012  0.5052886E+02  0.7816164E-02  0.1300439E+00
        -11   -1    0    0    0    0  0.00000000000E+00  0.00000000000E+00  0.45593999997E+02  0.45594000000E+02  0.51100000000E-03 0. -1.
         11   -1    0    0    0    0 -0.00000000000E+00 -0.00000000000E+00 -0.45593999997E+02  0.45594000000E+02  0.51100000000E-03 0.  1.
    9900012    2    1    2    0    0  0.21343087061E+02 -0.10772243536E+02 -0.32887641299E+02  0.50528861467E+02  0.30000004914E+02 0.  0.
         12    1    1    2    0    0 -0.21343087061E+02  0.10772243536E+02  0.32887641299E+02  0.40659138533E+02  0.00000000000E+00 0. -1.
         11    1    3    3    0    0  0.14989668207E+02 -0.90211145068E+01 -0.89963168277E+00  0.17517990676E+02  0.51100000000E-03 0. -1.
        -11    1    3    3    0    0  0.29561143494E+01 -0.10203289817E+01 -0.25118629388E+02  0.25312550758E+02  0.51100000000E-03 0.  1.
         12    1    3    3    0    0  0.33973045037E+01 -0.73080004758E+00 -0.68693802285E+01  0.76983200326E+01  0.00000000000E+00 0. -1.
</event>
<event>
 7    1  0.6889665E-012  0.5052886E+02  0.7816164E-02  0.1300439E+00
        -11   -1    0    0    0    0  0.00000000000E+00  0.00000000000E+00  0.45593999997E+02  0.45594000000E+02  0.51100000000E-03 0.  1.
         11   -1    0    0    0    0 -0.00000000000E+00 -0.00000000000E+00 -0.45593999997E+02  0.45594000000E+02  0.51100000000E-03 0. -1.
    9900012    2    1    2    0    0  0.29679306278E+02 -0.27542381199E+02 -0.37042369529E+01  0.50528863823E+02  0.30000012077E+02 0.  0.
         12    1    1    2    0    0 -0.29679306278E+02  0.27542381199E+02  0.37042369529E+01  0.40659136177E+02  0.00000000000E+00 0. -1.
         11    1    3    3    0    0  0.27025587470E+02 -0.20917249835E+02 -0.97566526253E+01  0.35540202440E+02  0.51100000000E-03 0. -1.
        -11    1    3    3    0    0  0.98873063377E+00 -0.87224098687E+01  0.78395037620E+01  0.11769275325E+02  0.51100000000E-03 0.  1.
        -12    1    3    3    0    0  0.16649881745E+01  0.20972785053E+01 -0.17870880895E+01  0.32193860579E+01  0.00000000000E+00 0.  1.
</event>
<event>
 7    1  0.6889665E-012  0.5052886E+02  0.7816164E-02  0.1300439E+00
        -11   -1    0    0    0    0  0.00000000000E+00  0.00000000000E+00  0.45593999997E+02  0.45594000000E+02  0.51100000000E-03 0. -1.
         11   -1    0    0    0    0 -0.00000000000E+00 -0.00000000000E+00 -0.45593999997E+02  0.45594000000E+02  0.51100000000E-03 0.  1.
    9900012    2    1    2    0    0  0.83490964901E+00  0.14134926016E+02 -0.38113938381E+02  0.50528861956E+02  0.30000006400E+02 0.  0.
         12    1    1    2    0    0 -0.83490964901E+00 -0.14134926016E+02  0.38113938381E+02  0.40659138044E+02  0.00000000000E+00 0. -1.
         11    1    3    3    0    0 -0.45818185585E+01  0.26097508795E+01  0.17992570106E+01  0.55714618375E+01  0.51100000000E-03 0. -1.
        -11    1    3    3    0    0  0.52940510351E-01  0.12863993557E+02 -0.16618559034E+02  0.21015747371E+02  0.51100000000E-03 0.  1.
         12    1    3    3    0    0  0.53637876972E+01 -0.13388184206E+01 -0.23294636357E+02  0.23941652747E+02  0.00000000000E+00 0. -1.
</event>
<event>
 7    1  0.6889665E-012  0.5052886E+02  0.7816164E-02  0.1300439E+00
        -11   -1    0    0    0    0  0.00000000000E+00  0.00000000000E+00  0.45593999997E+02  0.45594000000E+02  0.51100000000E-03 0. -1.
         11   -1    0    0    0    0 -0.00000000000E+00 -0.00000000000E+00 -0.45593999997E+02  0.45594000000E+02  0.51100000000E-03 0.  1.
    9900012    2    1    2    0    0 -0.34598257414E+02  0.13088408489E+02  0.16876597610E+02  0.50528863268E+02  0.30000010390E+02 0.  0.
        -12    1    1    2    0    0  0.34598257414E+02 -0.13088408489E+02 -0.16876597610E+02  0.40659136732E+02  0.00000000000E+00 0.  1.
         11    1    3    3    0    0 -0.37403750282E+02  0.15887438084E+02  0.10965943558E+02  0.42091604179E+02  0.51100000000E-03 0. -1.
        -11    1    3    3    0    0  0.25439043995E+01  0.65992014337E-01  0.97659894950E+00  0.27257201450E+01  0.51100000000E-03 0.  1.
         12    1    3    3    0    0  0.26158846800E+00 -0.28650216090E+01  0.49340551032E+01  0.57115389439E+01  0.00000000000E+00 0. -1.
</event>
<event>
 7    1  0.6889665E-012  0.5052887E+02  0.7816164E-02  0.1300439E+00
        -11   -1    0    0    0    0  0.00000000000E+00  0.00000000000E+00  0.45593999997E+02  0.45594000000E+02  0.51100000000E-03 0. -1.
         11   -1    0    0    0    0 -0.00000000000E+00 -0.00000000000E+00 -0.45593999997E+02  0.45594000000E+02  0.51100000000E-03 0.  1.
    9900012    2    1    2    0    0  0.35795728776E+01 -0.70441069183E+01  0.39883979256E+02  0.50528873281E+02  0.30000040824E+02 0.  0.
        -12    1    1    2    0    0 -0.35795728776E+01  0.70441069183E+01 -0.39883979256E+02  0.40659126719E+02  0.00000000000E+00 0.  1.
         11    1    3    3    0    0 -0.43207974781E+01 -0.50881112992E+01  0.17294863564E+02  0.18538351421E+02  0.51100000000E-03 0. -1.
        -11    1    3    3    0    0  0.13052077078E+02  0.41315528580E+01  0.95010980689E+01  0.16664252454E+02  0.51100000000E-03 0.  1.
        -12    1    3    3    0    0 -0.51517067220E+01 -0.60875484770E+01  0.13088017623E+02  0.15326269406E+02  0.00000000000E+00 0.  1.
</event>
<event>
 7    1  0.6889665E-012  0.5052886E+02  0.7816164E-02  0.1300439E+00
        -11   -1    0    0    0    0  0.00000000000E+00  0.00000000000E+00  0.45593999997E+02  0.45594000000E+02  0.51100000000E-03 0. -1.
         11   -1    0    0    0    0 -0.00000000000E+00 -0.00000000000E+00 -0.45593999997E+02  0.45594000000E+02  0.51100000000E-03 0.  1.
    9900012    2    1    2    0    0 -0.14590056098E+01  0.30129443737E+02  0.27262671788E+02  0.50528863877E+02  0.30000012242E+02 0.  0.
        -12    1    1    2    0    0  0.14590056098E+01 -0.30129443737E+02 -0.27262671788E+02  0.40659136123E+02  0.00000000000E+00 0.  1.
         11    1    3    3    0    0 -0.31928275121E+01  0.20339456827E+02  0.17692854028E+02  0.27146357683E+02  0.51100000000E-03 0. -1.
        -11    1    3    3    0    0  0.82966508719E+01  0.93748416468E+01  0.96968955516E+00  0.12556367695E+02  0.51100000000E-03 0.  1.
        -12    1    3    3    0    0 -0.65628289696E+01  0.41514526238E+00  0.86001282041E+01  0.10826138499E+02  0.00000000000E+00 0.  1.
</event>
<event>
 7    1  0.6889665E-012  0.5052886E+02  0.7816164E-02  0.1300439E+00
        -11   -1    0    0    0    0  0.00000000000E+00  0.00000000000E+00  0.45593999997E+02  0.45594000000E+02  0.51100000000E-03 0. -1.
         11   -1    0    0    0    0 -0.00000000000E+00 -0.00000000000E+00 -0.45593999997E+02  0.45594000000E+02  0.51100000000E-03 0.  1.
    9900012    2    1    2    0    0  0.59584021687E+01  0.26472049484E+02 -0.30280256407E+02  0.50528857260E+02  0.29999992127E+02 0.  0.
         12    1    1    2    0    0 -0.59584021687E+01 -0.26472049484E+02  0.30280256407E+02  0.40659142740E+02  0.00000000000E+00 0. -1.
         11    1    3    3    0    0 -0.53838111572E+01  0.83470944169E+01 -0.27665912914E+01  0.10310840675E+02  0.51100000000E-03 0. -1.
        -11    1    3    3    0    0  0.16037997905E+02  0.12324477160E+02 -0.13429687349E+02  0.24278933597E+02  0.51100000000E-03 0.  1.
        -12    1    3    3    0    0 -0.46957845788E+01  0.58004779070E+01 -0.14083977767E+02  0.15939082988E+02  0.00000000000E+00 0.  1.
</event>
<event>
 7    1  0.6889665E-012  0.5052887E+02  0.7816164E-02  0.1300439E+00
        -11   -1    0    0    0    0  0.00000000000E+00  0.00000000000E+00  0.45593999997E+02  0.45594000000E+02  0.51100000000E-03 0. -1.
         11   -1    0    0    0    0 -0.00000000000E+00 -0.00000000000E+00 -0.45593999997E+02  0.45594000000E+02  0.51100000000E-03 0.  1.
    9900012    2    1    2    0    0 -0.18763784098E+02  0.17605130499E+01  0.36027575934E+02  0.50528865386E+02  0.30000016826E+02 0.  0.
        -12    1    1    2    0    0  0.18763784098E+02 -0.17605130499E+01 -0.36027575934E+02  0.40659134614E+02  0.00000000000E+00 0.  1.
         11    1    3    3    0    0 -0.67765615192E+01 -0.92446179195E+00  0.17565218170E+02  0.18849756106E+02  0.51100000000E-03 0. -1.
        -11    1    3    3    0    0  0.57134153613E+01  0.50332520669E+01  0.34864028161E+01  0.83744699126E+01  0.51100000000E-03 0.  1.
        -12    1    3    3    0    0 -0.17700637940E+02 -0.23482772250E+01  0.14975954949E+02  0.23304639367E+02  0.00000000000E+00 0.  1.
</event>
<event>
 7    1  0.6889665E-012  0.5052888E+02  0.7816164E-02  0.1300439E+00
        -11   -1    0    0    0    0  0.00000000000E+00  0.00000000000E+00  0.45593999997E+02  0.45594000000E+02  0.51100000000E-03 0. -1.
         11   -1    0    0    0    0 -0.00000000000E+00 -0.00000000000E+00 -0.45593999997E+02  0.45594000000E+02  0.51100000000E-03 0.  1.
    9900012    2    1    2    0    0 -0.97132200122E+01  0.18295827103E+02 -0.34986861023E+02  0.50528875850E+02  0.30000048633E+02 0.  0.
         12    1    1    2    0    0  0.97132200122E+01 -0.18295827103E+02  0.34986861023E+02  0.40659124150E+02  0.00000000000E+00 0. -1.
         11    1    3    3    0    0 -0.53915181846E+01  0.32254201814E+01 -0.31036920349E+02  0.31666421153E+02  0.51100000000E-03 0.  1.
        -11    1    3    3    0    0 -0.58652980957E+01  0.36631890084E+01 -0.10819936636E+01  0.69993846881E+01  0.51100000000E-03 0. -1.
         12    1    3    3    0    0  0.15435962681E+01  0.11407217913E+02 -0.28679470112E+01  0.11863070008E+02  0.00000000000E+00 0. -1.
</event>
<event>
 7    1  0.6889665E-012  0.5052887E+02  0.7816164E-02  0.1300439E+00
        -11   -1    0    0    0    0  0.00000000000E+00  0.00000000000E+00  0.45593999997E+02  0.45594000000E+02  0.51100000000E-03 0. -1.
         11   -1    0    0    0    0 -0.00000000000E+00 -0.00000000000E+00 -0.45593999997E+02  0.45594000000E+02  0.51100000000E-03 0.  1.
    9900012    2    1    2    0    0 -0.27827418383E+02 -0.18633458730E+02  0.23056313570E+02  0.50528873183E+02  0.30000040526E+02 0.  0.
        -12    1    1    2    0    0  0.27827418383E+02  0.18633458730E+02 -0.23056313570E+02  0.40659126817E+02  0.00000000000E+00 0.  1.
         11    1    3    3    0    0 -0.42789351862E+01 -0.94380613863E+01 -0.53326964922E+01  0.11654352886E+02  0.51100000000E-03 0.  1.
        -11    1    3    3    0    0 -0.19058110356E+02 -0.10266765440E+02  0.25407426389E+02  0.33378965815E+02  0.51100000000E-03 0. -1.
        -12    1    3    3    0    0 -0.44903728416E+01  0.10713680966E+01  0.29815836732E+01  0.54955544812E+01  0.00000000000E+00 0.  1.
</event>
<event>
 7    1  0.6889665E-012  0.5052886E+02  0.7816164E-02  0.1300439E+00
        -11   -1    0    0    0    0  0.00000000000E+00  0.00000000000E+00  0.45593999997E+02  0.45594000000E+02  0.51100000000E-03 0. -1.
         11   -1    0    0    0    0 -0.00000000000E+00 -0.00000000000E+00 -0.45593999997E+02  0.45594000000E+02  0.51100000000E-03 0.  1.
    9900012    2    1    2    0    0 -0.28064757766E+02  0.24658310518E+02 -0.16046902901E+02  0.50528855902E+02  0.29999988000E+02 0.  0.
         12    1    1    2    0    0  0.28064757766E+02 -0.24658310518E+02  0.16046902901E+02  0.40659144098E+02  0.00000000000E+00 0. -1.
         11    1    3    3    0    0 -0.23364489176E+01  0.89788863097E+01  0.56389271809E+01  0.10857112550E+02  0.51100000000E-03 0. -1.
        -11    1    3    3    0    0 -0.12054224112E+02  0.22862678860E+01 -0.15041644429E+02  0.19410883730E+02  0.51100000000E-03 0.  1.
         12    1    3    3    0    0 -0.13674084736E+02  0.13393156322E+02 -0.66441856532E+01  0.20260859622E+02  0.00000000000E+00 0. -1.
</event>
<event>
 7    1  0.6889665E-012  0.5052888E+02  0.7816164E-02  0.1300439E+00
        -11   -1    0    0    0    0  0.00000000000E+00  0.00000000000E+00  0.45593999997E+02  0.45594000000E+02  0.51100000000E-03 0. -1.
         11   -1    0    0    0    0 -0.00000000000E+00 -0.00000000000E+00 -0.45593999997E+02  0.45594000000E+02  0.51100000000E-03 0.  1.
    9900012    2    1    2    0    0 -0.15109429376E+01 -0.23103666325E+02 -0.33423067428E+02  0.50528883156E+02  0.30000070841E+02 0.  0.
         12    1    1    2    0    0  0.15109429376E+01  0.23103666325E+02  0.33423067428E+02  0.40659116844E+02  0.00000000000E+00 0. -1.
         11    1    3    3    0    0  0.24723378165E+01 -0.24303259844E+02 -0.10668319305E+02  0.26656592625E+02  0.51100000000E-03 0. -1.
        -11    1    3    3    0    0 -0.32980457333E+01  0.33668005507E+01 -0.17927967548E+02  0.18537110677E+02  0.51100000000E-03 0.  1.
         12    1    3    3    0    0 -0.68523502077E+00 -0.21672070315E+01 -0.48267805754E+01  0.53351798540E+01  0.00000000000E+00 0. -1.
</event>
<event>
 7    1  0.6889665E-012  0.5052887E+02  0.7816164E-02  0.1300439E+00
        -11   -1    0    0    0    0  0.00000000000E+00  0.00000000000E+00  0.45593999997E+02  0.45594000000E+02  0.51100000000E-03 0. -1.
         11   -1    0    0    0    0 -0.00000000000E+00 -0.00000000000E+00 -0.45593999997E+02  0.45594000000E+02  0.51100000000E-03 0.  1.
    9900012    2    1    2    0    0 -0.40916224942E+01  0.35018266480E+02 -0.20252027857E+02  0.50528868255E+02  0.30000025549E+02 0.  0.
         12    1    1    2    0    0  0.40916224942E+01 -0.35018266480E+02  0.20252027857E+02  0.40659131745E+02  0.00000000000E+00 0. -1.
         11    1    3    3    0    0  0.39683178951E+01  0.16595330399E+02 -0.17643760361E+02  0.24544955040E+02  0.51100000000E-03 0.  1.
        -11    1    3    3    0    0 -0.20010754757E+01  0.25230375902E+01  0.60790472693E+01  0.68793050307E+01  0.51100000000E-03 0. -1.
         12    1    3    3    0    0 -0.60588649136E+01  0.15899898491E+02 -0.86873147649E+01  0.19104608185E+02  0.00000000000E+00 0. -1.
</event>
<event>
 7    1  0.6889665E-012  0.5052886E+02  0.7816164E-02  0.1300439E+00
        -11   -1    0    0    0    0  0.00000000000E+00  0.00000000000E+00  0.45593999997E+02  0.45594000000E+02  0.51100000000E-03 0. -1.
         11   -1    0    0    0    0 -0.00000000000E+00 -0.00000000000E+00 -0.45593999997E+02  0.45594000000E+02  0.51100000000E-03 0.  1.
    9900012    2    1    2    0    0 -0.79277446352E+01 -0.33478486014E+02 -0.21668115540E+02  0.50528863366E+02  0.30000010688E+02 0.  0.
         12    1    1    2    0    0  0.79277446352E+01  0.33478486014E+02  0.21668115540E+02  0.40659136634E+02  0.00000000000E+00 0. -1.
         11    1    3    3    0    0 -0.16628701888E+02 -0.16077373875E+02 -0.18377612966E+02  0.29542043528E+02  0.51100000000E-03 0. -1.
        -11    1    3    3    0    0  0.23324745165E+00 -0.70272543585E+01  0.55950227051E+00  0.70533503560E+01  0.51100000000E-03 0.  1.
         12    1    3    3    0    0  0.84677098014E+01 -0.10373857780E+02 -0.38500048444E+01  0.13933469482E+02  0.00000000000E+00 0. -1.
</event>
<event>
 7    1  0.6889665E-012  0.5052886E+02  0.7816164E-02  0.1300439E+00
        -11   -1    0    0    0    0  0.00000000000E+00  0.00000000000E+00  0.45593999997E+02  0.45594000000E+02  0.51100000000E-03 0. -1.
         11   -1    0    0    0    0 -0.00000000000E+00 -0.00000000000E+00 -0.45593999997E+02  0.45594000000E+02  0.51100000000E-03 0.  1.
    9900012    2    1    2    0    0  0.67749264454E+00 -0.16456110199E+02  0.37173955166E+02  0.50528862013E+02  0.30000006574E+02 0.  0.
        -12    1    1    2    0    0 -0.67749264454E+00  0.16456110199E+02 -0.37173955166E+02  0.40659137987E+02  0.00000000000E+00 0.  1.
         11    1    3    3    0    0 -0.26811423941E+01  0.29671718499E+01  0.37010855011E+01  0.54489143388E+01  0.51100000000E-03 0. -1.
        -11    1    3    3    0    0  0.65087755283E+01 -0.22831488669E+02  0.32645947604E+02  0.40365813865E+02  0.51100000000E-03 0.  1.
        -12    1    3    3    0    0 -0.31501404896E+01  0.34082066208E+01  0.82692206134E+00  0.47141338091E+01  0.00000000000E+00 0.  1.
</event>
<event>
 7    1  0.6889665E-012  0.5052888E+02  0.7816164E-02  0.1300439E+00
        -11   -1    0    0    0    0  0.00000000000E+00  0.00000000000E+00  0.45593999997E+02  0.45594000000E+02  0.51100000000E-03 0. -1.
         11   -1    0    0    0    0 -0.00000000000E+00 -0.00000000000E+00 -0.45593999997E+02  0.45594000000E+02  0.51100000000E-03 0.  1.
    9900012    2    1    2    0    0 -0.11895525530E+02  0.27423115175E+02 -0.27561451207E+02  0.50528875979E+02  0.30000049025E+02 0.  0.
         12    1    1    2    0    0  0.11895525530E+02 -0.27423115175E+02  0.27561451207E+02  0.40659124021E+02  0.00000000000E+00 0. -1.
         11    1    3    3    0    0  0.30388459825E+01  0.56632765477E+01  0.52797800207E+01  0.83176537250E+01  0.51100000000E-03 0. -1.
        -11    1    3    3    0    0 -0.70365106290E+01  0.83987690584E+01 -0.12441880323E+02  0.16578666706E+02  0.51100000000E-03 0.  1.
         12    1    3    3    0    0 -0.78978608831E+01  0.13361069569E+02 -0.20399350904E+02  0.25632555547E+02  0.00000000000E+00 0. -1.
</event>
<event>
 7    1  0.6889665E-012  0.5052889E+02  0.7816164E-02  0.1300439E+00
        -11   -1    0    0    0    0  0.00000000000E+00  0.00000000000E+00  0.45593999997E+02  0.45594000000E+02  0.51100000000E-03 0. -1.
         11   -1    0    0    0    0 -0.00000000000E+00 -0.00000000000E+00 -0.45593999997E+02  0.45594000000E+02  0.51100000000E-03 0.  1.
    9900012    2    1    2    0    0  0.37487110558E+02 -0.50717494811E+01  0.14904948546E+02  0.50528885500E+02  0.30000077966E+02 0.  0.
        -12    1    1    2    0    0 -0.37487110558E+02  0.50717494811E+01 -0.14904948546E+02  0.40659114500E+02  0.00000000000E+00 0.  1.
         11    1    3    3    0    0  0.34217374408E+02 -0.97050419426E+01  0.57092166288E+01  0.36022377840E+02  0.51100000000E-03 0. -1.
        -11    1    3    3    0    0 -0.28445484745E+00  0.67830046861E+01  0.40947480681E+01  0.79282424997E+01  0.51100000000E-03 0.  1.
        -12    1    3    3    0    0  0.35541909974E+01 -0.21497122246E+01  0.51009838491E+01  0.65782651606E+01  0.00000000000E+00 0.  1.
</event>
<event>
 7    1  0.6889665E-012  0.5052885E+02  0.7816164E-02  0.1300439E+00
        -11   -1    0    0    0    0  0.00000000000E+00  0.00000000000E+00  0.45593999997E+02  0.45594000000E+02  0.51100000000E-03 0. -1.
         11   -1    0    0    0    0 -0.00000000000E+00 -0.00000000000E+00 -0.45593999997E+02  0.45594000000E+02  0.51100000000E-03 0.  1.
    9900012    2    1    2    0    0  0.20582484725E+02 -0.16532063201E+02  0.30922792244E+02  0.50528845172E+02  0.29999955384E+02 0.  0.
        -12    1    1    2    0    0 -0.20582484725E+02  0.16532063201E+02 -0.30922792244E+02  0.40659154828E+02  0.00000000000E+00 0.  1.
         11    1    3    3    0    0  0.23735447429E+01 -0.60422788526E+01  0.22465732794E+02  0.23384866871E+02  0.51100000000E-03 0. -1.
        -11    1    3    3    0    0  0.20749100081E+02 -0.87742432098E+01  0.62886186323E+01  0.23389297181E+02  0.51100000000E-03 0.  1.
         12    1    3    3    0    0 -0.25401600984E+01 -0.17155411389E+01  0.21684408185E+01  0.37546811194E+01  0.00000000000E+00 0. -1.
</event>
<event>
 7    1  0.6889665E-012  0.5052882E+02  0.7816164E-02  0.1300439E+00
        -11   -1    0    0    0    0  0.00000000000E+00  0.00000000000E+00  0.45593999997E+02  0.45594000000E+02  0.51100000000E-03 0. -1.
         11   -1    0    0    0    0 -0.00000000000E+00 -0.00000000000E+00 -0.45593999997E+02  0.45594000000E+02  0.51100000000E-03 0.  1.
    9900012    2    1    2    0    0  0.80527313021E+01 -0.28879700683E+02 -0.27464259823E+02  0.50528817020E+02  0.29999869815E+02 0.  0.
         12    1    1    2    0    0 -0.80527313021E+01  0.28879700683E+02  0.27464259823E+02  0.40659182980E+02  0.00000000000E+00 0. -1.
         11    1    3    3    0    0  0.46538369712E+01 -0.18578786624E+02 -0.19230275094E-01  0.19152803478E+02  0.51100000000E-03 0. -1.
        -11    1    3    3    0    0 -0.19434007844E+01 -0.95224772251E+01 -0.19219703897E+02  0.21537209598E+02  0.51100000000E-03 0.  1.
         12    1    3    3    0    0  0.53422951153E+01 -0.77843683318E+00 -0.82253256509E+01  0.98388039449E+01  0.00000000000E+00 0. -1.
</event>
<event>
 7    1  0.6889665E-012  0.5052886E+02  0.7816164E-02  0.1300439E+00
        -11   -1    0    0    0    0  0.00000000000E+00  0.00000000000E+00  0.45593999997E+02  0.45594000000E+02  0.51100000000E-03 0. -1.
         11   -1    0    0    0    0 -0.00000000000E+00 -0.00000000000E+00 -0.45593999997E+02  0.45594000000E+02  0.51100000000E-03 0.  1.
    9900012    2    1    2    0    0 -0.16334299369E+02  0.37013243436E+02 -0.40467869569E+01  0.50528855762E+02  0.29999987574E+02 0.  0.
         12    1    1    2    0    0  0.16334299369E+02 -0.37013243436E+02  0.40467869569E+01  0.40659144238E+02  0.00000000000E+00 0. -1.
         11    1    3    3    0    0  0.81575839159E+01  0.46074593852E+01  0.11051970373E-02  0.93688237690E+01  0.51100000000E-03 0. -1.
        -11    1    3    3    0    0 -0.17307951303E+02  0.26425947753E+02 -0.37134042076E+01  0.31807000236E+02  0.51100000000E-03 0.  1.
         12    1    3    3    0    0 -0.71839319818E+01  0.59798362972E+01 -0.33448794635E+00  0.93530317569E+01  0.00000000000E+00 0. -1.
</event>
<event>
 7    1  0.6889665E-012  0.5052886E+02  0.7816164E-02  0.1300439E+00
        -11   -1    0    0    0    0  0.00000000000E+00  0.00000000000E+00  0.45593999997E+02  0.45594000000E+02  0.51100000000E-03 0.  1.
         11   -1    0    0    0    0 -0.00000000000E+00 -0.00000000000E+00 -0.45593999997E+02  0.45594000000E+02  0.51100000000E-03 0. -1.
    9900012    2    1    2    0    0  0.29403021169E+02  0.21737816850E+02  0.17779073256E+02  0.50528858578E+02  0.29999996134E+02 0.  0.
        -12    1    1    2    0    0 -0.29403021169E+02 -0.21737816850E+02 -0.17779073256E+02  0.40659141422E+02  0.00000000000E+00 0.  1.
         11    1    3    3    0    0  0.30875587713E+02  0.87998865454E+01  0.18838476342E+02  0.37224025991E+02  0.51100000000E-03 0. -1.
        -11    1    3    3    0    0 -0.13323431168E+01  0.84846523557E+01  0.45056814292E+00  0.86004346222E+01  0.51100000000E-03 0.  1.
         12    1    3    3    0    0 -0.14022342723E+00  0.44532779492E+01 -0.15099712280E+01  0.47043979649E+01  0.00000000000E+00 0. -1.
</event>
<event>
 7    1  0.6889665E-012  0.5052886E+02  0.7816164E-02  0.1300439E+00
        -11   -1    0    0    0    0  0.00000000000E+00  0.00000000000E+00  0.45593999997E+02  0.45594000000E+02  0.51100000000E-03 0. -1.
         11   -1    0    0    0    0 -0.00000000000E+00 -0.00000000000E+00 -0.45593999997E+02  0.45594000000E+02  0.51100000000E-03 0.  1.
    9900012    2    1    2    0    0 -0.33025265059E+02 -0.46420324666E+01  0.23258311563E+02  0.50528860137E+02  0.30000000872E+02 0.  0.
        -12    1    1    2    0    0  0.33025265059E+02  0.46420324666E+01 -0.23258311563E+02  0.40659139863E+02  0.00000000000E+00 0.  1.
         11    1    3    3    0    0 -0.14104412905E+02  0.71490385522E+00  0.23241031062E+02  0.27195423806E+02  0.51100000000E-03 0. -1.
        -11    1    3    3    0    0 -0.20297010572E+02 -0.56569654834E+01  0.16999755298E+01  0.21139058959E+02  0.51100000000E-03 0.  1.
         12    1    3    3    0    0  0.13761584177E+01  0.30002916155E+00 -0.16826950283E+01  0.21943773711E+01  0.00000000000E+00 0. -1.
</event>
<event>
 7    1  0.6889665E-012  0.5052885E+02  0.7816164E-02  0.1300439E+00
        -11   -1    0    0    0    0  0.00000000000E+00  0.00000000000E+00  0.45593999997E+02  0.45594000000E+02  0.51100000000E-03 0. -1.
         11   -1    0    0    0    0 -0.00000000000E+00 -0.00000000000E+00 -0.45593999997E+02  0.45594000000E+02  0.51100000000E-03 0.  1.
    9900012    2    1    2    0    0  0.14674509882E+02 -0.95231081708E+01  0.36703345635E+02  0.50528850842E+02  0.29999972618E+02 0.  0.
        -12    1    1    2    0    0 -0.14674509882E+02  0.95231081708E+01 -0.36703345635E+02  0.40659149158E+02  0.00000000000E+00 0.  1.
         11    1    3    3    0    0  0.50633849115E+01 -0.12587456788E+02  0.13060044007E+02  0.18832065338E+02  0.51100000000E-03 0. -1.
        -11    1    3    3    0    0 -0.12782575844E+01  0.87210411961E+01  0.10663301616E+02  0.13834612521E+02  0.51100000000E-03 0.  1.
         12    1    3    3    0    0  0.10889382555E+02 -0.56566925787E+01  0.12980000012E+02  0.17862172983E+02  0.00000000000E+00 0. -1.
</event>
<event>
 7    1  0.6889665E-012  0.5052886E+02  0.7816164E-02  0.1300439E+00
        -11   -1    0    0    0    0  0.00000000000E+00  0.00000000000E+00  0.45593999997E+02  0.45594000000E+02  0.51100000000E-03 0. -1.
         11   -1    0    0    0    0 -0.00000000000E+00 -0.00000000000E+00 -0.45593999997E+02  0.45594000000E+02  0.51100000000E-03 0.  1.
    9900012    2    1    2    0    0  0.93723636072E+01  0.28578222237E+02 -0.27360732057E+02  0.50528860259E+02  0.30000001242E+02 0.  0.
         12    1    1    2    0    0 -0.93723636072E+01 -0.28578222237E+02  0.27360732057E+02  0.40659139741E+02  0.00000000000E+00 0. -1.
         11    1    3    3    0    0 -0.44809014916E+01 -0.17633682622E+01 -0.64662502312E+01  0.80622787176E+01  0.51100000000E-03 0. -1.
        -11    1    3    3    0    0  0.16203548722E+02  0.17856311851E+02 -0.15497905870E+02  0.28663355538E+02  0.51100000000E-03 0.  1.
         12    1    3    3    0    0 -0.23502836234E+01  0.12485278648E+02 -0.53965759559E+01  0.13803226003E+02  0.00000000000E+00 0. -1.
</event>
<event>
 7    1  0.6889665E-012  0.5052889E+02  0.7816164E-02  0.1300439E+00
        -11   -1    0    0    0    0  0.00000000000E+00  0.00000000000E+00  0.45593999997E+02  0.45594000000E+02  0.51100000000E-03 0. -1.
         11   -1    0    0    0    0 -0.00000000000E+00 -0.00000000000E+00 -0.45593999997E+02  0.45594000000E+02  0.51100000000E-03 0.  1.
    9900012    2    1    2    0    0  0.36901200466E+02  0.56650705721E+01 -0.16105018466E+02  0.50528889825E+02  0.30000091113E+02 0.  0.
         12    1    1    2    0    0 -0.36901200466E+02 -0.56650705721E+01  0.16105018466E+02  0.40659110175E+02  0.00000000000E+00 0. -1.
         11    1    3    3    0    0  0.13789202823E+02 -0.94447393208E+01 -0.12664647043E+02  0.20969942783E+02  0.51100000000E-03 0. -1.
        -11    1    3    3    0    0  0.55447643358E+01  0.85579545639E+01  0.11330636563E+01  0.10259962542E+02  0.51100000000E-03 0.  1.
        -12    1    3    3    0    0  0.17567233307E+02  0.65518553290E+01 -0.45734350788E+01  0.19298984500E+02  0.00000000000E+00 0.  1.
</event>
<event>
 7    1  0.6889665E-012  0.5052886E+02  0.7816164E-02  0.1300439E+00
        -11   -1    0    0    0    0  0.00000000000E+00  0.00000000000E+00  0.45593999997E+02  0.45594000000E+02  0.51100000000E-03 0. -1.
         11   -1    0    0    0    0 -0.00000000000E+00 -0.00000000000E+00 -0.45593999997E+02  0.45594000000E+02  0.51100000000E-03 0.  1.
    9900012    2    1    2    0    0 -0.85814261674E+01 -0.14533892445E+02  0.36990414248E+02  0.50528860180E+02  0.30000001002E+02 0.  0.
        -12    1    1    2    0    0  0.85814261674E+01  0.14533892445E+02 -0.36990414248E+02  0.40659139820E+02  0.00000000000E+00 0.  1.
         11    1    3    3    0    0 -0.84585594808E+01 -0.13238208107E+02  0.29012952697E+02  0.32993163032E+02  0.51100000000E-03 0. -1.
        -11    1    3    3    0    0 -0.53502212632E+01  0.50153194285E+01  0.28422869801E+01  0.78649152617E+01  0.51100000000E-03 0.  1.
        -12    1    3    3    0    0  0.52273545767E+01 -0.63110037667E+01  0.51351745709E+01  0.96707818860E+01  0.00000000000E+00 0.  1.
</event>
<event>
 7    1  0.6889665E-012  0.5052887E+02  0.7816164E-02  0.1300439E+00
        -11   -1    0    0    0    0  0.00000000000E+00  0.00000000000E+00  0.45593999997E+02  0.45594000000E+02  0.51100000000E-03 0. -1.
         11   -1    0    0    0    0 -0.00000000000E+00 -0.00000000000E+00 -0.45593999997E+02  0.45594000000E+02  0.51100000000E-03 0.  1.
    9900012    2    1    2    0    0  0.14614748562E+02 -0.14774499145E+01  0.37912944015E+02  0.50528867475E+02  0.30000023177E+02 0.  0.
        -12    1    1    2    0    0 -0.14614748562E+02  0.14774499145E+01 -0.37912944015E+02  0.40659132525E+02  0.00000000000E+00 0.  1.
         11    1    3    3    0    0 -0.26247225937E+01 -0.83353960187E+01  0.42174222842E+01  0.97033317199E+01  0.51100000000E-03 0.  1.
        -11    1    3    3    0    0  0.17967692789E+02  0.86288481606E+01  0.25268557093E+02  0.32183768930E+02  0.51100000000E-03 0. -1.
         12    1    3    3    0    0 -0.72822163367E+00 -0.17709020564E+01  0.84269646382E+01  0.86417668248E+01  0.00000000000E+00 0. -1.
</event>
<event>
 7    1  0.6889665E-012  0.5052885E+02  0.7816164E-02  0.1300439E+00
        -11   -1    0    0    0    0  0.00000000000E+00  0.00000000000E+00  0.45593999997E+02  0.45594000000E+02  0.51100000000E-03 0. -1.
         11   -1    0    0    0    0 -0.00000000000E+00 -0.00000000000E+00 -0.45593999997E+02  0.45594000000E+02  0.51100000000E-03 0.  1.
    9900012    2    1    2    0    0  0.30635353987E+02  0.22422959984E+01 -0.26638571837E+02  0.50528852016E+02  0.29999976189E+02 0.  0.
         12    1    1    2    0    0 -0.30635353987E+02 -0.22422959984E+01  0.26638571837E+02  0.40659147984E+02  0.00000000000E+00 0. -1.
         11    1    3    3    0    0  0.28569822924E+02  0.64239151338E+01 -0.83551914578E+01  0.30451776502E+02  0.51100000000E-03 0.  1.
        -11    1    3    3    0    0  0.19891112147E+00 -0.55760281462E+01 -0.15339448435E+02  0.16322693837E+02  0.51100000000E-03 0. -1.
         12    1    3    3    0    0  0.18666199412E+01  0.13944090107E+01 -0.29439319440E+01  0.37543816781E+01  0.00000000000E+00 0. -1.
</event>
<event>
 7    1  0.6889665E-012  0.5052883E+02  0.7816164E-02  0.1300439E+00
        -11   -1    0    0    0    0  0.00000000000E+00  0.00000000000E+00  0.45593999997E+02  0.45594000000E+02  0.51100000000E-03 0. -1.
         11   -1    0    0    0    0 -0.00000000000E+00 -0.00000000000E+00 -0.45593999997E+02  0.45594000000E+02  0.51100000000E-03 0.  1.
    9900012    2    1    2    0    0 -0.18543935885E+02 -0.92641011290E+01  0.34978090661E+02  0.50528831856E+02  0.29999914910E+02 0.  0.
        -12    1    1    2    0    0  0.18543935885E+02  0.92641011290E+01 -0.34978090661E+02  0.40659168144E+02  0.00000000000E+00 0.  1.
         11    1    3    3    0    0 -0.22279341865E+02 -0.27235492525E+01  0.22481697721E+02  0.31768121240E+02  0.51100000000E-03 0. -1.
        -11    1    3    3    0    0  0.71342668486E+01 -0.46462132705E+01  0.39813645684E+01  0.93987406236E+01  0.51100000000E-03 0.  1.
         12    1    3    3    0    0 -0.33988608683E+01 -0.18943386060E+01  0.85150283722E+01  0.93619699922E+01  0.00000000000E+00 0. -1.
</event>
<event>
 7    1  0.6889665E-012  0.5052886E+02  0.7816164E-02  0.1300439E+00
        -11   -1    0    0    0    0  0.00000000000E+00  0.00000000000E+00  0.45593999997E+02  0.45594000000E+02  0.51100000000E-03 0. -1.
         11   -1    0    0    0    0 -0.00000000000E+00 -0.00000000000E+00 -0.45593999997E+02  0.45594000000E+02  0.51100000000E-03 0.  1.
    9900012    2    1    2    0    0  0.13364766691E+02  0.11556334772E+02  0.36619664394E+02  0.50528859793E+02  0.29999999827E+02 0.  0.
        -12    1    1    2    0    0 -0.13364766691E+02 -0.11556334772E+02 -0.36619664394E+02  0.40659140207E+02  0.00000000000E+00 0.  1.
         11    1    3    3    0    0  0.14855574716E+02 -0.38819466014E+00  0.26657877551E+02  0.30520177441E+02  0.51100000000E-03 0. -1.
        -11    1    3    3    0    0  0.40186110078E+01  0.10241087110E+02  0.88874835496E+01  0.14142717693E+02  0.51100000000E-03 0.  1.
         12    1    3    3    0    0 -0.55094190323E+01  0.17034423216E+01  0.10743032929E+01  0.58659646591E+01  0.00000000000E+00 0. -1.
</event>
<event>
 7    1  0.6972024E-012  0.5052886E+02  0.7816164E-02  0.1300439E+00
        -11   -1    0    0    0    0  0.00000000000E+00  0.00000000000E+00  0.45593999997E+02  0.45594000000E+02  0.51100000000E-03 0. -1.
         11   -1    0    0    0    0 -0.00000000000E+00 -0.00000000000E+00 -0.45593999997E+02  0.45594000000E+02  0.51100000000E-03 0.  1.
    9900012    2    1    2    0    0  0.17472570595E+02  0.10563799459E+02 -0.35160784067E+02  0.50528864268E+02  0.30000013430E+02 0.  0.
         12    1    1    2    0    0 -0.17472570595E+02 -0.10563799459E+02  0.35160784067E+02  0.40659135732E+02  0.00000000000E+00 0. -1.
         11    1    3    3    0    0 -0.24501642093E+01  0.20206121514E+01 -0.65612489088E+01  0.72894557837E+01  0.51100000000E-03 0. -1.
        -11    1    3    3    0    0  0.18646620774E+02  0.16093121027E+02 -0.20028665568E+02  0.31746377043E+02  0.51100000000E-03 0.  1.
        -12    1    3    3    0    0  0.12761140305E+01 -0.75499337187E+01 -0.85708695906E+01  0.11493031442E+02  0.00000000000E+00 0.  1.
</event>
<event>
 7    1  0.6889665E-012  0.5052886E+02  0.7816164E-02  0.1300439E+00
        -11   -1    0    0    0    0  0.00000000000E+00  0.00000000000E+00  0.45593999997E+02  0.45594000000E+02  0.51100000000E-03 0. -1.
         11   -1    0    0    0    0 -0.00000000000E+00 -0.00000000000E+00 -0.45593999997E+02  0.45594000000E+02  0.51100000000E-03 0.  1.
    9900012    2    1    2    0    0 -0.39690560874E+02  0.19260746509E+01 -0.86090312426E+01  0.50528858285E+02  0.29999995243E+02 0.  0.
         12    1    1    2    0    0  0.39690560874E+02 -0.19260746509E+01  0.86090312426E+01  0.40659141715E+02  0.00000000000E+00 0. -1.
         11    1    3    3    0    0 -0.13832440459E+02  0.29772925596E+01 -0.12437186197E+02  0.18838372562E+02  0.51100000000E-03 0. -1.
        -11    1    3    3    0    0 -0.29471386812E+01 -0.15665825939E+01  0.77522103679E+01  0.84401761403E+01  0.51100000000E-03 0.  1.
        -12    1    3    3    0    0 -0.22910981734E+02  0.51536468527E+00 -0.39240554133E+01  0.23250309582E+02  0.00000000000E+00 0.  1.
</event>
<event>
 7    1  0.6889665E-012  0.5052885E+02  0.7816164E-02  0.1300439E+00
        -11   -1    0    0    0    0  0.00000000000E+00  0.00000000000E+00  0.45593999997E+02  0.45594000000E+02  0.51100000000E-03 0. -1.
         11   -1    0    0    0    0 -0.00000000000E+00 -0.00000000000E+00 -0.45593999997E+02  0.45594000000E+02  0.51100000000E-03 0.  1.
    9900012    2    1    2    0    0 -0.23080000245E+02 -0.27003826604E+00 -0.33472479037E+02  0.50528853614E+02  0.29999981046E+02 0.  0.
         12    1    1    2    0    0  0.23080000245E+02  0.27003826604E+00  0.33472479037E+02  0.40659146386E+02  0.00000000000E+00 0. -1.
         11    1    3    3    0    0 -0.92985022097E+01 -0.59195384672E+00 -0.33892356743E+01  0.99146089896E+01  0.51100000000E-03 0. -1.
        -11    1    3    3    0    0 -0.76464976786E+01  0.76336598638E+01 -0.29073585444E+02  0.31016367622E+02  0.51100000000E-03 0.  1.
        -12    1    3    3    0    0 -0.61350003566E+01 -0.73117442831E+01 -0.10096579183E+01  0.95978770022E+01  0.00000000000E+00 0.  1.
</event>
<event>
 7    1  0.6889665E-012  0.5052885E+02  0.7816164E-02  0.1300439E+00
        -11   -1    0    0    0    0  0.00000000000E+00  0.00000000000E+00  0.45593999997E+02  0.45594000000E+02  0.51100000000E-03 0. -1.
         11   -1    0    0    0    0 -0.00000000000E+00 -0.00000000000E+00 -0.45593999997E+02  0.45594000000E+02  0.51100000000E-03 0.  1.
    9900012    2    1    2    0    0 -0.38854757998E+01 -0.95321102077E+01 -0.39334568682E+02  0.50528851699E+02  0.29999975224E+02 0.  0.
         12    1    1    2    0    0  0.38854757998E+01  0.95321102077E+01  0.39334568682E+02  0.40659148301E+02  0.00000000000E+00 0. -1.
         11    1    3    3    0    0  0.38973832706E+01 -0.15776883946E+02 -0.15341118080E+02  0.22348368343E+02  0.51100000000E-03 0. -1.
        -11    1    3    3    0    0  0.17058402967E+01  0.47760879645E+01 -0.67360147691E+01  0.84317733955E+01  0.51100000000E-03 0.  1.
         12    1    3    3    0    0 -0.94886993672E+01  0.14686857738E+01 -0.17257435832E+02  0.19748709960E+02  0.00000000000E+00 0. -1.
</event>
<event>
 7    1  0.8102788E-012  0.5052883E+02  0.7816164E-02  0.1300439E+00
        -11   -1    0    0    0    0  0.00000000000E+00  0.00000000000E+00  0.45593999997E+02  0.45594000000E+02  0.51100000000E-03 0. -1.
         11   -1    0    0    0    0 -0.00000000000E+00 -0.00000000000E+00 -0.45593999997E+02  0.45594000000E+02  0.51100000000E-03 0.  1.
    9900012    2    1    2    0    0  0.17007164028E+02  0.15992316349E+02 -0.33289192234E+02  0.50528829693E+02  0.29999908334E+02 0.  0.
         12    1    1    2    0    0 -0.17007164028E+02 -0.15992316349E+02  0.33289192234E+02  0.40659170307E+02  0.00000000000E+00 0. -1.
         11    1    3    3    0    0 -0.53733746212E+01  0.11675297819E+01 -0.52695473855E+01  0.76160626652E+01  0.51100000000E-03 0. -1.
        -11    1    3    3    0    0  0.16235539894E+02  0.27765614000E+01 -0.69537693847E+01  0.17878952927E+02  0.51100000000E-03 0.  1.
        -12    1    3    3    0    0  0.61449987558E+01  0.12048225167E+02 -0.21065875463E+02  0.25033814101E+02  0.00000000000E+00 0.  1.
</event>
<event>
 7    1  0.6889665E-012  0.5052886E+02  0.7816164E-02  0.1300439E+00
        -11   -1    0    0    0    0  0.00000000000E+00  0.00000000000E+00  0.45593999997E+02  0.45594000000E+02  0.51100000000E-03 0. -1.
         11   -1    0    0    0    0 -0.00000000000E+00 -0.00000000000E+00 -0.45593999997E+02  0.45594000000E+02  0.51100000000E-03 0.  1.
    9900012    2    1    2    0    0  0.12797811031E+02  0.19961858458E+02  0.33028865787E+02  0.50528859140E+02  0.29999997842E+02 0.  0.
        -12    1    1    2    0    0 -0.12797811031E+02 -0.19961858458E+02 -0.33028865787E+02  0.40659140860E+02  0.00000000000E+00 0.  1.
         11    1    3    3    0    0  0.19074273254E+02  0.18099879542E+02  0.14452035165E+02  0.30004913935E+02  0.51100000000E-03 0. -1.
        -11    1    3    3    0    0 -0.23725056624E+01  0.25417450416E+00  0.14359460740E+02  0.14556356028E+02  0.51100000000E-03 0.  1.
        -12    1    3    3    0    0 -0.39039565612E+01  0.16078044123E+01  0.42173698819E+01  0.59675891766E+01  0.00000000000E+00 0.  1.
</event>
<event>
 7    1  0.6889665E-012  0.5052886E+02  0.7816164E-02  0.1300439E+00
        -11   -1    0    0    0    0  0.00000000000E+00  0.00000000000E+00  0.45593999997E+02  0.45594000000E+02  0.51100000000E-03 0. -1.
         11   -1    0    0    0    0 -0.00000000000E+00 -0.00000000000E+00 -0.45593999997E+02  0.45594000000E+02  0.51100000000E-03 0.  1.
    9900012    2    1    2    0    0  0.17844859566E+02 -0.22643882517E+02  0.28670216530E+02  0.50528859033E+02  0.29999997515E+02 0.  0.
        -12    1    1    2    0    0 -0.17844859566E+02  0.22643882517E+02 -0.28670216530E+02  0.40659140967E+02  0.00000000000E+00 0.  1.
         11    1    3    3    0    0  0.15239369213E+02 -0.22774911786E+02  0.14862503444E+02  0.31174171838E+02  0.51100000000E-03 0. -1.
        -11    1    3    3    0    0 -0.41648431995E+01  0.23424556651E+01  0.12848867045E+01  0.49481260618E+01  0.51100000000E-03 0.  1.
        -12    1    3    3    0    0  0.67703335521E+01 -0.22114263959E+01  0.12522826381E+02  0.14406561133E+02  0.00000000000E+00 0.  1.
</event>
<event>
 7    1  0.6889665E-012  0.5052885E+02  0.7816164E-02  0.1300439E+00
        -11   -1    0    0    0    0  0.00000000000E+00  0.00000000000E+00  0.45593999997E+02  0.45594000000E+02  0.51100000000E-03 0. -1.
         11   -1    0    0    0    0 -0.00000000000E+00 -0.00000000000E+00 -0.45593999997E+02  0.45594000000E+02  0.51100000000E-03 0.  1.
    9900012    2    1    2    0    0 -0.31012251152E+02  0.14543455445E+02 -0.21906491300E+02  0.50528853687E+02  0.29999981267E+02 0.  0.
         12    1    1    2    0    0  0.31012251152E+02 -0.14543455445E+02  0.21906491300E+02  0.40659146313E+02  0.00000000000E+00 0. -1.
         11    1    3    3    0    0 -0.40794277473E+00  0.38102089025E+01  0.54683677470E+01  0.66773613999E+01  0.51100000000E-03 0. -1.
        -11    1    3    3    0    0 -0.24839806927E+02  0.12631855581E+02 -0.20004636795E+02  0.34304012552E+02  0.51100000000E-03 0.  1.
         12    1    3    3    0    0 -0.57645014507E+01 -0.18986090383E+01 -0.73702222518E+01  0.95474797353E+01  0.00000000000E+00 0. -1.
</event>
<event>
 7    1  0.6889665E-012  0.5052886E+02  0.7816164E-02  0.1300439E+00
        -11   -1    0    0    0    0  0.00000000000E+00  0.00000000000E+00  0.45593999997E+02  0.45594000000E+02  0.51100000000E-03 0.  1.
         11   -1    0    0    0    0 -0.00000000000E+00 -0.00000000000E+00 -0.45593999997E+02  0.45594000000E+02  0.51100000000E-03 0. -1.
    9900012    2    1    2    0    0  0.16918865984E+02  0.16112220232E+02  0.33276328046E+02  0.50528859881E+02  0.30000000095E+02 0.  0.
        -12    1    1    2    0    0 -0.16918865984E+02 -0.16112220232E+02 -0.33276328046E+02  0.40659140119E+02  0.00000000000E+00 0.  1.
         11    1    3    3    0    0  0.22466925913E+02  0.12512382545E+02  0.28972594505E+02  0.38739304454E+02  0.51100000000E-03 0. -1.
        -11    1    3    3    0    0 -0.30474969492E+01  0.74955276851E+00 -0.24921396291E+01  0.40074714222E+01  0.51100000000E-03 0.  1.
         12    1    3    3    0    0 -0.25005629792E+01  0.28502849187E+01  0.67958731695E+01  0.77820840054E+01  0.00000000000E+00 0. -1.
</event>
<event>
 7    1  0.6889665E-012  0.5052886E+02  0.7816164E-02  0.1300439E+00
        -11   -1    0    0    0    0  0.00000000000E+00  0.00000000000E+00  0.45593999997E+02  0.45594000000E+02  0.51100000000E-03 0. -1.
         11   -1    0    0    0    0 -0.00000000000E+00 -0.00000000000E+00 -0.45593999997E+02  0.45594000000E+02  0.51100000000E-03 0.  1.
    9900012    2    1    2    0    0  0.24572921178E+02  0.89767130137E+01  0.31124841198E+02  0.50528861158E+02  0.30000003976E+02 0.  0.
        -12    1    1    2    0    0 -0.24572921178E+02 -0.89767130137E+01 -0.31124841198E+02  0.40659138842E+02  0.00000000000E+00 0.  1.
         11    1    3    3    0    0  0.23777086223E+02  0.33112785417E+01  0.13828653630E+02  0.27704621570E+02  0.51100000000E-03 0. -1.
        -11    1    3    3    0    0 -0.20961872274E+01 -0.18329838420E+01  0.13768576653E+02  0.14047331916E+02  0.51100000000E-03 0.  1.
        -12    1    3    3    0    0  0.28920221825E+01  0.74984183141E+01  0.35276109148E+01  0.87769076720E+01  0.00000000000E+00 0.  1.
</event>
<event>
 7    1  0.6889665E-012  0.5052887E+02  0.7816164E-02  0.1300439E+00
        -11   -1    0    0    0    0  0.00000000000E+00  0.00000000000E+00  0.45593999997E+02  0.45594000000E+02  0.51100000000E-03 0. -1.
         11   -1    0    0    0    0 -0.00000000000E+00 -0.00000000000E+00 -0.45593999997E+02  0.45594000000E+02  0.51100000000E-03 0.  1.
    9900012    2    1    2    0    0 -0.31548307878E+02 -0.84145700113E+01  0.24229400508E+02  0.50528873504E+02  0.30000041502E+02 0.  0.
        -12    1    1    2    0    0  0.31548307878E+02  0.84145700113E+01 -0.24229400508E+02  0.40659126496E+02  0.00000000000E+00 0.  1.
         11    1    3    3    0    0 -0.10084639537E+02 -0.49941325989E+01 -0.31385783046E+01  0.11682978603E+02  0.51100000000E-03 0.  1.
        -11    1    3    3    0    0 -0.23171056394E+02 -0.51012298708E+01  0.27649297070E+02  0.36433556364E+02  0.51100000000E-03 0. -1.
        -12    1    3    3    0    0  0.17073880532E+01  0.16807924584E+01 -0.28131825747E+00  0.24123385364E+01  0.00000000000E+00 0.  1.
</event>
<event>
 7    1  0.6889665E-012  0.5052886E+02  0.7816164E-02  0.1300439E+00
        -11   -1    0    0    0    0  0.00000000000E+00  0.00000000000E+00  0.45593999997E+02  0.45594000000E+02  0.51100000000E-03 0. -1.
         11   -1    0    0    0    0 -0.00000000000E+00 -0.00000000000E+00 -0.45593999997E+02  0.45594000000E+02  0.51100000000E-03 0.  1.
    9900012    2    1    2    0    0  0.72574599400E+01 -0.31114073889E+02 -0.25147750869E+02  0.50528859668E+02  0.29999999448E+02 0.  0.
         12    1    1    2    0    0 -0.72574599400E+01  0.31114073889E+02  0.25147750869E+02  0.40659140332E+02  0.00000000000E+00 0. -1.
         11    1    3    3    0    0 -0.84130817800E+01 -0.70927639270E+01  0.15080161342E+00  0.11004998253E+02  0.51100000000E-03 0. -1.
        -11    1    3    3    0    0  0.15629121265E+02 -0.20584469139E+02 -0.25181781583E+02  0.36084788002E+02  0.51100000000E-03 0.  1.
        -12    1    3    3    0    0  0.41420455241E-01 -0.34368408230E+01 -0.11677089965E+00  0.34390734130E+01  0.00000000000E+00 0.  1.
</event>
<event>
 7    1  0.6889665E-012  0.5052885E+02  0.7816164E-02  0.1300439E+00
        -11   -1    0    0    0    0  0.00000000000E+00  0.00000000000E+00  0.45593999997E+02  0.45594000000E+02  0.51100000000E-03 0. -1.
         11   -1    0    0    0    0 -0.00000000000E+00 -0.00000000000E+00 -0.45593999997E+02  0.45594000000E+02  0.51100000000E-03 0.  1.
    9900012    2    1    2    0    0 -0.33894225004E+02  0.44993444386E+01 -0.22002352013E+02  0.50528854865E+02  0.29999984849E+02 0.  0.
         12    1    1    2    0    0  0.33894225004E+02 -0.44993444386E+01  0.22002352013E+02  0.40659145135E+02  0.00000000000E+00 0. -1.
         11    1    3    3    0    0 -0.83555367792E+01  0.99925505292E+00  0.59706610929E+01  0.10318056972E+02  0.51100000000E-03 0. -1.
        -11    1    3    3    0    0 -0.20073385505E+02  0.77604187010E+01 -0.23946478979E+02  0.32196253816E+02  0.51100000000E-03 0.  1.
         12    1    3    3    0    0 -0.54653027199E+01 -0.42603293153E+01 -0.40265341268E+01  0.80145440775E+01  0.00000000000E+00 0. -1.
</event>
<event>
 7    1  0.6889665E-012  0.5052886E+02  0.7816164E-02  0.1300439E+00
        -11   -1    0    0    0    0  0.00000000000E+00  0.00000000000E+00  0.45593999997E+02  0.45594000000E+02  0.51100000000E-03 0. -1.
         11   -1    0    0    0    0 -0.00000000000E+00 -0.00000000000E+00 -0.45593999997E+02  0.45594000000E+02  0.51100000000E-03 0.  1.
    9900012    2    1    2    0    0 -0.35910872838E+02  0.76733977478E+01  0.17455471697E+02  0.50528864333E+02  0.30000013627E+02 0.  0.
        -12    1    1    2    0    0  0.35910872838E+02 -0.76733977478E+01 -0.17455471697E+02  0.40659135667E+02  0.00000000000E+00 0.  1.
         11    1    3    3    0    0 -0.10744624896E+02  0.94937422045E+01  0.59456240496E+00  0.14350317415E+02  0.51100000000E-03 0. -1.
        -11    1    3    3    0    0 -0.85066152305E+01 -0.50019300669E+01  0.16485870481E+02  0.19213686081E+02  0.51100000000E-03 0.  1.
        -12    1    3    3    0    0 -0.16659632712E+02  0.31815856102E+01  0.37503881175E+00  0.16964860837E+02  0.00000000000E+00 0.  1.
</event>
<event>
 7    1  0.6889665E-012  0.5052886E+02  0.7816164E-02  0.1300439E+00
        -11   -1    0    0    0    0  0.00000000000E+00  0.00000000000E+00  0.45593999997E+02  0.45594000000E+02  0.51100000000E-03 0. -1.
         11   -1    0    0    0    0 -0.00000000000E+00 -0.00000000000E+00 -0.45593999997E+02  0.45594000000E+02  0.51100000000E-03 0.  1.
    9900012    2    1    2    0    0  0.12456308752E+02  0.23858585688E+02 -0.30475789968E+02  0.50528861877E+02  0.30000006162E+02 0.  0.
         12    1    1    2    0    0 -0.12456308752E+02 -0.23858585688E+02  0.30475789968E+02  0.40659138123E+02  0.00000000000E+00 0. -1.
         11    1    3    3    0    0 -0.32844179092E+01  0.13399554303E+02 -0.28156903664E+02  0.31355169920E+02  0.51100000000E-03 0. -1.
        -11    1    3    3    0    0  0.61301431015E+01  0.50233679787E+01 -0.18207029443E+00  0.79275488108E+01  0.51100000000E-03 0.  1.
         12    1    3    3    0    0  0.96105835593E+01  0.54356634057E+01 -0.21368160097E+01  0.11246143146E+02  0.00000000000E+00 0. -1.
</event>
<event>
 7    1  0.6889665E-012  0.5052887E+02  0.7816164E-02  0.1300439E+00
        -11   -1    0    0    0    0  0.00000000000E+00  0.00000000000E+00  0.45593999997E+02  0.45594000000E+02  0.51100000000E-03 0. -1.
         11   -1    0    0    0    0 -0.00000000000E+00 -0.00000000000E+00 -0.45593999997E+02  0.45594000000E+02  0.51100000000E-03 0.  1.
    9900012    2    1    2    0    0  0.22261123829E+02  0.23356549708E+02 -0.24740234512E+02  0.50528865084E+02  0.30000015909E+02 0.  0.
         12    1    1    2    0    0 -0.22261123829E+02 -0.23356549708E+02  0.24740234512E+02  0.40659134916E+02  0.00000000000E+00 0. -1.
         11    1    3    3    0    0  0.24774167208E+01  0.56307267942E+01  0.51600235825E+01  0.80292291954E+01  0.51100000000E-03 0. -1.
        -11    1    3    3    0    0  0.21714098439E+02  0.13901150518E+02 -0.24130724915E+02  0.35313396069E+02  0.51100000000E-03 0.  1.
         12    1    3    3    0    0 -0.19303913312E+01  0.38246723963E+01 -0.57695331798E+01  0.71862398195E+01  0.00000000000E+00 0. -1.
</event>
<event>
 7    1  0.6889665E-012  0.5052886E+02  0.7816164E-02  0.1300439E+00
        -11   -1    0    0    0    0  0.00000000000E+00  0.00000000000E+00  0.45593999997E+02  0.45594000000E+02  0.51100000000E-03 0.  1.
         11   -1    0    0    0    0 -0.00000000000E+00 -0.00000000000E+00 -0.45593999997E+02  0.45594000000E+02  0.51100000000E-03 0. -1.
    9900012    2    1    2    0    0 -0.25431663845E+02 -0.18562296980E+02 -0.25726202099E+02  0.50528857491E+02  0.29999992829E+02 0.  0.
         12    1    1    2    0    0  0.25431663845E+02  0.18562296980E+02  0.25726202099E+02  0.40659142509E+02  0.00000000000E+00 0. -1.
         11    1    3    3    0    0 -0.36937049244E+00 -0.31119018317E+01 -0.20325044064E+02  0.20565208096E+02  0.51100000000E-03 0. -1.
        -11    1    3    3    0    0 -0.12237106594E+02 -0.82896073760E+01 -0.29379249316E+01  0.15069697124E+02  0.51100000000E-03 0.  1.
         12    1    3    3    0    0 -0.12825186759E+02 -0.71607877728E+01 -0.24632331034E+01  0.14893952271E+02  0.00000000000E+00 0. -1.
</event>
<event>
 7    1  0.6889665E-012  0.5052885E+02  0.7816164E-02  0.1300439E+00
        -11   -1    0    0    0    0  0.00000000000E+00  0.00000000000E+00  0.45593999997E+02  0.45594000000E+02  0.51100000000E-03 0. -1.
         11   -1    0    0    0    0 -0.00000000000E+00 -0.00000000000E+00 -0.45593999997E+02  0.45594000000E+02  0.51100000000E-03 0.  1.
    9900012    2    1    2    0    0  0.90028824775E+01  0.52366599539E+01 -0.39302565194E+02  0.50528854274E+02  0.29999983051E+02 0.  0.
         12    1    1    2    0    0 -0.90028824775E+01 -0.52366599539E+01  0.39302565194E+02  0.40659145726E+02  0.00000000000E+00 0. -1.
         11    1    3    3    0    0 -0.52865670869E+01  0.33741894452E-01 -0.17747456170E+02  0.18518129788E+02  0.51100000000E-03 0. -1.
        -11    1    3    3    0    0  0.15405642841E+02  0.89192356304E+01 -0.11398047233E+02  0.21137693264E+02  0.51100000000E-03 0.  1.
        -12    1    3    3    0    0 -0.11161932762E+01 -0.37163175710E+01 -0.10157061791E+02  0.10873031221E+02  0.00000000000E+00 0.  1.
</event>
<event>
 7    1  0.6889665E-012  0.5052886E+02  0.7816164E-02  0.1300439E+00
        -11   -1    0    0    0    0  0.00000000000E+00  0.00000000000E+00  0.45593999997E+02  0.45594000000E+02  0.51100000000E-03 0. -1.
         11   -1    0    0    0    0 -0.00000000000E+00 -0.00000000000E+00 -0.45593999997E+02  0.45594000000E+02  0.51100000000E-03 0.  1.
    9900012    2    1    2    0    0  0.21557965455E+02 -0.32707551654E+01  0.34317955191E+02  0.50528858808E+02  0.29999996834E+02 0.  0.
        -12    1    1    2    0    0 -0.21557965455E+02  0.32707551654E+01 -0.34317955191E+02  0.40659141192E+02  0.00000000000E+00 0.  1.
         11    1    3    3    0    0  0.14287896100E+02  0.12338586922E+02  0.21893059373E+02  0.28908316298E+02  0.51100000000E-03 0. -1.
        -11    1    3    3    0    0  0.98304057586E+00 -0.66506686691E+01  0.53038731604E+01  0.85632256354E+01  0.51100000000E-03 0.  1.
         12    1    3    3    0    0  0.62870287793E+01 -0.89586734184E+01  0.71210226579E+01  0.13057316875E+02  0.00000000000E+00 0. -1.
</event>
<event>
 7    1  0.6889665E-012  0.5052886E+02  0.7816164E-02  0.1300439E+00
        -11   -1    0    0    0    0  0.00000000000E+00  0.00000000000E+00  0.45593999997E+02  0.45594000000E+02  0.51100000000E-03 0. -1.
         11   -1    0    0    0    0 -0.00000000000E+00 -0.00000000000E+00 -0.45593999997E+02  0.45594000000E+02  0.51100000000E-03 0.  1.
    9900012    2    1    2    0    0  0.28489316905E+02  0.21983245225E+02  0.18927786328E+02  0.50528863959E+02  0.30000012489E+02 0.  0.
        -12    1    1    2    0    0 -0.28489316905E+02 -0.21983245225E+02 -0.18927786328E+02  0.40659136041E+02  0.00000000000E+00 0.  1.
         11    1    3    3    0    0  0.25012428819E+02  0.22794588754E+02  0.13675965652E+02  0.36499957653E+02  0.51100000000E-03 0. -1.
        -11    1    3    3    0    0 -0.30714199796E+01  0.38566636631E+01  0.14882005733E+01  0.51499724765E+01  0.51100000000E-03 0.  1.
         12    1    3    3    0    0  0.65483080665E+01 -0.46680071918E+01  0.37636201021E+01  0.88789338295E+01  0.00000000000E+00 0. -1.
</event>
<event>
 7    1  0.6889665E-012  0.5052885E+02  0.7816164E-02  0.1300439E+00
        -11   -1    0    0    0    0  0.00000000000E+00  0.00000000000E+00  0.45593999997E+02  0.45594000000E+02  0.51100000000E-03 0. -1.
         11   -1    0    0    0    0 -0.00000000000E+00 -0.00000000000E+00 -0.45593999997E+02  0.45594000000E+02  0.51100000000E-03 0.  1.
    9900012    2    1    2    0    0  0.35163932146E+02  0.62417588654E+01 -0.19434621119E+02  0.50528853726E+02  0.29999981385E+02 0.  0.
         12    1    1    2    0    0 -0.35163932146E+02 -0.62417588654E+01  0.19434621119E+02  0.40659146274E+02  0.00000000000E+00 0. -1.
         11    1    3    3    0    0  0.17416292527E+01 -0.20668185247E+01  0.53457656576E+01  0.59901771255E+01  0.51100000000E-03 0. -1.
        -11    1    3    3    0    0  0.26769886537E+02  0.14064565088E+01 -0.21639764879E+02  0.34451188214E+02  0.51100000000E-03 0.  1.
        -12    1    3    3    0    0  0.66524163559E+01  0.69021208812E+01 -0.31406218983E+01  0.10087488386E+02  0.00000000000E+00 0.  1.
</event>
<event>
 7    1  0.6889665E-012  0.5052886E+02  0.7816164E-02  0.1300439E+00
        -11   -1    0    0    0    0  0.00000000000E+00  0.00000000000E+00  0.45593999997E+02  0.45594000000E+02  0.51100000000E-03 0. -1.
         11   -1    0    0    0    0 -0.00000000000E+00 -0.00000000000E+00 -0.45593999997E+02  0.45594000000E+02  0.51100000000E-03 0.  1.
    9900012    2    1    2    0    0  0.19833184849E+02  0.33552191071E+01  0.35334868752E+02  0.50528859992E+02  0.30000000432E+02 0.  0.
        -12    1    1    2    0    0 -0.19833184849E+02 -0.33552191071E+01 -0.35334868752E+02  0.40659140008E+02  0.00000000000E+00 0.  1.
         11    1    3    3    0    0 -0.30071342867E+01  0.50906066245E+01  0.15217235583E+02  0.16325482886E+02  0.51100000000E-03 0. -1.
        -11    1    3    3    0    0  0.19667143869E+02  0.39394577535E+01  0.10626581883E+02  0.22698901254E+02  0.51100000000E-03 0.  1.
         12    1    3    3    0    0  0.31731752666E+01 -0.56748452709E+01  0.94910512860E+01  0.11504475852E+02  0.00000000000E+00 0. -1.
</event>
<event>
 7    1  0.6889665E-012  0.5052885E+02  0.7816164E-02  0.1300439E+00
        -11   -1    0    0    0    0  0.00000000000E+00  0.00000000000E+00  0.45593999997E+02  0.45594000000E+02  0.51100000000E-03 0. -1.
         11   -1    0    0    0    0 -0.00000000000E+00 -0.00000000000E+00 -0.45593999997E+02  0.45594000000E+02  0.51100000000E-03 0.  1.
    9900012    2    1    2    0    0  0.30499045754E+02 -0.82237544123E+01  0.25599697401E+02  0.50528850531E+02  0.29999971674E+02 0.  0.
        -12    1    1    2    0    0 -0.30499045754E+02  0.82237544123E+01 -0.25599697401E+02  0.40659149469E+02  0.00000000000E+00 0.  1.
         11    1    3    3    0    0  0.10493784582E+02 -0.28974263604E+01  0.79242093095E+01  0.13465054318E+02  0.51100000000E-03 0. -1.
        -11    1    3    3    0    0 -0.46195696624E+01 -0.16777197067E+01  0.97843057553E+01  0.10949329050E+02  0.51100000000E-03 0.  1.
        -12    1    3    3    0    0  0.24624830835E+02 -0.36486083452E+01  0.78911823360E+01  0.26114467162E+02  0.00000000000E+00 0.  1.
</event>
<event>
 7    1  0.6889665E-012  0.5052886E+02  0.7816164E-02  0.1300439E+00
        -11   -1    0    0    0    0  0.00000000000E+00  0.00000000000E+00  0.45593999997E+02  0.45594000000E+02  0.51100000000E-03 0. -1.
         11   -1    0    0    0    0 -0.00000000000E+00 -0.00000000000E+00 -0.45593999997E+02  0.45594000000E+02  0.51100000000E-03 0.  1.
    9900012    2    1    2    0    0  0.11230511909E+02  0.13346469499E+02  0.36727555312E+02  0.50528856317E+02  0.29999989261E+02 0.  0.
        -12    1    1    2    0    0 -0.11230511909E+02 -0.13346469499E+02 -0.36727555312E+02  0.40659143683E+02  0.00000000000E+00 0.  1.
         11    1    3    3    0    0 -0.11411462292E+01  0.12030986167E+01  0.12279505407E+02  0.12390960992E+02  0.51100000000E-03 0. -1.
        -11    1    3    3    0    0  0.10439348307E+02  0.86698947292E+01  0.20547856254E+00  0.13571635472E+02  0.51100000000E-03 0.  1.
        -12    1    3    3    0    0  0.19323098316E+01  0.34734761532E+01  0.24242571342E+02  0.24566259853E+02  0.00000000000E+00 0.  1.
</event>
<event>
 7    1  0.6889665E-012  0.5052883E+02  0.7816164E-02  0.1300439E+00
        -11   -1    0    0    0    0  0.00000000000E+00  0.00000000000E+00  0.45593999997E+02  0.45594000000E+02  0.51100000000E-03 0. -1.
         11   -1    0    0    0    0 -0.00000000000E+00 -0.00000000000E+00 -0.45593999997E+02  0.45594000000E+02  0.51100000000E-03 0.  1.
    9900012    2    1    2    0    0  0.15767305413E+02  0.19056082882E+02  0.32271130104E+02  0.50528830641E+02  0.29999911216E+02 0.  0.
        -12    1    1    2    0    0 -0.15767305413E+02 -0.19056082882E+02 -0.32271130104E+02  0.40659169359E+02  0.00000000000E+00 0.  1.
         11    1    3    3    0    0  0.33412032515E+01  0.72210996673E+00  0.13164934098E+02  0.13601491537E+02  0.51100000000E-03 0. -1.
        -11    1    3    3    0    0  0.14810863065E+02  0.22413942860E+02  0.15926323203E+02  0.31231302731E+02  0.51100000000E-03 0.  1.
        -12    1    3    3    0    0 -0.23847609029E+01 -0.40799699446E+01  0.31798728028E+01  0.56960363724E+01  0.00000000000E+00 0.  1.
</event>
<event>
 7    1  0.6889665E-012  0.5052883E+02  0.7816164E-02  0.1300439E+00
        -11   -1    0    0    0    0  0.00000000000E+00  0.00000000000E+00  0.45593999997E+02  0.45594000000E+02  0.51100000000E-03 0.  1.
         11   -1    0    0    0    0 -0.00000000000E+00 -0.00000000000E+00 -0.45593999997E+02  0.45594000000E+02  0.51100000000E-03 0. -1.
    9900012    2    1    2    0    0  0.81399115496E+01 -0.35737129048E+02 -0.17600206190E+02  0.50528833622E+02  0.29999920279E+02 0.  0.
         12    1    1    2    0    0 -0.81399115496E+01  0.35737129048E+02  0.17600206190E+02  0.40659166378E+02  0.00000000000E+00 0. -1.
         11    1    3    3    0    0  0.41159790862E+01 -0.28729702019E+02 -0.23254873845E+02  0.37190404942E+02  0.51100000000E-03 0. -1.
        -11    1    3    3    0    0  0.24166925562E+01 -0.89862981552E+01  0.33156518911E+01  0.98786388318E+01  0.51100000000E-03 0.  1.
         12    1    3    3    0    0  0.16072399073E+01  0.19788711263E+01  0.23390157641E+01  0.34597898489E+01  0.00000000000E+00 0. -1.
</event>
<event>
 7    1  0.6889665E-012  0.5052882E+02  0.7816164E-02  0.1300439E+00
        -11   -1    0    0    0    0  0.00000000000E+00  0.00000000000E+00  0.45593999997E+02  0.45594000000E+02  0.51100000000E-03 0.  1.
         11   -1    0    0    0    0 -0.00000000000E+00 -0.00000000000E+00 -0.45593999997E+02  0.45594000000E+02  0.51100000000E-03 0. -1.
    9900012    2    1    2    0    0 -0.15323155996E+02 -0.37551670278E+02  0.28708115261E+01  0.50528823801E+02  0.29999890427E+02 0.  0.
         12    1    1    2    0    0  0.15323155996E+02  0.37551670278E+02 -0.28708115261E+01  0.40659176199E+02  0.00000000000E+00 0. -1.
         11    1    3    3    0    0  0.30533449441E+01 -0.66807565900E+00 -0.38249087865E+00  0.31488950391E+01  0.51100000000E-03 0. -1.
        -11    1    3    3    0    0 -0.20349144608E+02 -0.30593669658E+02  0.98640335472E+01  0.38044177840E+02  0.51100000000E-03 0.  1.
        -12    1    3    3    0    0  0.19726436676E+01 -0.62899249601E+01 -0.66107311425E+01  0.93357509222E+01  0.00000000000E+00 0.  1.
</event>
<event>
 7    1  0.6889665E-012  0.5052885E+02  0.7816164E-02  0.1300439E+00
        -11   -1    0    0    0    0  0.00000000000E+00  0.00000000000E+00  0.45593999997E+02  0.45594000000E+02  0.51100000000E-03 0. -1.
         11   -1    0    0    0    0 -0.00000000000E+00 -0.00000000000E+00 -0.45593999997E+02  0.45594000000E+02  0.51100000000E-03 0.  1.
    9900012    2    1    2    0    0  0.54817864415E+01 -0.29073406061E+02  0.27890020874E+02  0.50528853588E+02  0.29999980967E+02 0.  0.
        -12    1    1    2    0    0 -0.54817864415E+01  0.29073406061E+02 -0.27890020874E+02  0.40659146412E+02  0.00000000000E+00 0.  1.
         11    1    3    3    0    0 -0.71672370032E+01 -0.55883538816E+01  0.26960880073E+01  0.94798668857E+01  0.51100000000E-03 0. -1.
        -11    1    3    3    0    0  0.10465860986E+02 -0.18470452508E+01  0.74138565388E+01  0.12958051218E+02  0.51100000000E-03 0.  1.
         12    1    3    3    0    0  0.21831624591E+01 -0.21638006929E+02  0.17780076328E+02  0.28090935484E+02  0.00000000000E+00 0. -1.
</event>
<event>
 7    1  0.6889665E-012  0.5052885E+02  0.7816164E-02  0.1300439E+00
        -11   -1    0    0    0    0  0.00000000000E+00  0.00000000000E+00  0.45593999997E+02  0.45594000000E+02  0.51100000000E-03 0. -1.
         11   -1    0    0    0    0 -0.00000000000E+00 -0.00000000000E+00 -0.45593999997E+02  0.45594000000E+02  0.51100000000E-03 0.  1.
    9900012    2    1    2    0    0  0.14228429916E+02  0.32761751492E+02  0.19426428129E+02  0.50528847419E+02  0.29999962216E+02 0.  0.
        -12    1    1    2    0    0 -0.14228429916E+02 -0.32761751492E+02 -0.19426428129E+02  0.40659152581E+02  0.00000000000E+00 0.  1.
         11    1    3    3    0    0  0.19911356453E+02  0.22131045212E+02  0.20339147691E+02  0.36054489416E+02  0.51100000000E-03 0. -1.
        -11    1    3    3    0    0 -0.42647849134E+01  0.67681250088E+01  0.32375992169E+01  0.86300611494E+01  0.51100000000E-03 0.  1.
         12    1    3    3    0    0 -0.14181416240E+01  0.38625812720E+01 -0.41503187794E+01  0.58442968541E+01  0.00000000000E+00 0. -1.
</event>
<event>
 7    1  0.6889665E-012  0.5052886E+02  0.7816164E-02  0.1300439E+00
        -11   -1    0    0    0    0  0.00000000000E+00  0.00000000000E+00  0.45593999997E+02  0.45594000000E+02  0.51100000000E-03 0.  1.
         11   -1    0    0    0    0 -0.00000000000E+00 -0.00000000000E+00 -0.45593999997E+02  0.45594000000E+02  0.51100000000E-03 0. -1.
    9900012    2    1    2    0    0  0.14312396635E+02 -0.34027089252E+02  0.17043416620E+02  0.50528861415E+02  0.30000004757E+02 0.  0.
         12    1    1    2    0    0 -0.14312396635E+02  0.34027089252E+02 -0.17043416620E+02  0.40659138585E+02  0.00000000000E+00 0. -1.
         11    1    3    3    0    0  0.39443049312E+01 -0.14073533160E+01 -0.40015779347E+01  0.57923061880E+01  0.51100000000E-03 0. -1.
        -11    1    3    3    0    0 -0.49305444947E+01 -0.16264116160E+02  0.76162612277E+01  0.18623618844E+02  0.51100000000E-03 0.  1.
        -12    1    3    3    0    0  0.15298636199E+02 -0.16355619775E+02  0.13428733327E+02  0.26112936383E+02  0.00000000000E+00 0.  1.
</event>
<event>
 7    1  0.6889665E-012  0.5052888E+02  0.7816164E-02  0.1300439E+00
        -11   -1    0    0    0    0  0.00000000000E+00  0.00000000000E+00  0.45593999997E+02  0.45594000000E+02  0.51100000000E-03 0. -1.
         11   -1    0    0    0    0 -0.00000000000E+00 -0.00000000000E+00 -0.45593999997E+02  0.45594000000E+02  0.51100000000E-03 0.  1.
    9900012    2    1    2    0    0 -0.37201553241E+02 -0.20695444055E+01  0.16276525517E+02  0.50528882197E+02  0.30000067927E+02 0.  0.
        -12    1    1    2    0    0  0.37201553241E+02  0.20695444055E+01 -0.16276525517E+02  0.40659117803E+02  0.00000000000E+00 0.  1.
         11    1    3    3    0    0 -0.15501189623E+02  0.63982396966E+01 -0.28820964291E+01  0.17015605514E+02  0.51100000000E-03 0. -1.
        -11    1    3    3    0    0 -0.68496250982E+00 -0.57614290254E+01  0.69696806145E+01  0.90686099367E+01  0.51100000000E-03 0.  1.
         12    1    3    3    0    0 -0.21015401108E+02 -0.27063550767E+01  0.12188941332E+02  0.24444666746E+02  0.00000000000E+00 0. -1.
</event>
<event>
 7    1  0.6889665E-012  0.5052886E+02  0.7816164E-02  0.1300439E+00
        -11   -1    0    0    0    0  0.00000000000E+00  0.00000000000E+00  0.45593999997E+02  0.45594000000E+02  0.51100000000E-03 0. -1.
         11   -1    0    0    0    0 -0.00000000000E+00 -0.00000000000E+00 -0.45593999997E+02  0.45594000000E+02  0.51100000000E-03 0.  1.
    9900012    2    1    2    0    0 -0.16955009930E+02 -0.23788589390E+02 -0.28280677225E+02  0.50528855258E+02  0.29999986042E+02 0.  0.
         12    1    1    2    0    0  0.16955009930E+02  0.23788589390E+02  0.28280677225E+02  0.40659144742E+02  0.00000000000E+00 0. -1.
         11    1    3    3    0    0  0.50272151818E+01  0.22007532151E+01 -0.13197335919E+01  0.56442806639E+01  0.51100000000E-03 0. -1.
        -11    1    3    3    0    0 -0.21001527617E+02 -0.27126875249E+02 -0.25183180895E+02  0.42557303995E+02  0.51100000000E-03 0.  1.
        -12    1    3    3    0    0 -0.98069749404E+00  0.11375326443E+01 -0.17777627379E+01  0.23272705997E+01  0.00000000000E+00 0.  1.
</event>
<event>
 7    1  0.6889665E-012  0.5052886E+02  0.7816164E-02  0.1300439E+00
        -11   -1    0    0    0    0  0.00000000000E+00  0.00000000000E+00  0.45593999997E+02  0.45594000000E+02  0.51100000000E-03 0. -1.
         11   -1    0    0    0    0 -0.00000000000E+00 -0.00000000000E+00 -0.45593999997E+02  0.45594000000E+02  0.51100000000E-03 0.  1.
    9900012    2    1    2    0    0  0.22931657832E+02 -0.62294116264E+01  0.32992409189E+02  0.50528861246E+02  0.30000004244E+02 0.  0.
        -12    1    1    2    0    0 -0.22931657832E+02  0.62294116264E+01 -0.32992409189E+02  0.40659138754E+02  0.00000000000E+00 0.  1.
         11    1    3    3    0    0 -0.43135783845E+01  0.37045895021E+01  0.99490080882E+01  0.11459219173E+02  0.51100000000E-03 0. -1.
        -11    1    3    3    0    0  0.28125289894E+02 -0.80665055479E+01  0.22567013998E+02  0.36950921022E+02  0.51100000000E-03 0.  1.
        -12    1    3    3    0    0 -0.88005367739E+00 -0.18674955806E+01  0.47638710288E+00  0.21187210506E+01  0.00000000000E+00 0.  1.
</event>
<event>
 7    1  0.6889665E-012  0.5052885E+02  0.7816164E-02  0.1300439E+00
        -11   -1    0    0    0    0  0.00000000000E+00  0.00000000000E+00  0.45593999997E+02  0.45594000000E+02  0.51100000000E-03 0. -1.
         11   -1    0    0    0    0 -0.00000000000E+00 -0.00000000000E+00 -0.45593999997E+02  0.45594000000E+02  0.51100000000E-03 0.  1.
    9900012    2    1    2    0    0 -0.28868393160E+02 -0.86206934990E+00 -0.28618862038E+02  0.50528849105E+02  0.29999967338E+02 0.  0.
         12    1    1    2    0    0  0.28868393160E+02  0.86206934990E+00  0.28618862038E+02  0.40659150895E+02  0.00000000000E+00 0. -1.
         11    1    3    3    0    0 -0.44451282856E+01 -0.47805478821E+01 -0.15283685749E+01  0.67043802316E+01  0.51100000000E-03 0. -1.
        -11    1    3    3    0    0 -0.22149393813E+02  0.11839207468E+02 -0.24743163630E+02  0.35256015464E+02  0.51100000000E-03 0.  1.
        -12    1    3    3    0    0 -0.22738710615E+01 -0.79207289354E+01 -0.23473298330E+01  0.85684534087E+01  0.00000000000E+00 0.  1.
</event>
<event>
 7    1  0.6889665E-012  0.5052885E+02  0.7816164E-02  0.1300439E+00
        -11   -1    0    0    0    0  0.00000000000E+00  0.00000000000E+00  0.45593999997E+02  0.45594000000E+02  0.51100000000E-03 0. -1.
         11   -1    0    0    0    0 -0.00000000000E+00 -0.00000000000E+00 -0.45593999997E+02  0.45594000000E+02  0.51100000000E-03 0.  1.
    9900012    2    1    2    0    0  0.34854078581E+02  0.20786255578E+01  0.20833596378E+02  0.50528853230E+02  0.29999979879E+02 0.  0.
        -12    1    1    2    0    0 -0.34854078581E+02 -0.20786255578E+01 -0.20833596378E+02  0.40659146770E+02  0.00000000000E+00 0.  1.
         11    1    3    3    0    0  0.13310528780E+02  0.40882983553E+01 -0.66544748252E+01  0.15432640581E+02  0.51100000000E-03 0. -1.
        -11    1    3    3    0    0  0.17524001286E+02 -0.25381156504E+01  0.21306327808E+02  0.27703650609E+02  0.51100000000E-03 0.  1.
         12    1    3    3    0    0  0.40195485152E+01  0.52844285289E+00  0.61817433951E+01  0.73925620402E+01  0.00000000000E+00 0. -1.
</event>
<event>
 7    1  0.6889665E-012  0.5052885E+02  0.7816164E-02  0.1300439E+00
        -11   -1    0    0    0    0  0.00000000000E+00  0.00000000000E+00  0.45593999997E+02  0.45594000000E+02  0.51100000000E-03 0. -1.
         11   -1    0    0    0    0 -0.00000000000E+00 -0.00000000000E+00 -0.45593999997E+02  0.45594000000E+02  0.51100000000E-03 0.  1.
    9900012    2    1    2    0    0 -0.16819565814E+02  0.50025593619E+01  0.36677550590E+02  0.50528854515E+02  0.29999983783E+02 0.  0.
        -12    1    1    2    0    0  0.16819565814E+02 -0.50025593619E+01 -0.36677550590E+02  0.40659145485E+02  0.00000000000E+00 0.  1.
         11    1    3    3    0    0 -0.18607337621E+02 -0.31604628210E+01  0.24401526942E+02  0.30848923093E+02  0.51100000000E-03 0. -1.
        -11    1    3    3    0    0 -0.10529905647E+01  0.10191625768E+02  0.45674554270E+01  0.11217828411E+02  0.51100000000E-03 0.  1.
        -12    1    3    3    0    0  0.28407623719E+01 -0.20286035850E+01  0.77085682204E+01  0.84621030109E+01  0.00000000000E+00 0.  1.
</event>
<event>
 7    1  0.6889665E-012  0.5052887E+02  0.7816164E-02  0.1300439E+00
        -11   -1    0    0    0    0  0.00000000000E+00  0.00000000000E+00  0.45593999997E+02  0.45594000000E+02  0.51100000000E-03 0. -1.
         11   -1    0    0    0    0 -0.00000000000E+00 -0.00000000000E+00 -0.45593999997E+02  0.45594000000E+02  0.51100000000E-03 0.  1.
    9900012    2    1    2    0    0 -0.20149615996E+02  0.11501650541E+02  0.33389672745E+02  0.50528865282E+02  0.30000016513E+02 0.  0.
        -12    1    1    2    0    0  0.20149615996E+02 -0.11501650541E+02 -0.33389672745E+02  0.40659134718E+02  0.00000000000E+00 0.  1.
         11    1    3    3    0    0 -0.19647848277E+02  0.18949202316E+01  0.10984681508E+02  0.22589641270E+02  0.51100000000E-03 0. -1.
        -11    1    3    3    0    0 -0.16756739949E+01  0.12874946150E+02  0.19417637207E+02  0.23358440802E+02  0.51100000000E-03 0.  1.
         12    1    3    3    0    0  0.11739062760E+01 -0.32682158406E+01  0.29873540291E+01  0.45807832104E+01  0.00000000000E+00 0. -1.
</event>
<event>
 7    1  0.6889665E-012  0.5052886E+02  0.7816164E-02  0.1300439E+00
        -11   -1    0    0    0    0  0.00000000000E+00  0.00000000000E+00  0.45593999997E+02  0.45594000000E+02  0.51100000000E-03 0. -1.
         11   -1    0    0    0    0 -0.00000000000E+00 -0.00000000000E+00 -0.45593999997E+02  0.45594000000E+02  0.51100000000E-03 0.  1.
    9900012    2    1    2    0    0  0.21779515457E+02  0.26159479069E+01 -0.34234118074E+02  0.50528864283E+02  0.30000013473E+02 0.  0.
         12    1    1    2    0    0 -0.21779515457E+02 -0.26159479069E+01  0.34234118074E+02  0.40659135717E+02  0.00000000000E+00 0. -1.
         11    1    3    3    0    0  0.13530158108E+02  0.11944947714E+01 -0.35275929697E+02  0.37800571589E+02  0.51100000000E-03 0.  1.
        -11    1    3    3    0    0  0.51287650648E+01  0.89324447002E+00  0.52957541441E+01  0.74261112965E+01  0.51100000000E-03 0. -1.
         12    1    3    3    0    0  0.31205922842E+01  0.52820866547E+00 -0.42539425206E+01  0.53021813970E+01  0.00000000000E+00 0. -1.
</event>
<event>
 7    1  0.6889665E-012  0.5052888E+02  0.7816164E-02  0.1300439E+00
        -11   -1    0    0    0    0  0.00000000000E+00  0.00000000000E+00  0.45593999997E+02  0.45594000000E+02  0.51100000000E-03 0.  1.
         11   -1    0    0    0    0 -0.00000000000E+00 -0.00000000000E+00 -0.45593999997E+02  0.45594000000E+02  0.51100000000E-03 0. -1.
    9900012    2    1    2    0    0  0.35883476075E+02  0.11062070931E+02 -0.15593924203E+02  0.50528883672E+02  0.30000072409E+02 0.  0.
         12    1    1    2    0    0 -0.35883476075E+02 -0.11062070931E+02  0.15593924203E+02  0.40659116328E+02  0.00000000000E+00 0. -1.
         11    1    3    3    0    0  0.84946119880E+01 -0.20578563889E+01 -0.12152787532E+02  0.14969417184E+02  0.51100000000E-03 0. -1.
        -11    1    3    3    0    0  0.12230849790E+02  0.15482109145E+02  0.43940728913E+00  0.19735310213E+02  0.51100000000E-03 0.  1.
        -12    1    3    3    0    0  0.15158014297E+02 -0.23621818251E+01 -0.38805439597E+01  0.15824156276E+02  0.00000000000E+00 0.  1.
</event>
<event>
 7    1  0.6889665E-012  0.5052886E+02  0.7816164E-02  0.1300439E+00
        -11   -1    0    0    0    0  0.00000000000E+00  0.00000000000E+00  0.45593999997E+02  0.45594000000E+02  0.51100000000E-03 0. -1.
         11   -1    0    0    0    0 -0.00000000000E+00 -0.00000000000E+00 -0.45593999997E+02  0.45594000000E+02  0.51100000000E-03 0.  1.
    9900012    2    1    2    0    0  0.40876075396E+01  0.17073231947E+01 -0.40417103215E+02  0.50528859328E+02  0.29999998414E+02 0.  0.
         12    1    1    2    0    0 -0.40876075396E+01 -0.17073231947E+01  0.40417103215E+02  0.40659140672E+02  0.00000000000E+00 0. -1.
         11    1    3    3    0    0 -0.96678629426E+01 -0.60430022112E+01 -0.88224868219E+01  0.14416023154E+02  0.51100000000E-03 0. -1.
        -11    1    3    3    0    0  0.69741348828E+01  0.73384654476E+01 -0.23205883151E+02  0.25318069547E+02  0.51100000000E-03 0.  1.
         12    1    3    3    0    0  0.67813355995E+01  0.41185995837E+00 -0.83887332416E+01  0.10794766627E+02  0.00000000000E+00 0. -1.
</event>
<event>
 7    1  0.6889665E-012  0.5052891E+02  0.7816164E-02  0.1300439E+00
        -11   -1    0    0    0    0  0.00000000000E+00  0.00000000000E+00  0.45593999997E+02  0.45594000000E+02  0.51100000000E-03 0. -1.
         11   -1    0    0    0    0 -0.00000000000E+00 -0.00000000000E+00 -0.45593999997E+02  0.45594000000E+02  0.51100000000E-03 0.  1.
    9900012    2    1    2    0    0  0.12972616259E+02  0.19838020308E+02  0.33035214783E+02  0.50528914446E+02  0.30000165949E+02 0.  0.
        -12    1    1    2    0    0 -0.12972616259E+02 -0.19838020308E+02 -0.33035214783E+02  0.40659085554E+02  0.00000000000E+00 0.  1.
         11    1    3    3    0    0  0.32682699549E+01  0.15044120691E+01  0.22226808182E+02  0.22516124143E+02  0.51100000000E-03 0. -1.
        -11    1    3    3    0    0  0.13782970745E+01  0.15663824846E+02  0.24449814540E+01  0.15913297779E+02  0.51100000000E-03 0.  1.
         12    1    3    3    0    0  0.83260492300E+01  0.26697833921E+01  0.83634251468E+01  0.12099492524E+02  0.00000000000E+00 0. -1.
</event>
<event>
 7    1  0.6889665E-012  0.5052886E+02  0.7816164E-02  0.1300439E+00
        -11   -1    0    0    0    0  0.00000000000E+00  0.00000000000E+00  0.45593999997E+02  0.45594000000E+02  0.51100000000E-03 0.  1.
         11   -1    0    0    0    0 -0.00000000000E+00 -0.00000000000E+00 -0.45593999997E+02  0.45594000000E+02  0.51100000000E-03 0. -1.
    9900012    2    1    2    0    0  0.38750524749E+02  0.11941223814E+02 -0.29949224337E+01  0.50528861361E+02  0.30000004592E+02 0.  0.
         12    1    1    2    0    0 -0.38750524749E+02 -0.11941223814E+02  0.29949224337E+01  0.40659138639E+02  0.00000000000E+00 0. -1.
         11    1    3    3    0    0  0.97149542442E+00  0.33609828995E+01 -0.74869627746E+01  0.82640559812E+01  0.51100000000E-03 0. -1.
        -11    1    3    3    0    0  0.36977173748E+02  0.38798488426E+01  0.31614180990E+01  0.37314329286E+02  0.51100000000E-03 0.  1.
        -12    1    3    3    0    0  0.80185557638E+00  0.47003920723E+01  0.13306222420E+01  0.49504760932E+01  0.00000000000E+00 0.  1.
</event>
<event>
 7    1  0.6889665E-012  0.5052887E+02  0.7816164E-02  0.1300439E+00
        -11   -1    0    0    0    0  0.00000000000E+00  0.00000000000E+00  0.45593999997E+02  0.45594000000E+02  0.51100000000E-03 0. -1.
         11   -1    0    0    0    0 -0.00000000000E+00 -0.00000000000E+00 -0.45593999997E+02  0.45594000000E+02  0.51100000000E-03 0.  1.
    9900012    2    1    2    0    0 -0.23119530224E+02  0.15139308788E+02 -0.29823708393E+02  0.50528869037E+02  0.30000027924E+02 0.  0.
         12    1    1    2    0    0  0.23119530224E+02 -0.15139308788E+02  0.29823708393E+02  0.40659130963E+02  0.00000000000E+00 0. -1.
         11    1    3    3    0    0 -0.19433521488E+01 -0.15110616149E+01  0.52603942530E+01  0.58078974454E+01  0.51100000000E-03 0. -1.
        -11    1    3    3    0    0 -0.14443511478E+02  0.86029424765E+01 -0.25289105037E+02  0.30367161160E+02  0.51100000000E-03 0.  1.
         12    1    3    3    0    0 -0.67326665974E+01  0.80474279264E+01 -0.97949976093E+01  0.14353810432E+02  0.00000000000E+00 0. -1.
</event>
<event>
 7    1  0.6889665E-012  0.5052888E+02  0.7816164E-02  0.1300439E+00
        -11   -1    0    0    0    0  0.00000000000E+00  0.00000000000E+00  0.45593999997E+02  0.45594000000E+02  0.51100000000E-03 0. -1.
         11   -1    0    0    0    0 -0.00000000000E+00 -0.00000000000E+00 -0.45593999997E+02  0.45594000000E+02  0.51100000000E-03 0.  1.
    9900012    2    1    2    0    0  0.24830963557E+02 -0.14184776649E+02  0.28902932683E+02  0.50528878545E+02  0.30000056826E+02 0.  0.
        -12    1    1    2    0    0 -0.24830963557E+02  0.14184776649E+02 -0.28902932683E+02  0.40659121455E+02  0.00000000000E+00 0.  1.
         11    1    3    3    0    0  0.23532368167E+02 -0.61947488688E+01  0.19760970654E+02  0.31347140644E+02  0.51100000000E-03 0. -1.
        -11    1    3    3    0    0 -0.45510030927E+01 -0.35574267663E+01 -0.17608119169E+01  0.60388221712E+01  0.51100000000E-03 0.  1.
         12    1    3    3    0    0  0.58495984826E+01 -0.44326010143E+01  0.10902773946E+02  0.13142915730E+02  0.00000000000E+00 0. -1.
</event>
<event>
 7    1  0.6889665E-012  0.5052886E+02  0.7816164E-02  0.1300439E+00
        -11   -1    0    0    0    0  0.00000000000E+00  0.00000000000E+00  0.45593999997E+02  0.45594000000E+02  0.51100000000E-03 0.  1.
         11   -1    0    0    0    0 -0.00000000000E+00 -0.00000000000E+00 -0.45593999997E+02  0.45594000000E+02  0.51100000000E-03 0. -1.
    9900012    2    1    2    0    0  0.11325940466E+02 -0.24451488626E+02  0.30446891819E+02  0.50528862713E+02  0.30000008703E+02 0.  0.
        -12    1    1    2    0    0 -0.11325940466E+02  0.24451488626E+02 -0.30446891819E+02  0.40659137287E+02  0.00000000000E+00 0.  1.
         11    1    3    3    0    0 -0.79254551872E+01 -0.59521354426E+01  0.17965347003E+01  0.10073147147E+02  0.51100000000E-03 0. -1.
        -11    1    3    3    0    0  0.42014841688E+01 -0.98703722614E+01  0.14679468929E+02  0.18181406054E+02  0.51100000000E-03 0.  1.
         12    1    3    3    0    0  0.15049911484E+02 -0.86289809222E+01  0.13970888190E+02  0.22274309513E+02  0.00000000000E+00 0. -1.
</event>
<event>
 7    1  0.6889665E-012  0.5052886E+02  0.7816164E-02  0.1300439E+00
        -11   -1    0    0    0    0  0.00000000000E+00  0.00000000000E+00  0.45593999997E+02  0.45594000000E+02  0.51100000000E-03 0.  1.
         11   -1    0    0    0    0 -0.00000000000E+00 -0.00000000000E+00 -0.45593999997E+02  0.45594000000E+02  0.51100000000E-03 0. -1.
    9900012    2    1    2    0    0  0.21316144948E+02  0.92156500858E+01 -0.33374530598E+02  0.50528861610E+02  0.30000005351E+02 0.  0.
         12    1    1    2    0    0 -0.21316144948E+02 -0.92156500858E+01  0.33374530598E+02  0.40659138390E+02  0.00000000000E+00 0. -1.
         11    1    3    3    0    0  0.26796009549E+02  0.10105092622E+02 -0.27396157212E+02  0.39631912077E+02  0.51100000000E-03 0. -1.
        -11    1    3    3    0    0 -0.43393300100E+01  0.14203059003E+01 -0.19982256720E+00  0.45702279052E+01  0.51100000000E-03 0.  1.
         12    1    3    3    0    0 -0.11405345908E+01 -0.23097484368E+01 -0.57785508184E+01  0.63267216278E+01  0.00000000000E+00 0. -1.
</event>
<event>
 7    1  0.6889665E-012  0.5052886E+02  0.7816164E-02  0.1300439E+00
        -11   -1    0    0    0    0  0.00000000000E+00  0.00000000000E+00  0.45593999997E+02  0.45594000000E+02  0.51100000000E-03 0. -1.
         11   -1    0    0    0    0 -0.00000000000E+00 -0.00000000000E+00 -0.45593999997E+02  0.45594000000E+02  0.51100000000E-03 0.  1.
    9900012    2    1    2    0    0 -0.25217637771E+02 -0.13369183438E+02  0.28956890038E+02  0.50528858332E+02  0.29999995385E+02 0.  0.
        -12    1    1    2    0    0  0.25217637771E+02  0.13369183438E+02 -0.28956890038E+02  0.40659141668E+02  0.00000000000E+00 0.  1.
         11    1    3    3    0    0 -0.16944544954E+02 -0.13683821802E+02  0.26537726437E+02  0.34330970093E+02  0.51100000000E-03 0. -1.
        -11    1    3    3    0    0 -0.10574790319E+02  0.30238071667E+01 -0.12735620782E+01  0.11072107329E+02  0.51100000000E-03 0.  1.
         12    1    3    3    0    0  0.23016975027E+01 -0.27091688035E+01  0.36927256786E+01  0.51257809100E+01  0.00000000000E+00 0. -1.
</event>
<event>
 7    1  0.6889665E-012  0.5052886E+02  0.7816164E-02  0.1300439E+00
        -11   -1    0    0    0    0  0.00000000000E+00  0.00000000000E+00  0.45593999997E+02  0.45594000000E+02  0.51100000000E-03 0. -1.
         11   -1    0    0    0    0 -0.00000000000E+00 -0.00000000000E+00 -0.45593999997E+02  0.45594000000E+02  0.51100000000E-03 0.  1.
    9900012    2    1    2    0    0 -0.21040765279E+02 -0.22715726186E+02 -0.26352381088E+02  0.50528855780E+02  0.29999987629E+02 0.  0.
         12    1    1    2    0    0  0.21040765279E+02  0.22715726186E+02  0.26352381088E+02  0.40659144220E+02  0.00000000000E+00 0. -1.
         11    1    3    3    0    0 -0.23306150453E+02 -0.11702578793E+02 -0.22774683038E+02  0.34623881745E+02  0.51100000000E-03 0. -1.
        -11    1    3    3    0    0 -0.33792705258E+01 -0.83916619430E+01 -0.77599642304E+00  0.90797373399E+01  0.51100000000E-03 0.  1.
         12    1    3    3    0    0  0.56446556999E+01 -0.26214854507E+01 -0.28017016269E+01  0.68252366951E+01  0.00000000000E+00 0. -1.
</event>
<event>
 7    1  0.6889665E-012  0.5052887E+02  0.7816164E-02  0.1300439E+00
        -11   -1    0    0    0    0  0.00000000000E+00  0.00000000000E+00  0.45593999997E+02  0.45594000000E+02  0.51100000000E-03 0. -1.
         11   -1    0    0    0    0 -0.00000000000E+00 -0.00000000000E+00 -0.45593999997E+02  0.45594000000E+02  0.51100000000E-03 0.  1.
    9900012    2    1    2    0    0  0.20862069464E+02 -0.34042575743E+02  0.76838758252E+01  0.50528869989E+02  0.30000030818E+02 0.  0.
        -12    1    1    2    0    0 -0.20862069464E+02  0.34042575743E+02 -0.76838758252E+01  0.40659130011E+02  0.00000000000E+00 0.  1.
         11    1    3    3    0    0 -0.11482303437E+01 -0.23506807286E+02  0.77570102485E+01  0.24780226592E+02  0.51100000000E-03 0. -1.
        -11    1    3    3    0    0  0.83725834693E+01 -0.62735979485E+01 -0.35416836692E+01  0.11045438364E+02  0.51100000000E-03 0.  1.
         12    1    3    3    0    0  0.13637716339E+02 -0.42621705091E+01  0.34685492458E+01  0.14703205033E+02  0.00000000000E+00 0. -1.
</event>
<event>
 7    1  0.6889665E-012  0.5052893E+02  0.7816164E-02  0.1300439E+00
        -11   -1    0    0    0    0  0.00000000000E+00  0.00000000000E+00  0.45593999997E+02  0.45594000000E+02  0.51100000000E-03 0. -1.
         11   -1    0    0    0    0 -0.00000000000E+00 -0.00000000000E+00 -0.45593999997E+02  0.45594000000E+02  0.51100000000E-03 0.  1.
    9900012    2    1    2    0    0 -0.16850808519E+02 -0.21591656941E+02  0.30050138030E+02  0.50528927300E+02  0.30000205020E+02 0.  0.
        -12    1    1    2    0    0  0.16850808519E+02  0.21591656941E+02 -0.30050138030E+02  0.40659072700E+02  0.00000000000E+00 0.  1.
         11    1    3    3    0    0 -0.49761789588E+01 -0.25013621852E+02  0.12604363056E+02  0.28448437628E+02  0.51100000000E-03 0. -1.
        -11    1    3    3    0    0 -0.11518585993E+02  0.15578619919E+01  0.14640132741E+02  0.18693267349E+02  0.51100000000E-03 0.  1.
        -12    1    3    3    0    0 -0.35604356696E+00  0.18641029195E+01  0.28056422334E+01  0.33872223219E+01  0.00000000000E+00 0.  1.
</event>
<event>
 7    1  0.6889665E-012  0.5052885E+02  0.7816164E-02  0.1300439E+00
        -11   -1    0    0    0    0  0.00000000000E+00  0.00000000000E+00  0.45593999997E+02  0.45594000000E+02  0.51100000000E-03 0.  1.
         11   -1    0    0    0    0 -0.00000000000E+00 -0.00000000000E+00 -0.45593999997E+02  0.45594000000E+02  0.51100000000E-03 0. -1.
    9900012    2    1    2    0    0  0.39276141711E+02  0.92654205274E+01  0.49701970513E+01  0.50528853624E+02  0.29999981076E+02 0.  0.
        -12    1    1    2    0    0 -0.39276141711E+02 -0.92654205274E+01 -0.49701970513E+01  0.40659146376E+02  0.00000000000E+00 0.  1.
         11    1    3    3    0    0  0.19446029833E+02 -0.65946683459E+00 -0.90726723576E+01  0.21468496844E+02  0.51100000000E-03 0. -1.
        -11    1    3    3    0    0  0.16322196221E+02  0.39485838346E+01  0.14399698291E+02  0.22121408520E+02  0.51100000000E-03 0.  1.
         12    1    3    3    0    0  0.35079156570E+01  0.59763035274E+01 -0.35682888173E+00  0.69389482603E+01  0.00000000000E+00 0. -1.
</event>
<event>
 7    1  0.6889665E-012  0.5052886E+02  0.7816164E-02  0.1300439E+00
        -11   -1    0    0    0    0  0.00000000000E+00  0.00000000000E+00  0.45593999997E+02  0.45594000000E+02  0.51100000000E-03 0. -1.
         11   -1    0    0    0    0 -0.00000000000E+00 -0.00000000000E+00 -0.45593999997E+02  0.45594000000E+02  0.51100000000E-03 0.  1.
    9900012    2    1    2    0    0 -0.93541073903E+01  0.68902183866E+01  0.38963977789E+02  0.50528855892E+02  0.29999987969E+02 0.  0.
        -12    1    1    2    0    0  0.93541073903E+01 -0.68902183866E+01 -0.38963977789E+02  0.40659144108E+02  0.00000000000E+00 0.  1.
         11    1    3    3    0    0  0.14588727099E+01  0.10498354464E+02  0.22042811699E+02  0.24458726539E+02  0.51100000000E-03 0. -1.
        -11    1    3    3    0    0 -0.99571260963E+01  0.50113414933E+01  0.88904839783E+01  0.14258282130E+02  0.51100000000E-03 0.  1.
        -12    1    3    3    0    0 -0.85585400399E+00 -0.86194775704E+01  0.80306821110E+01  0.11811847224E+02  0.00000000000E+00 0.  1.
</event>
<event>
 7    1  0.6889665E-012  0.5052888E+02  0.7816164E-02  0.1300439E+00
        -11   -1    0    0    0    0  0.00000000000E+00  0.00000000000E+00  0.45593999997E+02  0.45594000000E+02  0.51100000000E-03 0. -1.
         11   -1    0    0    0    0 -0.00000000000E+00 -0.00000000000E+00 -0.45593999997E+02  0.45594000000E+02  0.51100000000E-03 0.  1.
    9900012    2    1    2    0    0  0.14597995224E+00  0.19400272025E+02  0.35731946760E+02  0.50528881907E+02  0.30000067045E+02 0.  0.
        -12    1    1    2    0    0 -0.14597995224E+00 -0.19400272025E+02 -0.35731946760E+02  0.40659118093E+02  0.00000000000E+00 0.  1.
         11    1    3    3    0    0 -0.37897443965E+01  0.17512982216E+02  0.37861789807E+02  0.41887728947E+02  0.51100000000E-03 0. -1.
        -11    1    3    3    0    0  0.41494417998E+01 -0.42069275537E+00  0.14163557292E+01  0.44046468028E+01  0.51100000000E-03 0.  1.
         12    1    3    3    0    0 -0.21371745110E+00  0.23079825651E+01 -0.35461987755E+01  0.42365061578E+01  0.00000000000E+00 0. -1.
</event>
<event>
 7    1  0.6889665E-012  0.5052892E+02  0.7816164E-02  0.1300439E+00
        -11   -1    0    0    0    0  0.00000000000E+00  0.00000000000E+00  0.45593999997E+02  0.45594000000E+02  0.51100000000E-03 0. -1.
         11   -1    0    0    0    0 -0.00000000000E+00 -0.00000000000E+00 -0.45593999997E+02  0.45594000000E+02  0.51100000000E-03 0.  1.
    9900012    2    1    2    0    0 -0.16567196480E+02  0.28168859247E+02  0.24190998246E+02  0.50528917047E+02  0.30000173855E+02 0.  0.
        -12    1    1    2    0    0  0.16567196480E+02 -0.28168859247E+02 -0.24190998246E+02  0.40659082953E+02  0.00000000000E+00 0.  1.
         11    1    3    3    0    0  0.70119358225E+01  0.95587699893E+00  0.19083265124E+01  0.73295740091E+01  0.51100000000E-03 0. -1.
        -11    1    3    3    0    0 -0.66633953517E+01  0.62602842825E+01  0.16864544923E+01  0.92971030933E+01  0.51100000000E-03 0.  1.
         12    1    3    3    0    0 -0.16915736950E+02  0.20952697965E+02  0.20596217241E+02  0.33902239944E+02  0.00000000000E+00 0. -1.
</event>
<event>
 7    1  0.6889665E-012  0.5052886E+02  0.7816164E-02  0.1300439E+00
        -11   -1    0    0    0    0  0.00000000000E+00  0.00000000000E+00  0.45593999997E+02  0.45594000000E+02  0.51100000000E-03 0. -1.
         11   -1    0    0    0    0 -0.00000000000E+00 -0.00000000000E+00 -0.45593999997E+02  0.45594000000E+02  0.51100000000E-03 0.  1.
    9900012    2    1    2    0    0 -0.24997351241E+02  0.10377414276E+02 -0.30341514960E+02  0.50528858025E+02  0.29999994452E+02 0.  0.
         12    1    1    2    0    0  0.24997351241E+02 -0.10377414276E+02  0.30341514960E+02  0.40659141975E+02  0.00000000000E+00 0. -1.
         11    1    3    3    0    0 -0.20545271023E+02 -0.12716505035E+01 -0.66316448175E+01  0.21626464567E+02  0.51100000000E-03 0. -1.
        -11    1    3    3    0    0 -0.39394315863E+01  0.17469250927E+01 -0.15317407721E+02  0.15912066115E+02  0.51100000000E-03 0.  1.
         12    1    3    3    0    0 -0.51264863176E+00  0.99021396864E+01 -0.83924624210E+01  0.12990327343E+02  0.00000000000E+00 0. -1.
</event>
<event>
 7    1  0.6889665E-012  0.5052886E+02  0.7816164E-02  0.1300439E+00
        -11   -1    0    0    0    0  0.00000000000E+00  0.00000000000E+00  0.45593999997E+02  0.45594000000E+02  0.51100000000E-03 0. -1.
         11   -1    0    0    0    0 -0.00000000000E+00 -0.00000000000E+00 -0.45593999997E+02  0.45594000000E+02  0.51100000000E-03 0.  1.
    9900012    2    1    2    0    0 -0.74521332823E+01  0.18720851658E+02 -0.35315163308E+02  0.50528864044E+02  0.30000012748E+02 0.  0.
         12    1    1    2    0    0  0.74521332823E+01 -0.18720851658E+02  0.35315163308E+02  0.40659135956E+02  0.00000000000E+00 0. -1.
         11    1    3    3    0    0 -0.82634290346E+00  0.17419098341E+02 -0.18739423998E+02  0.25598317164E+02  0.51100000000E-03 0. -1.
        -11    1    3    3    0    0  0.32779943115E+00 -0.74108032233E+01 -0.56812623732E+01  0.93436716175E+01  0.51100000000E-03 0.  1.
        -12    1    3    3    0    0 -0.69535898100E+01  0.87125565398E+01 -0.10894476937E+02  0.15586875262E+02  0.00000000000E+00 0.  1.
</event>
<event>
 7    1  0.6889665E-012  0.5052886E+02  0.7816164E-02  0.1300439E+00
        -11   -1    0    0    0    0  0.00000000000E+00  0.00000000000E+00  0.45593999997E+02  0.45594000000E+02  0.51100000000E-03 0. -1.
         11   -1    0    0    0    0 -0.00000000000E+00 -0.00000000000E+00 -0.45593999997E+02  0.45594000000E+02  0.51100000000E-03 0.  1.
    9900012    2    1    2    0    0 -0.72493077945E+01 -0.39025251806E+02 -0.88115247738E+01  0.50528859443E+02  0.29999998763E+02 0.  0.
         12    1    1    2    0    0  0.72493077945E+01  0.39025251806E+02  0.88115247738E+01  0.40659140557E+02  0.00000000000E+00 0. -1.
         11    1    3    3    0    0 -0.47987736956E+01 -0.31690668513E+00  0.55601525935E+01  0.73514594437E+01  0.51100000000E-03 0. -1.
        -11    1    3    3    0    0 -0.64675903643E+01 -0.30192686117E+02 -0.13569450501E+02  0.33727703854E+02  0.51100000000E-03 0.  1.
         12    1    3    3    0    0  0.40170562654E+01 -0.85156590033E+01 -0.80222686677E+00  0.94496961457E+01  0.00000000000E+00 0. -1.
</event>
<event>
 7    1  0.6889665E-012  0.5052886E+02  0.7816164E-02  0.1300439E+00
        -11   -1    0    0    0    0  0.00000000000E+00  0.00000000000E+00  0.45593999997E+02  0.45594000000E+02  0.51100000000E-03 0. -1.
         11   -1    0    0    0    0 -0.00000000000E+00 -0.00000000000E+00 -0.45593999997E+02  0.45594000000E+02  0.51100000000E-03 0.  1.
    9900012    2    1    2    0    0  0.77762129288E+01  0.23230449881E+02 -0.32450612964E+02  0.50528861163E+02  0.30000003992E+02 0.  0.
         12    1    1    2    0    0 -0.77762129288E+01 -0.23230449881E+02  0.32450612964E+02  0.40659138837E+02  0.00000000000E+00 0. -1.
         11    1    3    3    0    0  0.34384704390E+01 -0.88610411687E+00 -0.14900392359E+02  0.15317635333E+02  0.51100000000E-03 0. -1.
        -11    1    3    3    0    0  0.42029486570E+01  0.18748944753E+02 -0.21281976322E+02  0.28672464547E+02  0.51100000000E-03 0.  1.
         12    1    3    3    0    0  0.13479383273E+00  0.53676092448E+01  0.37317557174E+01  0.65387612830E+01  0.00000000000E+00 0. -1.
</event>
<event>
 7    1  0.6889665E-012  0.5052886E+02  0.7816164E-02  0.1300439E+00
        -11   -1    0    0    0    0  0.00000000000E+00  0.00000000000E+00  0.45593999997E+02  0.45594000000E+02  0.51100000000E-03 0.  1.
         11   -1    0    0    0    0 -0.00000000000E+00 -0.00000000000E+00 -0.45593999997E+02  0.45594000000E+02  0.51100000000E-03 0. -1.
    9900012    2    1    2    0    0 -0.51143285377E+01  0.38849963793E+02  0.10848467464E+02  0.50528864625E+02  0.30000014514E+02 0.  0.
        -12    1    1    2    0    0  0.51143285377E+01 -0.38849963793E+02 -0.10848467464E+02  0.40659135375E+02  0.00000000000E+00 0.  1.
         11    1    3    3    0    0 -0.36693018683E+01  0.20959191385E+02 -0.42427844006E+01  0.21696836162E+02  0.51100000000E-03 0. -1.
        -11    1    3    3    0    0 -0.82564832085E+01  0.73059024825E+01  0.11057057745E+02  0.15614232363E+02  0.51100000000E-03 0.  1.
        -12    1    3    3    0    0  0.68114565392E+01  0.10584869926E+02  0.40341941190E+01  0.13217796100E+02  0.00000000000E+00 0.  1.
</event>
<event>
 7    1  0.6889665E-012  0.5052886E+02  0.7816164E-02  0.1300439E+00
        -11   -1    0    0    0    0  0.00000000000E+00  0.00000000000E+00  0.45593999997E+02  0.45594000000E+02  0.51100000000E-03 0. -1.
         11   -1    0    0    0    0 -0.00000000000E+00 -0.00000000000E+00 -0.45593999997E+02  0.45594000000E+02  0.51100000000E-03 0.  1.
    9900012    2    1    2    0    0 -0.36739157030E+01 -0.16210911635E+02  0.37106261923E+02  0.50528856053E+02  0.29999988459E+02 0.  0.
        -12    1    1    2    0    0  0.36739157030E+01  0.16210911635E+02 -0.37106261923E+02  0.40659143947E+02  0.00000000000E+00 0.  1.
         11    1    3    3    0    0 -0.16381403433E+01  0.71881025029E+01  0.53289868519E+01  0.90967259223E+01  0.51100000000E-03 0.  1.
        -11    1    3    3    0    0 -0.50327625466E+01 -0.19497206735E+02  0.18779410832E+02  0.27534270297E+02  0.51100000000E-03 0. -1.
        -12    1    3    3    0    0  0.29969871868E+01 -0.39018074029E+01  0.12997864239E+02  0.13897859834E+02  0.00000000000E+00 0.  1.
</event>
<event>
 7    1  0.8414358E-012  0.5052886E+02  0.7816164E-02  0.1300439E+00
        -11   -1    0    0    0    0  0.00000000000E+00  0.00000000000E+00  0.45593999997E+02  0.45594000000E+02  0.51100000000E-03 0. -1.
         11   -1    0    0    0    0 -0.00000000000E+00 -0.00000000000E+00 -0.45593999997E+02  0.45594000000E+02  0.51100000000E-03 0.  1.
    9900012    2    1    2    0    0 -0.54407905937E+01 -0.19946277374E+02 -0.35010135976E+02  0.50528858292E+02  0.29999995264E+02 0.  0.
         12    1    1    2    0    0  0.54407905937E+01  0.19946277374E+02  0.35010135976E+02  0.40659141708E+02  0.00000000000E+00 0. -1.
         11    1    3    3    0    0 -0.81438762448E+01 -0.29150714637E+01 -0.48151378178E+00  0.86632683043E+01  0.51100000000E-03 0. -1.
        -11    1    3    3    0    0 -0.21024174981E+01 -0.11442864443E+02 -0.32039109291E+02  0.34086123722E+02  0.51100000000E-03 0.  1.
         12    1    3    3    0    0  0.48055031492E+01 -0.55883414676E+01 -0.24895129034E+01  0.77794662652E+01  0.00000000000E+00 0. -1.
</event>
<event>
 7    1  0.6889665E-012  0.5052887E+02  0.7816164E-02  0.1300439E+00
        -11   -1    0    0    0    0  0.00000000000E+00  0.00000000000E+00  0.45593999997E+02  0.45594000000E+02  0.51100000000E-03 0. -1.
         11   -1    0    0    0    0 -0.00000000000E+00 -0.00000000000E+00 -0.45593999997E+02  0.45594000000E+02  0.51100000000E-03 0.  1.
    9900012    2    1    2    0    0  0.35354306095E+02 -0.17064819089E+02 -0.10584422944E+02  0.50528867950E+02  0.30000024621E+02 0.  0.
         12    1    1    2    0    0 -0.35354306095E+02  0.17064819089E+02  0.10584422944E+02  0.40659132050E+02  0.00000000000E+00 0. -1.
         11    1    3    3    0    0  0.26453790907E+00  0.56525106497E+01  0.21443118199E+00  0.56627588633E+01  0.51100000000E-03 0. -1.
        -11    1    3    3    0    0  0.11489458556E+02 -0.14398259342E+02 -0.30589455063E+01  0.18672832615E+02  0.51100000000E-03 0.  1.
        -12    1    3    3    0    0  0.23600309630E+02 -0.83190703969E+01 -0.77399086194E+01  0.26193276472E+02  0.00000000000E+00 0.  1.
</event>
<event>
 7    1  0.6889665E-012  0.5052887E+02  0.7816164E-02  0.1300439E+00
        -11   -1    0    0    0    0  0.00000000000E+00  0.00000000000E+00  0.45593999997E+02  0.45594000000E+02  0.51100000000E-03 0. -1.
         11   -1    0    0    0    0 -0.00000000000E+00 -0.00000000000E+00 -0.45593999997E+02  0.45594000000E+02  0.51100000000E-03 0.  1.
    9900012    2    1    2    0    0 -0.61120054220E+01 -0.23984383459E+02 -0.32257673057E+02  0.50528871490E+02  0.30000035379E+02 0.  0.
         12    1    1    2    0    0  0.61120054220E+01  0.23984383459E+02  0.32257673057E+02  0.40659128510E+02  0.00000000000E+00 0. -1.
         11    1    3    3    0    0  0.84029253496E+01 -0.19543486848E+02 -0.26567647815E+02  0.34035230913E+02  0.51100000000E-03 0. -1.
        -11    1    3    3    0    0 -0.11785338752E+02 -0.45122846619E+01 -0.54704552724E+01  0.13754301273E+02  0.51100000000E-03 0.  1.
         12    1    3    3    0    0 -0.27295920198E+01  0.71388050918E-01 -0.21956996962E+00  0.27393393036E+01  0.00000000000E+00 0. -1.
</event>
<event>
 7    1  0.6889665E-012  0.5052886E+02  0.7816164E-02  0.1300439E+00
        -11   -1    0    0    0    0  0.00000000000E+00  0.00000000000E+00  0.45593999997E+02  0.45594000000E+02  0.51100000000E-03 0. -1.
         11   -1    0    0    0    0 -0.00000000000E+00 -0.00000000000E+00 -0.45593999997E+02  0.45594000000E+02  0.51100000000E-03 0.  1.
    9900012    2    1    2    0    0 -0.24546890644E+02 -0.29908583709E+02 -0.12493706036E+02  0.50528856990E+02  0.29999991307E+02 0.  0.
         12    1    1    2    0    0  0.24546890644E+02  0.29908583709E+02  0.12493706036E+02  0.40659143010E+02  0.00000000000E+00 0. -1.
         11    1    3    3    0    0  0.20344556404E+01  0.88102694771E+00  0.22886660210E+01  0.31864103082E+01  0.51100000000E-03 0. -1.
        -11    1    3    3    0    0 -0.23861687367E+02 -0.27423230392E+02 -0.19240537605E+02  0.41129210748E+02  0.51100000000E-03 0.  1.
        -12    1    3    3    0    0 -0.27196589174E+01 -0.33663802654E+01  0.44581655483E+01  0.62132359342E+01  0.00000000000E+00 0.  1.
</event>
<event>
 7    1  0.6889665E-012  0.5052887E+02  0.7816164E-02  0.1300439E+00
        -11   -1    0    0    0    0  0.00000000000E+00  0.00000000000E+00  0.45593999997E+02  0.45594000000E+02  0.51100000000E-03 0.  1.
         11   -1    0    0    0    0 -0.00000000000E+00 -0.00000000000E+00 -0.45593999997E+02  0.45594000000E+02  0.51100000000E-03 0. -1.
    9900012    2    1    2    0    0 -0.16775560294E+02 -0.26728408666E+02 -0.25638603113E+02  0.50528865447E+02  0.30000017014E+02 0.  0.
         12    1    1    2    0    0  0.16775560294E+02  0.26728408666E+02  0.25638603113E+02  0.40659134553E+02  0.00000000000E+00 0. -1.
         11    1    3    3    0    0  0.64217175143E+00 -0.54165230064E+01 -0.19224857359E+01  0.57833431251E+01  0.51100000000E-03 0. -1.
        -11    1    3    3    0    0 -0.14744413048E+02  0.15708833225E+01 -0.79044856133E+01  0.16803162905E+02  0.51100000000E-03 0.  1.
        -12    1    3    3    0    0 -0.26733189969E+01 -0.22882768983E+02 -0.15811631764E+02  0.27942359417E+02  0.00000000000E+00 0.  1.
</event>
<event>
 7    1  0.6889665E-012  0.5052885E+02  0.7816164E-02  0.1300439E+00
        -11   -1    0    0    0    0  0.00000000000E+00  0.00000000000E+00  0.45593999997E+02  0.45594000000E+02  0.51100000000E-03 0. -1.
         11   -1    0    0    0    0 -0.00000000000E+00 -0.00000000000E+00 -0.45593999997E+02  0.45594000000E+02  0.51100000000E-03 0.  1.
    9900012    2    1    2    0    0 -0.11446440206E+02  0.21573289104E+02 -0.32507521201E+02  0.50528846900E+02  0.29999960638E+02 0.  0.
         12    1    1    2    0    0  0.11446440206E+02 -0.21573289104E+02  0.32507521201E+02  0.40659153100E+02  0.00000000000E+00 0. -1.
         11    1    3    3    0    0 -0.24684933930E+01  0.60449823050E+01 -0.45698569509E+01  0.79698722394E+01  0.51100000000E-03 0. -1.
        -11    1    3    3    0    0 -0.10118611267E+01  0.86925127872E+01 -0.30519296751E+02  0.31749190792E+02  0.51100000000E-03 0.  1.
        -12    1    3    3    0    0 -0.79660856861E+01  0.68357940117E+01  0.25816325009E+01  0.10809783869E+02  0.00000000000E+00 0.  1.
</event>
<event>
 7    1  0.6889665E-012  0.5052886E+02  0.7816164E-02  0.1300439E+00
        -11   -1    0    0    0    0  0.00000000000E+00  0.00000000000E+00  0.45593999997E+02  0.45594000000E+02  0.51100000000E-03 0. -1.
         11   -1    0    0    0    0 -0.00000000000E+00 -0.00000000000E+00 -0.45593999997E+02  0.45594000000E+02  0.51100000000E-03 0.  1.
    9900012    2    1    2    0    0 -0.36017994907E+01  0.14423607841E+02 -0.37843788410E+02  0.50528859036E+02  0.29999997526E+02 0.  0.
         12    1    1    2    0    0  0.36017994907E+01 -0.14423607841E+02  0.37843788410E+02  0.40659140964E+02  0.00000000000E+00 0. -1.
         11    1    3    3    0    0  0.63539747689E+01  0.14889143406E+02 -0.14981009486E+02  0.22056523575E+02  0.51100000000E-03 0. -1.
        -11    1    3    3    0    0  0.23010271762E+00 -0.50908631231E+01 -0.37527659987E+01  0.63287508642E+01  0.51100000000E-03 0.  1.
         12    1    3    3    0    0 -0.10185876977E+02  0.46253275588E+01 -0.19110012925E+02  0.22143584597E+02  0.00000000000E+00 0. -1.
</event>
<event>
 7    1  0.6889665E-012  0.5052886E+02  0.7816164E-02  0.1300439E+00
        -11   -1    0    0    0    0  0.00000000000E+00  0.00000000000E+00  0.45593999997E+02  0.45594000000E+02  0.51100000000E-03 0. -1.
         11   -1    0    0    0    0 -0.00000000000E+00 -0.00000000000E+00 -0.45593999997E+02  0.45594000000E+02  0.51100000000E-03 0.  1.
    9900012    2    1    2    0    0 -0.79200259759E+00  0.26422827712E+02 -0.30892922343E+02  0.50528859044E+02  0.29999997549E+02 0.  0.
         12    1    1    2    0    0  0.79200259759E+00 -0.26422827712E+02  0.30892922343E+02  0.40659140956E+02  0.00000000000E+00 0. -1.
         11    1    3    3    0    0 -0.59281628859E+01  0.71163749920E+01 -0.50316698363E+01  0.10540569711E+02  0.51100000000E-03 0. -1.
        -11    1    3    3    0    0  0.13344512235E+02  0.16791730580E+02 -0.15141381096E+02  0.26254516647E+02  0.51100000000E-03 0.  1.
        -12    1    3    3    0    0 -0.82083519462E+01  0.25147221410E+01 -0.10719871410E+02  0.13733772685E+02  0.00000000000E+00 0.  1.
</event>
<event>
 7    1  0.6889665E-012  0.5052885E+02  0.7816164E-02  0.1300439E+00
        -11   -1    0    0    0    0  0.00000000000E+00  0.00000000000E+00  0.45593999997E+02  0.45594000000E+02  0.51100000000E-03 0. -1.
         11   -1    0    0    0    0 -0.00000000000E+00 -0.00000000000E+00 -0.45593999997E+02  0.45594000000E+02  0.51100000000E-03 0.  1.
    9900012    2    1    2    0    0  0.13762663236E+02 -0.24878046440E+01 -0.38178083340E+02  0.50528854426E+02  0.29999983512E+02 0.  0.
         12    1    1    2    0    0 -0.13762663236E+02  0.24878046440E+01  0.38178083340E+02  0.40659145574E+02  0.00000000000E+00 0. -1.
         11    1    3    3    0    0  0.40002210773E+01 -0.13971756509E+02 -0.80280041297E+01  0.16603029819E+02  0.51100000000E-03 0. -1.
        -11    1    3    3    0    0  0.76671749629E+01  0.10604978842E+02 -0.27352436590E+02  0.30321723827E+02  0.51100000000E-03 0.  1.
         12    1    3    3    0    0  0.20952671958E+01  0.87897302231E+00 -0.27976426205E+01  0.36041007794E+01  0.00000000000E+00 0. -1.
</event>
<event>
 7    1  0.6889665E-012  0.5052885E+02  0.7816164E-02  0.1300439E+00
        -11   -1    0    0    0    0  0.00000000000E+00  0.00000000000E+00  0.45593999997E+02  0.45594000000E+02  0.51100000000E-03 0. -1.
         11   -1    0    0    0    0 -0.00000000000E+00 -0.00000000000E+00 -0.45593999997E+02  0.45594000000E+02  0.51100000000E-03 0.  1.
    9900012    2    1    2    0    0 -0.48398253643E+01  0.88300054058E+01 -0.39392554027E+02  0.50528853208E+02  0.29999979812E+02 0.  0.
         12    1    1    2    0    0  0.48398253643E+01 -0.88300054058E+01  0.39392554027E+02  0.40659146792E+02  0.00000000000E+00 0. -1.
         11    1    3    3    0    0  0.34352371064E+01 -0.26156760736E+01 -0.22988800191E+02  0.23390757786E+02  0.51100000000E-03 0. -1.
        -11    1    3    3    0    0  0.39186212280E+01  0.63162484031E+01 -0.22531328285E+01  0.77670582606E+01  0.51100000000E-03 0.  1.
         12    1    3    3    0    0 -0.12193683699E+02  0.51294330763E+01 -0.14150621008E+02  0.19371037162E+02  0.00000000000E+00 0. -1.
</event>
<event>
 7    1  0.6889665E-012  0.5052887E+02  0.7816164E-02  0.1300439E+00
        -11   -1    0    0    0    0  0.00000000000E+00  0.00000000000E+00  0.45593999997E+02  0.45594000000E+02  0.51100000000E-03 0.  1.
         11   -1    0    0    0    0 -0.00000000000E+00 -0.00000000000E+00 -0.45593999997E+02  0.45594000000E+02  0.51100000000E-03 0. -1.
    9900012    2    1    2    0    0 -0.10526628331E+02  0.37933454972E+02  0.10168980794E+02  0.50528867194E+02  0.30000022323E+02 0.  0.
         12    1    1    2    0    0  0.10526628331E+02 -0.37933454972E+02 -0.10168980794E+02  0.40659132806E+02  0.00000000000E+00 0. -1.
         11    1    3    3    0    0  0.49603314271E+01  0.28017736229E+01 -0.10267951933E+00  0.56978387697E+01  0.51100000000E-03 0. -1.
        -11    1    3    3    0    0 -0.16201292766E+02  0.13047328854E+02  0.87534277047E+00  0.20820204196E+02  0.51100000000E-03 0.  1.
        -12    1    3    3    0    0  0.71433300816E+00  0.22084352495E+02  0.93963175424E+01  0.24010824229E+02  0.00000000000E+00 0.  1.
</event>
<event>
 7    1  0.6889665E-012  0.5052886E+02  0.7816164E-02  0.1300439E+00
        -11   -1    0    0    0    0  0.00000000000E+00  0.00000000000E+00  0.45593999997E+02  0.45594000000E+02  0.51100000000E-03 0. -1.
         11   -1    0    0    0    0 -0.00000000000E+00 -0.00000000000E+00 -0.45593999997E+02  0.45594000000E+02  0.51100000000E-03 0.  1.
    9900012    2    1    2    0    0  0.22515811367E+02  0.14167073156E+02 -0.30748952353E+02  0.50528858419E+02  0.29999995650E+02 0.  0.
         12    1    1    2    0    0 -0.22515811367E+02 -0.14167073156E+02  0.30748952353E+02  0.40659141581E+02  0.00000000000E+00 0. -1.
         11    1    3    3    0    0  0.12586964435E+02  0.33510003399E+01 -0.17266086198E+01  0.13139332348E+02  0.51100000000E-03 0. -1.
        -11    1    3    3    0    0  0.65353351283E+01  0.15560440694E+02 -0.16633859772E+02  0.23696480983E+02  0.51100000000E-03 0.  1.
         12    1    3    3    0    0  0.33935118040E+01 -0.47443678774E+01 -0.12388483961E+02  0.13693045088E+02  0.00000000000E+00 0. -1.
</event>
<event>
 7    1  0.6889665E-012  0.5052886E+02  0.7816164E-02  0.1300439E+00
        -11   -1    0    0    0    0  0.00000000000E+00  0.00000000000E+00  0.45593999997E+02  0.45594000000E+02  0.51100000000E-03 0. -1.
         11   -1    0    0    0    0 -0.00000000000E+00 -0.00000000000E+00 -0.45593999997E+02  0.45594000000E+02  0.51100000000E-03 0.  1.
    9900012    2    1    2    0    0  0.11374722650E+02  0.12289734850E+02 -0.37050555958E+02  0.50528860869E+02  0.30000003098E+02 0.  0.
         12    1    1    2    0    0 -0.11374722650E+02 -0.12289734850E+02  0.37050555958E+02  0.40659139131E+02  0.00000000000E+00 0. -1.
         11    1    3    3    0    0  0.35944180368E+01  0.82226141902E+01 -0.43753280160E+00  0.89845790306E+01  0.51100000000E-03 0. -1.
        -11    1    3    3    0    0  0.71626734832E+00 -0.45561849920E+01 -0.25095136277E+02  0.25515440925E+02  0.51100000000E-03 0.  1.
        -12    1    3    3    0    0  0.70640372652E+01  0.86233056518E+01 -0.11517886880E+02  0.16028840913E+02  0.00000000000E+00 0.  1.
</event>
<event>
 7    1  0.7180409E-012  0.5052886E+02  0.7816164E-02  0.1300439E+00
        -11   -1    0    0    0    0  0.00000000000E+00  0.00000000000E+00  0.45593999997E+02  0.45594000000E+02  0.51100000000E-03 0. -1.
         11   -1    0    0    0    0 -0.00000000000E+00 -0.00000000000E+00 -0.45593999997E+02  0.45594000000E+02  0.51100000000E-03 0.  1.
    9900012    2    1    2    0    0  0.24642759219E+02 -0.12792229888E+02 -0.29702842731E+02  0.50528860883E+02  0.30000003140E+02 0.  0.
         12    1    1    2    0    0 -0.24642759219E+02  0.12792229888E+02  0.29702842731E+02  0.40659139117E+02  0.00000000000E+00 0. -1.
         11    1    3    3    0    0 -0.34273856997E+01  0.90494696219E+00 -0.27079947925E+01  0.44608449644E+01  0.51100000000E-03 0. -1.
        -11    1    3    3    0    0  0.24553055780E+02 -0.44051051098E+01 -0.26082309976E+02  0.36090779890E+02  0.51100000000E-03 0.  1.
        -12    1    3    3    0    0  0.35170891391E+01 -0.92920717400E+01 -0.91253796322E+00  0.99772360285E+01  0.00000000000E+00 0.  1.
</event>
<event>
 7    1  0.6889665E-012  0.5052886E+02  0.7816164E-02  0.1300439E+00
        -11   -1    0    0    0    0  0.00000000000E+00  0.00000000000E+00  0.45593999997E+02  0.45594000000E+02  0.51100000000E-03 0. -1.
         11   -1    0    0    0    0 -0.00000000000E+00 -0.00000000000E+00 -0.45593999997E+02  0.45594000000E+02  0.51100000000E-03 0.  1.
    9900012    2    1    2    0    0 -0.13801876081E+02 -0.95736975167E+01  0.37027261121E+02  0.50528861623E+02  0.30000005388E+02 0.  0.
        -12    1    1    2    0    0  0.13801876081E+02  0.95736975167E+01 -0.37027261121E+02  0.40659138377E+02  0.00000000000E+00 0.  1.
         11    1    3    3    0    0 -0.13588245486E+02 -0.15959738037E+02  0.14130443947E+02  0.25278906226E+02  0.51100000000E-03 0. -1.
        -11    1    3    3    0    0  0.20737952981E+01  0.58325901318E+01  0.77373689978E+01  0.99089158768E+01  0.51100000000E-03 0.  1.
         12    1    3    3    0    0 -0.22874258936E+01  0.55345038860E+00  0.15159448176E+02  0.15341039520E+02  0.00000000000E+00 0. -1.
</event>
<event>
 7    1  0.6889665E-012  0.5052887E+02  0.7816164E-02  0.1300439E+00
        -11   -1    0    0    0    0  0.00000000000E+00  0.00000000000E+00  0.45593999997E+02  0.45594000000E+02  0.51100000000E-03 0. -1.
         11   -1    0    0    0    0 -0.00000000000E+00 -0.00000000000E+00 -0.45593999997E+02  0.45594000000E+02  0.51100000000E-03 0.  1.
    9900012    2    1    2    0    0 -0.41360172752E+01  0.34292760787E+02  0.21449124540E+02  0.50528867879E+02  0.30000024406E+02 0.  0.
        -12    1    1    2    0    0  0.41360172752E+01 -0.34292760787E+02 -0.21449124540E+02  0.40659132121E+02  0.00000000000E+00 0.  1.
         11    1    3    3    0    0 -0.11648719203E+01 -0.31852098428E+01  0.54381811419E+01  0.64090797097E+01  0.51100000000E-03 0. -1.
        -11    1    3    3    0    0 -0.76765529789E+01  0.34855728373E+02  0.14510401640E+02  0.38527951179E+02  0.51100000000E-03 0.  1.
        -12    1    3    3    0    0  0.47054076239E+01  0.26222422568E+01  0.15005417576E+01  0.55918369904E+01  0.00000000000E+00 0.  1.
</event>
<event>
 7    1  0.6889665E-012  0.5052886E+02  0.7816164E-02  0.1300439E+00
        -11   -1    0    0    0    0  0.00000000000E+00  0.00000000000E+00  0.45593999997E+02  0.45594000000E+02  0.51100000000E-03 0. -1.
         11   -1    0    0    0    0 -0.00000000000E+00 -0.00000000000E+00 -0.45593999997E+02  0.45594000000E+02  0.51100000000E-03 0.  1.
    9900012    2    1    2    0    0  0.83394524923E+01 -0.98428936805E+01  0.38558229218E+02  0.50528855096E+02  0.29999985550E+02 0.  0.
        -12    1    1    2    0    0 -0.83394524923E+01  0.98428936805E+01 -0.38558229218E+02  0.40659144904E+02  0.00000000000E+00 0.  1.
         11    1    3    3    0    0  0.14511443560E+02  0.15902550366E+01  0.18569465820E+02  0.23620668204E+02  0.51100000000E-03 0. -1.
        -11    1    3    3    0    0 -0.86797735542E+01 -0.92432285555E+01  0.19877030576E+02  0.23576939748E+02  0.51100000000E-03 0.  1.
         12    1    3    3    0    0  0.25077824862E+01 -0.21899201616E+01  0.11173282166E+00  0.33312471442E+01  0.00000000000E+00 0. -1.
</event>
<event>
 7    1  0.6889665E-012  0.5052887E+02  0.7816164E-02  0.1300439E+00
        -11   -1    0    0    0    0  0.00000000000E+00  0.00000000000E+00  0.45593999997E+02  0.45594000000E+02  0.51100000000E-03 0. -1.
         11   -1    0    0    0    0 -0.00000000000E+00 -0.00000000000E+00 -0.45593999997E+02  0.45594000000E+02  0.51100000000E-03 0.  1.
    9900012    2    1    2    0    0  0.25575261098E+02  0.22667599088E+02 -0.22028417760E+02  0.50528865507E+02  0.30000017196E+02 0.  0.
         12    1    1    2    0    0 -0.25575261098E+02 -0.22667599088E+02  0.22028417760E+02  0.40659134493E+02  0.00000000000E+00 0. -1.
         11    1    3    3    0    0  0.16944286329E+02  0.13840856362E+02 -0.17232118026E+02  0.27850027575E+02  0.51100000000E-03 0.  1.
        -11    1    3    3    0    0  0.28118384735E+01 -0.54642595325E+01 -0.37806566253E+01  0.72151183371E+01  0.51100000000E-03 0. -1.
        -12    1    3    3    0    0  0.58191362959E+01  0.14291002259E+02 -0.10156431094E+01  0.15463719595E+02  0.00000000000E+00 0.  1.
</event>
<event>
 7    1  0.6889665E-012  0.5052886E+02  0.7816164E-02  0.1300439E+00
        -11   -1    0    0    0    0  0.00000000000E+00  0.00000000000E+00  0.45593999997E+02  0.45594000000E+02  0.51100000000E-03 0. -1.
         11   -1    0    0    0    0 -0.00000000000E+00 -0.00000000000E+00 -0.45593999997E+02  0.45594000000E+02  0.51100000000E-03 0.  1.
    9900012    2    1    2    0    0  0.88276434714E+01  0.27227944187E+01  0.39595766754E+02  0.50528860270E+02  0.30000001278E+02 0.  0.
        -12    1    1    2    0    0 -0.88276434714E+01 -0.27227944187E+01 -0.39595766754E+02  0.40659139730E+02  0.00000000000E+00 0.  1.
         11    1    3    3    0    0 -0.28707937812E+01 -0.57121685982E+01 -0.16561443706E+01  0.66040246415E+01  0.51100000000E-03 0.  1.
        -11    1    3    3    0    0  0.65574289696E+01  0.40787033652E+01  0.28171317840E+02  0.29210594738E+02  0.51100000000E-03 0. -1.
        -12    1    3    3    0    0  0.51410082831E+01  0.43562596517E+01  0.13080593284E+02  0.14714240891E+02  0.00000000000E+00 0.  1.
</event>
<event>
 7    1  0.6889665E-012  0.5052886E+02  0.7816164E-02  0.1300439E+00
        -11   -1    0    0    0    0  0.00000000000E+00  0.00000000000E+00  0.45593999997E+02  0.45594000000E+02  0.51100000000E-03 0. -1.
         11   -1    0    0    0    0 -0.00000000000E+00 -0.00000000000E+00 -0.45593999997E+02  0.45594000000E+02  0.51100000000E-03 0.  1.
    9900012    2    1    2    0    0 -0.18973392534E+02  0.23205446741E+02  0.27471501961E+02  0.50528858313E+02  0.29999995328E+02 0.  0.
        -12    1    1    2    0    0  0.18973392534E+02 -0.23205446741E+02 -0.27471501961E+02  0.40659141687E+02  0.00000000000E+00 0.  1.
         11    1    3    3    0    0 -0.11147478925E+02  0.52635254678E+01  0.19986401536E+02  0.23482487802E+02  0.51100000000E-03 0. -1.
        -11    1    3    3    0    0 -0.12681808761E+02  0.13265673050E+02  0.22069938327E+01  0.18484511813E+02  0.51100000000E-03 0.  1.
        -12    1    3    3    0    0  0.48558951515E+01  0.46762482236E+01  0.52781065923E+01  0.85618586984E+01  0.00000000000E+00 0.  1.
</event>
<event>
 7    1  0.6889665E-012  0.5052886E+02  0.7816164E-02  0.1300439E+00
        -11   -1    0    0    0    0  0.00000000000E+00  0.00000000000E+00  0.45593999997E+02  0.45594000000E+02  0.51100000000E-03 0. -1.
         11   -1    0    0    0    0 -0.00000000000E+00 -0.00000000000E+00 -0.45593999997E+02  0.45594000000E+02  0.51100000000E-03 0.  1.
    9900012    2    1    2    0    0  0.37438138896E+00  0.19459425462E+02 -0.35698130260E+02  0.50528857058E+02  0.29999991514E+02 0.  0.
         12    1    1    2    0    0 -0.37438138896E+00 -0.19459425462E+02  0.35698130260E+02  0.40659142942E+02  0.00000000000E+00 0. -1.
         11    1    3    3    0    0 -0.19827795005E+01  0.14405335236E+02 -0.30869919595E+01  0.14865215015E+02  0.51100000000E-03 0. -1.
        -11    1    3    3    0    0  0.18757665241E+01 -0.44852586679E+01 -0.10061354806E+02  0.11174386165E+02  0.51100000000E-03 0.  1.
         12    1    3    3    0    0  0.48139436535E+00  0.95393488935E+01 -0.22549783494E+02  0.24489255878E+02  0.00000000000E+00 0. -1.
</event>
<event>
 7    1  0.6889665E-012  0.5052886E+02  0.7816164E-02  0.1300439E+00
        -11   -1    0    0    0    0  0.00000000000E+00  0.00000000000E+00  0.45593999997E+02  0.45594000000E+02  0.51100000000E-03 0.  1.
         11   -1    0    0    0    0 -0.00000000000E+00 -0.00000000000E+00 -0.45593999997E+02  0.45594000000E+02  0.51100000000E-03 0. -1.
    9900012    2    1    2    0    0 -0.29856558303E+02 -0.37777826026E+00 -0.27597255112E+02  0.50528864743E+02  0.30000014873E+02 0.  0.
         12    1    1    2    0    0  0.29856558303E+02  0.37777826026E+00  0.27597255112E+02  0.40659135257E+02  0.00000000000E+00 0. -1.
         11    1    3    3    0    0 -0.33583019140E+01 -0.29248946652E+01 -0.77511957146E+01  0.89394762607E+01  0.51100000000E-03 0. -1.
        -11    1    3    3    0    0 -0.27505726728E+02  0.98195062778E+01 -0.15979449340E+02  0.33291598157E+02  0.51100000000E-03 0.  1.
        -12    1    3    3    0    0  0.10074703389E+01 -0.72723898729E+01 -0.38666100578E+01  0.82977903255E+01  0.00000000000E+00 0.  1.
</event>
<event>
 7    1  0.6889665E-012  0.5052886E+02  0.7816164E-02  0.1300439E+00
        -11   -1    0    0    0    0  0.00000000000E+00  0.00000000000E+00  0.45593999997E+02  0.45594000000E+02  0.51100000000E-03 0. -1.
         11   -1    0    0    0    0 -0.00000000000E+00 -0.00000000000E+00 -0.45593999997E+02  0.45594000000E+02  0.51100000000E-03 0.  1.
    9900012    2    1    2    0    0  0.26125722557E+02 -0.11182798603E+02  0.29078471826E+02  0.50528857271E+02  0.29999992161E+02 0.  0.
        -12    1    1    2    0    0 -0.26125722557E+02  0.11182798603E+02 -0.29078471826E+02  0.40659142729E+02  0.00000000000E+00 0.  1.
         11    1    3    3    0    0  0.51109954431E+01  0.20277537372E+01  0.15486093676E+02  0.16433294169E+02  0.51100000000E-03 0. -1.
        -11    1    3    3    0    0  0.10332107329E+02 -0.35079078309E+01 -0.37466728005E+01  0.11536698684E+02  0.51100000000E-03 0.  1.
        -12    1    3    3    0    0  0.10682619786E+02 -0.97026445092E+01  0.17339050950E+02  0.22558864417E+02  0.00000000000E+00 0.  1.
</event>
<event>
 7    1  0.6889665E-012  0.5052886E+02  0.7816164E-02  0.1300439E+00
        -11   -1    0    0    0    0  0.00000000000E+00  0.00000000000E+00  0.45593999997E+02  0.45594000000E+02  0.51100000000E-03 0. -1.
         11   -1    0    0    0    0 -0.00000000000E+00 -0.00000000000E+00 -0.45593999997E+02  0.45594000000E+02  0.51100000000E-03 0.  1.
    9900012    2    1    2    0    0 -0.20019229876E+02 -0.28557952119E+02 -0.20900709996E+02  0.50528857456E+02  0.29999992725E+02 0.  0.
         12    1    1    2    0    0  0.20019229876E+02  0.28557952119E+02  0.20900709996E+02  0.40659142544E+02  0.00000000000E+00 0. -1.
         11    1    3    3    0    0 -0.22985743976E+02 -0.25237416579E+02 -0.86089725079E+01  0.35204914850E+02  0.51100000000E-03 0. -1.
        -11    1    3    3    0    0  0.32119508969E+01  0.14510264598E+01 -0.21905458733E+01  0.41497708171E+01  0.51100000000E-03 0.  1.
         12    1    3    3    0    0 -0.24543679651E+00 -0.47715620001E+01 -0.10101191614E+02  0.11174171789E+02  0.00000000000E+00 0. -1.
</event>
<event>
 7    1  0.6889665E-012  0.5052886E+02  0.7816164E-02  0.1300439E+00
        -11   -1    0    0    0    0  0.00000000000E+00  0.00000000000E+00  0.45593999997E+02  0.45594000000E+02  0.51100000000E-03 0. -1.
         11   -1    0    0    0    0 -0.00000000000E+00 -0.00000000000E+00 -0.45593999997E+02  0.45594000000E+02  0.51100000000E-03 0.  1.
    9900012    2    1    2    0    0  0.43385291741E+01  0.16486050770E+02 -0.36912774593E+02  0.50528860394E+02  0.30000001654E+02 0.  0.
         12    1    1    2    0    0 -0.43385291741E+01 -0.16486050770E+02  0.36912774593E+02  0.40659139606E+02  0.00000000000E+00 0. -1.
         11    1    3    3    0    0 -0.43226623986E+01 -0.19285249948E+01  0.23107474873E+01  0.52672737805E+01  0.51100000000E-03 0. -1.
        -11    1    3    3    0    0  0.10084552402E+02  0.17303807969E+02 -0.31484829126E+02  0.37315069781E+02  0.51100000000E-03 0.  1.
         12    1    3    3    0    0 -0.14233608290E+01  0.11107677959E+01 -0.77386929536E+01  0.79465168329E+01  0.00000000000E+00 0. -1.
</event>
<event>
 7    1  0.6889665E-012  0.5052887E+02  0.7816164E-02  0.1300439E+00
        -11   -1    0    0    0    0  0.00000000000E+00  0.00000000000E+00  0.45593999997E+02  0.45594000000E+02  0.51100000000E-03 0. -1.
         11   -1    0    0    0    0 -0.00000000000E+00 -0.00000000000E+00 -0.45593999997E+02  0.45594000000E+02  0.51100000000E-03 0.  1.
    9900012    2    1    2    0    0  0.63795686999E+01  0.12351509643E+02 -0.38208722243E+02  0.50528866430E+02  0.30000020000E+02 0.  0.
         12    1    1    2    0    0 -0.63795686999E+01 -0.12351509643E+02  0.38208722243E+02  0.40659133570E+02  0.00000000000E+00 0. -1.
         11    1    3    3    0    0 -0.47436830091E+01  0.11018145263E+02 -0.31439797471E+02  0.33650600571E+02  0.51100000000E-03 0. -1.
        -11    1    3    3    0    0  0.93123697237E+01 -0.20489244886E+01 -0.84018733085E+01  0.12708650471E+02  0.51100000000E-03 0.  1.
         12    1    3    3    0    0  0.18108819853E+01  0.33822888693E+01  0.16329485370E+01  0.41696153881E+01  0.00000000000E+00 0. -1.
</event>
<event>
 7    1  0.6889665E-012  0.5052886E+02  0.7816164E-02  0.1300439E+00
        -11   -1    0    0    0    0  0.00000000000E+00  0.00000000000E+00  0.45593999997E+02  0.45594000000E+02  0.51100000000E-03 0.  1.
         11   -1    0    0    0    0 -0.00000000000E+00 -0.00000000000E+00 -0.45593999997E+02  0.45594000000E+02  0.51100000000E-03 0. -1.
    9900012    2    1    2    0    0 -0.29098743968E+02 -0.28298959047E+02  0.23659628232E+01  0.50528858793E+02  0.29999996787E+02 0.  0.
        -12    1    1    2    0    0  0.29098743968E+02  0.28298959047E+02 -0.23659628232E+01  0.40659141207E+02  0.00000000000E+00 0.  1.
         11    1    3    3    0    0 -0.18687515313E+02 -0.12760251561E+02 -0.90144018700E+01  0.24357887630E+02  0.51100000000E-03 0. -1.
        -11    1    3    3    0    0 -0.24348792305E+00 -0.11813829402E+02  0.95408348501E+01  0.15187276959E+02  0.51100000000E-03 0.  1.
        -12    1    3    3    0    0 -0.10167740732E+02 -0.37248780833E+01  0.18395298431E+01  0.10983694204E+02  0.00000000000E+00 0.  1.
</event>
<event>
 7    1  0.6889665E-012  0.5052886E+02  0.7816164E-02  0.1300439E+00
        -11   -1    0    0    0    0  0.00000000000E+00  0.00000000000E+00  0.45593999997E+02  0.45594000000E+02  0.51100000000E-03 0. -1.
         11   -1    0    0    0    0 -0.00000000000E+00 -0.00000000000E+00 -0.45593999997E+02  0.45594000000E+02  0.51100000000E-03 0.  1.
    9900012    2    1    2    0    0 -0.20358159683E+02 -0.35135139493E+02  0.20574678785E+01  0.50528857524E+02  0.29999992929E+02 0.  0.
        -12    1    1    2    0    0  0.20358159683E+02  0.35135139493E+02 -0.20574678785E+01  0.40659142476E+02  0.00000000000E+00 0.  1.
         11    1    3    3    0    0  0.16276517758E+00 -0.19242417665E+02 -0.75596133675E+01  0.20674740255E+02  0.51100000000E-03 0.  1.
        -11    1    3    3    0    0 -0.17187758929E+02 -0.17513930788E+02  0.79979365873E+01  0.25809374625E+02  0.51100000000E-03 0. -1.
        -12    1    3    3    0    0 -0.33331659316E+01  0.16212089605E+01  0.16191446587E+01  0.40447426428E+01  0.00000000000E+00 0.  1.
</event>
<event>
 7    1  0.6889665E-012  0.5052886E+02  0.7816164E-02  0.1300439E+00
        -11   -1    0    0    0    0  0.00000000000E+00  0.00000000000E+00  0.45593999997E+02  0.45594000000E+02  0.51100000000E-03 0.  1.
         11   -1    0    0    0    0 -0.00000000000E+00 -0.00000000000E+00 -0.45593999997E+02  0.45594000000E+02  0.51100000000E-03 0. -1.
    9900012    2    1    2    0    0  0.12202676884E+02  0.38614877446E+02  0.36265499742E+01  0.50528856526E+02  0.29999989896E+02 0.  0.
        -12    1    1    2    0    0 -0.12202676884E+02 -0.38614877446E+02 -0.36265499742E+01  0.40659143474E+02  0.00000000000E+00 0.  1.
         11    1    3    3    0    0 -0.13115474278E+01  0.27337203173E+02  0.77792369171E+01  0.28452756654E+02  0.51100000000E-03 0. -1.
        -11    1    3    3    0    0  0.14461669731E+01 -0.23880863136E+01  0.12528041277E+01  0.30600447054E+01  0.51100000000E-03 0.  1.
         12    1    3    3    0    0  0.12068057339E+02  0.13665760587E+02 -0.54054910706E+01  0.19016055166E+02  0.00000000000E+00 0. -1.
</event>
<event>
 7    1  0.6889665E-012  0.5052887E+02  0.7816164E-02  0.1300439E+00
        -11   -1    0    0    0    0  0.00000000000E+00  0.00000000000E+00  0.45593999997E+02  0.45594000000E+02  0.51100000000E-03 0. -1.
         11   -1    0    0    0    0 -0.00000000000E+00 -0.00000000000E+00 -0.45593999997E+02  0.45594000000E+02  0.51100000000E-03 0.  1.
    9900012    2    1    2    0    0  0.47564891387E+01 -0.23719975167E+02  0.32678787496E+02  0.50528873558E+02  0.30000041666E+02 0.  0.
        -12    1    1    2    0    0 -0.47564891387E+01  0.23719975167E+02 -0.32678787496E+02  0.40659126442E+02  0.00000000000E+00 0.  1.
         11    1    3    3    0    0  0.45917258035E+01 -0.21392039471E+02  0.23136623960E+02  0.31843471342E+02  0.51100000000E-03 0. -1.
        -11    1    3    3    0    0  0.55009071744E+01  0.41706657289E+01  0.15300532755E+01  0.70707492991E+01  0.51100000000E-03 0.  1.
         12    1    3    3    0    0 -0.53361438392E+01 -0.64986014253E+01  0.80121102607E+01  0.11614652917E+02  0.00000000000E+00 0. -1.
</event>
<event>
 7    1  0.6889665E-012  0.5052885E+02  0.7816164E-02  0.1300439E+00
        -11   -1    0    0    0    0  0.00000000000E+00  0.00000000000E+00  0.45593999997E+02  0.45594000000E+02  0.51100000000E-03 0. -1.
         11   -1    0    0    0    0 -0.00000000000E+00 -0.00000000000E+00 -0.45593999997E+02  0.45594000000E+02  0.51100000000E-03 0.  1.
    9900012    2    1    2    0    0  0.28295333029E+01 -0.30692137672E+02 -0.26517030853E+02  0.50528849753E+02  0.29999969308E+02 0.  0.
         12    1    1    2    0    0 -0.28295333029E+01  0.30692137672E+02  0.26517030853E+02  0.40659150247E+02  0.00000000000E+00 0. -1.
         11    1    3    3    0    0  0.14396823752E+01 -0.68957534700E+01  0.64962522072E+01  0.95825567706E+01  0.51100000000E-03 0. -1.
        -11    1    3    3    0    0  0.12410240264E+01 -0.52829014396E+01 -0.10310811091E+02  0.11651695751E+02  0.51100000000E-03 0.  1.
         12    1    3    3    0    0  0.14882690123E+00 -0.18513482762E+02 -0.22702471969E+02  0.29294597231E+02  0.00000000000E+00 0. -1.
</event>
<event>
 7    1  0.6889665E-012  0.5052886E+02  0.7816164E-02  0.1300439E+00
        -11   -1    0    0    0    0  0.00000000000E+00  0.00000000000E+00  0.45593999997E+02  0.45594000000E+02  0.51100000000E-03 0. -1.
         11   -1    0    0    0    0 -0.00000000000E+00 -0.00000000000E+00 -0.45593999997E+02  0.45594000000E+02  0.51100000000E-03 0.  1.
    9900012    2    1    2    0    0  0.37193050779E+02 -0.48516342184E+01 -0.15694082461E+02  0.50528860743E+02  0.30000002716E+02 0.  0.
         12    1    1    2    0    0 -0.37193050779E+02  0.48516342184E+01  0.15694082461E+02  0.40659139257E+02  0.00000000000E+00 0. -1.
         11    1    3    3    0    0  0.71315486916E+01  0.70093422305E+01  0.16761161752E+01  0.10138995559E+02  0.51100000000E-03 0. -1.
        -11    1    3    3    0    0  0.20010909382E+02 -0.14797492309E+02 -0.16547457842E+02  0.29886796989E+02  0.51100000000E-03 0.  1.
         12    1    3    3    0    0  0.10050592705E+02  0.29365158604E+01 -0.82274079338E+00  0.10503068196E+02  0.00000000000E+00 0. -1.
</event>
<event>
 7    1  0.6889665E-012  0.5052887E+02  0.7816164E-02  0.1300439E+00
        -11   -1    0    0    0    0  0.00000000000E+00  0.00000000000E+00  0.45593999997E+02  0.45594000000E+02  0.51100000000E-03 0. -1.
         11   -1    0    0    0    0 -0.00000000000E+00 -0.00000000000E+00 -0.45593999997E+02  0.45594000000E+02  0.51100000000E-03 0.  1.
    9900012    2    1    2    0    0 -0.13278031130E+02  0.17429998640E+02 -0.34249878304E+02  0.50528866621E+02  0.30000020582E+02 0.  0.
         12    1    1    2    0    0  0.13278031130E+02 -0.17429998640E+02  0.34249878304E+02  0.40659133379E+02  0.00000000000E+00 0. -1.
         11    1    3    3    0    0 -0.12813929664E+01  0.28860806203E+01  0.75298804214E-01  0.31586546903E+01  0.51100000000E-03 0. -1.
        -11    1    3    3    0    0 -0.19506255196E+00  0.13609704091E+01 -0.28801570556E+02  0.28834367629E+02  0.51100000000E-03 0.  1.
        -12    1    3    3    0    0 -0.11801575611E+02  0.13182947611E+02 -0.55236065526E+01  0.18535844301E+02  0.00000000000E+00 0.  1.
</event>
<event>
 7    1  0.6889665E-012  0.5052886E+02  0.7816164E-02  0.1300439E+00
        -11   -1    0    0    0    0  0.00000000000E+00  0.00000000000E+00  0.45593999997E+02  0.45594000000E+02  0.51100000000E-03 0. -1.
         11   -1    0    0    0    0 -0.00000000000E+00 -0.00000000000E+00 -0.45593999997E+02  0.45594000000E+02  0.51100000000E-03 0.  1.
    9900012    2    1    2    0    0 -0.39760633824E+02  0.84438015934E+01 -0.97977461637E+00  0.50528859014E+02  0.29999997459E+02 0.  0.
         12    1    1    2    0    0  0.39760633824E+02 -0.84438015934E+01  0.97977461637E+00  0.40659140986E+02  0.00000000000E+00 0. -1.
         11    1    3    3    0    0 -0.31272502329E+02  0.88190557405E+01 -0.12664454047E+02  0.34873106295E+02  0.51100000000E-03 0. -1.
        -11    1    3    3    0    0 -0.75681374625E+01 -0.21185614252E+01  0.68154279718E+01  0.10402647060E+02  0.51100000000E-03 0.  1.
         12    1    3    3    0    0 -0.91999403214E+00  0.17433072781E+01  0.48692514593E+01  0.52531056585E+01  0.00000000000E+00 0. -1.
</event>
<event>
 7    1  0.6889665E-012  0.5052887E+02  0.7816164E-02  0.1300439E+00
        -11   -1    0    0    0    0  0.00000000000E+00  0.00000000000E+00  0.45593999997E+02  0.45594000000E+02  0.51100000000E-03 0.  1.
         11   -1    0    0    0    0 -0.00000000000E+00 -0.00000000000E+00 -0.45593999997E+02  0.45594000000E+02  0.51100000000E-03 0. -1.
    9900012    2    1    2    0    0 -0.18562001418E+02 -0.35244409559E+02  0.81515972202E+01  0.50528870164E+02  0.30000031350E+02 0.  0.
        -12    1    1    2    0    0  0.18562001418E+02  0.35244409559E+02 -0.81515972202E+01  0.40659129836E+02  0.00000000000E+00 0.  1.
         11    1    3    3    0    0 -0.92695927466E+01  0.98155490209E+00 -0.25609812402E+01  0.96668208263E+01  0.51100000000E-03 0. -1.
        -11    1    3    3    0    0 -0.58016221846E+01 -0.85297988914E+01  0.75177988507E+01  0.12764544211E+02  0.51100000000E-03 0.  1.
         12    1    3    3    0    0 -0.34907864868E+01 -0.27696165570E+02  0.31947796098E+01  0.28097505126E+02  0.00000000000E+00 0. -1.
</event>
<event>
 7    1  0.6889665E-012  0.5052886E+02  0.7816164E-02  0.1300439E+00
        -11   -1    0    0    0    0  0.00000000000E+00  0.00000000000E+00  0.45593999997E+02  0.45594000000E+02  0.51100000000E-03 0. -1.
         11   -1    0    0    0    0 -0.00000000000E+00 -0.00000000000E+00 -0.45593999997E+02  0.45594000000E+02  0.51100000000E-03 0.  1.
    9900012    2    1    2    0    0  0.15446309738E+02 -0.73325596376E+01 -0.36889169254E+02  0.50528859286E+02  0.29999998285E+02 0.  0.
         12    1    1    2    0    0 -0.15446309738E+02  0.73325596376E+01  0.36889169254E+02  0.40659140714E+02  0.00000000000E+00 0. -1.
         11    1    3    3    0    0 -0.84691086537E+01 -0.33506072054E+00 -0.50202171414E+01  0.98509211489E+01  0.51100000000E-03 0. -1.
        -11    1    3    3    0    0  0.34697445828E+01 -0.13409236353E+01 -0.74800213706E+01  0.83539166642E+01  0.51100000000E-03 0.  1.
         12    1    3    3    0    0  0.20445673809E+02 -0.56565752817E+01 -0.24388930742E+02  0.32324021473E+02  0.00000000000E+00 0. -1.
</event>
<event>
 7    1  0.6889665E-012  0.5052886E+02  0.7816164E-02  0.1300439E+00
        -11   -1    0    0    0    0  0.00000000000E+00  0.00000000000E+00  0.45593999997E+02  0.45594000000E+02  0.51100000000E-03 0.  1.
         11   -1    0    0    0    0 -0.00000000000E+00 -0.00000000000E+00 -0.45593999997E+02  0.45594000000E+02  0.51100000000E-03 0. -1.
    9900012    2    1    2    0    0  0.30113203952E+02 -0.13449219648E+01 -0.27286482633E+02  0.50528855864E+02  0.29999987885E+02 0.  0.
         12    1    1    2    0    0 -0.30113203952E+02  0.13449219648E+01  0.27286482633E+02  0.40659144136E+02  0.00000000000E+00 0. -1.
         11    1    3    3    0    0  0.74265849778E+01  0.11178911130E+01 -0.24878329706E+02  0.25987210974E+02  0.51100000000E-03 0. -1.
        -11    1    3    3    0    0  0.87642673909E+01 -0.16700143885E+01 -0.51903945894E+01  0.10321895524E+02  0.51100000000E-03 0.  1.
         12    1    3    3    0    0  0.13922351583E+02 -0.79279868935E+00  0.27822416624E+01  0.14219749366E+02  0.00000000000E+00 0. -1.
</event>
<event>
 7    1  0.6889665E-012  0.5052882E+02  0.7816164E-02  0.1300439E+00
        -11   -1    0    0    0    0  0.00000000000E+00  0.00000000000E+00  0.45593999997E+02  0.45594000000E+02  0.51100000000E-03 0.  1.
         11   -1    0    0    0    0 -0.00000000000E+00 -0.00000000000E+00 -0.45593999997E+02  0.45594000000E+02  0.51100000000E-03 0. -1.
    9900012    2    1    2    0    0 -0.29194134527E+02  0.24428088052E+02  0.14287761267E+02  0.50528817781E+02  0.29999872128E+02 0.  0.
        -12    1    1    2    0    0  0.29194134527E+02 -0.24428088052E+02 -0.14287761267E+02  0.40659182219E+02  0.00000000000E+00 0.  1.
         11    1    3    3    0    0 -0.69130969725E+01  0.11053530392E+02 -0.63532651018E+01  0.14502945273E+02  0.51100000000E-03 0. -1.
        -11    1    3    3    0    0 -0.20965598159E+02  0.90732669629E+01  0.10932211061E+02  0.25325752081E+02  0.51100000000E-03 0.  1.
         12    1    3    3    0    0 -0.13154393956E+01  0.43012906972E+01  0.97088153081E+01  0.10700120427E+02  0.00000000000E+00 0. -1.
</event>
<event>
 7    1  0.6889665E-012  0.5052886E+02  0.7816164E-02  0.1300439E+00
        -11   -1    0    0    0    0  0.00000000000E+00  0.00000000000E+00  0.45593999997E+02  0.45594000000E+02  0.51100000000E-03 0. -1.
         11   -1    0    0    0    0 -0.00000000000E+00 -0.00000000000E+00 -0.45593999997E+02  0.45594000000E+02  0.51100000000E-03 0.  1.
    9900012    2    1    2    0    0  0.73765638196E+01  0.30541173473E+02 -0.25806759450E+02  0.50528858295E+02  0.29999995275E+02 0.  0.
         12    1    1    2    0    0 -0.73765638196E+01 -0.30541173473E+02  0.25806759450E+02  0.40659141705E+02  0.00000000000E+00 0. -1.
         11    1    3    3    0    0 -0.65382757319E+01  0.80906994649E+01 -0.78278569989E-01  0.10402624437E+02  0.51100000000E-03 0. -1.
        -11    1    3    3    0    0  0.92085058250E+01  0.24083524675E+02 -0.20932336426E+02  0.33211074190E+02  0.51100000000E-03 0.  1.
        -12    1    3    3    0    0  0.47063337265E+01 -0.16330506675E+01 -0.47961444533E+01  0.69151596688E+01  0.00000000000E+00 0.  1.
</event>
<event>
 7    1  0.6889665E-012  0.5052874E+02  0.7816164E-02  0.1300439E+00
        -11   -1    0    0    0    0  0.00000000000E+00  0.00000000000E+00  0.45593999997E+02  0.45594000000E+02  0.51100000000E-03 0. -1.
         11   -1    0    0    0    0 -0.00000000000E+00 -0.00000000000E+00 -0.45593999997E+02  0.45594000000E+02  0.51100000000E-03 0.  1.
    9900012    2    1    2    0    0 -0.64160359199E+01 -0.10930252389E+02  0.38633403555E+02  0.50528735318E+02  0.29999621471E+02 0.  0.
        -12    1    1    2    0    0  0.64160359199E+01  0.10930252389E+02 -0.38633403555E+02  0.40659264682E+02  0.00000000000E+00 0.  1.
         11    1    3    3    0    0  0.53096175780E+01 -0.77592637887E+01  0.23592850768E+02  0.25397260107E+02  0.51100000000E-03 0. -1.
        -11    1    3    3    0    0 -0.12659286824E+01 -0.52094059066E+00 -0.34562383191E+01  0.37174639349E+01  0.51100000000E-03 0.  1.
         12    1    3    3    0    0 -0.10459724816E+02 -0.26500480095E+01  0.18496791107E+02  0.21414011276E+02  0.00000000000E+00 0. -1.
</event>
<event>
 7    1  0.6889665E-012  0.5052886E+02  0.7816164E-02  0.1300439E+00
        -11   -1    0    0    0    0  0.00000000000E+00  0.00000000000E+00  0.45593999997E+02  0.45594000000E+02  0.51100000000E-03 0. -1.
         11   -1    0    0    0    0 -0.00000000000E+00 -0.00000000000E+00 -0.45593999997E+02  0.45594000000E+02  0.51100000000E-03 0.  1.
    9900012    2    1    2    0    0 -0.12672993609E+02 -0.16702189086E+01  0.38597553857E+02  0.50528861273E+02  0.30000004327E+02 0.  0.
        -12    1    1    2    0    0  0.12672993609E+02  0.16702189086E+01 -0.38597553857E+02  0.40659138727E+02  0.00000000000E+00 0.  1.
         11    1    3    3    0    0  0.44384073488E+00  0.15509502485E+01  0.33276084793E+02  0.33315165626E+02  0.51100000000E-03 0. -1.
        -11    1    3    3    0    0 -0.37989749890E+01 -0.53821623306E+01  0.35581912418E+01  0.74873631870E+01  0.51100000000E-03 0.  1.
         12    1    3    3    0    0 -0.93178593546E+01  0.21609931735E+01  0.17632778223E+01  0.97263324602E+01  0.00000000000E+00 0. -1.
</event>
<event>
 7    1  0.6889665E-012  0.5052887E+02  0.7816164E-02  0.1300439E+00
        -11   -1    0    0    0    0  0.00000000000E+00  0.00000000000E+00  0.45593999997E+02  0.45594000000E+02  0.51100000000E-03 0.  1.
         11   -1    0    0    0    0 -0.00000000000E+00 -0.00000000000E+00 -0.45593999997E+02  0.45594000000E+02  0.51100000000E-03 0. -1.
    9900012    2    1    2    0    0 -0.34196287814E+02 -0.10233539798E+02  0.19469300341E+02  0.50528867043E+02  0.30000021863E+02 0.  0.
        -12    1    1    2    0    0  0.34196287814E+02  0.10233539798E+02 -0.19469300341E+02  0.40659132957E+02  0.00000000000E+00 0.  1.
         11    1    3    3    0    0 -0.21140849032E+02  0.71894766083E+01  0.24873727325E+01  0.22468001582E+02  0.51100000000E-03 0. -1.
        -11    1    3    3    0    0 -0.59545775900E+01 -0.11720395197E+02  0.88151392866E+01  0.15828181789E+02  0.51100000000E-03 0.  1.
         12    1    3    3    0    0 -0.71008611920E+01 -0.57026212091E+01  0.81667883218E+01  0.12232683672E+02  0.00000000000E+00 0. -1.
</event>
<event>
 7    1  0.6889665E-012  0.5052886E+02  0.7816164E-02  0.1300439E+00
        -11   -1    0    0    0    0  0.00000000000E+00  0.00000000000E+00  0.45593999997E+02  0.45594000000E+02  0.51100000000E-03 0. -1.
         11   -1    0    0    0    0 -0.00000000000E+00 -0.00000000000E+00 -0.45593999997E+02  0.45594000000E+02  0.51100000000E-03 0.  1.
    9900012    2    1    2    0    0  0.20296821386E+02  0.28302157796E+02  0.20980769787E+02  0.50528858406E+02  0.29999995611E+02 0.  0.
        -12    1    1    2    0    0 -0.20296821386E+02 -0.28302157796E+02 -0.20980769787E+02  0.40659141594E+02  0.00000000000E+00 0.  1.
         11    1    3    3    0    0 -0.26175297316E+01 -0.14014690434E+01  0.22537017941E+01  0.37275661514E+01  0.51100000000E-03 0.  1.
        -11    1    3    3    0    0  0.19928230461E+02  0.21064076419E+02  0.37272816237E+01  0.29235634305E+02  0.51100000000E-03 0. -1.
        -12    1    3    3    0    0  0.29861206571E+01  0.86395504205E+01  0.14999786370E+02  0.17565657949E+02  0.00000000000E+00 0.  1.
</event>
<event>
 7    1  0.6889665E-012  0.5052888E+02  0.7816164E-02  0.1300439E+00
        -11   -1    0    0    0    0  0.00000000000E+00  0.00000000000E+00  0.45593999997E+02  0.45594000000E+02  0.51100000000E-03 0. -1.
         11   -1    0    0    0    0 -0.00000000000E+00 -0.00000000000E+00 -0.45593999997E+02  0.45594000000E+02  0.51100000000E-03 0.  1.
    9900012    2    1    2    0    0 -0.16137723473E+01 -0.21922816252E+02  0.34204534733E+02  0.50528876425E+02  0.30000050381E+02 0.  0.
        -12    1    1    2    0    0  0.16137723473E+01  0.21922816252E+02 -0.34204534733E+02  0.40659123575E+02  0.00000000000E+00 0.  1.
         11    1    3    3    0    0 -0.63050269757E+01 -0.17576641667E+02  0.27120194785E+02  0.32927141736E+02  0.51100000000E-03 0. -1.
        -11    1    3    3    0    0 -0.39143355542E+00  0.30566904213E+01 -0.28590845251E+01  0.42036818555E+01  0.51100000000E-03 0.  1.
        -12    1    3    3    0    0  0.50826881838E+01 -0.74028650058E+01  0.99434244732E+01  0.13398052833E+02  0.00000000000E+00 0.  1.
</event>
<event>
 7    1  0.6889665E-012  0.5052885E+02  0.7816164E-02  0.1300439E+00
        -11   -1    0    0    0    0  0.00000000000E+00  0.00000000000E+00  0.45593999997E+02  0.45594000000E+02  0.51100000000E-03 0. -1.
         11   -1    0    0    0    0 -0.00000000000E+00 -0.00000000000E+00 -0.45593999997E+02  0.45594000000E+02  0.51100000000E-03 0.  1.
    9900012    2    1    2    0    0  0.29365345225E+02  0.11884889392E+02 -0.25487097130E+02  0.50528853229E+02  0.29999979875E+02 0.  0.
         12    1    1    2    0    0 -0.29365345225E+02 -0.11884889392E+02  0.25487097130E+02  0.40659146771E+02  0.00000000000E+00 0. -1.
         11    1    3    3    0    0  0.11685500604E+02  0.19335518203E+02 -0.82847077187E+01  0.24063448855E+02  0.51100000000E-03 0. -1.
        -11    1    3    3    0    0  0.81888916532E+01 -0.47362050736E+01 -0.47817126148E+01  0.10599733997E+02  0.51100000000E-03 0.  1.
         12    1    3    3    0    0  0.94909529677E+01 -0.27144237369E+01 -0.12420676796E+02  0.15865670378E+02  0.00000000000E+00 0. -1.
</event>
<event>
 7    1  0.6889665E-012  0.5052886E+02  0.7816164E-02  0.1300439E+00
        -11   -1    0    0    0    0  0.00000000000E+00  0.00000000000E+00  0.45593999997E+02  0.45594000000E+02  0.51100000000E-03 0. -1.
         11   -1    0    0    0    0 -0.00000000000E+00 -0.00000000000E+00 -0.45593999997E+02  0.45594000000E+02  0.51100000000E-03 0.  1.
    9900012    2    1    2    0    0  0.42609485109E+01  0.14263142036E+02 -0.37836128310E+02  0.50528861932E+02  0.30000006329E+02 0.  0.
         12    1    1    2    0    0 -0.42609485109E+01 -0.14263142036E+02  0.37836128310E+02  0.40659138068E+02  0.00000000000E+00 0. -1.
         11    1    3    3    0    0  0.52576152380E+01 -0.35462794194E+01  0.15109259988E+01  0.65193184725E+01  0.51100000000E-03 0. -1.
        -11    1    3    3    0    0  0.56916388139E+00  0.17095743146E+02 -0.30250945459E+02  0.34752094652E+02  0.51100000000E-03 0.  1.
        -12    1    3    3    0    0 -0.15658306085E+01  0.71367830890E+00 -0.90961088497E+01  0.92574488078E+01  0.00000000000E+00 0.  1.
</event>
<event>
 7    1  0.6889665E-012  0.5052888E+02  0.7816164E-02  0.1300439E+00
        -11   -1    0    0    0    0  0.00000000000E+00  0.00000000000E+00  0.45593999997E+02  0.45594000000E+02  0.51100000000E-03 0. -1.
         11   -1    0    0    0    0 -0.00000000000E+00 -0.00000000000E+00 -0.45593999997E+02  0.45594000000E+02  0.51100000000E-03 0.  1.
    9900012    2    1    2    0    0  0.35528864223E+02 -0.12559766571E+02  0.15268149389E+02  0.50528876607E+02  0.30000050934E+02 0.  0.
        -12    1    1    2    0    0 -0.35528864223E+02  0.12559766571E+02 -0.15268149389E+02  0.40659123393E+02  0.00000000000E+00 0.  1.
         11    1    3    3    0    0  0.33617193353E+02 -0.13843624318E+02  0.32993430409E+01  0.36505441895E+02  0.51100000000E-03 0. -1.
        -11    1    3    3    0    0 -0.22541262994E+01  0.15265664017E+01  0.25872912028E+01  0.37557377946E+01  0.51100000000E-03 0.  1.
         12    1    3    3    0    0  0.41657971698E+01 -0.24270865547E+00  0.93815151458E+01  0.10267696917E+02  0.00000000000E+00 0. -1.
</event>
<event>
 7    1  0.6889665E-012  0.5052885E+02  0.7816164E-02  0.1300439E+00
        -11   -1    0    0    0    0  0.00000000000E+00  0.00000000000E+00  0.45593999997E+02  0.45594000000E+02  0.51100000000E-03 0. -1.
         11   -1    0    0    0    0 -0.00000000000E+00 -0.00000000000E+00 -0.45593999997E+02  0.45594000000E+02  0.51100000000E-03 0.  1.
    9900012    2    1    2    0    0  0.18915539636E+02  0.66803269026E+01  0.35365829086E+02  0.50528852515E+02  0.29999977706E+02 0.  0.
        -12    1    1    2    0    0 -0.18915539636E+02 -0.66803269026E+01 -0.35365829086E+02  0.40659147485E+02  0.00000000000E+00 0.  1.
         11    1    3    3    0    0  0.11912889842E+02 -0.36490339202E+00  0.34064711959E+02  0.36089537265E+02  0.51100000000E-03 0. -1.
        -11    1    3    3    0    0  0.78071087579E+01  0.84715326968E+01 -0.10566493524E+01  0.11568678468E+02  0.51100000000E-03 0.  1.
         12    1    3    3    0    0 -0.80445896304E+00 -0.14263024022E+01  0.23577664791E+01  0.28706367822E+01  0.00000000000E+00 0. -1.
</event>
<event>
 7    1  0.1016496E-011  0.5052886E+02  0.7816164E-02  0.1300439E+00
        -11   -1    0    0    0    0  0.00000000000E+00  0.00000000000E+00  0.45593999997E+02  0.45594000000E+02  0.51100000000E-03 0. -1.
         11   -1    0    0    0    0 -0.00000000000E+00 -0.00000000000E+00 -0.45593999997E+02  0.45594000000E+02  0.51100000000E-03 0.  1.
    9900012    2    1    2    0    0  0.13325819018E+02  0.28968851224E+01 -0.38303994156E+02  0.50528863705E+02  0.30000011719E+02 0.  0.
         12    1    1    2    0    0 -0.13325819018E+02 -0.28968851224E+01  0.38303994156E+02  0.40659136295E+02  0.00000000000E+00 0. -1.
         11    1    3    3    0    0  0.15584982236E+01 -0.36938409325E+01  0.23476505465E+01  0.46459488695E+01  0.51100000000E-03 0. -1.
        -11    1    3    3    0    0  0.14904002225E+02  0.11061475596E+01 -0.29301763044E+02  0.32892950043E+02  0.51100000000E-03 0.  1.
        -12    1    3    3    0    0 -0.31366814306E+01  0.54845784953E+01 -0.11349881659E+02  0.12989964793E+02  0.00000000000E+00 0.  1.
</event>
<event>
 7    1  0.6889665E-012  0.5052887E+02  0.7816164E-02  0.1300439E+00
        -11   -1    0    0    0    0  0.00000000000E+00  0.00000000000E+00  0.45593999997E+02  0.45594000000E+02  0.51100000000E-03 0. -1.
         11   -1    0    0    0    0 -0.00000000000E+00 -0.00000000000E+00 -0.45593999997E+02  0.45594000000E+02  0.51100000000E-03 0.  1.
    9900012    2    1    2    0    0  0.15329986985E+02  0.11747403364E+02  0.35779257305E+02  0.50528865232E+02  0.30000016360E+02 0.  0.
        -12    1    1    2    0    0 -0.15329986985E+02 -0.11747403364E+02 -0.35779257305E+02  0.40659134768E+02  0.00000000000E+00 0.  1.
         11    1    3    3    0    0  0.84475906381E+00  0.16801320555E+02  0.29416938235E+02  0.33887375904E+02  0.51100000000E-03 0. -1.
        -11    1    3    3    0    0  0.58921932574E+01 -0.25714703466E+01  0.24746613391E+01  0.68887117903E+01  0.51100000000E-03 0.  1.
         12    1    3    3    0    0  0.85930346641E+01 -0.24824468446E+01  0.38876577308E+01  0.97527775381E+01  0.00000000000E+00 0. -1.
</event>
<event>
 7    1  0.7822724E-012  0.5052884E+02  0.7816164E-02  0.1300439E+00
        -11   -1    0    0    0    0  0.00000000000E+00  0.00000000000E+00  0.45593999997E+02  0.45594000000E+02  0.51100000000E-03 0. -1.
         11   -1    0    0    0    0 -0.00000000000E+00 -0.00000000000E+00 -0.45593999997E+02  0.45594000000E+02  0.51100000000E-03 0.  1.
    9900012    2    1    2    0    0 -0.77155989767E+01 -0.12397345255E+02  0.37946572975E+02  0.50528843129E+02  0.29999949174E+02 0.  0.
        -12    1    1    2    0    0  0.77155989767E+01  0.12397345255E+02 -0.37946572975E+02  0.40659156871E+02  0.00000000000E+00 0.  1.
         11    1    3    3    0    0 -0.11395718506E+02 -0.13713364951E+02  0.21117253462E+02  0.27637966144E+02  0.51100000000E-03 0. -1.
        -11    1    3    3    0    0  0.27997985752E+00  0.79000305517E+01  0.68418622766E+01  0.10454661693E+02  0.51100000000E-03 0.  1.
         12    1    3    3    0    0  0.34001396719E+01 -0.65840108556E+01  0.99874572364E+01  0.12436215292E+02  0.00000000000E+00 0. -1.
</event>
<event>
 7    1  0.6889665E-012  0.5052887E+02  0.7816164E-02  0.1300439E+00
        -11   -1    0    0    0    0  0.00000000000E+00  0.00000000000E+00  0.45593999997E+02  0.45594000000E+02  0.51100000000E-03 0.  1.
         11   -1    0    0    0    0 -0.00000000000E+00 -0.00000000000E+00 -0.45593999997E+02  0.45594000000E+02  0.51100000000E-03 0. -1.
    9900012    2    1    2    0    0 -0.13015532508E+02 -0.37917035630E+02 -0.67867000185E+01  0.50528868497E+02  0.30000026284E+02 0.  0.
         12    1    1    2    0    0  0.13015532508E+02  0.37917035630E+02  0.67867000185E+01  0.40659131503E+02  0.00000000000E+00 0. -1.
         11    1    3    3    0    0 -0.10743011752E+02 -0.16412318818E+01 -0.14674454393E+01  0.10966281957E+02  0.51100000000E-03 0. -1.
        -11    1    3    3    0    0 -0.59923926694E+01 -0.21314655207E+02 -0.86838756715E+01  0.23783040038E+02  0.51100000000E-03 0.  1.
         12    1    3    3    0    0  0.37198719135E+01 -0.14961148541E+02  0.33646210923E+01  0.15779546502E+02  0.00000000000E+00 0. -1.
</event>
<event>
 7    1  0.6889665E-012  0.5052886E+02  0.7816164E-02  0.1300439E+00
        -11   -1    0    0    0    0  0.00000000000E+00  0.00000000000E+00  0.45593999997E+02  0.45594000000E+02  0.51100000000E-03 0.  1.
         11   -1    0    0    0    0 -0.00000000000E+00 -0.00000000000E+00 -0.45593999997E+02  0.45594000000E+02  0.51100000000E-03 0. -1.
    9900012    2    1    2    0    0 -0.26146388739E+02 -0.27251192866E+02 -0.15063360986E+02  0.50528855876E+02  0.29999987922E+02 0.  0.
         12    1    1    2    0    0  0.26146388739E+02  0.27251192866E+02  0.15063360986E+02  0.40659144124E+02  0.00000000000E+00 0. -1.
         11    1    3    3    0    0 -0.27666842843E+01 -0.68512060053E+01 -0.56581337270E+00  0.74103785794E+01  0.51100000000E-03 0.  1.
        -11    1    3    3    0    0  0.35257229118E+00  0.40776908396E+01  0.27296130002E+01  0.49196196191E+01  0.51100000000E-03 0. -1.
        -12    1    3    3    0    0 -0.23732276745E+02 -0.24477677700E+02 -0.17227160613E+02  0.38198857678E+02  0.00000000000E+00 0.  1.
</event>
<event>
 7    1  0.6889665E-012  0.5052887E+02  0.7816164E-02  0.1300439E+00
        -11   -1    0    0    0    0  0.00000000000E+00  0.00000000000E+00  0.45593999997E+02  0.45594000000E+02  0.51100000000E-03 0. -1.
         11   -1    0    0    0    0 -0.00000000000E+00 -0.00000000000E+00 -0.45593999997E+02  0.45594000000E+02  0.51100000000E-03 0.  1.
    9900012    2    1    2    0    0 -0.36659150179E+01  0.52675336282E+01 -0.40149458730E+02  0.50528869663E+02  0.30000029829E+02 0.  0.
         12    1    1    2    0    0  0.36659150179E+01 -0.52675336282E+01  0.40149458730E+02  0.40659130337E+02  0.00000000000E+00 0. -1.
         11    1    3    3    0    0 -0.40344973002E+01  0.14021959354E+02 -0.74486679901E+01  0.16382160043E+02  0.51100000000E-03 0. -1.
        -11    1    3    3    0    0 -0.19417537928E+01 -0.26327547961E+01 -0.11861960750E+02  0.12304792509E+02  0.51100000000E-03 0.  1.
         12    1    3    3    0    0  0.23103360751E+01 -0.61216709294E+01 -0.20838829990E+02  0.21841917111E+02  0.00000000000E+00 0. -1.
</event>
<event>
 7    1  0.6889665E-012  0.5052886E+02  0.7816164E-02  0.1300439E+00
        -11   -1    0    0    0    0  0.00000000000E+00  0.00000000000E+00  0.45593999997E+02  0.45594000000E+02  0.51100000000E-03 0. -1.
         11   -1    0    0    0    0 -0.00000000000E+00 -0.00000000000E+00 -0.45593999997E+02  0.45594000000E+02  0.51100000000E-03 0.  1.
    9900012    2    1    2    0    0  0.27356653989E+01 -0.27880606893E+02 -0.29467836187E+02  0.50528862337E+02  0.30000007560E+02 0.  0.
         12    1    1    2    0    0 -0.27356653989E+01  0.27880606893E+02  0.29467836187E+02  0.40659137663E+02  0.00000000000E+00 0. -1.
         11    1    3    3    0    0 -0.18303511796E+01 -0.26969354004E+02 -0.13499607763E+02  0.30214825018E+02  0.51100000000E-03 0. -1.
        -11    1    3    3    0    0  0.83517997434E+01  0.30760191111E+00 -0.89368075686E+01  0.12235755296E+02  0.51100000000E-03 0.  1.
         12    1    3    3    0    0 -0.37857831650E+01 -0.12188548001E+01 -0.70314208552E+01  0.80782820227E+01  0.00000000000E+00 0. -1.
</event>
<event>
 7    1  0.6889665E-012  0.5052887E+02  0.7816164E-02  0.1300439E+00
        -11   -1    0    0    0    0  0.00000000000E+00  0.00000000000E+00  0.45593999997E+02  0.45594000000E+02  0.51100000000E-03 0. -1.
         11   -1    0    0    0    0 -0.00000000000E+00 -0.00000000000E+00 -0.45593999997E+02  0.45594000000E+02  0.51100000000E-03 0.  1.
    9900012    2    1    2    0    0  0.11198400581E+02 -0.22678132270E+02 -0.31834928809E+02  0.50528873705E+02  0.30000042113E+02 0.  0.
         12    1    1    2    0    0 -0.11198400581E+02  0.22678132270E+02  0.31834928809E+02  0.40659126295E+02  0.00000000000E+00 0. -1.
         11    1    3    3    0    0  0.24861724222E+00  0.36425098658E+01  0.21394716384E+01  0.42316696242E+01  0.51100000000E-03 0. -1.
        -11    1    3    3    0    0  0.70294169253E+01 -0.25124974188E+02 -0.33030170043E+02  0.42091200548E+02  0.51100000000E-03 0.  1.
        -12    1    3    3    0    0  0.39203664134E+01 -0.11956679482E+01 -0.94423040402E+00  0.42060035322E+01  0.00000000000E+00 0.  1.
</event>
<event>
 7    1  0.6889665E-012  0.5052885E+02  0.7816164E-02  0.1300439E+00
        -11   -1    0    0    0    0  0.00000000000E+00  0.00000000000E+00  0.45593999997E+02  0.45594000000E+02  0.51100000000E-03 0. -1.
         11   -1    0    0    0    0 -0.00000000000E+00 -0.00000000000E+00 -0.45593999997E+02  0.45594000000E+02  0.51100000000E-03 0.  1.
    9900012    2    1    2    0    0  0.18572773050E+02 -0.26090100958E+02  0.25050455601E+02  0.50528848600E+02  0.29999965804E+02 0.  0.
        -12    1    1    2    0    0 -0.18572773050E+02  0.26090100958E+02 -0.25050455601E+02  0.40659151400E+02  0.00000000000E+00 0.  1.
         11    1    3    3    0    0 -0.26174930387E+01  0.30195474915E+01  0.38548921979E+01  0.55523986690E+01  0.51100000000E-03 0. -1.
        -11    1    3    3    0    0  0.12164146611E+02 -0.23602585541E+02  0.73424138764E+01  0.27549220475E+02  0.51100000000E-03 0.  1.
         12    1    3    3    0    0  0.90261194772E+01 -0.55070629085E+01  0.13853149527E+02  0.17427229456E+02  0.00000000000E+00 0. -1.
</event>
<event>
 7    1  0.6889665E-012  0.5052887E+02  0.7816164E-02  0.1300439E+00
        -11   -1    0    0    0    0  0.00000000000E+00  0.00000000000E+00  0.45593999997E+02  0.45594000000E+02  0.51100000000E-03 0. -1.
         11   -1    0    0    0    0 -0.00000000000E+00 -0.00000000000E+00 -0.45593999997E+02  0.45594000000E+02  0.51100000000E-03 0.  1.
    9900012    2    1    2    0    0  0.10809697362E+02 -0.40974550077E+01 -0.38981100221E+02  0.50528869795E+02  0.30000030229E+02 0.  0.
         12    1    1    2    0    0 -0.10809697362E+02  0.40974550077E+01  0.38981100221E+02  0.40659130205E+02  0.00000000000E+00 0. -1.
         11    1    3    3    0    0 -0.40098776309E+01 -0.23347975223E+01  0.31476701451E+01  0.56069800863E+01  0.51100000000E-03 0. -1.
        -11    1    3    3    0    0  0.23915649956E+01 -0.38793615417E+00 -0.12984122745E+02  0.13208236874E+02  0.51100000000E-03 0.  1.
         12    1    3    3    0    0  0.12428009997E+02 -0.13747213313E+01 -0.29144647621E+02  0.31713652835E+02  0.00000000000E+00 0. -1.
</event>
<event>
 7    1  0.6889665E-012  0.5052887E+02  0.7816164E-02  0.1300439E+00
        -11   -1    0    0    0    0  0.00000000000E+00  0.00000000000E+00  0.45593999997E+02  0.45594000000E+02  0.51100000000E-03 0. -1.
         11   -1    0    0    0    0 -0.00000000000E+00 -0.00000000000E+00 -0.45593999997E+02  0.45594000000E+02  0.51100000000E-03 0.  1.
    9900012    2    1    2    0    0  0.35261148442E+02 -0.15517907526E+02 -0.13000413666E+02  0.50528870658E+02  0.30000032851E+02 0.  0.
         12    1    1    2    0    0 -0.35261148442E+02  0.15517907526E+02  0.13000413666E+02  0.40659129342E+02  0.00000000000E+00 0. -1.
         11    1    3    3    0    0  0.44001017378E+01 -0.49210175877E+01  0.41845982657E+01  0.78158922912E+01  0.51100000000E-03 0.  1.
        -11    1    3    3    0    0  0.11037805638E+02 -0.24835670605E+01 -0.18020159500E+02  0.21277391929E+02  0.51100000000E-03 0. -1.
        -12    1    3    3    0    0  0.19823241066E+02 -0.81133228773E+01  0.83514756804E+00  0.21435586437E+02  0.00000000000E+00 0.  1.
</event>
<event>
 7    1  0.6889665E-012  0.5052886E+02  0.7816164E-02  0.1300439E+00
        -11   -1    0    0    0    0  0.00000000000E+00  0.00000000000E+00  0.45593999997E+02  0.45594000000E+02  0.51100000000E-03 0. -1.
         11   -1    0    0    0    0 -0.00000000000E+00 -0.00000000000E+00 -0.45593999997E+02  0.45594000000E+02  0.51100000000E-03 0.  1.
    9900012    2    1    2    0    0  0.27359122959E+01  0.13600704383E+01  0.40544182058E+02  0.50528859497E+02  0.29999998926E+02 0.  0.
        -12    1    1    2    0    0 -0.27359122959E+01 -0.13600704383E+01 -0.40544182058E+02  0.40659140503E+02  0.00000000000E+00 0.  1.
         11    1    3    3    0    0  0.79251261864E+01  0.11612857783E+01  0.16724173168E+02  0.18543305481E+02  0.51100000000E-03 0. -1.
        -11    1    3    3    0    0 -0.40107330207E+01  0.41676529777E+01 -0.17809157607E+01  0.60520221342E+01  0.51100000000E-03 0.  1.
        -12    1    3    3    0    0 -0.11784808698E+01 -0.39688683177E+01  0.25600924651E+02  0.25933531882E+02  0.00000000000E+00 0.  1.
</event>
<event>
 7    1  0.6889665E-012  0.5052886E+02  0.7816164E-02  0.1300439E+00
        -11   -1    0    0    0    0  0.00000000000E+00  0.00000000000E+00  0.45593999997E+02  0.45594000000E+02  0.51100000000E-03 0.  1.
         11   -1    0    0    0    0 -0.00000000000E+00 -0.00000000000E+00 -0.45593999997E+02  0.45594000000E+02  0.51100000000E-03 0. -1.
    9900012    2    1    2    0    0 -0.38528279232E+02  0.67175407636E+01  0.11118093011E+02  0.50528860232E+02  0.30000001161E+02 0.  0.
        -12    1    1    2    0    0  0.38528279232E+02 -0.67175407636E+01 -0.11118093011E+02  0.40659139768E+02  0.00000000000E+00 0.  1.
         11    1    3    3    0    0 -0.26500945994E+02  0.61097937365E+01 -0.72830008980E+01  0.28154428079E+02  0.51100000000E-03 0. -1.
        -11    1    3    3    0    0 -0.76334910787E+01 -0.11918479056E+01  0.91461175822E+01  0.11972558397E+02  0.51100000000E-03 0.  1.
         12    1    3    3    0    0 -0.43938421591E+01  0.17995949326E+01  0.92549763263E+01  0.10401873756E+02  0.00000000000E+00 0. -1.
</event>
<event>
 7    1  0.6889665E-012  0.5052887E+02  0.7816164E-02  0.1300439E+00
        -11   -1    0    0    0    0  0.00000000000E+00  0.00000000000E+00  0.45593999997E+02  0.45594000000E+02  0.51100000000E-03 0. -1.
         11   -1    0    0    0    0 -0.00000000000E+00 -0.00000000000E+00 -0.45593999997E+02  0.45594000000E+02  0.51100000000E-03 0.  1.
    9900012    2    1    2    0    0 -0.20994715928E+02 -0.24966218647E+02  0.24270864594E+02  0.50528867710E+02  0.30000023892E+02 0.  0.
        -12    1    1    2    0    0  0.20994715928E+02  0.24966218647E+02 -0.24270864594E+02  0.40659132290E+02  0.00000000000E+00 0.  1.
         11    1    3    3    0    0 -0.48260540388E+01 -0.13787120638E+02  0.22586085659E+02  0.26898080949E+02  0.51100000000E-03 0. -1.
        -11    1    3    3    0    0 -0.18166467574E+01  0.27997766506E+01 -0.82920154287E+00  0.34389722584E+01  0.51100000000E-03 0.  1.
         12    1    3    3    0    0 -0.14352015132E+02 -0.13978874659E+02  0.25139804782E+01  0.20191814503E+02  0.00000000000E+00 0. -1.
</event>
<event>
 7    1  0.6889665E-012  0.5052887E+02  0.7816164E-02  0.1300439E+00
        -11   -1    0    0    0    0  0.00000000000E+00  0.00000000000E+00  0.45593999997E+02  0.45594000000E+02  0.51100000000E-03 0. -1.
         11   -1    0    0    0    0 -0.00000000000E+00 -0.00000000000E+00 -0.45593999997E+02  0.45594000000E+02  0.51100000000E-03 0.  1.
    9900012    2    1    2    0    0  0.18409340652E+01 -0.84120460123E+01  0.39736796226E+02  0.50528873956E+02  0.30000042876E+02 0.  0.
        -12    1    1    2    0    0 -0.18409340652E+01  0.84120460123E+01 -0.39736796226E+02  0.40659126044E+02  0.00000000000E+00 0.  1.
         11    1    3    3    0    0 -0.39253224352E+01 -0.35484213825E+01  0.11508075737E+02  0.12666304037E+02  0.51100000000E-03 0. -1.
        -11    1    3    3    0    0  0.17290770761E+01  0.32046349997E+01 -0.33941397821E+01  0.49779090127E+01  0.51100000000E-03 0.  1.
        -12    1    3    3    0    0  0.40371794242E+01 -0.80682596295E+01  0.31622860272E+02  0.32884660906E+02  0.00000000000E+00 0.  1.
</event>
<event>
 7    1  0.6889665E-012  0.5052886E+02  0.7816164E-02  0.1300439E+00
        -11   -1    0    0    0    0  0.00000000000E+00  0.00000000000E+00  0.45593999997E+02  0.45594000000E+02  0.51100000000E-03 0. -1.
         11   -1    0    0    0    0 -0.00000000000E+00 -0.00000000000E+00 -0.45593999997E+02  0.45594000000E+02  0.51100000000E-03 0.  1.
    9900012    2    1    2    0    0 -0.13549181430E+02 -0.33723250053E+02  0.18229848978E+02  0.50528864430E+02  0.30000013922E+02 0.  0.
        -12    1    1    2    0    0  0.13549181430E+02  0.33723250053E+02 -0.18229848978E+02  0.40659135570E+02  0.00000000000E+00 0.  1.
         11    1    3    3    0    0  0.27788006474E+01 -0.24297769758E+02  0.30737191744E+01  0.24648551643E+02  0.51100000000E-03 0. -1.
        -11    1    3    3    0    0 -0.15865803388E+02 -0.51623905945E+01  0.12294527797E+02  0.20725091262E+02  0.51100000000E-03 0.  1.
         12    1    3    3    0    0 -0.46217868872E+00 -0.42630897003E+01  0.28616020058E+01  0.51552215251E+01  0.00000000000E+00 0. -1.
</event>
<event>
 7    1  0.6889665E-012  0.5052886E+02  0.7816164E-02  0.1300439E+00
        -11   -1    0    0    0    0  0.00000000000E+00  0.00000000000E+00  0.45593999997E+02  0.45594000000E+02  0.51100000000E-03 0. -1.
         11   -1    0    0    0    0 -0.00000000000E+00 -0.00000000000E+00 -0.45593999997E+02  0.45594000000E+02  0.51100000000E-03 0.  1.
    9900012    2    1    2    0    0 -0.28482342754E+02 -0.21717266563E+02 -0.19242717468E+02  0.50528859683E+02  0.29999999494E+02 0.  0.
         12    1    1    2    0    0  0.28482342754E+02  0.21717266563E+02  0.19242717468E+02  0.40659140317E+02  0.00000000000E+00 0. -1.
         11    1    3    3    0    0 -0.30099573237E+01 -0.18382191141E+02 -0.15788000576E+02  0.24417734471E+02  0.51100000000E-03 0. -1.
        -11    1    3    3    0    0 -0.19646972716E+02 -0.35400613351E+01 -0.17602239735E+01  0.20040807365E+02  0.51100000000E-03 0.  1.
         12    1    3    3    0    0 -0.58254127146E+01  0.20498591299E+00 -0.16944929183E+01  0.60703178475E+01  0.00000000000E+00 0. -1.
</event>
<event>
 7    1  0.6889665E-012  0.5052888E+02  0.7816164E-02  0.1300439E+00
        -11   -1    0    0    0    0  0.00000000000E+00  0.00000000000E+00  0.45593999997E+02  0.45594000000E+02  0.51100000000E-03 0. -1.
         11   -1    0    0    0    0 -0.00000000000E+00 -0.00000000000E+00 -0.45593999997E+02  0.45594000000E+02  0.51100000000E-03 0.  1.
    9900012    2    1    2    0    0  0.31370432945E+02  0.23402695559E+02 -0.11016979696E+02  0.50528879692E+02  0.30000060312E+02 0.  0.
         12    1    1    2    0    0 -0.31370432945E+02 -0.23402695559E+02  0.11016979696E+02  0.40659120308E+02  0.00000000000E+00 0. -1.
         11    1    3    3    0    0  0.13527832037E+02  0.15694704010E+02 -0.16636587745E+02  0.26572580335E+02  0.51100000000E-03 0.  1.
        -11    1    3    3    0    0  0.15167784182E+02  0.10999551271E+02  0.30104959758E+01  0.18976693375E+02  0.51100000000E-03 0. -1.
        -12    1    3    3    0    0  0.26748167268E+01 -0.32915597225E+01  0.26091120737E+01  0.49796059825E+01  0.00000000000E+00 0.  1.
</event>
<event>
 7    1  0.6889665E-012  0.5052889E+02  0.7816164E-02  0.1300439E+00
        -11   -1    0    0    0    0  0.00000000000E+00  0.00000000000E+00  0.45593999997E+02  0.45594000000E+02  0.51100000000E-03 0. -1.
         11   -1    0    0    0    0 -0.00000000000E+00 -0.00000000000E+00 -0.45593999997E+02  0.45594000000E+02  0.51100000000E-03 0.  1.
    9900012    2    1    2    0    0 -0.83800168023E+01 -0.20304276286E+02 -0.34215126508E+02  0.50528890332E+02  0.30000092652E+02 0.  0.
         12    1    1    2    0    0  0.83800168023E+01  0.20304276286E+02  0.34215126508E+02  0.40659109668E+02  0.00000000000E+00 0. -1.
         11    1    3    3    0    0  0.55641617056E+01 -0.38338734094E+01 -0.87345961136E+01  0.11043172114E+02  0.51100000000E-03 0. -1.
        -11    1    3    3    0    0 -0.86764203032E+01 -0.20048919734E+02 -0.12861137372E+02  0.25350509000E+02  0.51100000000E-03 0.  1.
        -12    1    3    3    0    0 -0.52677582046E+01  0.35785168575E+01 -0.12619393022E+02  0.14135209218E+02  0.00000000000E+00 0.  1.
</event>
<event>
 7    1  0.6889665E-012  0.5052883E+02  0.7816164E-02  0.1300439E+00
        -11   -1    0    0    0    0  0.00000000000E+00  0.00000000000E+00  0.45593999997E+02  0.45594000000E+02  0.51100000000E-03 0. -1.
         11   -1    0    0    0    0 -0.00000000000E+00 -0.00000000000E+00 -0.45593999997E+02  0.45594000000E+02  0.51100000000E-03 0.  1.
    9900012    2    1    2    0    0 -0.39597620390E+01 -0.14068875074E+02 -0.37941466044E+02  0.50528833667E+02  0.29999920415E+02 0.  0.
         12    1    1    2    0    0  0.39597620390E+01  0.14068875074E+02  0.37941466044E+02  0.40659166333E+02  0.00000000000E+00 0. -1.
         11    1    3    3    0    0  0.59510416638E+01 -0.23153530130E+01  0.24351025925E+01  0.68341408645E+01  0.51100000000E-03 0. -1.
        -11    1    3    3    0    0 -0.16142441531E+01 -0.48492230649E+01 -0.73746463071E+01  0.89725223284E+01  0.51100000000E-03 0.  1.
         12    1    3    3    0    0 -0.82965595497E+01 -0.69042989965E+01 -0.33001922330E+02  0.34722170474E+02  0.00000000000E+00 0. -1.
</event>
<event>
 7    1  0.7021140E-012  0.5052886E+02  0.7816164E-02  0.1300439E+00
        -11   -1    0    0    0    0  0.00000000000E+00  0.00000000000E+00  0.45593999997E+02  0.45594000000E+02  0.51100000000E-03 0. -1.
         11   -1    0    0    0    0 -0.00000000000E+00 -0.00000000000E+00 -0.45593999997E+02  0.45594000000E+02  0.51100000000E-03 0.  1.
    9900012    2    1    2    0    0 -0.23839216650E+02  0.21464863853E+02 -0.24982338972E+02  0.50528857225E+02  0.29999992021E+02 0.  0.
         12    1    1    2    0    0  0.23839216650E+02 -0.21464863853E+02  0.24982338972E+02  0.40659142775E+02  0.00000000000E+00 0. -1.
         11    1    3    3    0    0 -0.16796725884E+01  0.17073810550E+02 -0.62461176604E+01  0.18257883032E+02  0.51100000000E-03 0. -1.
        -11    1    3    3    0    0 -0.87697297171E+01  0.30173687321E+01 -0.16062813325E+02  0.18547955293E+02  0.51100000000E-03 0.  1.
         12    1    3    3    0    0 -0.13389814344E+02  0.13736845704E+01 -0.26734079862E+01  0.13723018900E+02  0.00000000000E+00 0. -1.
</event>
<event>
 7    1  0.6889665E-012  0.5052886E+02  0.7816164E-02  0.1300439E+00
        -11   -1    0    0    0    0  0.00000000000E+00  0.00000000000E+00  0.45593999997E+02  0.45594000000E+02  0.51100000000E-03 0. -1.
         11   -1    0    0    0    0 -0.00000000000E+00 -0.00000000000E+00 -0.45593999997E+02  0.45594000000E+02  0.51100000000E-03 0.  1.
    9900012    2    1    2    0    0  0.72620985369E+01 -0.14196526616E+02  0.37401687307E+02  0.50528860111E+02  0.30000000793E+02 0.  0.
        -12    1    1    2    0    0 -0.72620985369E+01  0.14196526616E+02 -0.37401687307E+02  0.40659139889E+02  0.00000000000E+00 0.  1.
         11    1    3    3    0    0  0.14470121781E+02 -0.17942972235E+02  0.32475755597E+02  0.39824733255E+02  0.51100000000E-03 0. -1.
        -11    1    3    3    0    0 -0.68470700502E+01  0.39366877190E+01  0.25590378719E+01  0.83023221788E+01  0.51100000000E-03 0.  1.
        -12    1    3    3    0    0 -0.36095319395E+00 -0.19024210009E+00  0.23668938385E+01  0.24018046773E+01  0.00000000000E+00 0.  1.
</event>
<event>
 7    1  0.6889665E-012  0.5052887E+02  0.7816164E-02  0.1300439E+00
        -11   -1    0    0    0    0  0.00000000000E+00  0.00000000000E+00  0.45593999997E+02  0.45594000000E+02  0.51100000000E-03 0. -1.
         11   -1    0    0    0    0 -0.00000000000E+00 -0.00000000000E+00 -0.45593999997E+02  0.45594000000E+02  0.51100000000E-03 0.  1.
    9900012    2    1    2    0    0  0.13816740019E+01  0.11984721635E+02  0.38828112624E+02  0.50528869345E+02  0.30000028860E+02 0.  0.
        -12    1    1    2    0    0 -0.13816740019E+01 -0.11984721635E+02 -0.38828112624E+02  0.40659130655E+02  0.00000000000E+00 0.  1.
         11    1    3    3    0    0  0.14165528097E+02  0.17627889957E+01  0.16475885357E+02  0.21799642425E+02  0.51100000000E-03 0. -1.
        -11    1    3    3    0    0 -0.72802577229E+01  0.25452544809E+01  0.57201975388E+01  0.96021421062E+01  0.51100000000E-03 0.  1.
         12    1    3    3    0    0 -0.55035963718E+01  0.76766781586E+01  0.16632029728E+02  0.19127084813E+02  0.00000000000E+00 0. -1.
</event>
<event>
 7    1  0.6889665E-012  0.5052887E+02  0.7816164E-02  0.1300439E+00
        -11   -1    0    0    0    0  0.00000000000E+00  0.00000000000E+00  0.45593999997E+02  0.45594000000E+02  0.51100000000E-03 0. -1.
         11   -1    0    0    0    0 -0.00000000000E+00 -0.00000000000E+00 -0.45593999997E+02  0.45594000000E+02  0.51100000000E-03 0.  1.
    9900012    2    1    2    0    0 -0.13362546416E+02 -0.24865972282E+02  0.29262446619E+02  0.50528868106E+02  0.30000025095E+02 0.  0.
        -12    1    1    2    0    0  0.13362546416E+02  0.24865972282E+02 -0.29262446619E+02  0.40659131894E+02  0.00000000000E+00 0.  1.
         11    1    3    3    0    0 -0.50816586053E+01 -0.20990821223E+02  0.13577046147E+02  0.25510272679E+02  0.51100000000E-03 0. -1.
        -11    1    3    3    0    0 -0.13137012719E+02 -0.51370605971E+01  0.92906884017E+01  0.16890452510E+02  0.51100000000E-03 0.  1.
         12    1    3    3    0    0  0.48561249088E+01  0.12619095389E+01  0.63947120707E+01  0.81281429171E+01  0.00000000000E+00 0. -1.
</event>
<event>
 7    1  0.6889665E-012  0.5052879E+02  0.7816164E-02  0.1300439E+00
        -11   -1    0    0    0    0  0.00000000000E+00  0.00000000000E+00  0.45593999997E+02  0.45594000000E+02  0.51100000000E-03 0. -1.
         11   -1    0    0    0    0 -0.00000000000E+00 -0.00000000000E+00 -0.45593999997E+02  0.45594000000E+02  0.51100000000E-03 0.  1.
    9900012    2    1    2    0    0 -0.27986395264E+02 -0.53914317764E+01 -0.28997682289E+02  0.50528789056E+02  0.29999784813E+02 0.  0.
         12    1    1    2    0    0  0.27986395264E+02  0.53914317764E+01  0.28997682289E+02  0.40659210944E+02  0.00000000000E+00 0. -1.
         11    1    3    3    0    0  0.52837407866E+00 -0.64184345841E+00 -0.14035717917E+02  0.14060317205E+02  0.51100000000E-03 0. -1.
        -11    1    3    3    0    0 -0.29326236304E+02 -0.24381516205E+01 -0.10256618337E+02  0.31163615629E+02  0.51100000000E-03 0.  1.
        -12    1    3    3    0    0  0.81146696072E+00 -0.23114366975E+01 -0.47053460344E+01  0.53048562222E+01  0.00000000000E+00 0.  1.
</event>
<event>
 7    1  0.6889665E-012  0.5052886E+02  0.7816164E-02  0.1300439E+00
        -11   -1    0    0    0    0  0.00000000000E+00  0.00000000000E+00  0.45593999997E+02  0.45594000000E+02  0.51100000000E-03 0. -1.
         11   -1    0    0    0    0 -0.00000000000E+00 -0.00000000000E+00 -0.45593999997E+02  0.45594000000E+02  0.51100000000E-03 0.  1.
    9900012    2    1    2    0    0  0.36586519619E+02  0.12878559790E+01  0.17689927943E+02  0.50528861525E+02  0.30000005093E+02 0.  0.
        -12    1    1    2    0    0 -0.36586519619E+02 -0.12878559790E+01 -0.17689927943E+02  0.40659138475E+02  0.00000000000E+00 0.  1.
         11    1    3    3    0    0 -0.23647959726E+01  0.50680556883E+01  0.17385311295E+01  0.58566149951E+01  0.51100000000E-03 0. -1.
        -11    1    3    3    0    0  0.31225138733E+02 -0.88300665042E+01  0.13293921679E+02  0.35067188614E+02  0.51100000000E-03 0.  1.
        -12    1    3    3    0    0  0.77261768583E+01  0.50498667949E+01  0.26574751344E+01  0.96050579167E+01  0.00000000000E+00 0.  1.
</event>
<event>
 7    1  0.6889665E-012  0.5052886E+02  0.7816164E-02  0.1300439E+00
        -11   -1    0    0    0    0  0.00000000000E+00  0.00000000000E+00  0.45593999997E+02  0.45594000000E+02  0.51100000000E-03 0. -1.
         11   -1    0    0    0    0 -0.00000000000E+00 -0.00000000000E+00 -0.45593999997E+02  0.45594000000E+02  0.51100000000E-03 0.  1.
    9900012    2    1    2    0    0  0.15725294021E+02  0.22054801946E+02  0.30322709780E+02  0.50528857248E+02  0.29999992092E+02 0.  0.
        -12    1    1    2    0    0 -0.15725294021E+02 -0.22054801946E+02 -0.30322709780E+02  0.40659142752E+02  0.00000000000E+00 0.  1.
         11    1    3    3    0    0  0.19096717002E+01  0.74889878961E+01  0.25297635352E+02  0.26451883494E+02  0.51100000000E-03 0. -1.
        -11    1    3    3    0    0  0.13749552408E+02  0.14154639609E+02  0.78383208445E+01  0.21233070617E+02  0.51100000000E-03 0.  1.
         12    1    3    3    0    0  0.66069912396E-01  0.41117444095E+00 -0.28132464169E+01  0.28439031377E+01  0.00000000000E+00 0. -1.
</event>
<event>
 7    1  0.6889665E-012  0.5052884E+02  0.7816164E-02  0.1300439E+00
        -11   -1    0    0    0    0  0.00000000000E+00  0.00000000000E+00  0.45593999997E+02  0.45594000000E+02  0.51100000000E-03 0. -1.
         11   -1    0    0    0    0 -0.00000000000E+00 -0.00000000000E+00 -0.45593999997E+02  0.45594000000E+02  0.51100000000E-03 0.  1.
    9900012    2    1    2    0    0  0.33695839173E+02  0.75337967726E+01  0.21470895767E+02  0.50528843142E+02  0.29999949214E+02 0.  0.
        -12    1    1    2    0    0 -0.33695839173E+02 -0.75337967726E+01 -0.21470895767E+02  0.40659156858E+02  0.00000000000E+00 0.  1.
         11    1    3    3    0    0  0.15936059445E+02 -0.76279524556E+01  0.11099374145E+02  0.20864797051E+02  0.51100000000E-03 0. -1.
        -11    1    3    3    0    0  0.15813208096E+02  0.14284084350E+02  0.24383111967E+01  0.21448495933E+02  0.51100000000E-03 0.  1.
        -12    1    3    3    0    0  0.19465716320E+01  0.87766487821E+00  0.79332104252E+01  0.82155501586E+01  0.00000000000E+00 0.  1.
</event>
<event>
 7    1  0.6889665E-012  0.5052888E+02  0.7816164E-02  0.1300439E+00
        -11   -1    0    0    0    0  0.00000000000E+00  0.00000000000E+00  0.45593999997E+02  0.45594000000E+02  0.51100000000E-03 0. -1.
         11   -1    0    0    0    0 -0.00000000000E+00 -0.00000000000E+00 -0.45593999997E+02  0.45594000000E+02  0.51100000000E-03 0.  1.
    9900012    2    1    2    0    0  0.37276196429E+02 -0.33584934690E+01 -0.15886158252E+02  0.50528876515E+02  0.30000050654E+02 0.  0.
         12    1    1    2    0    0 -0.37276196429E+02  0.33584934690E+01  0.15886158252E+02  0.40659123485E+02  0.00000000000E+00 0. -1.
         11    1    3    3    0    0  0.28742995653E+01 -0.10704385345E+02 -0.59605491547E+01  0.12584657726E+02  0.51100000000E-03 0. -1.
        -11    1    3    3    0    0  0.42405668982E+01  0.20760330168E+01  0.19436375645E+01  0.51058836599E+01  0.51100000000E-03 0.  1.
         12    1    3    3    0    0  0.30161329966E+02  0.52698588592E+01 -0.11869246661E+02  0.32838335128E+02  0.00000000000E+00 0. -1.
</event>
<event>
 7    1  0.6889665E-012  0.5052886E+02  0.7816164E-02  0.1300439E+00
        -11   -1    0    0    0    0  0.00000000000E+00  0.00000000000E+00  0.45593999997E+02  0.45594000000E+02  0.51100000000E-03 0. -1.
         11   -1    0    0    0    0 -0.00000000000E+00 -0.00000000000E+00 -0.45593999997E+02  0.45594000000E+02  0.51100000000E-03 0.  1.
    9900012    2    1    2    0    0 -0.29157242746E+02 -0.22478097187E+02  0.17255609408E+02  0.50528859407E+02  0.29999998653E+02 0.  0.
        -12    1    1    2    0    0  0.29157242746E+02  0.22478097187E+02 -0.17255609408E+02  0.40659140593E+02  0.00000000000E+00 0.  1.
         11    1    3    3    0    0 -0.30619012907E+02 -0.17064168759E+02  0.13792694864E+02  0.37668929355E+02  0.51100000000E-03 0. -1.
        -11    1    3    3    0    0  0.30138166882E+01  0.47922999336E+00  0.56201912577E+01  0.63952562459E+01  0.51100000000E-03 0.  1.
        -12    1    3    3    0    0 -0.15520465270E+01 -0.58931584216E+01 -0.21572767133E+01  0.64646738063E+01  0.00000000000E+00 0.  1.
</event>
<event>
 7    1  0.6889665E-012  0.5052887E+02  0.7816164E-02  0.1300439E+00
        -11   -1    0    0    0    0  0.00000000000E+00  0.00000000000E+00  0.45593999997E+02  0.45594000000E+02  0.51100000000E-03 0. -1.
         11   -1    0    0    0    0 -0.00000000000E+00 -0.00000000000E+00 -0.45593999997E+02  0.45594000000E+02  0.51100000000E-03 0.  1.
    9900012    2    1    2    0    0  0.96368838934E+01  0.10758856889E+02  0.38007137848E+02  0.50528867445E+02  0.30000023087E+02 0.  0.
        -12    1    1    2    0    0 -0.96368838934E+01 -0.10758856889E+02 -0.38007137848E+02  0.40659132555E+02  0.00000000000E+00 0.  1.
         11    1    3    3    0    0 -0.20318091717E+01  0.72629491391E+01  0.34998984806E+02  0.35802340935E+02  0.51100000000E-03 0. -1.
        -11    1    3    3    0    0  0.46598722003E+01 -0.24107827447E+01  0.12543271756E+01  0.53944062963E+01  0.51100000000E-03 0.  1.
         12    1    3    3    0    0  0.70088208648E+01  0.59066904946E+01  0.17538258655E+01  0.93321202136E+01  0.00000000000E+00 0. -1.
</event>
<event>
 7    1  0.6889665E-012  0.5052886E+02  0.7816164E-02  0.1300439E+00
        -11   -1    0    0    0    0  0.00000000000E+00  0.00000000000E+00  0.45593999997E+02  0.45594000000E+02  0.51100000000E-03 0. -1.
         11   -1    0    0    0    0 -0.00000000000E+00 -0.00000000000E+00 -0.45593999997E+02  0.45594000000E+02  0.51100000000E-03 0.  1.
    9900012    2    1    2    0    0 -0.15546316379E+02  0.17779462447E+02  0.33096347833E+02  0.50528862309E+02  0.30000007475E+02 0.  0.
        -12    1    1    2    0    0  0.15546316379E+02 -0.17779462447E+02 -0.33096347833E+02  0.40659137691E+02  0.00000000000E+00 0.  1.
         11    1    3    3    0    0 -0.16104422564E+02  0.10789111361E+02  0.63104538581E+01  0.20385759202E+02  0.51100000000E-03 0. -1.
        -11    1    3    3    0    0  0.13804954362E+01  0.10303746426E+02  0.19544373422E+02  0.22137196994E+02  0.51100000000E-03 0.  1.
        -12    1    3    3    0    0 -0.82238925074E+00 -0.33133953397E+01  0.72415205536E+01  0.80059061127E+01  0.00000000000E+00 0.  1.
</event>
<event>
 7    1  0.6889665E-012  0.5052886E+02  0.7816164E-02  0.1300439E+00
        -11   -1    0    0    0    0  0.00000000000E+00  0.00000000000E+00  0.45593999997E+02  0.45594000000E+02  0.51100000000E-03 0. -1.
         11   -1    0    0    0    0 -0.00000000000E+00 -0.00000000000E+00 -0.45593999997E+02  0.45594000000E+02  0.51100000000E-03 0.  1.
    9900012    2    1    2    0    0  0.51902010653E+01  0.86115530596E+01 -0.39396305808E+02  0.50528856569E+02  0.29999990027E+02 0.  0.
         12    1    1    2    0    0 -0.51902010653E+01 -0.86115530596E+01  0.39396305808E+02  0.40659143431E+02  0.00000000000E+00 0. -1.
         11    1    3    3    0    0 -0.75689422132E+01  0.66565333571E+01 -0.17198448442E+02  0.19934516589E+02  0.51100000000E-03 0.  1.
        -11    1    3    3    0    0  0.13220795392E+02  0.65090290892E+01 -0.10677573325E+02  0.18198007113E+02  0.51100000000E-03 0. -1.
        -12    1    3    3    0    0 -0.46165211391E+00 -0.45540093867E+01 -0.11520284041E+02  0.12396332867E+02  0.00000000000E+00 0.  1.
</event>
<event>
 7    1  0.6889665E-012  0.5052885E+02  0.7816164E-02  0.1300439E+00
        -11   -1    0    0    0    0  0.00000000000E+00  0.00000000000E+00  0.45593999997E+02  0.45594000000E+02  0.51100000000E-03 0.  1.
         11   -1    0    0    0    0 -0.00000000000E+00 -0.00000000000E+00 -0.45593999997E+02  0.45594000000E+02  0.51100000000E-03 0. -1.
    9900012    2    1    2    0    0  0.14659359400E+02  0.37340578107E+02  0.66295358643E+01  0.50528851741E+02  0.29999975352E+02 0.  0.
        -12    1    1    2    0    0 -0.14659359400E+02 -0.37340578107E+02 -0.66295358643E+01  0.40659148259E+02  0.00000000000E+00 0.  1.
         11    1    3    3    0    0 -0.45922786489E+01  0.16780620695E+02 -0.48773122413E+00  0.17404486092E+02  0.51100000000E-03 0. -1.
        -11    1    3    3    0    0  0.11391970064E+02  0.15054916275E+02  0.11987334346E+02  0.22363444971E+02  0.51100000000E-03 0.  1.
        -12    1    3    3    0    0  0.78596679857E+01  0.55050411365E+01 -0.48700672578E+01  0.10760920679E+02  0.00000000000E+00 0.  1.
</event>
<event>
 7    1  0.6889665E-012  0.5052885E+02  0.7816164E-02  0.1300439E+00
        -11   -1    0    0    0    0  0.00000000000E+00  0.00000000000E+00  0.45593999997E+02  0.45594000000E+02  0.51100000000E-03 0.  1.
         11   -1    0    0    0    0 -0.00000000000E+00 -0.00000000000E+00 -0.45593999997E+02  0.45594000000E+02  0.51100000000E-03 0. -1.
    9900012    2    1    2    0    0  0.84929667347E+01 -0.38776986804E+02 -0.87966530068E+01  0.50528852276E+02  0.29999976977E+02 0.  0.
         12    1    1    2    0    0 -0.84929667347E+01  0.38776986804E+02  0.87966530068E+01  0.40659147724E+02  0.00000000000E+00 0. -1.
         11    1    3    3    0    0  0.11875223740E+02 -0.15241661482E+02 -0.60631816747E+00  0.19331239111E+02  0.51100000000E-03 0.  1.
        -11    1    3    3    0    0 -0.54461647393E+01 -0.42281850448E+01  0.42853268569E+01  0.81180222760E+01  0.51100000000E-03 0. -1.
        -12    1    3    3    0    0  0.20639077339E+01 -0.19307140277E+02 -0.12475661696E+02  0.23079590888E+02  0.00000000000E+00 0.  1.
</event>
<event>
 7    1  0.6889665E-012  0.5052885E+02  0.7816164E-02  0.1300439E+00
        -11   -1    0    0    0    0  0.00000000000E+00  0.00000000000E+00  0.45593999997E+02  0.45594000000E+02  0.51100000000E-03 0. -1.
         11   -1    0    0    0    0 -0.00000000000E+00 -0.00000000000E+00 -0.45593999997E+02  0.45594000000E+02  0.51100000000E-03 0.  1.
    9900012    2    1    2    0    0 -0.42878194946E+01  0.24534191033E+02  0.32138048511E+02  0.50528854807E+02  0.29999984672E+02 0.  0.
        -12    1    1    2    0    0  0.42878194946E+01 -0.24534191033E+02 -0.32138048511E+02  0.40659145193E+02  0.00000000000E+00 0.  1.
         11    1    3    3    0    0  0.63041161861E+01  0.26976927240E+02  0.24805668707E+02  0.37186256661E+02  0.51100000000E-03 0. -1.
        -11    1    3    3    0    0 -0.51358399289E+01 -0.94942211939E-01  0.41521761408E+01  0.66050308678E+01  0.51100000000E-03 0.  1.
         12    1    3    3    0    0 -0.54560957518E+01 -0.23477939944E+01  0.31802036635E+01  0.67375672787E+01  0.00000000000E+00 0. -1.
</event>
<event>
 7    1  0.6889665E-012  0.5052887E+02  0.7816164E-02  0.1300439E+00
        -11   -1    0    0    0    0  0.00000000000E+00  0.00000000000E+00  0.45593999997E+02  0.45594000000E+02  0.51100000000E-03 0. -1.
         11   -1    0    0    0    0 -0.00000000000E+00 -0.00000000000E+00 -0.45593999997E+02  0.45594000000E+02  0.51100000000E-03 0.  1.
    9900012    2    1    2    0    0  0.27961257929E+02  0.28489893342E+02 -0.77239196455E+01  0.50528869386E+02  0.30000028985E+02 0.  0.
         12    1    1    2    0    0 -0.27961257929E+02 -0.28489893342E+02  0.77239196455E+01  0.40659130614E+02  0.00000000000E+00 0. -1.
         11    1    3    3    0    0  0.19099287951E+02  0.14389320437E+01  0.23186373996E+00  0.19154818890E+02  0.51100000000E-03 0. -1.
        -11    1    3    3    0    0  0.90664208377E+01  0.11041700971E+02 -0.46598670072E+01  0.15027757914E+02  0.51100000000E-03 0.  1.
         12    1    3    3    0    0 -0.20445085941E+00  0.16009260328E+02 -0.32959163782E+01  0.16346292582E+02  0.00000000000E+00 0. -1.
</event>
<event>
 7    1  0.6889665E-012  0.5052887E+02  0.7816164E-02  0.1300439E+00
        -11   -1    0    0    0    0  0.00000000000E+00  0.00000000000E+00  0.45593999997E+02  0.45594000000E+02  0.51100000000E-03 0. -1.
         11   -1    0    0    0    0 -0.00000000000E+00 -0.00000000000E+00 -0.45593999997E+02  0.45594000000E+02  0.51100000000E-03 0.  1.
    9900012    2    1    2    0    0  0.19536622719E+02  0.24535287241E+02 -0.25874789949E+02  0.50528871846E+02  0.30000036464E+02 0.  0.
         12    1    1    2    0    0 -0.19536622719E+02 -0.24535287241E+02  0.25874789949E+02  0.40659128154E+02  0.00000000000E+00 0. -1.
         11    1    3    3    0    0  0.22013463004E+02  0.22599677732E+02 -0.28196327473E+02  0.42312774316E+02  0.51100000000E-03 0. -1.
        -11    1    3    3    0    0  0.52890845758E+00 -0.24739915648E+01  0.51294772260E+00  0.25813744491E+01  0.51100000000E-03 0.  1.
         12    1    3    3    0    0 -0.30057487427E+01  0.44096010742E+01  0.18085898014E+01  0.56347230817E+01  0.00000000000E+00 0. -1.
</event>
<event>
 7    1  0.6889665E-012  0.5052886E+02  0.7816164E-02  0.1300439E+00
        -11   -1    0    0    0    0  0.00000000000E+00  0.00000000000E+00  0.45593999997E+02  0.45594000000E+02  0.51100000000E-03 0. -1.
         11   -1    0    0    0    0 -0.00000000000E+00 -0.00000000000E+00 -0.45593999997E+02  0.45594000000E+02  0.51100000000E-03 0.  1.
    9900012    2    1    2    0    0  0.26624777331E+02  0.20449379111E+02 -0.22937089249E+02  0.50528856660E+02  0.29999990303E+02 0.  0.
         12    1    1    2    0    0 -0.26624777331E+02 -0.20449379111E+02  0.22937089249E+02  0.40659143340E+02  0.00000000000E+00 0. -1.
         11    1    3    3    0    0 -0.10215527602E+01 -0.27267704037E+01 -0.37248215473E+01  0.47279110288E+01  0.51100000000E-03 0. -1.
        -11    1    3    3    0    0  0.17545072062E+02  0.17608990272E+02 -0.18100309528E+01  0.24923529132E+02  0.51100000000E-03 0.  1.
        -12    1    3    3    0    0  0.10101258029E+02  0.55671592422E+01 -0.17402236749E+02  0.20877416499E+02  0.00000000000E+00 0.  1.
</event>
<event>
 7    1  0.6889665E-012  0.5052886E+02  0.7816164E-02  0.1300439E+00
        -11   -1    0    0    0    0  0.00000000000E+00  0.00000000000E+00  0.45593999997E+02  0.45594000000E+02  0.51100000000E-03 0. -1.
         11   -1    0    0    0    0 -0.00000000000E+00 -0.00000000000E+00 -0.45593999997E+02  0.45594000000E+02  0.51100000000E-03 0.  1.
    9900012    2    1    2    0    0 -0.23981057547E+02 -0.17802338277E+02  0.27588967992E+02  0.50528861740E+02  0.30000005746E+02 0.  0.
        -12    1    1    2    0    0  0.23981057547E+02  0.17802338277E+02 -0.27588967992E+02  0.40659138260E+02  0.00000000000E+00 0.  1.
         11    1    3    3    0    0 -0.10140462796E+02 -0.84175186258E+01  0.20143837493E+02  0.24071929602E+02  0.51100000000E-03 0. -1.
        -11    1    3    3    0    0 -0.33212801604E+00 -0.70636357882E-01 -0.55287296630E+01  0.55391470879E+01  0.51100000000E-03 0.  1.
        -12    1    3    3    0    0 -0.13508466734E+02 -0.93141832932E+01  0.12973860161E+02  0.20917785050E+02  0.00000000000E+00 0.  1.
</event>
<event>
 7    1  0.6889665E-012  0.5052886E+02  0.7816164E-02  0.1300439E+00
        -11   -1    0    0    0    0  0.00000000000E+00  0.00000000000E+00  0.45593999997E+02  0.45594000000E+02  0.51100000000E-03 0. -1.
         11   -1    0    0    0    0 -0.00000000000E+00 -0.00000000000E+00 -0.45593999997E+02  0.45594000000E+02  0.51100000000E-03 0.  1.
    9900012    2    1    2    0    0 -0.23059629122E+02 -0.51302403973E+01  0.33092295186E+02  0.50528857578E+02  0.29999993094E+02 0.  0.
        -12    1    1    2    0    0  0.23059629122E+02  0.51302403973E+01 -0.33092295186E+02  0.40659142422E+02  0.00000000000E+00 0.  1.
         11    1    3    3    0    0 -0.14304647045E+02  0.97088061783E+01  0.12598455797E+02  0.21391702439E+02  0.51100000000E-03 0. -1.
        -11    1    3    3    0    0 -0.77327189041E+01 -0.13435358017E+02  0.98807700201E+01  0.18382965026E+02  0.51100000000E-03 0.  1.
         12    1    3    3    0    0 -0.10222631732E+01 -0.14036885586E+01  0.10613069369E+02  0.10754190114E+02  0.00000000000E+00 0. -1.
</event>
<event>
 7    1  0.6889665E-012  0.5052886E+02  0.7816164E-02  0.1300439E+00
        -11   -1    0    0    0    0  0.00000000000E+00  0.00000000000E+00  0.45593999997E+02  0.45594000000E+02  0.51100000000E-03 0. -1.
         11   -1    0    0    0    0 -0.00000000000E+00 -0.00000000000E+00 -0.45593999997E+02  0.45594000000E+02  0.51100000000E-03 0.  1.
    9900012    2    1    2    0    0  0.33915871824E+02 -0.14796149520E+02  0.16850912076E+02  0.50528860314E+02  0.30000001411E+02 0.  0.
        -12    1    1    2    0    0 -0.33915871824E+02  0.14796149520E+02 -0.16850912076E+02  0.40659139686E+02  0.00000000000E+00 0.  1.
         11    1    3    3    0    0 -0.10713609407E+01 -0.95449548998E+01  0.20902120139E+01  0.98296981046E+01  0.51100000000E-03 0.  1.
        -11    1    3    3    0    0  0.34394331500E+02 -0.71568533745E+01  0.11667212118E+02  0.37017758285E+02  0.51100000000E-03 0. -1.
         12    1    3    3    0    0  0.59290126460E+00  0.19056587540E+01  0.30934879440E+01  0.36814039246E+01  0.00000000000E+00 0. -1.
</event>
<event>
 7    1  0.6889665E-012  0.5052886E+02  0.7816164E-02  0.1300439E+00
        -11   -1    0    0    0    0  0.00000000000E+00  0.00000000000E+00  0.45593999997E+02  0.45594000000E+02  0.51100000000E-03 0.  1.
         11   -1    0    0    0    0 -0.00000000000E+00 -0.00000000000E+00 -0.45593999997E+02  0.45594000000E+02  0.51100000000E-03 0. -1.
    9900012    2    1    2    0    0  0.37167588502E+02 -0.11044236033E+02  0.12237698996E+02  0.50528855133E+02  0.29999985661E+02 0.  0.
        -12    1    1    2    0    0 -0.37167588502E+02  0.11044236033E+02 -0.12237698996E+02  0.40659144867E+02  0.00000000000E+00 0.  1.
         11    1    3    3    0    0  0.25796621835E+02 -0.94538931690E+00  0.18272205571E+01  0.25878527668E+02  0.51100000000E-03 0. -1.
        -11    1    3    3    0    0 -0.14829758500E+01 -0.28836863310E+01 -0.32227789493E+01  0.45717795927E+01  0.51100000000E-03 0.  1.
         12    1    3    3    0    0  0.12853942517E+02 -0.72151603851E+01  0.13633257388E+02  0.20078547872E+02  0.00000000000E+00 0. -1.
</event>
<event>
 7    1  0.6889665E-012  0.5052886E+02  0.7816164E-02  0.1300439E+00
        -11   -1    0    0    0    0  0.00000000000E+00  0.00000000000E+00  0.45593999997E+02  0.45594000000E+02  0.51100000000E-03 0. -1.
         11   -1    0    0    0    0 -0.00000000000E+00 -0.00000000000E+00 -0.45593999997E+02  0.45594000000E+02  0.51100000000E-03 0.  1.
    9900012    2    1    2    0    0  0.13836507536E+01  0.12322094822E+02  0.38722311210E+02  0.50528857170E+02  0.29999991855E+02 0.  0.
        -12    1    1    2    0    0 -0.13836507536E+01 -0.12322094822E+02 -0.38722311210E+02  0.40659142830E+02  0.00000000000E+00 0.  1.
         11    1    3    3    0    0 -0.24225931707E+01 -0.70422884086E+01  0.17087984321E+02  0.18640332403E+02  0.51100000000E-03 0. -1.
        -11    1    3    3    0    0  0.52766058389E+01  0.11850420260E+02  0.20338426619E+02  0.24123155414E+02  0.51100000000E-03 0.  1.
         12    1    3    3    0    0 -0.14703619145E+01  0.75139629703E+01  0.12959002700E+01  0.77653693530E+01  0.00000000000E+00 0. -1.
</event>
<event>
 7    1  0.6889665E-012  0.5052880E+02  0.7816164E-02  0.1300439E+00
        -11   -1    0    0    0    0  0.00000000000E+00  0.00000000000E+00  0.45593999997E+02  0.45594000000E+02  0.51100000000E-03 0. -1.
         11   -1    0    0    0    0 -0.00000000000E+00 -0.00000000000E+00 -0.45593999997E+02  0.45594000000E+02  0.51100000000E-03 0.  1.
    9900012    2    1    2    0    0 -0.37573321767E+02  0.65725103023E+01  0.14078988321E+02  0.50528802856E+02  0.29999826759E+02 0.  0.
        -12    1    1    2    0    0  0.37573321767E+02 -0.65725103023E+01 -0.14078988321E+02  0.40659197144E+02  0.00000000000E+00 0.  1.
         11    1    3    3    0    0 -0.24541973655E+01  0.63325943482E+01  0.52946113647E+01  0.86114891657E+01  0.51100000000E-03 0. -1.
        -11    1    3    3    0    0 -0.24714509811E+02 -0.60898571567E+01 -0.21577118960E+01  0.25545040150E+02  0.51100000000E-03 0.  1.
        -12    1    3    3    0    0 -0.10404614591E+02  0.63297731108E+01  0.10942088852E+02  0.16372273540E+02  0.00000000000E+00 0.  1.
</event>
<event>
 7    1  0.6889665E-012  0.5052885E+02  0.7816164E-02  0.1300439E+00
        -11   -1    0    0    0    0  0.00000000000E+00  0.00000000000E+00  0.45593999997E+02  0.45594000000E+02  0.51100000000E-03 0. -1.
         11   -1    0    0    0    0 -0.00000000000E+00 -0.00000000000E+00 -0.45593999997E+02  0.45594000000E+02  0.51100000000E-03 0.  1.
    9900012    2    1    2    0    0  0.11365688644E+02  0.34903281696E+02 -0.17485662257E+02  0.50528851754E+02  0.29999975393E+02 0.  0.
         12    1    1    2    0    0 -0.11365688644E+02 -0.34903281696E+02  0.17485662257E+02  0.40659148246E+02  0.00000000000E+00 0. -1.
         11    1    3    3    0    0  0.12005773862E+02  0.18072414207E+01 -0.87856284882E+01  0.14986393688E+02  0.51100000000E-03 0. -1.
        -11    1    3    3    0    0  0.39773077029E+01  0.21294599533E+02 -0.40162023552E+01  0.22031995540E+02  0.51100000000E-03 0.  1.
         12    1    3    3    0    0 -0.46173929210E+01  0.11801440742E+02 -0.46838314131E+01  0.13510462526E+02  0.00000000000E+00 0. -1.
</event>
<event>
 7    1  0.6889665E-012  0.5052885E+02  0.7816164E-02  0.1300439E+00
        -11   -1    0    0    0    0  0.00000000000E+00  0.00000000000E+00  0.45593999997E+02  0.45594000000E+02  0.51100000000E-03 0. -1.
         11   -1    0    0    0    0 -0.00000000000E+00 -0.00000000000E+00 -0.45593999997E+02  0.45594000000E+02  0.51100000000E-03 0.  1.
    9900012    2    1    2    0    0 -0.32842189309E+02  0.11710423511E+02  0.20914654977E+02  0.50528853302E+02  0.29999980098E+02 0.  0.
        -12    1    1    2    0    0  0.32842189309E+02 -0.11710423511E+02 -0.20914654977E+02  0.40659146698E+02  0.00000000000E+00 0.  1.
         11    1    3    3    0    0 -0.34192999683E+02  0.92012543798E+01  0.15904932866E+02  0.38817408455E+02  0.51100000000E-03 0. -1.
        -11    1    3    3    0    0  0.55975444935E+01  0.12961570494E+01  0.11797520545E+01  0.58655215134E+01  0.51100000000E-03 0.  1.
        -12    1    3    3    0    0 -0.42467341191E+01  0.12130120818E+01  0.38299700564E+01  0.58459233336E+01  0.00000000000E+00 0.  1.
</event>
<event>
 7    1  0.6889665E-012  0.5052886E+02  0.7816164E-02  0.1300439E+00
        -11   -1    0    0    0    0  0.00000000000E+00  0.00000000000E+00  0.45593999997E+02  0.45594000000E+02  0.51100000000E-03 0. -1.
         11   -1    0    0    0    0 -0.00000000000E+00 -0.00000000000E+00 -0.45593999997E+02  0.45594000000E+02  0.51100000000E-03 0.  1.
    9900012    2    1    2    0    0  0.33467939053E+02  0.18804347386E+02 -0.13396233381E+02  0.50528862111E+02  0.30000006872E+02 0.  0.
         12    1    1    2    0    0 -0.33467939053E+02 -0.18804347386E+02  0.13396233381E+02  0.40659137889E+02  0.00000000000E+00 0. -1.
         11    1    3    3    0    0  0.68051863071E+01 -0.45268396654E+01  0.22792630817E+00  0.81764777682E+01  0.51100000000E-03 0. -1.
        -11    1    3    3    0    0  0.10653827578E+02  0.21480793178E+02 -0.85629020372E+01  0.25460789642E+02  0.51100000000E-03 0.  1.
        -12    1    3    3    0    0  0.16008925168E+02  0.18503938735E+01 -0.50612576522E+01  0.16891594701E+02  0.00000000000E+00 0.  1.
</event>
<event>
 7    1  0.7760983E-012  0.5052887E+02  0.7816164E-02  0.1300439E+00
        -11   -1    0    0    0    0  0.00000000000E+00  0.00000000000E+00  0.45593999997E+02  0.45594000000E+02  0.51100000000E-03 0. -1.
         11   -1    0    0    0    0 -0.00000000000E+00 -0.00000000000E+00 -0.45593999997E+02  0.45594000000E+02  0.51100000000E-03 0.  1.
    9900012    2    1    2    0    0  0.20110151738E+02 -0.43979541320E+01 -0.35062872713E+02  0.50528865155E+02  0.30000016125E+02 0.  0.
         12    1    1    2    0    0 -0.20110151738E+02  0.43979541320E+01  0.35062872713E+02  0.40659134845E+02  0.00000000000E+00 0. -1.
         11    1    3    3    0    0 -0.26580153742E+00 -0.36287098100E+01  0.13302115688E+01  0.38739706274E+01  0.51100000000E-03 0. -1.
        -11    1    3    3    0    0  0.10550638896E+02  0.47439589064E+01 -0.32876617610E+02  0.34852447733E+02  0.51100000000E-03 0.  1.
        -12    1    3    3    0    0  0.98253143793E+01 -0.55132032284E+01 -0.35164666709E+01  0.11802446795E+02  0.00000000000E+00 0.  1.
</event>
<event>
 7    1  0.6889665E-012  0.5052888E+02  0.7816164E-02  0.1300439E+00
        -11   -1    0    0    0    0  0.00000000000E+00  0.00000000000E+00  0.45593999997E+02  0.45594000000E+02  0.51100000000E-03 0. -1.
         11   -1    0    0    0    0 -0.00000000000E+00 -0.00000000000E+00 -0.45593999997E+02  0.45594000000E+02  0.51100000000E-03 0.  1.
    9900012    2    1    2    0    0 -0.70601632695E+01 -0.51526760830E+01  0.39708543464E+02  0.50528875560E+02  0.30000047753E+02 0.  0.
        -12    1    1    2    0    0  0.70601632695E+01  0.51526760830E+01 -0.39708543464E+02  0.40659124440E+02  0.00000000000E+00 0.  1.
         11    1    3    3    0    0 -0.17387085315E+00 -0.64960031786E+01  0.37170485009E+01  0.74863033727E+01  0.51100000000E-03 0. -1.
        -11    1    3    3    0    0 -0.65319421217E+01  0.11442284389E+02  0.23838300180E+02  0.27237046383E+02  0.51100000000E-03 0.  1.
        -12    1    3    3    0    0 -0.35435029463E+00 -0.10098957293E+02  0.12153194782E+02  0.15805525805E+02  0.00000000000E+00 0.  1.
</event>
<event>
 7    1  0.6889665E-012  0.5052886E+02  0.7816164E-02  0.1300439E+00
        -11   -1    0    0    0    0  0.00000000000E+00  0.00000000000E+00  0.45593999997E+02  0.45594000000E+02  0.51100000000E-03 0. -1.
         11   -1    0    0    0    0 -0.00000000000E+00 -0.00000000000E+00 -0.45593999997E+02  0.45594000000E+02  0.51100000000E-03 0.  1.
    9900012    2    1    2    0    0  0.30709206352E+01 -0.30550215686E+02 -0.26653697826E+02  0.50528857857E+02  0.29999993942E+02 0.  0.
         12    1    1    2    0    0 -0.30709206352E+01  0.30550215686E+02  0.26653697826E+02  0.40659142143E+02  0.00000000000E+00 0. -1.
         11    1    3    3    0    0 -0.25702101227E+01 -0.49649878120E+01 -0.22892699921E+02  0.23565500079E+02  0.51100000000E-03 0. -1.
        -11    1    3    3    0    0  0.60004017803E+01 -0.23526293377E+02 -0.45997152624E+01  0.24711306772E+02  0.51100000000E-03 0.  1.
        -12    1    3    3    0    0 -0.35927102241E+00 -0.20589344964E+01  0.83871735712E+00  0.22520510059E+01  0.00000000000E+00 0.  1.
</event>
<event>
 7    1  0.6889665E-012  0.5052886E+02  0.7816164E-02  0.1300439E+00
        -11   -1    0    0    0    0  0.00000000000E+00  0.00000000000E+00  0.45593999997E+02  0.45594000000E+02  0.51100000000E-03 0. -1.
         11   -1    0    0    0    0 -0.00000000000E+00 -0.00000000000E+00 -0.45593999997E+02  0.45594000000E+02  0.51100000000E-03 0.  1.
    9900012    2    1    2    0    0  0.74906966296E+01 -0.39394854257E+02  0.67157108239E+01  0.50528857734E+02  0.29999993570E+02 0.  0.
        -12    1    1    2    0    0 -0.74906966296E+01  0.39394854257E+02 -0.67157108239E+01  0.40659142266E+02  0.00000000000E+00 0.  1.
         11    1    3    3    0    0  0.64741122381E+01 -0.37196422825E+02  0.34172563626E+01  0.37909967576E+02  0.51100000000E-03 0. -1.
        -11    1    3    3    0    0 -0.42793889171E+01 -0.73989105261E+00  0.52281758199E+01  0.67966485078E+01  0.51100000000E-03 0.  1.
         12    1    3    3    0    0  0.52959733087E+01 -0.14585403787E+01 -0.19297213586E+01  0.58222416511E+01  0.00000000000E+00 0. -1.
</event>
<event>
 7    1  0.6889665E-012  0.5052886E+02  0.7816164E-02  0.1300439E+00
        -11   -1    0    0    0    0  0.00000000000E+00  0.00000000000E+00  0.45593999997E+02  0.45594000000E+02  0.51100000000E-03 0. -1.
         11   -1    0    0    0    0 -0.00000000000E+00 -0.00000000000E+00 -0.45593999997E+02  0.45594000000E+02  0.51100000000E-03 0.  1.
    9900012    2    1    2    0    0  0.15758392567E+02  0.20839182767E+01  0.37423201067E+02  0.50528860440E+02  0.30000001793E+02 0.  0.
        -12    1    1    2    0    0 -0.15758392567E+02 -0.20839182767E+01 -0.37423201067E+02  0.40659139560E+02  0.00000000000E+00 0.  1.
         11    1    3    3    0    0  0.13844932112E+02  0.17737689646E+00  0.13882735819E+02  0.19607242586E+02  0.51100000000E-03 0. -1.
        -11    1    3    3    0    0 -0.65658070399E+01  0.74404876732E+01  0.11483796970E+02  0.15177228733E+02  0.51100000000E-03 0.  1.
        -12    1    3    3    0    0  0.84792674949E+01 -0.55339462929E+01  0.12056668279E+02  0.15744389121E+02  0.00000000000E+00 0.  1.
</event>
<event>
 7    1  0.6889665E-012  0.5052886E+02  0.7816164E-02  0.1300439E+00
        -11   -1    0    0    0    0  0.00000000000E+00  0.00000000000E+00  0.45593999997E+02  0.45594000000E+02  0.51100000000E-03 0. -1.
         11   -1    0    0    0    0 -0.00000000000E+00 -0.00000000000E+00 -0.45593999997E+02  0.45594000000E+02  0.51100000000E-03 0.  1.
    9900012    2    1    2    0    0  0.16328324992E+01  0.34757884035E+02  0.21033042494E+02  0.50528861777E+02  0.30000005856E+02 0.  0.
        -12    1    1    2    0    0 -0.16328324992E+01 -0.34757884035E+02 -0.21033042494E+02  0.40659138223E+02  0.00000000000E+00 0.  1.
         11    1    3    3    0    0  0.51110934194E+01  0.36449316752E+02  0.21447424701E+02  0.42598920106E+02  0.51100000000E-03 0. -1.
        -11    1    3    3    0    0 -0.25541362751E+01 -0.18337800469E+01 -0.35004920057E+01  0.47052955184E+01  0.51100000000E-03 0.  1.
         12    1    3    3    0    0 -0.92412464505E+00  0.14234732988E+00  0.30861097984E+01  0.32246461527E+01  0.00000000000E+00 0. -1.
</event>
<event>
 7    1  0.6889665E-012  0.5052885E+02  0.7816164E-02  0.1300439E+00
        -11   -1    0    0    0    0  0.00000000000E+00  0.00000000000E+00  0.45593999997E+02  0.45594000000E+02  0.51100000000E-03 0.  1.
         11   -1    0    0    0    0 -0.00000000000E+00 -0.00000000000E+00 -0.45593999997E+02  0.45594000000E+02  0.51100000000E-03 0. -1.
    9900012    2    1    2    0    0  0.19237481989E+01 -0.36538017239E+02  0.17732418913E+02  0.50528853533E+02  0.29999980800E+02 0.  0.
        -12    1    1    2    0    0 -0.19237481989E+01  0.36538017239E+02 -0.17732418913E+02  0.40659146467E+02  0.00000000000E+00 0.  1.
         11    1    3    3    0    0 -0.39878343313E+01 -0.20665415923E+01  0.29786801928E+01  0.53894297248E+01  0.51100000000E-03 0. -1.
        -11    1    3    3    0    0  0.15102425617E+02 -0.26457615277E+02  0.10355094766E+02  0.32176336857E+02  0.51100000000E-03 0.  1.
        -12    1    3    3    0    0 -0.91908430870E+01 -0.80138603693E+01  0.43986439541E+01  0.12963086951E+02  0.00000000000E+00 0.  1.
</event>
<event>
 7    1  0.6889665E-012  0.5052886E+02  0.7816164E-02  0.1300439E+00
        -11   -1    0    0    0    0  0.00000000000E+00  0.00000000000E+00  0.45593999997E+02  0.45594000000E+02  0.51100000000E-03 0. -1.
         11   -1    0    0    0    0 -0.00000000000E+00 -0.00000000000E+00 -0.45593999997E+02  0.45594000000E+02  0.51100000000E-03 0.  1.
    9900012    2    1    2    0    0  0.14834920747E+02  0.17471515889E+02  0.33583281463E+02  0.50528861607E+02  0.30000005341E+02 0.  0.
        -12    1    1    2    0    0 -0.14834920747E+02 -0.17471515889E+02 -0.33583281463E+02  0.40659138393E+02  0.00000000000E+00 0.  1.
         11    1    3    3    0    0  0.15818568598E+02  0.90070170802E+00  0.14015903823E+02  0.21153816117E+02  0.51100000000E-03 0.  1.
        -11    1    3    3    0    0 -0.67979476523E+01  0.53916337910E+01  0.46365533989E+01  0.98376539328E+01  0.51100000000E-03 0. -1.
         12    1    3    3    0    0  0.58142998014E+01  0.11179180390E+02  0.14930824240E+02  0.19537391558E+02  0.00000000000E+00 0. -1.
</event>
<event>
 7    1  0.6889665E-012  0.5052885E+02  0.7816164E-02  0.1300439E+00
        -11   -1    0    0    0    0  0.00000000000E+00  0.00000000000E+00  0.45593999997E+02  0.45594000000E+02  0.51100000000E-03 0.  1.
         11   -1    0    0    0    0 -0.00000000000E+00 -0.00000000000E+00 -0.45593999997E+02  0.45594000000E+02  0.51100000000E-03 0. -1.
    9900012    2    1    2    0    0  0.37856881867E+01  0.39766990718E+02 -0.75777237261E+01  0.50528845032E+02  0.29999954960E+02 0.  0.
        -12    1    1    2    0    0 -0.37856881867E+01 -0.39766990718E+02  0.75777237261E+01  0.40659154968E+02  0.00000000000E+00 0.  1.
         11    1    3    3    0    0  0.10165561791E+02  0.21185987663E+02 -0.91614382818E+01  0.25221353481E+02  0.51100000000E-03 0.  1.
        -11    1    3    3    0    0 -0.53962317249E+01 -0.87328786934E+00  0.20084229680E+01  0.58237197401E+01  0.51100000000E-03 0. -1.
         12    1    3    3    0    0 -0.98364187979E+00  0.19454290925E+02 -0.42470841231E+00  0.19483771811E+02  0.00000000000E+00 0. -1.
</event>
<event>
 7    1  0.6889665E-012  0.5052887E+02  0.7816164E-02  0.1300439E+00
        -11   -1    0    0    0    0  0.00000000000E+00  0.00000000000E+00  0.45593999997E+02  0.45594000000E+02  0.51100000000E-03 0. -1.
         11   -1    0    0    0    0 -0.00000000000E+00 -0.00000000000E+00 -0.45593999997E+02  0.45594000000E+02  0.51100000000E-03 0.  1.
    9900012    2    1    2    0    0 -0.14669261040E+02  0.18732515731E+02  0.32970748925E+02  0.50528872492E+02  0.30000038426E+02 0.  0.
        -12    1    1    2    0    0  0.14669261040E+02 -0.18732515731E+02 -0.32970748925E+02  0.40659127508E+02  0.00000000000E+00 0.  1.
         11    1    3    3    0    0 -0.15161506629E+02  0.13485568495E+02  0.16015736294E+02  0.25850254355E+02  0.51100000000E-03 0. -1.
        -11    1    3    3    0    0  0.16345355142E+01 -0.26167291555E+01 -0.23001066580E+01  0.38483072538E+01  0.51100000000E-03 0.  1.
        -12    1    3    3    0    0 -0.11422899246E+01  0.78636763912E+01  0.19255119289E+02  0.20830310883E+02  0.00000000000E+00 0.  1.
</event>
<event>
 7    1  0.6889665E-012  0.5052886E+02  0.7816164E-02  0.1300439E+00
        -11   -1    0    0    0    0  0.00000000000E+00  0.00000000000E+00  0.45593999997E+02  0.45594000000E+02  0.51100000000E-03 0. -1.
         11   -1    0    0    0    0 -0.00000000000E+00 -0.00000000000E+00 -0.45593999997E+02  0.45594000000E+02  0.51100000000E-03 0.  1.
    9900012    2    1    2    0    0 -0.12615536913E+02  0.19939630761E+02 -0.33112313332E+02  0.50528856616E+02  0.29999990171E+02 0.  0.
         12    1    1    2    0    0  0.12615536913E+02 -0.19939630761E+02  0.33112313332E+02  0.40659143384E+02  0.00000000000E+00 0. -1.
         11    1    3    3    0    0 -0.10773564119E+02 -0.44936752406E+01 -0.13462612104E+02  0.17818662293E+02  0.51100000000E-03 0. -1.
        -11    1    3    3    0    0 -0.39032111175E+01  0.23609700609E+02 -0.17920184568E+02  0.29896254532E+02  0.51100000000E-03 0.  1.
         12    1    3    3    0    0  0.20612383232E+01  0.82360539335E+00 -0.17295166598E+01  0.28139397906E+01  0.00000000000E+00 0. -1.
</event>
<event>
 7    1  0.6889665E-012  0.5052887E+02  0.7816164E-02  0.1300439E+00
        -11   -1    0    0    0    0  0.00000000000E+00  0.00000000000E+00  0.45593999997E+02  0.45594000000E+02  0.51100000000E-03 0. -1.
         11   -1    0    0    0    0 -0.00000000000E+00 -0.00000000000E+00 -0.45593999997E+02  0.45594000000E+02  0.51100000000E-03 0.  1.
    9900012    2    1    2    0    0  0.25569094178E+01 -0.13515530516E+02  0.38261693084E+02  0.50528874228E+02  0.30000043705E+02 0.  0.
        -12    1    1    2    0    0 -0.25569094178E+01  0.13515530516E+02 -0.38261693084E+02  0.40659125772E+02  0.00000000000E+00 0.  1.
         11    1    3    3    0    0  0.78978876333E+01  0.44789092120E+01  0.99810746060E+01  0.13492928050E+02  0.51100000000E-03 0. -1.
        -11    1    3    3    0    0 -0.88782269214E+01 -0.18308057920E+02  0.24539252009E+02  0.31877622049E+02  0.51100000000E-03 0.  1.
        -12    1    3    3    0    0  0.35372487058E+01  0.31361819231E+00  0.37413664685E+01  0.51583241299E+01  0.00000000000E+00 0.  1.
</event>
<event>
 7    1  0.6889665E-012  0.5052886E+02  0.7816164E-02  0.1300439E+00
        -11   -1    0    0    0    0  0.00000000000E+00  0.00000000000E+00  0.45593999997E+02  0.45594000000E+02  0.51100000000E-03 0. -1.
         11   -1    0    0    0    0 -0.00000000000E+00 -0.00000000000E+00 -0.45593999997E+02  0.45594000000E+02  0.51100000000E-03 0.  1.
    9900012    2    1    2    0    0  0.48001599662E+01 -0.28788168276E+02  0.28308404597E+02  0.50528856634E+02  0.29999990226E+02 0.  0.
        -12    1    1    2    0    0 -0.48001599662E+01  0.28788168276E+02 -0.28308404597E+02  0.40659143366E+02  0.00000000000E+00 0.  1.
         11    1    3    3    0    0  0.10689867536E+00 -0.10646644730E+02  0.85364178929E+01  0.13646717629E+02  0.51100000000E-03 0. -1.
        -11    1    3    3    0    0  0.91571545882E+01 -0.69086002941E+01  0.21792421558E+02  0.24627055768E+02  0.51100000000E-03 0.  1.
        -12    1    3    3    0    0 -0.44638932974E+01 -0.11232923252E+02 -0.20204348540E+01  0.12255083237E+02  0.00000000000E+00 0.  1.
</event>
<event>
 7    1  0.6889665E-012  0.5052887E+02  0.7816164E-02  0.1300439E+00
        -11   -1    0    0    0    0  0.00000000000E+00  0.00000000000E+00  0.45593999997E+02  0.45594000000E+02  0.51100000000E-03 0. -1.
         11   -1    0    0    0    0 -0.00000000000E+00 -0.00000000000E+00 -0.45593999997E+02  0.45594000000E+02  0.51100000000E-03 0.  1.
    9900012    2    1    2    0    0  0.39038938765E+01 -0.42545032233E+01 -0.40247034970E+02  0.50528868074E+02  0.30000024998E+02 0.  0.
         12    1    1    2    0    0 -0.39038938765E+01  0.42545032233E+01  0.40247034970E+02  0.40659131926E+02  0.00000000000E+00 0. -1.
         11    1    3    3    0    0 -0.34033581404E+00 -0.70776645726E+01 -0.34820463905E+02  0.35534122630E+02  0.51100000000E-03 0.  1.
        -11    1    3    3    0    0  0.60697367087E+00  0.71372180926E+01  0.44318860327E-02  0.71629825521E+01  0.51100000000E-03 0. -1.
         12    1    3    3    0    0  0.36372560197E+01 -0.43140567432E+01 -0.54310029516E+01  0.78317628920E+01  0.00000000000E+00 0. -1.
</event>
<event>
 7    1  0.6889665E-012  0.5052887E+02  0.7816164E-02  0.1300439E+00
        -11   -1    0    0    0    0  0.00000000000E+00  0.00000000000E+00  0.45593999997E+02  0.45594000000E+02  0.51100000000E-03 0.  1.
         11   -1    0    0    0    0 -0.00000000000E+00 -0.00000000000E+00 -0.45593999997E+02  0.45594000000E+02  0.51100000000E-03 0. -1.
    9900012    2    1    2    0    0  0.27453756270E+01 -0.34669157551E+02  0.21063654374E+02  0.50528866853E+02  0.30000021287E+02 0.  0.
        -12    1    1    2    0    0 -0.27453756270E+01  0.34669157551E+02 -0.21063654374E+02  0.40659133147E+02  0.00000000000E+00 0.  1.
         11    1    3    3    0    0  0.11263580545E+02 -0.19818967342E+02  0.10769709394E+02  0.25212027961E+02  0.51100000000E-03 0. -1.
        -11    1    3    3    0    0 -0.78517728321E+01 -0.17589264658E+02  0.59903642460E+01  0.20172184608E+02  0.51100000000E-03 0.  1.
         12    1    3    3    0    0 -0.66643208606E+00  0.27390744490E+01  0.43035807343E+01  0.51446542838E+01  0.00000000000E+00 0. -1.
</event>
<event>
 7    1  0.6889665E-012  0.5052886E+02  0.7816164E-02  0.1300439E+00
        -11   -1    0    0    0    0  0.00000000000E+00  0.00000000000E+00  0.45593999997E+02  0.45594000000E+02  0.51100000000E-03 0. -1.
         11   -1    0    0    0    0 -0.00000000000E+00 -0.00000000000E+00 -0.45593999997E+02  0.45594000000E+02  0.51100000000E-03 0.  1.
    9900012    2    1    2    0    0 -0.19867136393E+02  0.30829950420E+02 -0.17549261026E+02  0.50528861864E+02  0.30000006123E+02 0.  0.
         12    1    1    2    0    0  0.19867136393E+02 -0.30829950420E+02  0.17549261026E+02  0.40659138136E+02  0.00000000000E+00 0. -1.
         11    1    3    3    0    0 -0.10749049400E+01  0.27201611519E+02 -0.87083719764E+01  0.28581791976E+02  0.51100000000E-03 0. -1.
        -11    1    3    3    0    0 -0.16006801966E+02  0.34001654218E+01 -0.97004909530E+01  0.19023100669E+02  0.51100000000E-03 0.  1.
         12    1    3    3    0    0 -0.27854294861E+01  0.22817347986E+00  0.85960190323E+00  0.29239692186E+01  0.00000000000E+00 0. -1.
</event>
<event>
 7    1  0.6889665E-012  0.5052885E+02  0.7816164E-02  0.1300439E+00
        -11   -1    0    0    0    0  0.00000000000E+00  0.00000000000E+00  0.45593999997E+02  0.45594000000E+02  0.51100000000E-03 0. -1.
         11   -1    0    0    0    0 -0.00000000000E+00 -0.00000000000E+00 -0.45593999997E+02  0.45594000000E+02  0.51100000000E-03 0.  1.
    9900012    2    1    2    0    0  0.32093768667E+02 -0.86449199063E-01  0.24962945563E+02  0.50528854511E+02  0.29999983772E+02 0.  0.
        -12    1    1    2    0    0 -0.32093768667E+02  0.86449199063E-01 -0.24962945563E+02  0.40659145489E+02  0.00000000000E+00 0.  1.
         11    1    3    3    0    0  0.14712857160E+02 -0.74166174510E+01  0.59169993640E+01  0.17506720480E+02  0.51100000000E-03 0. -1.
        -11    1    3    3    0    0  0.10632847064E+02  0.90346869782E+01  0.21509767346E+02  0.25638898124E+02  0.51100000000E-03 0.  1.
        -12    1    3    3    0    0  0.67480644428E+01 -0.17045187263E+01 -0.24638211471E+01  0.73832359070E+01  0.00000000000E+00 0.  1.
</event>
<event>
 7    1  0.6889665E-012  0.5052885E+02  0.7816164E-02  0.1300439E+00
        -11   -1    0    0    0    0  0.00000000000E+00  0.00000000000E+00  0.45593999997E+02  0.45594000000E+02  0.51100000000E-03 0. -1.
         11   -1    0    0    0    0 -0.00000000000E+00 -0.00000000000E+00 -0.45593999997E+02  0.45594000000E+02  0.51100000000E-03 0.  1.
    9900012    2    1    2    0    0  0.15648275850E+02  0.88529780379E+01  0.36468106121E+02  0.50528849477E+02  0.29999968469E+02 0.  0.
        -12    1    1    2    0    0 -0.15648275850E+02 -0.88529780379E+01 -0.36468106121E+02  0.40659150523E+02  0.00000000000E+00 0.  1.
         11    1    3    3    0    0 -0.35690074181E+01  0.65477902499E+00  0.25304728083E+02  0.25563564172E+02  0.51100000000E-03 0. -1.
        -11    1    3    3    0    0  0.86256395209E+01  0.59571622184E+01  0.17681889138E+01  0.10630895124E+02  0.51100000000E-03 0.  1.
         12    1    3    3    0    0  0.10591643748E+02  0.22410367945E+01  0.93951891238E+01  0.14334390181E+02  0.00000000000E+00 0. -1.
</event>
<event>
 7    1  0.6889665E-012  0.5052886E+02  0.7816164E-02  0.1300439E+00
        -11   -1    0    0    0    0  0.00000000000E+00  0.00000000000E+00  0.45593999997E+02  0.45594000000E+02  0.51100000000E-03 0. -1.
         11   -1    0    0    0    0 -0.00000000000E+00 -0.00000000000E+00 -0.45593999997E+02  0.45594000000E+02  0.51100000000E-03 0.  1.
    9900012    2    1    2    0    0  0.45630338860E+01  0.41892735668E+01  0.40184501421E+02  0.50528862703E+02  0.30000008672E+02 0.  0.
        -12    1    1    2    0    0 -0.45630338860E+01 -0.41892735668E+01 -0.40184501421E+02  0.40659137297E+02  0.00000000000E+00 0.  1.
         11    1    3    3    0    0  0.74625843849E-01 -0.90425428643E+00  0.73342830464E+00  0.11666885490E+01  0.51100000000E-03 0. -1.
        -11    1    3    3    0    0  0.77174883115E+01 -0.30805645020E+01 -0.62560996187E+00  0.83331201584E+01  0.51100000000E-03 0.  1.
        -12    1    3    3    0    0 -0.32290802694E+01  0.81740923552E+01  0.40076683078E+02  0.41029053996E+02  0.00000000000E+00 0.  1.
</event>
<event>
 7    1  0.6889665E-012  0.5052886E+02  0.7816164E-02  0.1300439E+00
        -11   -1    0    0    0    0  0.00000000000E+00  0.00000000000E+00  0.45593999997E+02  0.45594000000E+02  0.51100000000E-03 0. -1.
         11   -1    0    0    0    0 -0.00000000000E+00 -0.00000000000E+00 -0.45593999997E+02  0.45594000000E+02  0.51100000000E-03 0.  1.
    9900012    2    1    2    0    0  0.42960236657E+01  0.25696343092E+02  0.31215509305E+02  0.50528857254E+02  0.29999992109E+02 0.  0.
        -12    1    1    2    0    0 -0.42960236657E+01 -0.25696343092E+02 -0.31215509305E+02  0.40659142746E+02  0.00000000000E+00 0.  1.
         11    1    3    3    0    0  0.21801352286E+01 -0.20041056755E+01  0.10802112866E+00  0.29632917506E+01  0.51100000000E-03 0. -1.
        -11    1    3    3    0    0  0.57557787960E+01  0.22868371366E+02  0.33577647153E+02  0.41031083182E+02  0.51100000000E-03 0.  1.
        -12    1    3    3    0    0 -0.36398903589E+01  0.48320774019E+01 -0.24701589763E+01  0.65344823216E+01  0.00000000000E+00 0.  1.
</event>
<event>
 7    1  0.6889665E-012  0.5052886E+02  0.7816164E-02  0.1300439E+00
        -11   -1    0    0    0    0  0.00000000000E+00  0.00000000000E+00  0.45593999997E+02  0.45594000000E+02  0.51100000000E-03 0. -1.
         11   -1    0    0    0    0 -0.00000000000E+00 -0.00000000000E+00 -0.45593999997E+02  0.45594000000E+02  0.51100000000E-03 0.  1.
    9900012    2    1    2    0    0 -0.38940349308E+02  0.23062837047E+01  0.11467168330E+02  0.50528859598E+02  0.29999999233E+02 0.  0.
        -12    1    1    2    0    0  0.38940349308E+02 -0.23062837047E+01 -0.11467168330E+02  0.40659140402E+02  0.00000000000E+00 0.  1.
         11    1    3    3    0    0 -0.23308147060E+02  0.15081828678E+02  0.42538680947E+01  0.28086058279E+02  0.51100000000E-03 0. -1.
        -11    1    3    3    0    0 -0.60608769242E+01 -0.90398558465E+01  0.47626413549E+01  0.11880066319E+02  0.51100000000E-03 0.  1.
        -12    1    3    3    0    0 -0.95713253241E+01 -0.37356891271E+01  0.24506588801E+01  0.10562734999E+02  0.00000000000E+00 0.  1.
</event>
<event>
 7    1  0.6889665E-012  0.5052886E+02  0.7816164E-02  0.1300439E+00
        -11   -1    0    0    0    0  0.00000000000E+00  0.00000000000E+00  0.45593999997E+02  0.45594000000E+02  0.51100000000E-03 0. -1.
         11   -1    0    0    0    0 -0.00000000000E+00 -0.00000000000E+00 -0.45593999997E+02  0.45594000000E+02  0.51100000000E-03 0.  1.
    9900012    2    1    2    0    0  0.21992713288E+02  0.24478905505E+02 -0.23880313560E+02  0.50528860459E+02  0.30000001850E+02 0.  0.
         12    1    1    2    0    0 -0.21992713288E+02 -0.24478905505E+02  0.23880313560E+02  0.40659139541E+02  0.00000000000E+00 0. -1.
         11    1    3    3    0    0  0.11976907019E+02 -0.20099543105E+01 -0.14403574706E+02  0.18840095081E+02  0.51100000000E-03 0. -1.
        -11    1    3    3    0    0  0.69091933116E+01  0.21903677389E+02 -0.29933351467E+01  0.23161780824E+02  0.51100000000E-03 0.  1.
         12    1    3    3    0    0  0.31066129574E+01  0.45851824271E+01 -0.64834037070E+01  0.85269845540E+01  0.00000000000E+00 0. -1.
</event>
<event>
 7    1  0.6889665E-012  0.5052886E+02  0.7816164E-02  0.1300439E+00
        -11   -1    0    0    0    0  0.00000000000E+00  0.00000000000E+00  0.45593999997E+02  0.45594000000E+02  0.51100000000E-03 0. -1.
         11   -1    0    0    0    0 -0.00000000000E+00 -0.00000000000E+00 -0.45593999997E+02  0.45594000000E+02  0.51100000000E-03 0.  1.
    9900012    2    1    2    0    0  0.25779538194E+02  0.28224483929E+02 -0.13854935969E+02  0.50528864086E+02  0.30000012876E+02 0.  0.
         12    1    1    2    0    0 -0.25779538194E+02 -0.28224483929E+02  0.13854935969E+02  0.40659135914E+02  0.00000000000E+00 0. -1.
         11    1    3    3    0    0  0.28149908873E+01  0.16759770266E+02  0.73103138788E+00  0.17010246330E+02  0.51100000000E-03 0. -1.
        -11    1    3    3    0    0  0.15793558296E+02 -0.86007662203E+00 -0.62900681134E+01  0.17021785235E+02  0.51100000000E-03 0.  1.
        -12    1    3    3    0    0  0.71709890108E+01  0.12324790285E+02 -0.82958992438E+01  0.16496832521E+02  0.00000000000E+00 0.  1.
</event>
<event>
 7    1  0.6889665E-012  0.5052886E+02  0.7816164E-02  0.1300439E+00
        -11   -1    0    0    0    0  0.00000000000E+00  0.00000000000E+00  0.45593999997E+02  0.45594000000E+02  0.51100000000E-03 0. -1.
         11   -1    0    0    0    0 -0.00000000000E+00 -0.00000000000E+00 -0.45593999997E+02  0.45594000000E+02  0.51100000000E-03 0.  1.
    9900012    2    1    2    0    0  0.21206290823E+02  0.16839099768E+02  0.30329916628E+02  0.50528857189E+02  0.29999991911E+02 0.  0.
        -12    1    1    2    0    0 -0.21206290823E+02 -0.16839099768E+02 -0.30329916628E+02  0.40659142811E+02  0.00000000000E+00 0.  1.
         11    1    3    3    0    0  0.85624587514E+00  0.73853235692E+01  0.11067419323E+02  0.13332814105E+02  0.51100000000E-03 0. -1.
        -11    1    3    3    0    0  0.20112390407E+02  0.20334351107E+01  0.21432007344E+02  0.29461399242E+02  0.51100000000E-03 0.  1.
        -12    1    3    3    0    0  0.23765454080E+00  0.74203410881E+01 -0.21695100394E+01  0.77346438416E+01  0.00000000000E+00 0.  1.
</event>
<event>
 7    1  0.6889665E-012  0.5052886E+02  0.7816164E-02  0.1300439E+00
        -11   -1    0    0    0    0  0.00000000000E+00  0.00000000000E+00  0.45593999997E+02  0.45594000000E+02  0.51100000000E-03 0. -1.
         11   -1    0    0    0    0 -0.00000000000E+00 -0.00000000000E+00 -0.45593999997E+02  0.45594000000E+02  0.51100000000E-03 0.  1.
    9900012    2    1    2    0    0 -0.47215329507E+01 -0.61034240405E+01 -0.39920181991E+02  0.50528860946E+02  0.30000003333E+02 0.  0.
         12    1    1    2    0    0  0.47215329507E+01  0.61034240405E+01  0.39920181991E+02  0.40659139054E+02  0.00000000000E+00 0. -1.
         11    1    3    3    0    0 -0.20270263053E+01 -0.56071202575E+00  0.44063648962E+01  0.48825490758E+01  0.51100000000E-03 0. -1.
        -11    1    3    3    0    0 -0.32957445897E+01  0.16161566996E+01 -0.13146099539E+02  0.13648949711E+02  0.51100000000E-03 0.  1.
         12    1    3    3    0    0  0.60123794429E+00 -0.71588687144E+01 -0.31180447348E+02  0.31997362159E+02  0.00000000000E+00 0. -1.
</event>
<event>
 7    1  0.6889665E-012  0.5052890E+02  0.7816164E-02  0.1300439E+00
        -11   -1    0    0    0    0  0.00000000000E+00  0.00000000000E+00  0.45593999997E+02  0.45594000000E+02  0.51100000000E-03 0.  1.
         11   -1    0    0    0    0 -0.00000000000E+00 -0.00000000000E+00 -0.45593999997E+02  0.45594000000E+02  0.51100000000E-03 0. -1.
    9900012    2    1    2    0    0  0.14421936226E+02 -0.34707502100E+02 -0.15509988844E+02  0.50528896462E+02  0.30000111286E+02 0.  0.
         12    1    1    2    0    0 -0.14421936226E+02  0.34707502100E+02  0.15509988844E+02  0.40659103538E+02  0.00000000000E+00 0. -1.
         11    1    3    3    0    0  0.11199325429E+00 -0.22280485532E+02 -0.11091083732E+02  0.24888646341E+02  0.51100000000E-03 0. -1.
        -11    1    3    3    0    0  0.63226242134E+01  0.28602960274E+01  0.20229927071E+01  0.72283725736E+01  0.51100000000E-03 0.  1.
        -12    1    3    3    0    0  0.79873187586E+01 -0.15287312595E+02 -0.64418978189E+01  0.18411877548E+02  0.00000000000E+00 0.  1.
</event>
<event>
 7    1  0.6889665E-012  0.5052886E+02  0.7816164E-02  0.1300439E+00
        -11   -1    0    0    0    0  0.00000000000E+00  0.00000000000E+00  0.45593999997E+02  0.45594000000E+02  0.51100000000E-03 0. -1.
         11   -1    0    0    0    0 -0.00000000000E+00 -0.00000000000E+00 -0.45593999997E+02  0.45594000000E+02  0.51100000000E-03 0.  1.
    9900012    2    1    2    0    0 -0.84489978794E+01  0.18652806302E+02 -0.35126240848E+02  0.50528861492E+02  0.30000004992E+02 0.  0.
         12    1    1    2    0    0  0.84489978794E+01 -0.18652806302E+02  0.35126240848E+02  0.40659138508E+02  0.00000000000E+00 0. -1.
         11    1    3    3    0    0  0.62544397924E+01  0.11069196242E+01 -0.72733215981E+00  0.63931448055E+01  0.51100000000E-03 0. -1.
        -11    1    3    3    0    0 -0.12868907576E+02  0.14098819227E+02 -0.35297759630E+02  0.40128759276E+02  0.51100000000E-03 0.  1.
        -12    1    3    3    0    0 -0.18345300956E+01  0.34470674503E+01  0.89885094233E+00  0.40069574112E+01  0.00000000000E+00 0.  1.
</event>
<event>
 7    1  0.6889665E-012  0.5052886E+02  0.7816164E-02  0.1300439E+00
        -11   -1    0    0    0    0  0.00000000000E+00  0.00000000000E+00  0.45593999997E+02  0.45594000000E+02  0.51100000000E-03 0. -1.
         11   -1    0    0    0    0 -0.00000000000E+00 -0.00000000000E+00 -0.45593999997E+02  0.45594000000E+02  0.51100000000E-03 0.  1.
    9900012    2    1    2    0    0  0.15661222100E+02 -0.21929766442E+01  0.37457746728E+02  0.50528858173E+02  0.29999994902E+02 0.  0.
        -12    1    1    2    0    0 -0.15661222100E+02  0.21929766442E+01 -0.37457746728E+02  0.40659141827E+02  0.00000000000E+00 0.  1.
         11    1    3    3    0    0 -0.58326696037E+00  0.65225616390E+01 -0.39109823510E+00  0.65602567611E+01  0.51100000000E-03 0.  1.
        -11    1    3    3    0    0  0.84310219168E+01 -0.30971140814E+01  0.30681297522E+02  0.31968989100E+02  0.51100000000E-03 0. -1.
        -12    1    3    3    0    0  0.78134671432E+01 -0.56184242018E+01  0.71675474405E+01  0.11999612311E+02  0.00000000000E+00 0.  1.
</event>
<event>
 7    1  0.6889665E-012  0.5052886E+02  0.7816164E-02  0.1300439E+00
        -11   -1    0    0    0    0  0.00000000000E+00  0.00000000000E+00  0.45593999997E+02  0.45594000000E+02  0.51100000000E-03 0.  1.
         11   -1    0    0    0    0 -0.00000000000E+00 -0.00000000000E+00 -0.45593999997E+02  0.45594000000E+02  0.51100000000E-03 0. -1.
    9900012    2    1    2    0    0  0.34496789662E+01  0.40178470870E+02  0.51919041154E+01  0.50528859887E+02  0.30000000111E+02 0.  0.
        -12    1    1    2    0    0 -0.34496789662E+01 -0.40178470870E+02 -0.51919041154E+01  0.40659140113E+02  0.00000000000E+00 0.  1.
         11    1    3    3    0    0 -0.44647115651E+01  0.28878562926E+02 -0.25754266678E+01  0.29334925751E+02  0.51100000000E-03 0. -1.
        -11    1    3    3    0    0  0.73232895368E+01 -0.78360760914E+00  0.46167156223E+01  0.86924492477E+01  0.51100000000E-03 0.  1.
        -12    1    3    3    0    0  0.59110099453E+00  0.12083515553E+02  0.31506151610E+01  0.12501484888E+02  0.00000000000E+00 0.  1.
</event>
<event>
 7    1  0.6889665E-012  0.5052891E+02  0.7816164E-02  0.1300439E+00
        -11   -1    0    0    0    0  0.00000000000E+00  0.00000000000E+00  0.45593999997E+02  0.45594000000E+02  0.51100000000E-03 0. -1.
         11   -1    0    0    0    0 -0.00000000000E+00 -0.00000000000E+00 -0.45593999997E+02  0.45594000000E+02  0.51100000000E-03 0.  1.
    9900012    2    1    2    0    0 -0.90285122203E+00  0.58139694859E+01  0.40231129962E+02  0.50528914920E+02  0.30000167391E+02 0.  0.
        -12    1    1    2    0    0  0.90285122203E+00 -0.58139694859E+01 -0.40231129962E+02  0.40659085080E+02  0.00000000000E+00 0.  1.
         11    1    3    3    0    0  0.84867186587E+01  0.10730634049E+02  0.26072679067E+02  0.29444107979E+02  0.51100000000E-03 0. -1.
        -11    1    3    3    0    0 -0.78076399193E+01 -0.38734853249E+01  0.22160396016E+01  0.89929951322E+01  0.51100000000E-03 0.  1.
        -12    1    3    3    0    0 -0.15819299614E+01 -0.10431792380E+01  0.11942411293E+02  0.12091811809E+02  0.00000000000E+00 0.  1.
</event>
<event>
 7    1  0.6889665E-012  0.5052886E+02  0.7816164E-02  0.1300439E+00
        -11   -1    0    0    0    0  0.00000000000E+00  0.00000000000E+00  0.45593999997E+02  0.45594000000E+02  0.51100000000E-03 0. -1.
         11   -1    0    0    0    0 -0.00000000000E+00 -0.00000000000E+00 -0.45593999997E+02  0.45594000000E+02  0.51100000000E-03 0.  1.
    9900012    2    1    2    0    0 -0.13199560218E+02 -0.37477734901E+02  0.86230448878E+01  0.50528857038E+02  0.29999991452E+02 0.  0.
        -12    1    1    2    0    0  0.13199560218E+02  0.37477734901E+02 -0.86230448878E+01  0.40659142962E+02  0.00000000000E+00 0.  1.
         11    1    3    3    0    0 -0.12467336659E+01 -0.49878574711E+01 -0.99137541092E+01  0.11167613343E+02  0.51100000000E-03 0. -1.
        -11    1    3    3    0    0 -0.61539526128E+01 -0.13799450889E+02  0.90651627795E+01  0.17620248412E+02  0.51100000000E-03 0.  1.
         12    1    3    3    0    0 -0.57988739392E+01 -0.18690426541E+02  0.94716362175E+01  0.21740995283E+02  0.00000000000E+00 0. -1.
</event>
<event>
 7    1  0.6889665E-012  0.5052889E+02  0.7816164E-02  0.1300439E+00
        -11   -1    0    0    0    0  0.00000000000E+00  0.00000000000E+00  0.45593999997E+02  0.45594000000E+02  0.51100000000E-03 0. -1.
         11   -1    0    0    0    0 -0.00000000000E+00 -0.00000000000E+00 -0.45593999997E+02  0.45594000000E+02  0.51100000000E-03 0.  1.
    9900012    2    1    2    0    0 -0.13360328677E+02 -0.83868842725E+01  0.37474327617E+02  0.50528887362E+02  0.30000083627E+02 0.  0.
        -12    1    1    2    0    0  0.13360328677E+02  0.83868842725E+01 -0.37474327617E+02  0.40659112638E+02  0.00000000000E+00 0.  1.
         11    1    3    3    0    0 -0.14335092786E+02  0.26436912345E+01  0.23319699371E+02  0.27500770308E+02  0.51100000000E-03 0. -1.
        -11    1    3    3    0    0 -0.75919814095E+00 -0.87609937356E+00 -0.28891395129E+01  0.31130466292E+01  0.51100000000E-03 0.  1.
         12    1    3    3    0    0  0.17339622501E+01 -0.10154476133E+02  0.17043767758E+02  0.19915070425E+02  0.00000000000E+00 0. -1.
</event>
<event>
 7    1  0.6889665E-012  0.5052886E+02  0.7816164E-02  0.1300439E+00
        -11   -1    0    0    0    0  0.00000000000E+00  0.00000000000E+00  0.45593999997E+02  0.45594000000E+02  0.51100000000E-03 0. -1.
         11   -1    0    0    0    0 -0.00000000000E+00 -0.00000000000E+00 -0.45593999997E+02  0.45594000000E+02  0.51100000000E-03 0.  1.
    9900012    2    1    2    0    0  0.15546695201E+02 -0.80186935316E+01 -0.36703764726E+02  0.50528861757E+02  0.30000005797E+02 0.  0.
         12    1    1    2    0    0 -0.15546695201E+02  0.80186935316E+01  0.36703764726E+02  0.40659138243E+02  0.00000000000E+00 0. -1.
         11    1    3    3    0    0  0.91461456315E+01 -0.13816486430E+02 -0.15405732399E+02  0.22624850678E+02  0.51100000000E-03 0. -1.
        -11    1    3    3    0    0 -0.48260303754E+01  0.47197020113E+01 -0.79512334707E+01  0.10430161563E+02  0.51100000000E-03 0.  1.
        -12    1    3    3    0    0  0.11226579945E+02  0.10780908872E+01 -0.13346798856E+02  0.17473849516E+02  0.00000000000E+00 0.  1.
</event>
<event>
 7    1  0.6889665E-012  0.5052887E+02  0.7816164E-02  0.1300439E+00
        -11   -1    0    0    0    0  0.00000000000E+00  0.00000000000E+00  0.45593999997E+02  0.45594000000E+02  0.51100000000E-03 0. -1.
         11   -1    0    0    0    0 -0.00000000000E+00 -0.00000000000E+00 -0.45593999997E+02  0.45594000000E+02  0.51100000000E-03 0.  1.
    9900012    2    1    2    0    0  0.43038318612E+01 -0.61021215489E+01  0.39967566036E+02  0.50528865837E+02  0.30000018197E+02 0.  0.
        -12    1    1    2    0    0 -0.43038318612E+01  0.61021215489E+01 -0.39967566036E+02  0.40659134163E+02  0.00000000000E+00 0.  1.
         11    1    3    3    0    0 -0.63628596373E+01  0.12735912207E+01  0.15036459697E+02  0.16376908678E+02  0.51100000000E-03 0. -1.
        -11    1    3    3    0    0  0.10793035471E+02 -0.14977508143E+01  0.27961592608E+01  0.11249505725E+02  0.51100000000E-03 0.  1.
        -12    1    3    3    0    0 -0.12634397235E+00 -0.58779619552E+01  0.22134947078E+02  0.22902451434E+02  0.00000000000E+00 0.  1.
</event>
<event>
 7    1  0.6889665E-012  0.5052886E+02  0.7816164E-02  0.1300439E+00
        -11   -1    0    0    0    0  0.00000000000E+00  0.00000000000E+00  0.45593999997E+02  0.45594000000E+02  0.51100000000E-03 0. -1.
         11   -1    0    0    0    0 -0.00000000000E+00 -0.00000000000E+00 -0.45593999997E+02  0.45594000000E+02  0.51100000000E-03 0.  1.
    9900012    2    1    2    0    0 -0.14861432183E+02 -0.37811928764E+02 -0.16003626761E+01  0.50528864691E+02  0.30000014716E+02 0.  0.
        -12    1    1    2    0    0  0.14861432183E+02  0.37811928764E+02  0.16003626761E+01  0.40659135309E+02  0.00000000000E+00 0.  1.
         11    1    3    3    0    0  0.36232555055E+01  0.82308394915E+00  0.21367643371E+01  0.42861649220E+01  0.51100000000E-03 0.  1.
        -11    1    3    3    0    0 -0.10446737092E+02 -0.32673423247E+02  0.25938603128E+01  0.34400799615E+02  0.51100000000E-03 0. -1.
         12    1    3    3    0    0 -0.80379505959E+01 -0.59615894655E+01 -0.63309873260E+01  0.11841900154E+02  0.00000000000E+00 0. -1.
</event>
<event>
 7    1  0.7161676E-012  0.5052886E+02  0.7816164E-02  0.1300439E+00
        -11   -1    0    0    0    0  0.00000000000E+00  0.00000000000E+00  0.45593999997E+02  0.45594000000E+02  0.51100000000E-03 0. -1.
         11   -1    0    0    0    0 -0.00000000000E+00 -0.00000000000E+00 -0.45593999997E+02  0.45594000000E+02  0.51100000000E-03 0.  1.
    9900012    2    1    2    0    0  0.11684210382E+02  0.37060882505E+00  0.38942363161E+02  0.50528858695E+02  0.29999996488E+02 0.  0.
        -12    1    1    2    0    0 -0.11684210382E+02 -0.37060882505E+00 -0.38942363161E+02  0.40659141305E+02  0.00000000000E+00 0.  1.
         11    1    3    3    0    0  0.10338990553E+02 -0.10843062838E+00  0.40053076089E+02  0.41366113998E+02  0.51100000000E-03 0. -1.
        -11    1    3    3    0    0 -0.23321259846E+01 -0.26498779561E+01  0.13054110437E+01  0.37636103736E+01  0.51100000000E-03 0.  1.
         12    1    3    3    0    0  0.36773458140E+01  0.31289174095E+01 -0.24161239717E+01  0.53991343231E+01  0.00000000000E+00 0. -1.
</event>
<event>
 7    1  0.6889665E-012  0.5052887E+02  0.7816164E-02  0.1300439E+00
        -11   -1    0    0    0    0  0.00000000000E+00  0.00000000000E+00  0.45593999997E+02  0.45594000000E+02  0.51100000000E-03 0. -1.
         11   -1    0    0    0    0 -0.00000000000E+00 -0.00000000000E+00 -0.45593999997E+02  0.45594000000E+02  0.51100000000E-03 0.  1.
    9900012    2    1    2    0    0 -0.10013155033E+02 -0.36534941135E+02 -0.14768195601E+02  0.50528870659E+02  0.30000032854E+02 0.  0.
         12    1    1    2    0    0  0.10013155033E+02  0.36534941135E+02  0.14768195601E+02  0.40659129341E+02  0.00000000000E+00 0. -1.
         11    1    3    3    0    0 -0.80296015809E+01 -0.72993892147E+01  0.12911695809E+01  0.10928069528E+02  0.51100000000E-03 0. -1.
        -11    1    3    3    0    0 -0.30405713931E+01 -0.28563794250E+02 -0.20303173226E+02  0.35176046674E+02  0.51100000000E-03 0.  1.
        -12    1    3    3    0    0  0.10570179406E+01 -0.67175767095E+00  0.42438080433E+01  0.44247544569E+01  0.00000000000E+00 0.  1.
</event>
<event>
 7    1  0.6889665E-012  0.5052886E+02  0.7816164E-02  0.1300439E+00
        -11   -1    0    0    0    0  0.00000000000E+00  0.00000000000E+00  0.45593999997E+02  0.45594000000E+02  0.51100000000E-03 0. -1.
         11   -1    0    0    0    0 -0.00000000000E+00 -0.00000000000E+00 -0.45593999997E+02  0.45594000000E+02  0.51100000000E-03 0.  1.
    9900012    2    1    2    0    0  0.13117109792E+02  0.36820583541E+02 -0.11196059964E+02  0.50528859572E+02  0.29999999156E+02 0.  0.
         12    1    1    2    0    0 -0.13117109792E+02 -0.36820583541E+02  0.11196059964E+02  0.40659140428E+02  0.00000000000E+00 0. -1.
         11    1    3    3    0    0 -0.57220825844E+01 -0.19321580736E+01 -0.15535437522E+01  0.62361015366E+01  0.51100000000E-03 0. -1.
        -11    1    3    3    0    0  0.92379210888E+01  0.15673852113E+02 -0.31180711581E+01  0.18458905551E+02  0.51100000000E-03 0.  1.
         12    1    3    3    0    0  0.96012712874E+01  0.23078889501E+02 -0.65244450542E+01  0.25833852485E+02  0.00000000000E+00 0. -1.
</event>
<event>
 7    1  0.6889665E-012  0.5052886E+02  0.7816164E-02  0.1300439E+00
        -11   -1    0    0    0    0  0.00000000000E+00  0.00000000000E+00  0.45593999997E+02  0.45594000000E+02  0.51100000000E-03 0. -1.
         11   -1    0    0    0    0 -0.00000000000E+00 -0.00000000000E+00 -0.45593999997E+02  0.45594000000E+02  0.51100000000E-03 0.  1.
    9900012    2    1    2    0    0  0.21766969204E+01 -0.33885954924E+02  0.22364471552E+02  0.50528861563E+02  0.30000005208E+02 0.  0.
        -12    1    1    2    0    0 -0.21766969204E+01  0.33885954924E+02 -0.22364471552E+02  0.40659138437E+02  0.00000000000E+00 0.  1.
         11    1    3    3    0    0 -0.70345979715E+01 -0.27248191793E+02  0.25792474920E+02  0.38173305953E+02  0.51100000000E-03 0. -1.
        -11    1    3    3    0    0  0.94953288959E+01 -0.64690661792E+01 -0.35126586959E+01  0.12014527017E+02  0.51100000000E-03 0.  1.
         12    1    3    3    0    0 -0.28403400391E+00 -0.16869695136E+00  0.84655328039E-01  0.34102859314E+00  0.00000000000E+00 0. -1.
</event>
<event>
 7    1  0.7928454E-012  0.5052886E+02  0.7816164E-02  0.1300439E+00
        -11   -1    0    0    0    0  0.00000000000E+00  0.00000000000E+00  0.45593999997E+02  0.45594000000E+02  0.51100000000E-03 0. -1.
         11   -1    0    0    0    0 -0.00000000000E+00 -0.00000000000E+00 -0.45593999997E+02  0.45594000000E+02  0.51100000000E-03 0.  1.
    9900012    2    1    2    0    0 -0.12474406096E+02  0.20141922259E+02 -0.33043267120E+02  0.50528863983E+02  0.30000012562E+02 0.  0.
         12    1    1    2    0    0  0.12474406096E+02 -0.20141922259E+02  0.33043267120E+02  0.40659136017E+02  0.00000000000E+00 0. -1.
         11    1    3    3    0    0  0.59419548018E+01  0.55833575666E+01 -0.12238489104E+02  0.14705826206E+02  0.51100000000E-03 0. -1.
        -11    1    3    3    0    0 -0.71488429600E+01  0.12532959314E+02 -0.31291644580E+01  0.14763898377E+02  0.51100000000E-03 0.  1.
        -12    1    3    3    0    0 -0.11267517937E+02  0.20256053784E+01 -0.17675613557E+02  0.21059139399E+02  0.00000000000E+00 0.  1.
</event>
<event>
 7    1  0.6889665E-012  0.5052885E+02  0.7816164E-02  0.1300439E+00
        -11   -1    0    0    0    0  0.00000000000E+00  0.00000000000E+00  0.45593999997E+02  0.45594000000E+02  0.51100000000E-03 0. -1.
         11   -1    0    0    0    0 -0.00000000000E+00 -0.00000000000E+00 -0.45593999997E+02  0.45594000000E+02  0.51100000000E-03 0.  1.
    9900012    2    1    2    0    0 -0.32402305316E+02 -0.53701789759E+00 -0.24555422937E+02  0.50528848833E+02  0.29999966512E+02 0.  0.
         12    1    1    2    0    0  0.32402305316E+02  0.53701789759E+00  0.24555422937E+02  0.40659151167E+02  0.00000000000E+00 0. -1.
         11    1    3    3    0    0 -0.98389979703E+01  0.69993933123E+01 -0.12592672516E+02  0.17446282961E+02  0.51100000000E-03 0. -1.
        -11    1    3    3    0    0 -0.15379517154E+02 -0.66605036668E+01  0.24663149406E+01  0.16940323687E+02  0.51100000000E-03 0.  1.
        -12    1    3    3    0    0 -0.71837901922E+01 -0.87590754307E+00 -0.14429065361E+02  0.16142242185E+02  0.00000000000E+00 0.  1.
</event>
<event>
 7    1  0.6889665E-012  0.5052886E+02  0.7816164E-02  0.1300439E+00
        -11   -1    0    0    0    0  0.00000000000E+00  0.00000000000E+00  0.45593999997E+02  0.45594000000E+02  0.51100000000E-03 0. -1.
         11   -1    0    0    0    0 -0.00000000000E+00 -0.00000000000E+00 -0.45593999997E+02  0.45594000000E+02  0.51100000000E-03 0.  1.
    9900012    2    1    2    0    0  0.99661557909E+01  0.39205116321E+02 -0.40988206214E+01  0.50528859116E+02  0.29999997768E+02 0.  0.
        -12    1    1    2    0    0 -0.99661557909E+01 -0.39205116321E+02  0.40988206214E+01  0.40659140884E+02  0.00000000000E+00 0.  1.
         11    1    3    3    0    0  0.52380512656E+01  0.34232704379E+02 -0.62689671117E+01  0.35193965094E+02  0.51100000000E-03 0. -1.
        -11    1    3    3    0    0 -0.45643912637E+01  0.34948342708E-01 -0.11865449375E+00  0.45660670325E+01  0.51100000000E-03 0.  1.
         12    1    3    3    0    0  0.92924957889E+01  0.49374635993E+01  0.22888009840E+01  0.10768826989E+02  0.00000000000E+00 0. -1.
</event>
<event>
 7    1  0.6889665E-012  0.5052886E+02  0.7816164E-02  0.1300439E+00
        -11   -1    0    0    0    0  0.00000000000E+00  0.00000000000E+00  0.45593999997E+02  0.45594000000E+02  0.51100000000E-03 0. -1.
         11   -1    0    0    0    0 -0.00000000000E+00 -0.00000000000E+00 -0.45593999997E+02  0.45594000000E+02  0.51100000000E-03 0.  1.
    9900012    2    1    2    0    0 -0.25138748102E+02 -0.57449389272E+01  0.31435723736E+02  0.50528859499E+02  0.29999998934E+02 0.  0.
        -12    1    1    2    0    0  0.25138748102E+02  0.57449389272E+01 -0.31435723736E+02  0.40659140501E+02  0.00000000000E+00 0.  1.
         11    1    3    3    0    0  0.50049079990E+01  0.41917254716E+01  0.52587472604E+01  0.83829642441E+01  0.51100000000E-03 0. -1.
        -11    1    3    3    0    0 -0.17113209333E+02 -0.92424038458E+01  0.19280949327E+02  0.27386839352E+02  0.51100000000E-03 0.  1.
         12    1    3    3    0    0 -0.13030446769E+02 -0.69426055290E+00  0.68960271492E+01  0.14759055903E+02  0.00000000000E+00 0. -1.
</event>
<event>
 7    1  0.6889665E-012  0.5052887E+02  0.7816164E-02  0.1300439E+00
        -11   -1    0    0    0    0  0.00000000000E+00  0.00000000000E+00  0.45593999997E+02  0.45594000000E+02  0.51100000000E-03 0. -1.
         11   -1    0    0    0    0 -0.00000000000E+00 -0.00000000000E+00 -0.45593999997E+02  0.45594000000E+02  0.51100000000E-03 0.  1.
    9900012    2    1    2    0    0 -0.89967477097E+01 -0.51858345134E+01 -0.39310696072E+02  0.50528866037E+02  0.30000018806E+02 0.  0.
         12    1    1    2    0    0  0.89967477097E+01  0.51858345134E+01  0.39310696072E+02  0.40659133963E+02  0.00000000000E+00 0. -1.
         11    1    3    3    0    0 -0.70188099321E-01  0.30292107782E+01 -0.47399663202E+01  0.56256844282E+01  0.51100000000E-03 0. -1.
        -11    1    3    3    0    0 -0.32546447798E+01 -0.17171858115E+02 -0.16998908225E+02  0.24380900411E+02  0.51100000000E-03 0.  1.
        -12    1    3    3    0    0 -0.56719148305E+01  0.89568128231E+01 -0.17571821527E+02  0.20522281198E+02  0.00000000000E+00 0.  1.
</event>
<event>
 7    1  0.6889665E-012  0.5052885E+02  0.7816164E-02  0.1300439E+00
        -11   -1    0    0    0    0  0.00000000000E+00  0.00000000000E+00  0.45593999997E+02  0.45594000000E+02  0.51100000000E-03 0. -1.
         11   -1    0    0    0    0 -0.00000000000E+00 -0.00000000000E+00 -0.45593999997E+02  0.45594000000E+02  0.51100000000E-03 0.  1.
    9900012    2    1    2    0    0  0.34236888095E+02 -0.20370905440E+02  0.81257555236E+01  0.50528853456E+02  0.29999980564E+02 0.  0.
        -12    1    1    2    0    0 -0.34236888095E+02  0.20370905440E+02 -0.81257555236E+01  0.40659146544E+02  0.00000000000E+00 0.  1.
         11    1    3    3    0    0  0.30528296833E+02 -0.16284861439E+02  0.16149385671E+02  0.38183455545E+02  0.51100000000E-03 0. -1.
        -11    1    3    3    0    0  0.32114068025E+01 -0.58876625388E+01 -0.80482661315E+01  0.10476272801E+02  0.51100000000E-03 0.  1.
         12    1    3    3    0    0  0.49718445979E+00  0.18016185376E+01  0.24635984262E-01  0.18691251092E+01  0.00000000000E+00 0. -1.
</event>
<event>
 7    1  0.1087469E-011  0.5052887E+02  0.7816164E-02  0.1300439E+00
        -11   -1    0    0    0    0  0.00000000000E+00  0.00000000000E+00  0.45593999997E+02  0.45594000000E+02  0.51100000000E-03 0. -1.
         11   -1    0    0    0    0 -0.00000000000E+00 -0.00000000000E+00 -0.45593999997E+02  0.45594000000E+02  0.51100000000E-03 0.  1.
    9900012    2    1    2    0    0  0.51745531084E+01 -0.18806652257E+02 -0.35674903734E+02  0.50528869102E+02  0.30000028122E+02 0.  0.
         12    1    1    2    0    0 -0.51745531084E+01  0.18806652257E+02  0.35674903734E+02  0.40659130898E+02  0.00000000000E+00 0. -1.
         11    1    3    3    0    0  0.29374003638E+01  0.66311726837E+00  0.58394129223E+00  0.30674147263E+01  0.51100000000E-03 0. -1.
        -11    1    3    3    0    0 -0.10516651290E+02 -0.63756424663E+01 -0.15893965146E+02  0.20096439971E+02  0.51100000000E-03 0.  1.
        -12    1    3    3    0    0  0.12753804035E+02 -0.13094127059E+02 -0.20364879880E+02  0.27365014404E+02  0.00000000000E+00 0.  1.
</event>
<event>
 7    1  0.6889665E-012  0.5052886E+02  0.7816164E-02  0.1300439E+00
        -11   -1    0    0    0    0  0.00000000000E+00  0.00000000000E+00  0.45593999997E+02  0.45594000000E+02  0.51100000000E-03 0. -1.
         11   -1    0    0    0    0 -0.00000000000E+00 -0.00000000000E+00 -0.45593999997E+02  0.45594000000E+02  0.51100000000E-03 0.  1.
    9900012    2    1    2    0    0 -0.38717416046E+02  0.73441771777E+01  0.10009511861E+02  0.50528861157E+02  0.30000003974E+02 0.  0.
        -12    1    1    2    0    0  0.38717416046E+02 -0.73441771777E+01 -0.10009511861E+02  0.40659138843E+02  0.00000000000E+00 0.  1.
         11    1    3    3    0    0 -0.33580576412E+02  0.80379945484E+01 -0.47385038909E+01  0.34852803157E+02  0.51100000000E-03 0. -1.
        -11    1    3    3    0    0 -0.10993563021E+01 -0.61700022780E+00  0.30323606410E+01  0.32839739460E+01  0.51100000000E-03 0.  1.
         12    1    3    3    0    0 -0.40374833320E+01 -0.76817142870E-01  0.11715655111E+02  0.12392084054E+02  0.00000000000E+00 0. -1.
</event>
<event>
 7    1  0.6889665E-012  0.5052885E+02  0.7816164E-02  0.1300439E+00
        -11   -1    0    0    0    0  0.00000000000E+00  0.00000000000E+00  0.45593999997E+02  0.45594000000E+02  0.51100000000E-03 0. -1.
         11   -1    0    0    0    0 -0.00000000000E+00 -0.00000000000E+00 -0.45593999997E+02  0.45594000000E+02  0.51100000000E-03 0.  1.
    9900012    2    1    2    0    0 -0.94893513141E+01 -0.33827560535E+02 -0.20464965795E+02  0.50528850168E+02  0.29999970569E+02 0.  0.
         12    1    1    2    0    0  0.94893513141E+01  0.33827560535E+02  0.20464965795E+02  0.40659149832E+02  0.00000000000E+00 0. -1.
         11    1    3    3    0    0  0.88470409577E+01 -0.55383186553E+01 -0.99917247961E+01  0.14449140871E+02  0.51100000000E-03 0. -1.
        -11    1    3    3    0    0 -0.96479266288E+01 -0.83734982820E+01 -0.32463031262E+01  0.13180912182E+02  0.51100000000E-03 0.  1.
         12    1    3    3    0    0 -0.86884656429E+01 -0.19915743598E+02 -0.72269378722E+01  0.22898797115E+02  0.00000000000E+00 0. -1.
</event>
<event>
 7    1  0.6889665E-012  0.5052886E+02  0.7816164E-02  0.1300439E+00
        -11   -1    0    0    0    0  0.00000000000E+00  0.00000000000E+00  0.45593999997E+02  0.45594000000E+02  0.51100000000E-03 0. -1.
         11   -1    0    0    0    0 -0.00000000000E+00 -0.00000000000E+00 -0.45593999997E+02  0.45594000000E+02  0.51100000000E-03 0.  1.
    9900012    2    1    2    0    0  0.79106959349E+01  0.19210341551E+02 -0.34950664802E+02  0.50528864462E+02  0.30000014017E+02 0.  0.
         12    1    1    2    0    0 -0.79106959349E+01 -0.19210341551E+02  0.34950664802E+02  0.40659135538E+02  0.00000000000E+00 0. -1.
         11    1    3    3    0    0  0.76668971715E+01  0.12140098944E+02 -0.22558781527E+02  0.26740642079E+02  0.51100000000E-03 0.  1.
        -11    1    3    3    0    0 -0.54197926454E+01  0.97627238082E+00  0.30152388564E+01  0.62784493072E+01  0.51100000000E-03 0. -1.
         12    1    3    3    0    0  0.56635914088E+01  0.60939702261E+01 -0.15407122131E+02  0.17509773075E+02  0.00000000000E+00 0. -1.
</event>
<event>
 7    1  0.6889665E-012  0.5052886E+02  0.7816164E-02  0.1300439E+00
        -11   -1    0    0    0    0  0.00000000000E+00  0.00000000000E+00  0.45593999997E+02  0.45594000000E+02  0.51100000000E-03 0. -1.
         11   -1    0    0    0    0 -0.00000000000E+00 -0.00000000000E+00 -0.45593999997E+02  0.45594000000E+02  0.51100000000E-03 0.  1.
    9900012    2    1    2    0    0  0.22884212374E+02 -0.54867871800E+01  0.33156808484E+02  0.50528856399E+02  0.29999989510E+02 0.  0.
        -12    1    1    2    0    0 -0.22884212374E+02  0.54867871800E+01 -0.33156808484E+02  0.40659143601E+02  0.00000000000E+00 0.  1.
         11    1    3    3    0    0 -0.17606023582E+01 -0.60953100789E+01  0.59480095544E+01  0.86966282858E+01  0.51100000000E-03 0. -1.
        -11    1    3    3    0    0  0.17832786604E+02  0.68649736415E+01  0.84020557574E+01  0.20874163034E+02  0.51100000000E-03 0.  1.
        -12    1    3    3    0    0  0.68120281278E+01 -0.62564507427E+01  0.18806743172E+02  0.20958065079E+02  0.00000000000E+00 0.  1.
</event>
<event>
 7    1  0.6889665E-012  0.5052886E+02  0.7816164E-02  0.1300439E+00
        -11   -1    0    0    0    0  0.00000000000E+00  0.00000000000E+00  0.45593999997E+02  0.45594000000E+02  0.51100000000E-03 0. -1.
         11   -1    0    0    0    0 -0.00000000000E+00 -0.00000000000E+00 -0.45593999997E+02  0.45594000000E+02  0.51100000000E-03 0.  1.
    9900012    2    1    2    0    0  0.33011106027E+02 -0.11920760053E+02 -0.20526278781E+02  0.50528858815E+02  0.29999996854E+02 0.  0.
         12    1    1    2    0    0 -0.33011106027E+02  0.11920760053E+02  0.20526278781E+02  0.40659141185E+02  0.00000000000E+00 0. -1.
         11    1    3    3    0    0  0.78817826662E+01  0.41886307156E+01 -0.17637682689E+02  0.19767523269E+02  0.51100000000E-03 0.  1.
        -11    1    3    3    0    0  0.77848549001E+01 -0.69566542628E+01  0.18076039319E+01  0.10595585712E+02  0.51100000000E-03 0. -1.
         12    1    3    3    0    0  0.17344468460E+02 -0.91527365058E+01 -0.46962000233E+01  0.20165749834E+02  0.00000000000E+00 0. -1.
</event>
<event>
 7    1  0.6889665E-012  0.5052886E+02  0.7816164E-02  0.1300439E+00
        -11   -1    0    0    0    0  0.00000000000E+00  0.00000000000E+00  0.45593999997E+02  0.45594000000E+02  0.51100000000E-03 0. -1.
         11   -1    0    0    0    0 -0.00000000000E+00 -0.00000000000E+00 -0.45593999997E+02  0.45594000000E+02  0.51100000000E-03 0.  1.
    9900012    2    1    2    0    0  0.74453598615E+01 -0.26097696994E+01 -0.39886357569E+02  0.50528858329E+02  0.29999995376E+02 0.  0.
         12    1    1    2    0    0 -0.74453598615E+01  0.26097696994E+01  0.39886357569E+02  0.40659141671E+02  0.00000000000E+00 0. -1.
         11    1    3    3    0    0  0.68162191205E+00  0.54608626712E+01 -0.62617508547E+01  0.83363753257E+01  0.51100000000E-03 0. -1.
        -11    1    3    3    0    0  0.56964418896E+01 -0.16258358888E+02 -0.23015109868E+02  0.28748547205E+02  0.51100000000E-03 0.  1.
        -12    1    3    3    0    0  0.10672960598E+01  0.81877265176E+01 -0.10609496846E+02  0.13443935798E+02  0.00000000000E+00 0.  1.
</event>
<event>
 7    1  0.6889665E-012  0.5052887E+02  0.7816164E-02  0.1300439E+00
        -11   -1    0    0    0    0  0.00000000000E+00  0.00000000000E+00  0.45593999997E+02  0.45594000000E+02  0.51100000000E-03 0. -1.
         11   -1    0    0    0    0 -0.00000000000E+00 -0.00000000000E+00 -0.45593999997E+02  0.45594000000E+02  0.51100000000E-03 0.  1.
    9900012    2    1    2    0    0  0.58260972790E+01 -0.69126707416E+01 -0.39641350429E+02  0.50528867077E+02  0.30000021966E+02 0.  0.
         12    1    1    2    0    0 -0.58260972790E+01  0.69126707416E+01  0.39641350429E+02  0.40659132923E+02  0.00000000000E+00 0. -1.
         11    1    3    3    0    0 -0.42202001342E+01  0.92134325131E+00 -0.61858987486E+01  0.75448198221E+01  0.51100000000E-03 0. -1.
        -11    1    3    3    0    0  0.16063605441E+02 -0.84678879221E+01 -0.14971170660E+02  0.23534665853E+02  0.51100000000E-03 0.  1.
        -12    1    3    3    0    0 -0.60173080280E+01  0.63387392915E+00 -0.18484281020E+02  0.19449381401E+02  0.00000000000E+00 0.  1.
</event>
<event>
 7    1  0.6889665E-012  0.5052897E+02  0.7816164E-02  0.1300438E+00
        -11   -1    0    0    0    0  0.00000000000E+00  0.00000000000E+00  0.45593999997E+02  0.45594000000E+02  0.51100000000E-03 0. -1.
         11   -1    0    0    0    0 -0.00000000000E+00 -0.00000000000E+00 -0.45593999997E+02  0.45594000000E+02  0.51100000000E-03 0.  1.
    9900012    2    1    2    0    0 -0.10110456426E+02 -0.28070185189E+02  0.27622455522E+02  0.50528970563E+02  0.30000336523E+02 0.  0.
        -12    1    1    2    0    0  0.10110456426E+02  0.28070185189E+02 -0.27622455522E+02  0.40659029437E+02  0.00000000000E+00 0.  1.
         11    1    3    3    0    0  0.37504324650E+00 -0.25436188045E+01  0.17381630319E+02  0.17570763412E+02  0.51100000000E-03 0. -1.
        -11    1    3    3    0    0 -0.46117604394E+01 -0.12198038431E+02 -0.28794492894E+01  0.13354838239E+02  0.51100000000E-03 0.  1.
         12    1    3    3    0    0 -0.58737392328E+01 -0.13328527953E+02  0.13120274492E+02  0.19603368913E+02  0.00000000000E+00 0. -1.
</event>
<event>
 7    1  0.6889665E-012  0.5052887E+02  0.7816164E-02  0.1300439E+00
        -11   -1    0    0    0    0  0.00000000000E+00  0.00000000000E+00  0.45593999997E+02  0.45594000000E+02  0.51100000000E-03 0. -1.
         11   -1    0    0    0    0 -0.00000000000E+00 -0.00000000000E+00 -0.45593999997E+02  0.45594000000E+02  0.51100000000E-03 0.  1.
    9900012    2    1    2    0    0 -0.14636983274E+02  0.37113078916E+00  0.37931331357E+02  0.50528869218E+02  0.30000028476E+02 0.  0.
        -12    1    1    2    0    0  0.14636983274E+02 -0.37113078916E+00 -0.37931331357E+02  0.40659130782E+02  0.00000000000E+00 0.  1.
         11    1    3    3    0    0 -0.15103640753E+02  0.11703676736E+02  0.19568815435E+02  0.27350220309E+02  0.51100000000E-03 0. -1.
        -11    1    3    3    0    0  0.19598438609E+01 -0.39539401833E+01  0.14149701830E+01  0.46343038110E+01  0.51100000000E-03 0.  1.
         12    1    3    3    0    0 -0.14931863819E+01 -0.73786057631E+01  0.16947545739E+02  0.18544345099E+02  0.00000000000E+00 0. -1.
</event>
<event>
 7    1  0.6889665E-012  0.5052887E+02  0.7816164E-02  0.1300439E+00
        -11   -1    0    0    0    0  0.00000000000E+00  0.00000000000E+00  0.45593999997E+02  0.45594000000E+02  0.51100000000E-03 0. -1.
         11   -1    0    0    0    0 -0.00000000000E+00 -0.00000000000E+00 -0.45593999997E+02  0.45594000000E+02  0.51100000000E-03 0.  1.
    9900012    2    1    2    0    0 -0.17681249582E+02 -0.85543323831E+01 -0.35600027819E+02  0.50528866094E+02  0.30000018980E+02 0.  0.
         12    1    1    2    0    0  0.17681249582E+02  0.85543323831E+01  0.35600027819E+02  0.40659133906E+02  0.00000000000E+00 0. -1.
         11    1    3    3    0    0  0.73340831021E+01  0.13168612351E+01 -0.85638114436E+01  0.11351729611E+02  0.51100000000E-03 0.  1.
        -11    1    3    3    0    0 -0.19473597772E+02 -0.44871189585E+01 -0.15490499108E+02  0.25284596291E+02  0.51100000000E-03 0. -1.
        -12    1    3    3    0    0 -0.55417349120E+01 -0.53840746596E+01 -0.11545717267E+02  0.13892540192E+02  0.00000000000E+00 0.  1.
</event>
<event>
 7    1  0.6889665E-012  0.5052886E+02  0.7816164E-02  0.1300439E+00
        -11   -1    0    0    0    0  0.00000000000E+00  0.00000000000E+00  0.45593999997E+02  0.45594000000E+02  0.51100000000E-03 0. -1.
         11   -1    0    0    0    0 -0.00000000000E+00 -0.00000000000E+00 -0.45593999997E+02  0.45594000000E+02  0.51100000000E-03 0.  1.
    9900012    2    1    2    0    0  0.13339339285E+02  0.70843592132E+01 -0.37749698349E+02  0.50528857812E+02  0.29999993807E+02 0.  0.
         12    1    1    2    0    0 -0.13339339285E+02 -0.70843592132E+01  0.37749698349E+02  0.40659142188E+02  0.00000000000E+00 0. -1.
         11    1    3    3    0    0 -0.18998301789E+01 -0.28210535407E+01 -0.23775357233E+01  0.41497438674E+01  0.51100000000E-03 0. -1.
        -11    1    3    3    0    0  0.78850720533E+01  0.96472236038E+01 -0.25187796719E+01  0.12711708612E+02  0.51100000000E-03 0.  1.
        -12    1    3    3    0    0  0.73540974106E+01  0.25818915008E+00 -0.32853382953E+02  0.33667405333E+02  0.00000000000E+00 0.  1.
</event>
<event>
 7    1  0.6889665E-012  0.5052886E+02  0.7816164E-02  0.1300439E+00
        -11   -1    0    0    0    0  0.00000000000E+00  0.00000000000E+00  0.45593999997E+02  0.45594000000E+02  0.51100000000E-03 0.  1.
         11   -1    0    0    0    0 -0.00000000000E+00 -0.00000000000E+00 -0.45593999997E+02  0.45594000000E+02  0.51100000000E-03 0. -1.
    9900012    2    1    2    0    0 -0.86701427532E+01 -0.37853711128E+02 -0.12045358537E+02  0.50528862235E+02  0.30000007250E+02 0.  0.
         12    1    1    2    0    0  0.86701427532E+01  0.37853711128E+02  0.12045358537E+02  0.40659137765E+02  0.00000000000E+00 0. -1.
         11    1    3    3    0    0 -0.13252942535E+02 -0.33843707124E+01 -0.94749407834E+00  0.13711024624E+02  0.51100000000E-03 0. -1.
        -11    1    3    3    0    0  0.14603090375E+01 -0.25394588106E+02 -0.90987637016E+01  0.27014905307E+02  0.51100000000E-03 0.  1.
         12    1    3    3    0    0  0.31224907445E+01 -0.90747523091E+01 -0.19991007567E+01  0.98029323039E+01  0.00000000000E+00 0. -1.
</event>
<event>
 7    1  0.6889665E-012  0.5052886E+02  0.7816164E-02  0.1300439E+00
        -11   -1    0    0    0    0  0.00000000000E+00  0.00000000000E+00  0.45593999997E+02  0.45594000000E+02  0.51100000000E-03 0. -1.
         11   -1    0    0    0    0 -0.00000000000E+00 -0.00000000000E+00 -0.45593999997E+02  0.45594000000E+02  0.51100000000E-03 0.  1.
    9900012    2    1    2    0    0  0.33853036818E+02  0.73415109650E+01  0.21289424746E+02  0.50528862146E+02  0.30000006978E+02 0.  0.
        -12    1    1    2    0    0 -0.33853036818E+02 -0.73415109650E+01 -0.21289424746E+02  0.40659137854E+02  0.00000000000E+00 0.  1.
         11    1    3    3    0    0  0.11217558625E+02  0.66593516301E+01  0.25690199397E+01  0.13295880917E+02  0.51100000000E-03 0. -1.
        -11    1    3    3    0    0  0.12934594202E+02 -0.93442716672E+01  0.30385302788E+01  0.16243515834E+02  0.51100000000E-03 0.  1.
        -12    1    3    3    0    0  0.97008839913E+01  0.10026431002E+02  0.15681874527E+02  0.20989465394E+02  0.00000000000E+00 0.  1.
</event>
<event>
 7    1  0.6889665E-012  0.5052886E+02  0.7816164E-02  0.1300439E+00
        -11   -1    0    0    0    0  0.00000000000E+00  0.00000000000E+00  0.45593999997E+02  0.45594000000E+02  0.51100000000E-03 0. -1.
         11   -1    0    0    0    0 -0.00000000000E+00 -0.00000000000E+00 -0.45593999997E+02  0.45594000000E+02  0.51100000000E-03 0.  1.
    9900012    2    1    2    0    0  0.43619923939E+01 -0.21849165363E+02  0.34011066510E+02  0.50528860193E+02  0.30000001042E+02 0.  0.
        -12    1    1    2    0    0 -0.43619923939E+01  0.21849165363E+02 -0.34011066510E+02  0.40659139807E+02  0.00000000000E+00 0.  1.
         11    1    3    3    0    0  0.35996227374E+01 -0.89494814368E+01  0.43081740496E+01  0.10564604382E+02  0.51100000000E-03 0. -1.
        -11    1    3    3    0    0 -0.10904705220E+02 -0.28202568501E+01  0.13822218172E+02  0.17830315760E+02  0.51100000000E-03 0.  1.
        -12    1    3    3    0    0  0.11667074876E+02 -0.10079427076E+02  0.15880674288E+02  0.22133940051E+02  0.00000000000E+00 0.  1.
</event>
<event>
 7    1  0.6889665E-012  0.5052886E+02  0.7816164E-02  0.1300439E+00
        -11   -1    0    0    0    0  0.00000000000E+00  0.00000000000E+00  0.45593999997E+02  0.45594000000E+02  0.51100000000E-03 0.  1.
         11   -1    0    0    0    0 -0.00000000000E+00 -0.00000000000E+00 -0.45593999997E+02  0.45594000000E+02  0.51100000000E-03 0. -1.
    9900012    2    1    2    0    0  0.41417800417E+01  0.24744704539E+02 -0.31995487862E+02  0.50528856032E+02  0.29999988396E+02 0.  0.
         12    1    1    2    0    0 -0.41417800417E+01 -0.24744704539E+02  0.31995487862E+02  0.40659143968E+02  0.00000000000E+00 0. -1.
         11    1    3    3    0    0  0.55139030319E+01  0.62655907027E+01 -0.70315674937E+01  0.10913463940E+02  0.51100000000E-03 0. -1.
        -11    1    3    3    0    0 -0.36210715199E+01 -0.29127303282E+01  0.20539702581E+01  0.50808415641E+01  0.51100000000E-03 0.  1.
        -12    1    3    3    0    0  0.22489485297E+01  0.21391844165E+02 -0.27017890627E+02  0.34534550528E+02  0.00000000000E+00 0.  1.
</event>
<event>
 7    1  0.6889665E-012  0.5052886E+02  0.7816164E-02  0.1300439E+00
        -11   -1    0    0    0    0  0.00000000000E+00  0.00000000000E+00  0.45593999997E+02  0.45594000000E+02  0.51100000000E-03 0. -1.
         11   -1    0    0    0    0 -0.00000000000E+00 -0.00000000000E+00 -0.45593999997E+02  0.45594000000E+02  0.51100000000E-03 0.  1.
    9900012    2    1    2    0    0  0.11107670377E+02 -0.22175526102E+02  0.32218495406E+02  0.50528859019E+02  0.29999997474E+02 0.  0.
        -12    1    1    2    0    0 -0.11107670377E+02  0.22175526102E+02 -0.32218495406E+02  0.40659140981E+02  0.00000000000E+00 0.  1.
         11    1    3    3    0    0  0.23286610778E+01 -0.11816008051E+01  0.12020294073E+02  0.12300663101E+02  0.51100000000E-03 0. -1.
        -11    1    3    3    0    0  0.26003024451E+01 -0.10993808200E+02 -0.34562004426E+01  0.11814004965E+02  0.51100000000E-03 0.  1.
        -12    1    3    3    0    0  0.61787068545E+01 -0.10000117097E+02  0.23654401776E+02  0.26414190953E+02  0.00000000000E+00 0.  1.
</event>
<event>
 7    1  0.6889665E-012  0.5052885E+02  0.7816164E-02  0.1300439E+00
        -11   -1    0    0    0    0  0.00000000000E+00  0.00000000000E+00  0.45593999997E+02  0.45594000000E+02  0.51100000000E-03 0. -1.
         11   -1    0    0    0    0 -0.00000000000E+00 -0.00000000000E+00 -0.45593999997E+02  0.45594000000E+02  0.51100000000E-03 0.  1.
    9900012    2    1    2    0    0  0.37509057716E+02 -0.23793898967E+01 -0.15510487214E+02  0.50528854403E+02  0.29999983444E+02 0.  0.
         12    1    1    2    0    0 -0.37509057716E+02  0.23793898967E+01  0.15510487214E+02  0.40659145597E+02  0.00000000000E+00 0. -1.
         11    1    3    3    0    0  0.58490409579E+00  0.75927937339E+01 -0.82387523053E+01  0.11219165267E+02  0.51100000000E-03 0. -1.
        -11    1    3    3    0    0  0.89931784958E+01 -0.48181218209E+01 -0.12857719515E+01  0.10283227466E+02  0.51100000000E-03 0.  1.
         12    1    3    3    0    0  0.27930975125E+02 -0.51540618096E+01 -0.59859629574E+01  0.29026461670E+02  0.00000000000E+00 0. -1.
</event>
<event>
 7    1  0.6889665E-012  0.5052886E+02  0.7816164E-02  0.1300439E+00
        -11   -1    0    0    0    0  0.00000000000E+00  0.00000000000E+00  0.45593999997E+02  0.45594000000E+02  0.51100000000E-03 0. -1.
         11   -1    0    0    0    0 -0.00000000000E+00 -0.00000000000E+00 -0.45593999997E+02  0.45594000000E+02  0.51100000000E-03 0.  1.
    9900012    2    1    2    0    0 -0.40269638003E+02  0.56138855279E+01  0.77029018133E-01  0.50528863400E+02  0.30000010790E+02 0.  0.
         12    1    1    2    0    0  0.40269638003E+02 -0.56138855279E+01 -0.77029018133E-01  0.40659136600E+02  0.00000000000E+00 0. -1.
         11    1    3    3    0    0 -0.81011474327E+00  0.21821343204E+01  0.55298219436E+01  0.59997439177E+01  0.51100000000E-03 0. -1.
        -11    1    3    3    0    0 -0.14446430071E+02 -0.70057993794E+01 -0.66989636984E+01  0.17397030828E+02  0.51100000000E-03 0.  1.
        -12    1    3    3    0    0 -0.25013093189E+02  0.10437550587E+02  0.12461707729E+01  0.27132088654E+02  0.00000000000E+00 0.  1.
</event>
<event>
 7    1  0.6889665E-012  0.5052886E+02  0.7816164E-02  0.1300439E+00
        -11   -1    0    0    0    0  0.00000000000E+00  0.00000000000E+00  0.45593999997E+02  0.45594000000E+02  0.51100000000E-03 0. -1.
         11   -1    0    0    0    0 -0.00000000000E+00 -0.00000000000E+00 -0.45593999997E+02  0.45594000000E+02  0.51100000000E-03 0.  1.
    9900012    2    1    2    0    0 -0.62589216492E+01 -0.65905724643E+01  0.39630236309E+02  0.50528863566E+02  0.30000011296E+02 0.  0.
        -12    1    1    2    0    0  0.62589216492E+01  0.65905724643E+01 -0.39630236309E+02  0.40659136434E+02  0.00000000000E+00 0.  1.
         11    1    3    3    0    0  0.28161872967E+01  0.75456712706E+01  0.22708557535E+02  0.24094535716E+02  0.51100000000E-03 0. -1.
        -11    1    3    3    0    0 -0.41770423916E+01 -0.30056944850E+01 -0.51956968082E+00  0.51722176475E+01  0.51100000000E-03 0.  1.
        -12    1    3    3    0    0 -0.48980665543E+01 -0.11130549250E+02  0.17441248456E+02  0.21262110203E+02  0.00000000000E+00 0.  1.
</event>
<event>
 7    1  0.6889665E-012  0.5052887E+02  0.7816164E-02  0.1300439E+00
        -11   -1    0    0    0    0  0.00000000000E+00  0.00000000000E+00  0.45593999997E+02  0.45594000000E+02  0.51100000000E-03 0. -1.
         11   -1    0    0    0    0 -0.00000000000E+00 -0.00000000000E+00 -0.45593999997E+02  0.45594000000E+02  0.51100000000E-03 0.  1.
    9900012    2    1    2    0    0 -0.15048139557E+02 -0.84123443264E+01 -0.36823239927E+02  0.50528867694E+02  0.30000023841E+02 0.  0.
         12    1    1    2    0    0  0.15048139557E+02  0.84123443264E+01  0.36823239927E+02  0.40659132306E+02  0.00000000000E+00 0. -1.
         11    1    3    3    0    0  0.27277594486E+01 -0.12119335312E+02 -0.12830089046E+02  0.17858615433E+02  0.51100000000E-03 0. -1.
        -11    1    3    3    0    0 -0.14532577207E+02  0.37090203384E+00 -0.23950634824E+02  0.28017249638E+02  0.51100000000E-03 0.  1.
         12    1    3    3    0    0 -0.32433217991E+01  0.33360889515E+01 -0.42516057586E-01  0.46530026220E+01  0.00000000000E+00 0. -1.
</event>
<event>
 7    1  0.6889665E-012  0.5052885E+02  0.7816164E-02  0.1300439E+00
        -11   -1    0    0    0    0  0.00000000000E+00  0.00000000000E+00  0.45593999997E+02  0.45594000000E+02  0.51100000000E-03 0. -1.
         11   -1    0    0    0    0 -0.00000000000E+00 -0.00000000000E+00 -0.45593999997E+02  0.45594000000E+02  0.51100000000E-03 0.  1.
    9900012    2    1    2    0    0  0.26523853831E+02 -0.78686788111E+01  0.29794887144E+02  0.50528853081E+02  0.29999979424E+02 0.  0.
        -12    1    1    2    0    0 -0.26523853831E+02  0.78686788111E+01 -0.29794887144E+02  0.40659146919E+02  0.00000000000E+00 0.  1.
         11    1    3    3    0    0  0.86329461402E+01 -0.62748713324E+01  0.29127853892E+02  0.31021502895E+02  0.51100000000E-03 0. -1.
        -11    1    3    3    0    0  0.61440920054E+01 -0.38092897265E+01 -0.14345455869E+01  0.73701069255E+01  0.51100000000E-03 0.  1.
         12    1    3    3    0    0  0.11746815685E+02  0.22154822478E+01  0.21015788394E+01  0.12137243260E+02  0.00000000000E+00 0. -1.
</event>
<event>
 7    1  0.6889665E-012  0.5052886E+02  0.7816164E-02  0.1300439E+00
        -11   -1    0    0    0    0  0.00000000000E+00  0.00000000000E+00  0.45593999997E+02  0.45594000000E+02  0.51100000000E-03 0. -1.
         11   -1    0    0    0    0 -0.00000000000E+00 -0.00000000000E+00 -0.45593999997E+02  0.45594000000E+02  0.51100000000E-03 0.  1.
    9900012    2    1    2    0    0 -0.14802160389E+02 -0.34173556650E+02 -0.16316551040E+02  0.50528858788E+02  0.29999996772E+02 0.  0.
         12    1    1    2    0    0  0.14802160389E+02  0.34173556650E+02  0.16316551040E+02  0.40659141212E+02  0.00000000000E+00 0. -1.
         11    1    3    3    0    0 -0.16224886287E+02 -0.25674174863E+02 -0.58366946714E+01  0.30926965497E+02  0.51100000000E-03 0. -1.
        -11    1    3    3    0    0  0.49279294788E+01 -0.10845711056E+02 -0.95848232944E+01  0.15289956674E+02  0.51100000000E-03 0.  1.
         12    1    3    3    0    0 -0.35052035807E+01  0.23463292690E+01 -0.89503307387E+00  0.43119366164E+01  0.00000000000E+00 0. -1.
</event>
<event>
 7    1  0.6889665E-012  0.5052886E+02  0.7816164E-02  0.1300439E+00
        -11   -1    0    0    0    0  0.00000000000E+00  0.00000000000E+00  0.45593999997E+02  0.45594000000E+02  0.51100000000E-03 0. -1.
         11   -1    0    0    0    0 -0.00000000000E+00 -0.00000000000E+00 -0.45593999997E+02  0.45594000000E+02  0.51100000000E-03 0.  1.
    9900012    2    1    2    0    0 -0.17790392240E+02  0.24990541922E+02  0.26685961521E+02  0.50528858544E+02  0.29999996030E+02 0.  0.
        -12    1    1    2    0    0  0.17790392240E+02 -0.24990541922E+02 -0.26685961521E+02  0.40659141456E+02  0.00000000000E+00 0.  1.
         11    1    3    3    0    0 -0.13182401165E+02  0.14550962741E+02  0.31113874620E+02  0.36791023515E+02  0.51100000000E-03 0. -1.
        -11    1    3    3    0    0 -0.60929142576E+01  0.76549767209E+01 -0.27460191819E+01  0.10161835186E+02  0.51100000000E-03 0.  1.
         12    1    3    3    0    0  0.14849231827E+01  0.27846024606E+01 -0.16818939173E+01  0.35759998422E+01  0.00000000000E+00 0. -1.
</event>
<event>
 7    1  0.6889665E-012  0.5052886E+02  0.7816164E-02  0.1300439E+00
        -11   -1    0    0    0    0  0.00000000000E+00  0.00000000000E+00  0.45593999997E+02  0.45594000000E+02  0.51100000000E-03 0. -1.
         11   -1    0    0    0    0 -0.00000000000E+00 -0.00000000000E+00 -0.45593999997E+02  0.45594000000E+02  0.51100000000E-03 0.  1.
    9900012    2    1    2    0    0 -0.70094039081E+01 -0.35193726952E+02  0.19116357408E+02  0.50528864735E+02  0.30000014850E+02 0.  0.
        -12    1    1    2    0    0  0.70094039081E+01  0.35193726952E+02 -0.19116357408E+02  0.40659135265E+02  0.00000000000E+00 0.  1.
         11    1    3    3    0    0  0.14306078435E+01 -0.23414815671E+02  0.21992838886E+02  0.32155640162E+02  0.51100000000E-03 0. -1.
        -11    1    3    3    0    0 -0.82301614985E+01 -0.90569742586E+01  0.23642027803E+01  0.12464100291E+02  0.51100000000E-03 0.  1.
         12    1    3    3    0    0 -0.20985025317E+00 -0.27219370227E+01 -0.52406842588E+01  0.59091242824E+01  0.00000000000E+00 0. -1.
</event>
<event>
 7    1  0.6889665E-012  0.5052885E+02  0.7816164E-02  0.1300439E+00
        -11   -1    0    0    0    0  0.00000000000E+00  0.00000000000E+00  0.45593999997E+02  0.45594000000E+02  0.51100000000E-03 0. -1.
         11   -1    0    0    0    0 -0.00000000000E+00 -0.00000000000E+00 -0.45593999997E+02  0.45594000000E+02  0.51100000000E-03 0.  1.
    9900012    2    1    2    0    0 -0.24315983374E+02 -0.31681034398E+02 -0.76296312304E+01  0.50528852681E+02  0.29999978210E+02 0.  0.
         12    1    1    2    0    0  0.24315983374E+02  0.31681034398E+02  0.76296312304E+01  0.40659147319E+02  0.00000000000E+00 0. -1.
         11    1    3    3    0    0 -0.13208335499E+02 -0.30490450705E+01 -0.70690933689E+01  0.15288194262E+02  0.51100000000E-03 0. -1.
        -11    1    3    3    0    0 -0.71786586206E+01 -0.22341635085E+02 -0.79446479925E+01  0.24774971844E+02  0.51100000000E-03 0.  1.
         12    1    3    3    0    0 -0.39289892549E+01 -0.62903542426E+01  0.73841101310E+01  0.10465686575E+02  0.00000000000E+00 0. -1.
</event>
<event>
 7    1  0.6889665E-012  0.5052886E+02  0.7816164E-02  0.1300439E+00
        -11   -1    0    0    0    0  0.00000000000E+00  0.00000000000E+00  0.45593999997E+02  0.45594000000E+02  0.51100000000E-03 0. -1.
         11   -1    0    0    0    0 -0.00000000000E+00 -0.00000000000E+00 -0.45593999997E+02  0.45594000000E+02  0.51100000000E-03 0.  1.
    9900012    2    1    2    0    0  0.13247263622E+02 -0.20476438635E+02  0.32532920676E+02  0.50528862523E+02  0.30000008125E+02 0.  0.
        -12    1    1    2    0    0 -0.13247263622E+02  0.20476438635E+02 -0.32532920676E+02  0.40659137477E+02  0.00000000000E+00 0.  1.
         11    1    3    3    0    0  0.52704580190E+00 -0.20147485321E+02  0.10864557527E+02  0.22896234462E+02  0.51100000000E-03 0. -1.
        -11    1    3    3    0    0  0.35476839387E+01  0.45067041656E+01  0.12653287935E+02  0.13892520995E+02  0.51100000000E-03 0.  1.
         12    1    3    3    0    0  0.91725338811E+01 -0.48356574801E+01  0.90150752144E+01  0.13740107066E+02  0.00000000000E+00 0. -1.
</event>
<event>
 7    1  0.6889665E-012  0.5052885E+02  0.7816164E-02  0.1300439E+00
        -11   -1    0    0    0    0  0.00000000000E+00  0.00000000000E+00  0.45593999997E+02  0.45594000000E+02  0.51100000000E-03 0. -1.
         11   -1    0    0    0    0 -0.00000000000E+00 -0.00000000000E+00 -0.45593999997E+02  0.45594000000E+02  0.51100000000E-03 0.  1.
    9900012    2    1    2    0    0 -0.62316089056E+01 -0.13445856397E+02  0.37862147982E+02  0.50528852768E+02  0.29999978474E+02 0.  0.
        -12    1    1    2    0    0  0.62316089056E+01  0.13445856397E+02 -0.37862147982E+02  0.40659147232E+02  0.00000000000E+00 0.  1.
         11    1    3    3    0    0  0.67090443342E+01 -0.75335616097E+01  0.30937719283E+02  0.32540871241E+02  0.51100000000E-03 0. -1.
        -11    1    3    3    0    0 -0.82246144087E+01 -0.23996448762E+01  0.83217519722E+01  0.11943790598E+02  0.51100000000E-03 0.  1.
         12    1    3    3    0    0 -0.47160388312E+01 -0.35126499112E+01 -0.13973232733E+01  0.60441909290E+01  0.00000000000E+00 0. -1.
</event>
<event>
 7    1  0.6889665E-012  0.5052886E+02  0.7816164E-02  0.1300439E+00
        -11   -1    0    0    0    0  0.00000000000E+00  0.00000000000E+00  0.45593999997E+02  0.45594000000E+02  0.51100000000E-03 0. -1.
         11   -1    0    0    0    0 -0.00000000000E+00 -0.00000000000E+00 -0.45593999997E+02  0.45594000000E+02  0.51100000000E-03 0.  1.
    9900012    2    1    2    0    0  0.57654132597E+01 -0.26135746370E+02  0.30607982373E+02  0.50528858182E+02  0.29999994931E+02 0.  0.
        -12    1    1    2    0    0 -0.57654132597E+01  0.26135746370E+02 -0.30607982373E+02  0.40659141818E+02  0.00000000000E+00 0.  1.
         11    1    3    3    0    0  0.52882038002E+01 -0.95684106225E+00  0.78596429665E+00  0.54312415144E+01  0.51100000000E-03 0. -1.
        -11    1    3    3    0    0  0.40521457882E+01 -0.27400592269E+02  0.30067862224E+02  0.40881397740E+02  0.51100000000E-03 0.  1.
        -12    1    3    3    0    0 -0.35749363287E+01  0.22216869605E+01 -0.24584414753E+00  0.42162189281E+01  0.00000000000E+00 0.  1.
</event>
<event>
 7    1  0.1561220E-011  0.5052884E+02  0.7816164E-02  0.1300439E+00
        -11   -1    0    0    0    0  0.00000000000E+00  0.00000000000E+00  0.45593999997E+02  0.45594000000E+02  0.51100000000E-03 0. -1.
         11   -1    0    0    0    0 -0.00000000000E+00 -0.00000000000E+00 -0.45593999997E+02  0.45594000000E+02  0.51100000000E-03 0.  1.
    9900012    2    1    2    0    0  0.47880534224E+01  0.66604138959E+01  0.39823118338E+02  0.50528839618E+02  0.29999938503E+02 0.  0.
        -12    1    1    2    0    0 -0.47880534224E+01 -0.66604138959E+01 -0.39823118338E+02  0.40659160382E+02  0.00000000000E+00 0.  1.
         11    1    3    3    0    0  0.76194557058E+01  0.11671823413E+02  0.25119545103E+02  0.28727671564E+02  0.51100000000E-03 0. -1.
        -11    1    3    3    0    0 -0.16596696137E+00  0.71380779609E-01 -0.30949331992E+01  0.31002019316E+01  0.51100000000E-03 0.  1.
         12    1    3    3    0    0 -0.26654353220E+01 -0.50827902962E+01  0.17798506433E+02  0.18700966122E+02  0.00000000000E+00 0. -1.
</event>
<event>
 7    1  0.6889665E-012  0.5052886E+02  0.7816164E-02  0.1300439E+00
        -11   -1    0    0    0    0  0.00000000000E+00  0.00000000000E+00  0.45593999997E+02  0.45594000000E+02  0.51100000000E-03 0. -1.
         11   -1    0    0    0    0 -0.00000000000E+00 -0.00000000000E+00 -0.45593999997E+02  0.45594000000E+02  0.51100000000E-03 0.  1.
    9900012    2    1    2    0    0 -0.10587588236E+01  0.81673885842E+00  0.40637149705E+02  0.50528856271E+02  0.29999989123E+02 0.  0.
        -12    1    1    2    0    0  0.10587588236E+01 -0.81673885842E+00 -0.40637149705E+02  0.40659143729E+02  0.00000000000E+00 0.  1.
         11    1    3    3    0    0 -0.77794722176E+01 -0.27539384372E+01  0.16049292092E+02  0.18046721082E+02  0.51100000000E-03 0. -1.
        -11    1    3    3    0    0  0.10997304867E+02  0.83012441215E+01  0.11593251110E+02  0.18007077494E+02  0.51100000000E-03 0.  1.
        -12    1    3    3    0    0 -0.42765914733E+01 -0.47305668259E+01  0.12994606503E+02  0.14475057696E+02  0.00000000000E+00 0.  1.
</event>
<event>
 7    1  0.6889665E-012  0.5052886E+02  0.7816164E-02  0.1300439E+00
        -11   -1    0    0    0    0  0.00000000000E+00  0.00000000000E+00  0.45593999997E+02  0.45594000000E+02  0.51100000000E-03 0. -1.
         11   -1    0    0    0    0 -0.00000000000E+00 -0.00000000000E+00 -0.45593999997E+02  0.45594000000E+02  0.51100000000E-03 0.  1.
    9900012    2    1    2    0    0  0.22487123774E+02 -0.22285526172E+02  0.25511770969E+02  0.50528857481E+02  0.29999992800E+02 0.  0.
        -12    1    1    2    0    0 -0.22487123774E+02  0.22285526172E+02 -0.25511770969E+02  0.40659142519E+02  0.00000000000E+00 0.  1.
         11    1    3    3    0    0  0.18432771743E+02 -0.16292746688E+02  0.26705872514E+02  0.36310112858E+02  0.51100000000E-03 0. -1.
        -11    1    3    3    0    0  0.14020380136E+01  0.23883009267E+01 -0.41108947274E+01  0.49567275121E+01  0.51100000000E-03 0.  1.
         12    1    3    3    0    0  0.26523140177E+01 -0.83810804104E+01  0.29167931818E+01  0.92620171108E+01  0.00000000000E+00 0. -1.
</event>
<event>
 7    1  0.6889665E-012  0.5052886E+02  0.7816164E-02  0.1300439E+00
        -11   -1    0    0    0    0  0.00000000000E+00  0.00000000000E+00  0.45593999997E+02  0.45594000000E+02  0.51100000000E-03 0. -1.
         11   -1    0    0    0    0 -0.00000000000E+00 -0.00000000000E+00 -0.45593999997E+02  0.45594000000E+02  0.51100000000E-03 0.  1.
    9900012    2    1    2    0    0 -0.31210339054E+02  0.10465479483E+02 -0.23865339716E+02  0.50528856324E+02  0.29999989283E+02 0.  0.
         12    1    1    2    0    0  0.31210339054E+02 -0.10465479483E+02  0.23865339716E+02  0.40659143676E+02  0.00000000000E+00 0. -1.
         11    1    3    3    0    0  0.25093855177E+01  0.61956524997E+01  0.21102675184E+01  0.70097328646E+01  0.51100000000E-03 0. -1.
        -11    1    3    3    0    0 -0.16605817861E+02  0.60081469811E+01 -0.11931182289E+02  0.21312065317E+02  0.51100000000E-03 0.  1.
        -12    1    3    3    0    0 -0.17113906710E+02 -0.17383199983E+01 -0.14044424946E+02  0.22207058143E+02  0.00000000000E+00 0.  1.
</event>
<event>
 7    1  0.6889665E-012  0.5052885E+02  0.7816164E-02  0.1300439E+00
        -11   -1    0    0    0    0  0.00000000000E+00  0.00000000000E+00  0.45593999997E+02  0.45594000000E+02  0.51100000000E-03 0. -1.
         11   -1    0    0    0    0 -0.00000000000E+00 -0.00000000000E+00 -0.45593999997E+02  0.45594000000E+02  0.51100000000E-03 0.  1.
    9900012    2    1    2    0    0  0.57423331841E+01  0.12827756524E+01 -0.40231160141E+02  0.50528854042E+02  0.29999982346E+02 0.  0.
         12    1    1    2    0    0 -0.57423331841E+01 -0.12827756524E+01  0.40231160141E+02  0.40659145958E+02  0.00000000000E+00 0. -1.
         11    1    3    3    0    0 -0.65268516591E+01 -0.93698230074E+01 -0.92116044223E+01  0.14671299604E+02  0.51100000000E-03 0. -1.
        -11    1    3    3    0    0  0.77248266705E+01  0.10321957278E+02 -0.18623352212E+02  0.22650496617E+02  0.51100000000E-03 0.  1.
         12    1    3    3    0    0  0.45443581726E+01  0.33064138222E+00 -0.12396203506E+02  0.13207057821E+02  0.00000000000E+00 0. -1.
</event>
<event>
 7    1  0.6889665E-012  0.5052886E+02  0.7816164E-02  0.1300439E+00
        -11   -1    0    0    0    0  0.00000000000E+00  0.00000000000E+00  0.45593999997E+02  0.45594000000E+02  0.51100000000E-03 0. -1.
         11   -1    0    0    0    0 -0.00000000000E+00 -0.00000000000E+00 -0.45593999997E+02  0.45594000000E+02  0.51100000000E-03 0.  1.
    9900012    2    1    2    0    0 -0.59234178858E+01  0.21850728477E+02  0.33773132595E+02  0.50528859580E+02  0.29999999179E+02 0.  0.
        -12    1    1    2    0    0  0.59234178858E+01 -0.21850728477E+02 -0.33773132595E+02  0.40659140420E+02  0.00000000000E+00 0.  1.
         11    1    3    3    0    0 -0.59131986895E+01  0.23919152550E+02  0.36080722239E+02  0.43691077980E+02  0.51100000000E-03 0. -1.
        -11    1    3    3    0    0 -0.15315093942E-01 -0.39993491346E+01 -0.23676000260E+00  0.40063803629E+01  0.51100000000E-03 0.  1.
         12    1    3    3    0    0  0.50958976626E-02  0.19309250613E+01 -0.20708296418E+01  0.28314012372E+01  0.00000000000E+00 0. -1.
</event>
<event>
 7    1  0.6889665E-012  0.5052887E+02  0.7816164E-02  0.1300439E+00
        -11   -1    0    0    0    0  0.00000000000E+00  0.00000000000E+00  0.45593999997E+02  0.45594000000E+02  0.51100000000E-03 0.  1.
         11   -1    0    0    0    0 -0.00000000000E+00 -0.00000000000E+00 -0.45593999997E+02  0.45594000000E+02  0.51100000000E-03 0. -1.
    9900012    2    1    2    0    0  0.38515646637E+02 -0.12753786792E+02  0.26552852556E+01  0.50528872450E+02  0.30000038298E+02 0.  0.
         12    1    1    2    0    0 -0.38515646637E+02  0.12753786792E+02 -0.26552852556E+01  0.40659127550E+02  0.00000000000E+00 0. -1.
         11    1    3    3    0    0 -0.12622800598E+00  0.81819840341E+00  0.52141109286E+01  0.52794256481E+01  0.51100000000E-03 0. -1.
        -11    1    3    3    0    0  0.13528993724E+02 -0.11156048271E+02 -0.82615583722E+01  0.19384128333E+02  0.51100000000E-03 0.  1.
        -12    1    3    3    0    0  0.25112880919E+02 -0.24159369238E+01  0.57027326992E+01  0.25865318469E+02  0.00000000000E+00 0.  1.
</event>
<event>
 7    1  0.6889665E-012  0.5052886E+02  0.7816164E-02  0.1300439E+00
        -11   -1    0    0    0    0  0.00000000000E+00  0.00000000000E+00  0.45593999997E+02  0.45594000000E+02  0.51100000000E-03 0.  1.
         11   -1    0    0    0    0 -0.00000000000E+00 -0.00000000000E+00 -0.45593999997E+02  0.45594000000E+02  0.51100000000E-03 0. -1.
    9900012    2    1    2    0    0 -0.94249958502E+01 -0.39112350338E+02 -0.58787232249E+01  0.50528857332E+02  0.29999992345E+02 0.  0.
        -12    1    1    2    0    0  0.94249958502E+01  0.39112350338E+02  0.58787232249E+01  0.40659142668E+02  0.00000000000E+00 0.  1.
         11    1    3    3    0    0 -0.10109200848E+02 -0.44695093868E+01 -0.94210851836E+01  0.14523405325E+02  0.51100000000E-03 0. -1.
        -11    1    3    3    0    0  0.28294710000E+01 -0.19396520252E+02  0.58056186391E+01  0.20443485810E+02  0.51100000000E-03 0.  1.
         12    1    3    3    0    0 -0.21452660025E+01 -0.15246320699E+02 -0.22632566804E+01  0.15561966196E+02  0.00000000000E+00 0. -1.
</event>
<event>
 7    1  0.6889665E-012  0.5052887E+02  0.7816164E-02  0.1300439E+00
        -11   -1    0    0    0    0  0.00000000000E+00  0.00000000000E+00  0.45593999997E+02  0.45594000000E+02  0.51100000000E-03 0. -1.
         11   -1    0    0    0    0 -0.00000000000E+00 -0.00000000000E+00 -0.45593999997E+02  0.45594000000E+02  0.51100000000E-03 0.  1.
    9900012    2    1    2    0    0 -0.31165062524E+01 -0.38188066241E+01  0.40359251341E+02  0.50528867397E+02  0.30000022939E+02 0.  0.
        -12    1    1    2    0    0  0.31165062524E+01  0.38188066241E+01 -0.40359251341E+02  0.40659132603E+02  0.00000000000E+00 0.  1.
         11    1    3    3    0    0 -0.12179910193E+02  0.11297786889E+01  0.27653525450E+02  0.30238122995E+02  0.51100000000E-03 0. -1.
        -11    1    3    3    0    0  0.56132888885E+01 -0.55244182772E+01  0.84031195992E+00  0.79205008616E+01  0.51100000000E-03 0.  1.
        -12    1    3    3    0    0  0.34501150524E+01  0.57583296419E+00  0.11865413931E+02  0.12370243540E+02  0.00000000000E+00 0.  1.
</event>
<event>
 7    1  0.6889665E-012  0.5052886E+02  0.7816164E-02  0.1300439E+00
        -11   -1    0    0    0    0  0.00000000000E+00  0.00000000000E+00  0.45593999997E+02  0.45594000000E+02  0.51100000000E-03 0. -1.
         11   -1    0    0    0    0 -0.00000000000E+00 -0.00000000000E+00 -0.45593999997E+02  0.45594000000E+02  0.51100000000E-03 0.  1.
    9900012    2    1    2    0    0  0.14121454711E+02  0.12768861282E+02 -0.35926402504E+02  0.50528859595E+02  0.29999999225E+02 0.  0.
         12    1    1    2    0    0 -0.14121454711E+02 -0.12768861282E+02  0.35926402504E+02  0.40659140405E+02  0.00000000000E+00 0. -1.
         11    1    3    3    0    0  0.51412431990E+01  0.15844542427E+02 -0.11348099362E+02  0.20155923838E+02  0.51100000000E-03 0. -1.
        -11    1    3    3    0    0  0.98446788218E+01  0.33866818682E+00 -0.61536015408E+01  0.11614611893E+02  0.51100000000E-03 0.  1.
        -12    1    3    3    0    0 -0.86446731013E+00 -0.34143493322E+01 -0.18424701601E+02  0.18758323864E+02  0.00000000000E+00 0.  1.
</event>
<event>
 7    1  0.6889665E-012  0.5052887E+02  0.7816164E-02  0.1300439E+00
        -11   -1    0    0    0    0  0.00000000000E+00  0.00000000000E+00  0.45593999997E+02  0.45594000000E+02  0.51100000000E-03 0. -1.
         11   -1    0    0    0    0 -0.00000000000E+00 -0.00000000000E+00 -0.45593999997E+02  0.45594000000E+02  0.51100000000E-03 0.  1.
    9900012    2    1    2    0    0  0.23008389973E+02  0.31213112639E+02  0.12227863477E+02  0.50528867508E+02  0.30000023277E+02 0.  0.
        -12    1    1    2    0    0 -0.23008389973E+02 -0.31213112639E+02 -0.12227863477E+02  0.40659132492E+02  0.00000000000E+00 0.  1.
         11    1    3    3    0    0  0.40495057864E+01  0.29237324561E+02  0.45002597848E+01  0.29857528079E+02  0.51100000000E-03 0. -1.
        -11    1    3    3    0    0  0.12702439557E+02  0.87925169695E+00  0.42113644484E+01  0.13411213406E+02  0.51100000000E-03 0.  1.
         12    1    3    3    0    0  0.62564446299E+01  0.10965363810E+01  0.35162392443E+01  0.72601260226E+01  0.00000000000E+00 0. -1.
</event>
<event>
 7    1  0.6889665E-012  0.5052883E+02  0.7816164E-02  0.1300439E+00
        -11   -1    0    0    0    0  0.00000000000E+00  0.00000000000E+00  0.45593999997E+02  0.45594000000E+02  0.51100000000E-03 0. -1.
         11   -1    0    0    0    0 -0.00000000000E+00 -0.00000000000E+00 -0.45593999997E+02  0.45594000000E+02  0.51100000000E-03 0.  1.
    9900012    2    1    2    0    0 -0.19765224236E+02 -0.20503442204E+02 -0.29019182494E+02  0.50528829031E+02  0.29999906321E+02 0.  0.
         12    1    1    2    0    0  0.19765224236E+02  0.20503442204E+02  0.29019182494E+02  0.40659170969E+02  0.00000000000E+00 0. -1.
         11    1    3    3    0    0 -0.61440112036E+01 -0.12413681707E+02 -0.48230355018E+00  0.13859328417E+02  0.51100000000E-03 0. -1.
        -11    1    3    3    0    0 -0.13098342652E+02 -0.12744717333E+02 -0.23805187069E+02  0.30011353381E+02  0.51100000000E-03 0.  1.
         12    1    3    3    0    0 -0.52287038122E+00  0.46549568358E+01 -0.47316918746E+01  0.66581472329E+01  0.00000000000E+00 0. -1.
</event>
<event>
 7    1  0.6889665E-012  0.5052885E+02  0.7816164E-02  0.1300439E+00
        -11   -1    0    0    0    0  0.00000000000E+00  0.00000000000E+00  0.45593999997E+02  0.45594000000E+02  0.51100000000E-03 0. -1.
         11   -1    0    0    0    0 -0.00000000000E+00 -0.00000000000E+00 -0.45593999997E+02  0.45594000000E+02  0.51100000000E-03 0.  1.
    9900012    2    1    2    0    0 -0.10040665538E+02  0.22880746220E+01 -0.39333402594E+02  0.50528845932E+02  0.29999957693E+02 0.  0.
         12    1    1    2    0    0  0.10040665538E+02 -0.22880746220E+01  0.39333402594E+02  0.40659154068E+02  0.00000000000E+00 0. -1.
         11    1    3    3    0    0  0.88675068817E+00  0.81728249366E+01 -0.16537362784E+02  0.18467965842E+02  0.51100000000E-03 0. -1.
        -11    1    3    3    0    0 -0.12562382637E+02 -0.65337788217E+01 -0.25304607858E+02  0.28997015404E+02  0.51100000000E-03 0.  1.
         12    1    3    3    0    0  0.16349664107E+01  0.64902850703E+00  0.25085680474E+01  0.30638646862E+01  0.00000000000E+00 0. -1.
</event>
<event>
 7    1  0.6889665E-012  0.5052886E+02  0.7816164E-02  0.1300439E+00
        -11   -1    0    0    0    0  0.00000000000E+00  0.00000000000E+00  0.45593999997E+02  0.45594000000E+02  0.51100000000E-03 0. -1.
         11   -1    0    0    0    0 -0.00000000000E+00 -0.00000000000E+00 -0.45593999997E+02  0.45594000000E+02  0.51100000000E-03 0.  1.
    9900012    2    1    2    0    0  0.15610483419E+02  0.29970243751E+02  0.22611124473E+02  0.50528860154E+02  0.30000000925E+02 0.  0.
        -12    1    1    2    0    0 -0.15610483419E+02 -0.29970243751E+02 -0.22611124473E+02  0.40659139846E+02  0.00000000000E+00 0.  1.
         11    1    3    3    0    0  0.10711200482E+02  0.56168441943E+01  0.79728655714E+01  0.14486039492E+02  0.51100000000E-03 0. -1.
        -11    1    3    3    0    0 -0.23121747585E+01  0.16540477003E+02  0.18320771139E+02  0.24790808518E+02  0.51100000000E-03 0.  1.
        -12    1    3    3    0    0  0.72114576955E+01  0.78129225539E+01 -0.36825122374E+01  0.11252012145E+02  0.00000000000E+00 0.  1.
</event>
<event>
 7    1  0.6889665E-012  0.5052886E+02  0.7816164E-02  0.1300439E+00
        -11   -1    0    0    0    0  0.00000000000E+00  0.00000000000E+00  0.45593999997E+02  0.45594000000E+02  0.51100000000E-03 0. -1.
         11   -1    0    0    0    0 -0.00000000000E+00 -0.00000000000E+00 -0.45593999997E+02  0.45594000000E+02  0.51100000000E-03 0.  1.
    9900012    2    1    2    0    0 -0.17750850772E+02  0.94155838449E+01  0.35347135253E+02  0.50528857205E+02  0.29999991960E+02 0.  0.
        -12    1    1    2    0    0  0.17750850772E+02 -0.94155838449E+01 -0.35347135253E+02  0.40659142795E+02  0.00000000000E+00 0.  1.
         11    1    3    3    0    0 -0.45089884230E+01  0.11806756706E+02  0.16869540108E+02  0.21078706417E+02  0.51100000000E-03 0. -1.
        -11    1    3    3    0    0 -0.62505112180E+01 -0.68446308404E+01  0.77983584681E-01  0.92695168983E+01  0.51100000000E-03 0.  1.
        -12    1    3    3    0    0 -0.69913511314E+01  0.44534579794E+01  0.18399611560E+02  0.20180633889E+02  0.00000000000E+00 0.  1.
</event>
<event>
 7    1  0.6889665E-012  0.5052886E+02  0.7816164E-02  0.1300439E+00
        -11   -1    0    0    0    0  0.00000000000E+00  0.00000000000E+00  0.45593999997E+02  0.45594000000E+02  0.51100000000E-03 0. -1.
         11   -1    0    0    0    0 -0.00000000000E+00 -0.00000000000E+00 -0.45593999997E+02  0.45594000000E+02  0.51100000000E-03 0.  1.
    9900012    2    1    2    0    0 -0.26120094228E+01  0.30436527696E+02 -0.26832088095E+02  0.50528858802E+02  0.29999996815E+02 0.  0.
         12    1    1    2    0    0  0.26120094228E+01 -0.30436527696E+02  0.26832088095E+02  0.40659141198E+02  0.00000000000E+00 0. -1.
         11    1    3    3    0    0 -0.22332755911E+00 -0.44677238965E+01 -0.43796779463E+01  0.62603523214E+01  0.51100000000E-03 0. -1.
        -11    1    3    3    0    0  0.61535309299E+01  0.19484348050E+02 -0.10523072242E+02  0.22983489977E+02  0.51100000000E-03 0.  1.
         12    1    3    3    0    0 -0.85422127936E+01  0.15419903542E+02 -0.11929337907E+02  0.21285016504E+02  0.00000000000E+00 0. -1.
</event>
<event>
 7    1  0.6889665E-012  0.5052886E+02  0.7816164E-02  0.1300439E+00
        -11   -1    0    0    0    0  0.00000000000E+00  0.00000000000E+00  0.45593999997E+02  0.45594000000E+02  0.51100000000E-03 0. -1.
         11   -1    0    0    0    0 -0.00000000000E+00 -0.00000000000E+00 -0.45593999997E+02  0.45594000000E+02  0.51100000000E-03 0.  1.
    9900012    2    1    2    0    0 -0.32124209322E+02  0.66561958688E+01  0.24018649727E+02  0.50528864462E+02  0.30000014018E+02 0.  0.
        -12    1    1    2    0    0  0.32124209322E+02 -0.66561958688E+01 -0.24018649727E+02  0.40659135538E+02  0.00000000000E+00 0.  1.
         11    1    3    3    0    0 -0.15794812048E+01  0.11538315174E+02  0.49825876171E+01  0.12667030337E+02  0.51100000000E-03 0. -1.
        -11    1    3    3    0    0 -0.29353584585E+02 -0.32901224629E+01  0.14490287261E+02  0.32900247096E+02  0.51100000000E-03 0.  1.
        -12    1    3    3    0    0 -0.11911435322E+01 -0.15919968427E+01  0.45457748488E+01  0.49615870281E+01  0.00000000000E+00 0.  1.
</event>
<event>
 7    1  0.6889665E-012  0.5052886E+02  0.7816164E-02  0.1300439E+00
        -11   -1    0    0    0    0  0.00000000000E+00  0.00000000000E+00  0.45593999997E+02  0.45594000000E+02  0.51100000000E-03 0.  1.
         11   -1    0    0    0    0 -0.00000000000E+00 -0.00000000000E+00 -0.45593999997E+02  0.45594000000E+02  0.51100000000E-03 0. -1.
    9900012    2    1    2    0    0 -0.15060520551E+02 -0.27043853177E+02 -0.26362409462E+02  0.50528857036E+02  0.29999991446E+02 0.  0.
         12    1    1    2    0    0  0.15060520551E+02  0.27043853177E+02  0.26362409462E+02  0.40659142964E+02  0.00000000000E+00 0. -1.
         11    1    3    3    0    0 -0.23921010871E+01 -0.15650925410E+02 -0.21411976852E+02  0.26629802229E+02  0.51100000000E-03 0. -1.
        -11    1    3    3    0    0 -0.56207574217E+00 -0.79929979977E+01  0.35051304334E+01  0.87458496298E+01  0.51100000000E-03 0.  1.
        -12    1    3    3    0    0 -0.12106343722E+02 -0.33999297696E+01 -0.84555630436E+01  0.15153205177E+02  0.00000000000E+00 0.  1.
</event>
<event>
 7    1  0.6889665E-012  0.5052886E+02  0.7816164E-02  0.1300439E+00
        -11   -1    0    0    0    0  0.00000000000E+00  0.00000000000E+00  0.45593999997E+02  0.45594000000E+02  0.51100000000E-03 0. -1.
         11   -1    0    0    0    0 -0.00000000000E+00 -0.00000000000E+00 -0.45593999997E+02  0.45594000000E+02  0.51100000000E-03 0.  1.
    9900012    2    1    2    0    0 -0.30212978803E+02 -0.26822070600E+02 -0.45736318980E+01  0.50528859968E+02  0.30000000358E+02 0.  0.
         12    1    1    2    0    0  0.30212978803E+02  0.26822070600E+02  0.45736318980E+01  0.40659140032E+02  0.00000000000E+00 0. -1.
         11    1    3    3    0    0 -0.18204635276E+02 -0.15439083775E+02  0.79756768689E+01  0.25167150715E+02  0.51100000000E-03 0. -1.
        -11    1    3    3    0    0 -0.10373366732E+02 -0.11888698392E+02 -0.15392862991E+02  0.22042870007E+02  0.51100000000E-03 0.  1.
        -12    1    3    3    0    0 -0.16349767952E+01  0.50571156789E+00  0.28435542243E+01  0.33188392454E+01  0.00000000000E+00 0.  1.
</event>
<event>
 7    1  0.6889665E-012  0.5052886E+02  0.7816164E-02  0.1300439E+00
        -11   -1    0    0    0    0  0.00000000000E+00  0.00000000000E+00  0.45593999997E+02  0.45594000000E+02  0.51100000000E-03 0. -1.
         11   -1    0    0    0    0 -0.00000000000E+00 -0.00000000000E+00 -0.45593999997E+02  0.45594000000E+02  0.51100000000E-03 0.  1.
    9900012    2    1    2    0    0 -0.11137572281E+02  0.16447752018E+02  0.35476631512E+02  0.50528862698E+02  0.30000008656E+02 0.  0.
        -12    1    1    2    0    0  0.11137572281E+02 -0.16447752018E+02 -0.35476631512E+02  0.40659137302E+02  0.00000000000E+00 0.  1.
         11    1    3    3    0    0 -0.16966848489E+02  0.87638908729E+01  0.20278686785E+02  0.27855068998E+02  0.51100000000E-03 0. -1.
        -11    1    3    3    0    0  0.93041567696E+00 -0.14628925108E+01  0.11543591422E+02  0.11673055770E+02  0.51100000000E-03 0.  1.
         12    1    3    3    0    0  0.48988605303E+01  0.91467536557E+01  0.36543533043E+01  0.11000737930E+02  0.00000000000E+00 0. -1.
</event>
<event>
 7    1  0.6889665E-012  0.5052893E+02  0.7816164E-02  0.1300439E+00
        -11   -1    0    0    0    0  0.00000000000E+00  0.00000000000E+00  0.45593999997E+02  0.45594000000E+02  0.51100000000E-03 0. -1.
         11   -1    0    0    0    0 -0.00000000000E+00 -0.00000000000E+00 -0.45593999997E+02  0.45594000000E+02  0.51100000000E-03 0.  1.
    9900012    2    1    2    0    0  0.83604401185E+01 -0.35260886368E+02 -0.18437278977E+02  0.50528925705E+02  0.30000200173E+02 0.  0.
         12    1    1    2    0    0 -0.83604401185E+01  0.35260886368E+02  0.18437278977E+02  0.40659074295E+02  0.00000000000E+00 0. -1.
         11    1    3    3    0    0  0.31638247247E+01 -0.17025899864E+02  0.44420956244E+01  0.17878010708E+02  0.51100000000E-03 0. -1.
        -11    1    3    3    0    0  0.90544821836E+01 -0.99353391079E+01 -0.17385690911E+02  0.21976279474E+02  0.51100000000E-03 0.  1.
         12    1    3    3    0    0 -0.38578667899E+01 -0.82996473958E+01 -0.54936836908E+01  0.10674635523E+02  0.00000000000E+00 0. -1.
</event>
<event>
 7    1  0.6889665E-012  0.5052886E+02  0.7816164E-02  0.1300439E+00
        -11   -1    0    0    0    0  0.00000000000E+00  0.00000000000E+00  0.45593999997E+02  0.45594000000E+02  0.51100000000E-03 0. -1.
         11   -1    0    0    0    0 -0.00000000000E+00 -0.00000000000E+00 -0.45593999997E+02  0.45594000000E+02  0.51100000000E-03 0.  1.
    9900012    2    1    2    0    0  0.65060431852E+01  0.76944941836E+01 -0.39390753631E+02  0.50528864368E+02  0.30000013734E+02 0.  0.
         12    1    1    2    0    0 -0.65060431852E+01 -0.76944941836E+01  0.39390753631E+02  0.40659135632E+02  0.00000000000E+00 0. -1.
         11    1    3    3    0    0 -0.46383856167E+00  0.60077239524E+01 -0.33230358632E+01  0.68811671182E+01  0.51100000000E-03 0. -1.
        -11    1    3    3    0    0 -0.33332885436E+01 -0.90812284453E+01 -0.13791032016E+02  0.16845536113E+02  0.51100000000E-03 0.  1.
        -12    1    3    3    0    0  0.10303170290E+02  0.10767998677E+02 -0.22276685752E+02  0.26802161137E+02  0.00000000000E+00 0.  1.
</event>
<event>
 7    1  0.6889665E-012  0.5052886E+02  0.7816164E-02  0.1300439E+00
        -11   -1    0    0    0    0  0.00000000000E+00  0.00000000000E+00  0.45593999997E+02  0.45594000000E+02  0.51100000000E-03 0. -1.
         11   -1    0    0    0    0 -0.00000000000E+00 -0.00000000000E+00 -0.45593999997E+02  0.45594000000E+02  0.51100000000E-03 0.  1.
    9900012    2    1    2    0    0  0.29615065253E+02  0.35866067883E+01  0.27626971046E+02  0.50528863667E+02  0.30000011601E+02 0.  0.
        -12    1    1    2    0    0 -0.29615065253E+02 -0.35866067883E+01 -0.27626971046E+02  0.40659136333E+02  0.00000000000E+00 0.  1.
         11    1    3    3    0    0  0.17067274834E+02  0.13596948048E+02  0.12594809472E+02  0.25195199788E+02  0.51100000000E-03 0. -1.
        -11    1    3    3    0    0  0.23067662338E+01 -0.66662865321E+01  0.27105322803E+00  0.70593212634E+01  0.51100000000E-03 0.  1.
         12    1    3    3    0    0  0.10241024186E+02 -0.33440547279E+01  0.14761108346E+02  0.18274342615E+02  0.00000000000E+00 0. -1.
</event>
<event>
 7    1  0.7614068E-012  0.5052885E+02  0.7816164E-02  0.1300439E+00
        -11   -1    0    0    0    0  0.00000000000E+00  0.00000000000E+00  0.45593999997E+02  0.45594000000E+02  0.51100000000E-03 0. -1.
         11   -1    0    0    0    0 -0.00000000000E+00 -0.00000000000E+00 -0.45593999997E+02  0.45594000000E+02  0.51100000000E-03 0.  1.
    9900012    2    1    2    0    0 -0.83107154756E+01  0.22280952408E+01 -0.39738323188E+02  0.50528846911E+02  0.29999960671E+02 0.  0.
         12    1    1    2    0    0  0.83107154756E+01 -0.22280952408E+01  0.39738323188E+02  0.40659153089E+02  0.00000000000E+00 0. -1.
         11    1    3    3    0    0  0.42179179053E+01 -0.43386081374E+01 -0.44775640437E+00  0.60675232249E+01  0.51100000000E-03 0. -1.
        -11    1    3    3    0    0 -0.13316588192E+02 -0.83684921756E+00 -0.26184346689E+02  0.29387954156E+02  0.51100000000E-03 0.  1.
        -12    1    3    3    0    0  0.78795481087E+00  0.74035525957E+01 -0.13106220095E+02  0.15073369530E+02  0.00000000000E+00 0.  1.
</event>
<event>
 7    1  0.6889665E-012  0.5052886E+02  0.7816164E-02  0.1300439E+00
        -11   -1    0    0    0    0  0.00000000000E+00  0.00000000000E+00  0.45593999997E+02  0.45594000000E+02  0.51100000000E-03 0. -1.
         11   -1    0    0    0    0 -0.00000000000E+00 -0.00000000000E+00 -0.45593999997E+02  0.45594000000E+02  0.51100000000E-03 0.  1.
    9900012    2    1    2    0    0  0.26131487456E+02  0.21691159937E+02  0.22356309176E+02  0.50528860609E+02  0.30000002306E+02 0.  0.
        -12    1    1    2    0    0 -0.26131487456E+02 -0.21691159937E+02 -0.22356309176E+02  0.40659139391E+02  0.00000000000E+00 0.  1.
         11    1    3    3    0    0 -0.30959224796E+01 -0.45768833493E+01  0.23361862268E+01  0.59991969079E+01  0.51100000000E-03 0. -1.
        -11    1    3    3    0    0  0.66776360650E+01  0.59564340033E+01  0.17870578800E+01  0.91248838666E+01  0.51100000000E-03 0.  1.
         12    1    3    3    0    0  0.22549773870E+02  0.20311609283E+02  0.18233065069E+02  0.35404779834E+02  0.00000000000E+00 0. -1.
</event>
<event>
 7    1  0.6889665E-012  0.5052886E+02  0.7816164E-02  0.1300439E+00
        -11   -1    0    0    0    0  0.00000000000E+00  0.00000000000E+00  0.45593999997E+02  0.45594000000E+02  0.51100000000E-03 0. -1.
         11   -1    0    0    0    0 -0.00000000000E+00 -0.00000000000E+00 -0.45593999997E+02  0.45594000000E+02  0.51100000000E-03 0.  1.
    9900012    2    1    2    0    0 -0.36793412562E+02  0.17302184010E+02  0.21168347108E+00  0.50528860937E+02  0.30000003304E+02 0.  0.
         12    1    1    2    0    0  0.36793412562E+02 -0.17302184010E+02 -0.21168347108E+00  0.40659139063E+02  0.00000000000E+00 0. -1.
         11    1    3    3    0    0  0.10111456670E+01  0.44734599327E+00  0.14810288212E+01  0.18482371677E+01  0.51100000000E-03 0. -1.
        -11    1    3    3    0    0 -0.19867793207E+02 -0.44727721246E+01 -0.37335128246E+01  0.20704444346E+02  0.51100000000E-03 0.  1.
        -12    1    3    3    0    0 -0.17936765022E+02  0.21327610142E+02  0.24641674745E+01  0.27976179424E+02  0.00000000000E+00 0.  1.
</event>
<event>
 7    1  0.6889665E-012  0.5052886E+02  0.7816164E-02  0.1300439E+00
        -11   -1    0    0    0    0  0.00000000000E+00  0.00000000000E+00  0.45593999997E+02  0.45594000000E+02  0.51100000000E-03 0. -1.
         11   -1    0    0    0    0 -0.00000000000E+00 -0.00000000000E+00 -0.45593999997E+02  0.45594000000E+02  0.51100000000E-03 0.  1.
    9900012    2    1    2    0    0 -0.55244047806E+01 -0.37164416431E+02  0.15538758711E+02  0.50528856882E+02  0.29999990978E+02 0.  0.
        -12    1    1    2    0    0  0.55244047806E+01  0.37164416431E+02 -0.15538758711E+02  0.40659143118E+02  0.00000000000E+00 0.  1.
         11    1    3    3    0    0  0.65212134434E+01 -0.14747841296E+02  0.88586794075E+01  0.18398403430E+02  0.51100000000E-03 0. -1.
        -11    1    3    3    0    0 -0.15201149214E+02 -0.14009375850E+02  0.94547150688E+01  0.22731678038E+02  0.51100000000E-03 0.  1.
        -12    1    3    3    0    0  0.31555309902E+01 -0.84071992846E+01 -0.27746357657E+01  0.93987754136E+01  0.00000000000E+00 0.  1.
</event>
<event>
 7    1  0.6889665E-012  0.5052886E+02  0.7816164E-02  0.1300439E+00
        -11   -1    0    0    0    0  0.00000000000E+00  0.00000000000E+00  0.45593999997E+02  0.45594000000E+02  0.51100000000E-03 0. -1.
         11   -1    0    0    0    0 -0.00000000000E+00 -0.00000000000E+00 -0.45593999997E+02  0.45594000000E+02  0.51100000000E-03 0.  1.
    9900012    2    1    2    0    0  0.20950032026E+02  0.16424885415E+02 -0.30732472942E+02  0.50528860857E+02  0.30000003059E+02 0.  0.
         12    1    1    2    0    0 -0.20950032026E+02 -0.16424885415E+02  0.30732472942E+02  0.40659139143E+02  0.00000000000E+00 0. -1.
         11    1    3    3    0    0  0.68874488136E+01  0.12761794434E+02  0.13885528140E+01  0.14568061899E+02  0.51100000000E-03 0. -1.
        -11    1    3    3    0    0  0.58530238497E+01 -0.88997669480E+00 -0.18452729315E+02  0.19379194156E+02  0.51100000000E-03 0.  1.
         12    1    3    3    0    0  0.82095593624E+01  0.45530676764E+01 -0.13668296441E+02  0.16581604801E+02  0.00000000000E+00 0. -1.
</event>
<event>
 7    1  0.7868011E-012  0.5052886E+02  0.7816164E-02  0.1300439E+00
        -11   -1    0    0    0    0  0.00000000000E+00  0.00000000000E+00  0.45593999997E+02  0.45594000000E+02  0.51100000000E-03 0. -1.
         11   -1    0    0    0    0 -0.00000000000E+00 -0.00000000000E+00 -0.45593999997E+02  0.45594000000E+02  0.51100000000E-03 0.  1.
    9900012    2    1    2    0    0  0.19809478029E+02 -0.26349207372E+02 -0.23800627284E+02  0.50528855789E+02  0.29999987655E+02 0.  0.
         12    1    1    2    0    0 -0.19809478029E+02  0.26349207372E+02  0.23800627284E+02  0.40659144211E+02  0.00000000000E+00 0. -1.
         11    1    3    3    0    0  0.35661319256E+01  0.24600416775E+01 -0.87100334856E+00  0.44190212785E+01  0.51100000000E-03 0. -1.
        -11    1    3    3    0    0  0.19514001774E+02 -0.23218256431E+02 -0.10503561164E+02  0.32096861129E+02  0.51100000000E-03 0.  1.
        -12    1    3    3    0    0 -0.32706556712E+01 -0.55909926187E+01 -0.12426062772E+02  0.14012973381E+02  0.00000000000E+00 0.  1.
</event>
<event>
 7    1  0.6889665E-012  0.5052885E+02  0.7816164E-02  0.1300439E+00
        -11   -1    0    0    0    0  0.00000000000E+00  0.00000000000E+00  0.45593999997E+02  0.45594000000E+02  0.51100000000E-03 0.  1.
         11   -1    0    0    0    0 -0.00000000000E+00 -0.00000000000E+00 -0.45593999997E+02  0.45594000000E+02  0.51100000000E-03 0. -1.
    9900012    2    1    2    0    0  0.17847050076E+02 -0.36367579766E+02  0.34710432957E+01  0.50528853476E+02  0.29999980627E+02 0.  0.
        -12    1    1    2    0    0 -0.17847050076E+02  0.36367579766E+02 -0.34710432957E+01  0.40659146524E+02  0.00000000000E+00 0.  1.
         11    1    3    3    0    0  0.20352904470E+01 -0.13321529223E+02  0.14444368441E+02  0.19754628013E+02  0.51100000000E-03 0.  1.
        -11    1    3    3    0    0  0.14019718972E+02 -0.17177563566E+02 -0.62670440038E+01  0.23041203331E+02  0.51100000000E-03 0. -1.
        -12    1    3    3    0    0  0.17920406567E+01 -0.58684869773E+01 -0.47062811411E+01  0.77330221322E+01  0.00000000000E+00 0.  1.
</event>
<event>
 7    1  0.6889665E-012  0.5052885E+02  0.7816164E-02  0.1300439E+00
        -11   -1    0    0    0    0  0.00000000000E+00  0.00000000000E+00  0.45593999997E+02  0.45594000000E+02  0.51100000000E-03 0. -1.
         11   -1    0    0    0    0 -0.00000000000E+00 -0.00000000000E+00 -0.45593999997E+02  0.45594000000E+02  0.51100000000E-03 0.  1.
    9900012    2    1    2    0    0 -0.23457690657E+02  0.17187409421E+02  0.28416474637E+02  0.50528851898E+02  0.29999975829E+02 0.  0.
        -12    1    1    2    0    0  0.23457690657E+02 -0.17187409421E+02 -0.28416474637E+02  0.40659148102E+02  0.00000000000E+00 0.  1.
         11    1    3    3    0    0 -0.14246062795E+02  0.51282512993E+01  0.54477833928E+01  0.16091227756E+02  0.51100000000E-03 0. -1.
        -11    1    3    3    0    0  0.47989715546E+01 -0.24773672415E+01  0.59152594925E+01  0.80098546527E+01  0.51100000000E-03 0.  1.
        -12    1    3    3    0    0 -0.14010599417E+02  0.14536525363E+02  0.17053431752E+02  0.26427769489E+02  0.00000000000E+00 0.  1.
</event>
<event>
 7    1  0.6889665E-012  0.5052887E+02  0.7816164E-02  0.1300439E+00
        -11   -1    0    0    0    0  0.00000000000E+00  0.00000000000E+00  0.45593999997E+02  0.45594000000E+02  0.51100000000E-03 0. -1.
         11   -1    0    0    0    0 -0.00000000000E+00 -0.00000000000E+00 -0.45593999997E+02  0.45594000000E+02  0.51100000000E-03 0.  1.
    9900012    2    1    2    0    0  0.25372894307E+02 -0.19558507919E+02  0.25036882364E+02  0.50528874627E+02  0.30000044917E+02 0.  0.
        -12    1    1    2    0    0 -0.25372894307E+02  0.19558507919E+02 -0.25036882364E+02  0.40659125373E+02  0.00000000000E+00 0.  1.
         11    1    3    3    0    0  0.11883693114E+02 -0.11772828027E+00  0.32424282759E+01  0.12318659155E+02  0.51100000000E-03 0. -1.
        -11    1    3    3    0    0  0.44139709791E+01 -0.16550403012E+02  0.22926714107E+02  0.28618756082E+02  0.51100000000E-03 0.  1.
        -12    1    3    3    0    0  0.90752302140E+01 -0.28903766267E+01 -0.11322600193E+01  0.95914593901E+01  0.00000000000E+00 0.  1.
</event>
<event>
 7    1  0.6889665E-012  0.5052886E+02  0.7816164E-02  0.1300439E+00
        -11   -1    0    0    0    0  0.00000000000E+00  0.00000000000E+00  0.45593999997E+02  0.45594000000E+02  0.51100000000E-03 0. -1.
         11   -1    0    0    0    0 -0.00000000000E+00 -0.00000000000E+00 -0.45593999997E+02  0.45594000000E+02  0.51100000000E-03 0.  1.
    9900012    2    1    2    0    0 -0.18944338153E+02 -0.22587513263E+02  0.28001459478E+02  0.50528862818E+02  0.30000009022E+02 0.  0.
        -12    1    1    2    0    0  0.18944338153E+02  0.22587513263E+02 -0.28001459478E+02  0.40659137182E+02  0.00000000000E+00 0.  1.
         11    1    3    3    0    0 -0.77367452707E+01 -0.22085980471E+02  0.29377162609E+02  0.37558826445E+02  0.51100000000E-03 0. -1.
        -11    1    3    3    0    0 -0.92001739881E+01 -0.28593764764E+01 -0.19259495261E+01  0.98248927263E+01  0.51100000000E-03 0.  1.
         12    1    3    3    0    0 -0.20074188946E+01  0.23578436851E+01  0.55024639542E+00  0.31451436466E+01  0.00000000000E+00 0. -1.
</event>
<event>
 7    1  0.6889665E-012  0.5052886E+02  0.7816164E-02  0.1300439E+00
        -11   -1    0    0    0    0  0.00000000000E+00  0.00000000000E+00  0.45593999997E+02  0.45594000000E+02  0.51100000000E-03 0. -1.
         11   -1    0    0    0    0 -0.00000000000E+00 -0.00000000000E+00 -0.45593999997E+02  0.45594000000E+02  0.51100000000E-03 0.  1.
    9900012    2    1    2    0    0 -0.27441413291E+02  0.77519737725E+01  0.28983468266E+02  0.50528859656E+02  0.29999999411E+02 0.  0.
        -12    1    1    2    0    0  0.27441413291E+02 -0.77519737725E+01 -0.28983468266E+02  0.40659140344E+02  0.00000000000E+00 0.  1.
         11    1    3    3    0    0 -0.26580016974E+02 -0.65118620993E+00  0.20864510584E+02  0.33797176628E+02  0.51100000000E-03 0. -1.
        -11    1    3    3    0    0  0.32383009640E+01  0.54707408128E+01 -0.87929814581E+00  0.64178472765E+01  0.51100000000E-03 0.  1.
         12    1    3    3    0    0 -0.40996972806E+01  0.29324191697E+01  0.89982558277E+01  0.10313835752E+02  0.00000000000E+00 0. -1.
</event>
<event>
 7    1  0.6889665E-012  0.5052886E+02  0.7816164E-02  0.1300439E+00
        -11   -1    0    0    0    0  0.00000000000E+00  0.00000000000E+00  0.45593999997E+02  0.45594000000E+02  0.51100000000E-03 0. -1.
         11   -1    0    0    0    0 -0.00000000000E+00 -0.00000000000E+00 -0.45593999997E+02  0.45594000000E+02  0.51100000000E-03 0.  1.
    9900012    2    1    2    0    0  0.10795837073E+01 -0.12058842000E+02 -0.38814744543E+02  0.50528861233E+02  0.30000004204E+02 0.  0.
         12    1    1    2    0    0 -0.10795837073E+01  0.12058842000E+02  0.38814744543E+02  0.40659138767E+02  0.00000000000E+00 0. -1.
         11    1    3    3    0    0  0.71676868957E+01 -0.14646693414E+02 -0.36092864392E+02  0.39605507491E+02  0.51100000000E-03 0.  1.
        -11    1    3    3    0    0 -0.75697184626E+00  0.26532020176E+01  0.23053588572E+01  0.35954369753E+01  0.51100000000E-03 0. -1.
        -12    1    3    3    0    0 -0.53311313422E+01 -0.65350603442E-01 -0.50272390085E+01  0.73279167665E+01  0.00000000000E+00 0.  1.
</event>
<event>
 7    1  0.6889665E-012  0.5052881E+02  0.7816164E-02  0.1300439E+00
        -11   -1    0    0    0    0  0.00000000000E+00  0.00000000000E+00  0.45593999997E+02  0.45594000000E+02  0.51100000000E-03 0. -1.
         11   -1    0    0    0    0 -0.00000000000E+00 -0.00000000000E+00 -0.45593999997E+02  0.45594000000E+02  0.51100000000E-03 0.  1.
    9900012    2    1    2    0    0  0.35302020889E+01  0.29667476336E+02 -0.27578046485E+02  0.50528805138E+02  0.29999833697E+02 0.  0.
         12    1    1    2    0    0 -0.35302020889E+01 -0.29667476336E+02  0.27578046485E+02  0.40659194862E+02  0.00000000000E+00 0. -1.
         11    1    3    3    0    0 -0.78286134382E+01  0.11265768426E+02 -0.90130893821E+01  0.16414643069E+02  0.51100000000E-03 0. -1.
        -11    1    3    3    0    0  0.11234023604E+02  0.10588035645E+02 -0.20877070800E+02  0.25964627295E+02  0.51100000000E-03 0.  1.
         12    1    3    3    0    0  0.12479192318E+00  0.78136722648E+01  0.23121136969E+01  0.81495347740E+01  0.00000000000E+00 0. -1.
</event>
<event>
 7    1  0.6889665E-012  0.5052885E+02  0.7816164E-02  0.1300439E+00
        -11   -1    0    0    0    0  0.00000000000E+00  0.00000000000E+00  0.45593999997E+02  0.45594000000E+02  0.51100000000E-03 0. -1.
         11   -1    0    0    0    0 -0.00000000000E+00 -0.00000000000E+00 -0.45593999997E+02  0.45594000000E+02  0.51100000000E-03 0.  1.
    9900012    2    1    2    0    0  0.24936569726E+02  0.49079441976E+01  0.31737133816E+02  0.50528854795E+02  0.29999984636E+02 0.  0.
        -12    1    1    2    0    0 -0.24936569726E+02 -0.49079441976E+01 -0.31737133816E+02  0.40659145205E+02  0.00000000000E+00 0.  1.
         11    1    3    3    0    0  0.22261079440E+02  0.47740260651E+00  0.21211643948E+02  0.30752518764E+02  0.51100000000E-03 0. -1.
        -11    1    3    3    0    0 -0.60656625608E+01  0.32166579849E+01  0.81114587626E+01  0.10627084003E+02  0.51100000000E-03 0.  1.
        -12    1    3    3    0    0  0.87411528468E+01  0.12138836062E+01  0.24140311054E+01  0.91492520283E+01  0.00000000000E+00 0.  1.
</event>
<event>
 7    1  0.6889665E-012  0.5052886E+02  0.7816164E-02  0.1300439E+00
        -11   -1    0    0    0    0  0.00000000000E+00  0.00000000000E+00  0.45593999997E+02  0.45594000000E+02  0.51100000000E-03 0. -1.
         11   -1    0    0    0    0 -0.00000000000E+00 -0.00000000000E+00 -0.45593999997E+02  0.45594000000E+02  0.51100000000E-03 0.  1.
    9900012    2    1    2    0    0 -0.55670564494E+01 -0.24025120766E+02  0.32325948562E+02  0.50528862088E+02  0.30000006804E+02 0.  0.
        -12    1    1    2    0    0  0.55670564494E+01  0.24025120766E+02 -0.32325948562E+02  0.40659137912E+02  0.00000000000E+00 0.  1.
         11    1    3    3    0    0 -0.12203513120E+02 -0.65236620218E+01  0.30755690852E+01  0.14175437351E+02  0.51100000000E-03 0.  1.
        -11    1    3    3    0    0  0.71789754314E+01 -0.11896191027E+02  0.12528797799E+02  0.18709030540E+02  0.51100000000E-03 0. -1.
         12    1    3    3    0    0 -0.54251876091E+00 -0.56052677167E+01  0.16721581678E+02  0.17644394197E+02  0.00000000000E+00 0. -1.
</event>
<event>
 7    1  0.6889665E-012  0.5052886E+02  0.7816164E-02  0.1300439E+00
        -11   -1    0    0    0    0  0.00000000000E+00  0.00000000000E+00  0.45593999997E+02  0.45594000000E+02  0.51100000000E-03 0.  1.
         11   -1    0    0    0    0 -0.00000000000E+00 -0.00000000000E+00 -0.45593999997E+02  0.45594000000E+02  0.51100000000E-03 0. -1.
    9900012    2    1    2    0    0  0.95197880578E+01 -0.39345217451E+02 -0.38070125053E+01  0.50528857791E+02  0.29999993741E+02 0.  0.
        -12    1    1    2    0    0 -0.95197880578E+01  0.39345217451E+02  0.38070125053E+01  0.40659142209E+02  0.00000000000E+00 0.  1.
         11    1    3    3    0    0  0.84189467684E+01 -0.31102853328E+02  0.11650955715E+01  0.32243194597E+02  0.51100000000E-03 0. -1.
        -11    1    3    3    0    0 -0.17663176217E+01  0.25278654252E+00  0.47418141792E+01  0.50664169734E+01  0.51100000000E-03 0.  1.
        -12    1    3    3    0    0  0.28671589111E+01 -0.84951506657E+01 -0.97139222560E+01  0.13219246221E+02  0.00000000000E+00 0.  1.
</event>
<event>
 7    1  0.6889665E-012  0.5052886E+02  0.7816164E-02  0.1300439E+00
        -11   -1    0    0    0    0  0.00000000000E+00  0.00000000000E+00  0.45593999997E+02  0.45594000000E+02  0.51100000000E-03 0. -1.
         11   -1    0    0    0    0 -0.00000000000E+00 -0.00000000000E+00 -0.45593999997E+02  0.45594000000E+02  0.51100000000E-03 0.  1.
    9900012    2    1    2    0    0 -0.80118744816E+01 -0.19658187544E+02  0.34677526604E+02  0.50528864229E+02  0.30000013311E+02 0.  0.
        -12    1    1    2    0    0  0.80118744816E+01  0.19658187544E+02 -0.34677526604E+02  0.40659135771E+02  0.00000000000E+00 0.  1.
         11    1    3    3    0    0  0.29695973565E+01 -0.84036623746E+01  0.19820558369E+01  0.91306404686E+01  0.51100000000E-03 0. -1.
        -11    1    3    3    0    0 -0.12378212934E+02  0.14788644712E+01  0.14140688061E+02  0.18851160566E+02  0.51100000000E-03 0.  1.
         12    1    3    3    0    0  0.13967410959E+01 -0.12733389641E+02  0.18554782706E+02  0.22547063195E+02  0.00000000000E+00 0. -1.
</event>
<event>
 7    1  0.6889665E-012  0.5052886E+02  0.7816164E-02  0.1300439E+00
        -11   -1    0    0    0    0  0.00000000000E+00  0.00000000000E+00  0.45593999997E+02  0.45594000000E+02  0.51100000000E-03 0. -1.
         11   -1    0    0    0    0 -0.00000000000E+00 -0.00000000000E+00 -0.45593999997E+02  0.45594000000E+02  0.51100000000E-03 0.  1.
    9900012    2    1    2    0    0  0.40626240682E+02  0.58608735443E+00  0.15266364516E+01  0.50528861431E+02  0.30000004804E+02 0.  0.
         12    1    1    2    0    0 -0.40626240682E+02 -0.58608735443E+00 -0.15266364516E+01  0.40659138569E+02  0.00000000000E+00 0. -1.
         11    1    3    3    0    0  0.30411351047E+02  0.78797630246E+01  0.77008807638E+01  0.32345703001E+02  0.51100000000E-03 0. -1.
        -11    1    3    3    0    0  0.23943288562E+01 -0.64697548802E+01 -0.75200544025E+01  0.10204986887E+02  0.51100000000E-03 0.  1.
         12    1    3    3    0    0  0.78205607787E+01 -0.82392078990E+00  0.13458100903E+01  0.79781715424E+01  0.00000000000E+00 0. -1.
</event>
<event>
 7    1  0.6889665E-012  0.5052886E+02  0.7816164E-02  0.1300439E+00
        -11   -1    0    0    0    0  0.00000000000E+00  0.00000000000E+00  0.45593999997E+02  0.45594000000E+02  0.51100000000E-03 0. -1.
         11   -1    0    0    0    0 -0.00000000000E+00 -0.00000000000E+00 -0.45593999997E+02  0.45594000000E+02  0.51100000000E-03 0.  1.
    9900012    2    1    2    0    0 -0.32000959863E+02 -0.94324076420E+01 -0.23240778109E+02  0.50528861873E+02  0.30000006150E+02 0.  0.
         12    1    1    2    0    0  0.32000959863E+02  0.94324076420E+01  0.23240778109E+02  0.40659138127E+02  0.00000000000E+00 0. -1.
         11    1    3    3    0    0 -0.51195395954E+01 -0.12124905500E+02 -0.30013088957E+01  0.13499291626E+02  0.51100000000E-03 0. -1.
        -11    1    3    3    0    0 -0.13578228546E+02  0.89950046539E+01 -0.10487570289E+02  0.19371823094E+02  0.51100000000E-03 0.  1.
        -12    1    3    3    0    0 -0.13303191722E+02 -0.63025067961E+01 -0.97518989244E+01  0.17657747153E+02  0.00000000000E+00 0.  1.
</event>
<event>
 7    1  0.6889665E-012  0.5052886E+02  0.7816164E-02  0.1300439E+00
        -11   -1    0    0    0    0  0.00000000000E+00  0.00000000000E+00  0.45593999997E+02  0.45594000000E+02  0.51100000000E-03 0. -1.
         11   -1    0    0    0    0 -0.00000000000E+00 -0.00000000000E+00 -0.45593999997E+02  0.45594000000E+02  0.51100000000E-03 0.  1.
    9900012    2    1    2    0    0  0.36551618308E+01 -0.31279226210E+02 -0.25717992698E+02  0.50528863896E+02  0.30000012298E+02 0.  0.
         12    1    1    2    0    0 -0.36551618308E+01  0.31279226210E+02  0.25717992698E+02  0.40659136104E+02  0.00000000000E+00 0. -1.
         11    1    3    3    0    0  0.41930239538E+01 -0.16904459689E+02 -0.43246345611E+01  0.17945603128E+02  0.51100000000E-03 0. -1.
        -11    1    3    3    0    0 -0.74871436687E+01 -0.66456204456E+01 -0.19637590444E+02  0.22042153936E+02  0.51100000000E-03 0.  1.
        -12    1    3    3    0    0  0.69492815457E+01 -0.77291460753E+01 -0.17557676924E+01  0.10541106832E+02  0.00000000000E+00 0.  1.
</event>
<event>
 7    1  0.6889665E-012  0.5052888E+02  0.7816164E-02  0.1300439E+00
        -11   -1    0    0    0    0  0.00000000000E+00  0.00000000000E+00  0.45593999997E+02  0.45594000000E+02  0.51100000000E-03 0.  1.
         11   -1    0    0    0    0 -0.00000000000E+00 -0.00000000000E+00 -0.45593999997E+02  0.45594000000E+02  0.51100000000E-03 0. -1.
    9900012    2    1    2    0    0 -0.12991139251E+02  0.38090915647E+02 -0.57859068275E+01  0.50528877141E+02  0.30000052559E+02 0.  0.
         12    1    1    2    0    0  0.12991139251E+02 -0.38090915647E+02  0.57859068275E+01  0.40659122859E+02  0.00000000000E+00 0. -1.
         11    1    3    3    0    0  0.15850917820E+01 -0.33868436436E+01 -0.27364451949E+01  0.46337197142E+01  0.51100000000E-03 0. -1.
        -11    1    3    3    0    0 -0.91893353964E+01  0.25464924620E+02  0.44063055731E+01  0.27428485193E+02  0.51100000000E-03 0.  1.
        -12    1    3    3    0    0 -0.53868956360E+01  0.16012834670E+02 -0.74557672056E+01  0.18466672234E+02  0.00000000000E+00 0.  1.
</event>
<event>
 7    1  0.6889665E-012  0.5052884E+02  0.7816164E-02  0.1300439E+00
        -11   -1    0    0    0    0  0.00000000000E+00  0.00000000000E+00  0.45593999997E+02  0.45594000000E+02  0.51100000000E-03 0. -1.
         11   -1    0    0    0    0 -0.00000000000E+00 -0.00000000000E+00 -0.45593999997E+02  0.45594000000E+02  0.51100000000E-03 0.  1.
    9900012    2    1    2    0    0  0.18795786714E+01 -0.24876599796E+02  0.32105902294E+02  0.50528843645E+02  0.29999950743E+02 0.  0.
        -12    1    1    2    0    0 -0.18795786714E+01  0.24876599796E+02 -0.32105902294E+02  0.40659156355E+02  0.00000000000E+00 0.  1.
         11    1    3    3    0    0  0.39254358596E+01 -0.19819400960E+02  0.36944060459E+02  0.42107971983E+02  0.51100000000E-03 0. -1.
        -11    1    3    3    0    0 -0.31541055610E+01 -0.22607916140E+01 -0.25903886879E+01  0.46657983697E+01  0.51100000000E-03 0.  1.
         12    1    3    3    0    0  0.11082483727E+01 -0.27964072224E+01 -0.22477694768E+01  0.37550732923E+01  0.00000000000E+00 0. -1.
</event>
<event>
 7    1  0.6889665E-012  0.5052886E+02  0.7816164E-02  0.1300439E+00
        -11   -1    0    0    0    0  0.00000000000E+00  0.00000000000E+00  0.45593999997E+02  0.45594000000E+02  0.51100000000E-03 0. -1.
         11   -1    0    0    0    0 -0.00000000000E+00 -0.00000000000E+00 -0.45593999997E+02  0.45594000000E+02  0.51100000000E-03 0.  1.
    9900012    2    1    2    0    0 -0.27750961542E+02 -0.21163129765E+02 -0.20860779801E+02  0.50528855126E+02  0.29999985642E+02 0.  0.
         12    1    1    2    0    0  0.27750961542E+02  0.21163129765E+02  0.20860779801E+02  0.40659144874E+02  0.00000000000E+00 0. -1.
         11    1    3    3    0    0 -0.34034487979E+01 -0.18679298285E+02 -0.12570754444E+02  0.22771111429E+02  0.51100000000E-03 0. -1.
        -11    1    3    3    0    0 -0.12051163199E+02 -0.36432646628E+01 -0.88580531179E+01  0.15393798009E+02  0.51100000000E-03 0.  1.
         12    1    3    3    0    0 -0.12296349545E+02  0.11594331835E+01  0.56802776004E+00  0.12363945688E+02  0.00000000000E+00 0. -1.
</event>
<event>
 7    1  0.6889665E-012  0.5052884E+02  0.7816164E-02  0.1300439E+00
        -11   -1    0    0    0    0  0.00000000000E+00  0.00000000000E+00  0.45593999997E+02  0.45594000000E+02  0.51100000000E-03 0. -1.
         11   -1    0    0    0    0 -0.00000000000E+00 -0.00000000000E+00 -0.45593999997E+02  0.45594000000E+02  0.51100000000E-03 0.  1.
    9900012    2    1    2    0    0  0.62880164332E+01 -0.49397915085E+00 -0.40166948981E+02  0.50528844124E+02  0.29999952200E+02 0.  0.
         12    1    1    2    0    0 -0.62880164332E+01  0.49397915085E+00  0.40166948981E+02  0.40659155876E+02  0.00000000000E+00 0. -1.
         11    1    3    3    0    0  0.10172975616E+02 -0.42089359793E+01 -0.49673048164E+01  0.12078025185E+02  0.51100000000E-03 0. -1.
        -11    1    3    3    0    0 -0.73512966020E+01 -0.25122115630E+01 -0.23505867251E+02  0.24756384311E+02  0.51100000000E-03 0.  1.
         12    1    3    3    0    0  0.34663374191E+01  0.62271683914E+01 -0.11693776913E+02  0.13694434628E+02  0.00000000000E+00 0. -1.
</event>
<event>
 7    1  0.6889665E-012  0.5052885E+02  0.7816164E-02  0.1300439E+00
        -11   -1    0    0    0    0  0.00000000000E+00  0.00000000000E+00  0.45593999997E+02  0.45594000000E+02  0.51100000000E-03 0.  1.
         11   -1    0    0    0    0 -0.00000000000E+00 -0.00000000000E+00 -0.45593999997E+02  0.45594000000E+02  0.51100000000E-03 0. -1.
    9900012    2    1    2    0    0  0.13396298350E+02  0.38376527939E+02  0.97354400282E+00  0.50528849811E+02  0.29999969487E+02 0.  0.
         12    1    1    2    0    0 -0.13396298350E+02 -0.38376527939E+02 -0.97354400282E+00  0.40659150189E+02  0.00000000000E+00 0. -1.
         11    1    3    3    0    0 -0.45328573544E+01  0.71574078868E+01  0.36034601390E+00  0.84796894379E+01  0.51100000000E-03 0. -1.
        -11    1    3    3    0    0  0.15849510505E+02  0.14188439238E+02  0.88221112598E+01  0.23029295226E+02  0.51100000000E-03 0.  1.
        -12    1    3    3    0    0  0.20796451999E+01  0.17030680814E+02 -0.82089132709E+01  0.19019865148E+02  0.00000000000E+00 0.  1.
</event>
<event>
 7    1  0.6889665E-012  0.5052882E+02  0.7816164E-02  0.1300439E+00
        -11   -1    0    0    0    0  0.00000000000E+00  0.00000000000E+00  0.45593999997E+02  0.45594000000E+02  0.51100000000E-03 0. -1.
         11   -1    0    0    0    0 -0.00000000000E+00 -0.00000000000E+00 -0.45593999997E+02  0.45594000000E+02  0.51100000000E-03 0.  1.
    9900012    2    1    2    0    0 -0.11836750585E+02 -0.38427995578E+02 -0.60290647414E+01  0.50528817394E+02  0.29999870949E+02 0.  0.
         12    1    1    2    0    0  0.11836750585E+02  0.38427995578E+02  0.60290647414E+01  0.40659182606E+02  0.00000000000E+00 0. -1.
         11    1    3    3    0    0 -0.89022784399E+01 -0.34095872911E+02  0.56162308298E+01  0.35683625937E+02  0.51100000000E-03 0. -1.
        -11    1    3    3    0    0 -0.19027032793E+01 -0.37954463198E+01 -0.13078636484E+01  0.44425443295E+01  0.51100000000E-03 0.  1.
         12    1    3    3    0    0 -0.10317688661E+01 -0.53667634702E+00 -0.10337431923E+02  0.10402647127E+02  0.00000000000E+00 0. -1.
</event>
<event>
 7    1  0.6889665E-012  0.5052886E+02  0.7816164E-02  0.1300439E+00
        -11   -1    0    0    0    0  0.00000000000E+00  0.00000000000E+00  0.45593999997E+02  0.45594000000E+02  0.51100000000E-03 0. -1.
         11   -1    0    0    0    0 -0.00000000000E+00 -0.00000000000E+00 -0.45593999997E+02  0.45594000000E+02  0.51100000000E-03 0.  1.
    9900012    2    1    2    0    0 -0.35947945195E+01 -0.27128981147E+02 -0.30070940708E+02  0.50528860304E+02  0.30000001381E+02 0.  0.
         12    1    1    2    0    0  0.35947945195E+01  0.27128981147E+02  0.30070940708E+02  0.40659139696E+02  0.00000000000E+00 0. -1.
         11    1    3    3    0    0  0.79663511810E+01 -0.10314181762E+02 -0.57567414723E+01  0.14247286380E+02  0.51100000000E-03 0. -1.
        -11    1    3    3    0    0 -0.72069478859E+01 -0.27262154946E+01 -0.19175569711E+02  0.20665788704E+02  0.51100000000E-03 0.  1.
        -12    1    3    3    0    0 -0.43541978145E+01 -0.14088583891E+02 -0.51386295251E+01  0.15615785220E+02  0.00000000000E+00 0.  1.
</event>
<event>
 7    1  0.6889665E-012  0.5052885E+02  0.7816164E-02  0.1300439E+00
        -11   -1    0    0    0    0  0.00000000000E+00  0.00000000000E+00  0.45593999997E+02  0.45594000000E+02  0.51100000000E-03 0. -1.
         11   -1    0    0    0    0 -0.00000000000E+00 -0.00000000000E+00 -0.45593999997E+02  0.45594000000E+02  0.51100000000E-03 0.  1.
    9900012    2    1    2    0    0  0.39768233427E+02 -0.21304398237E+01  0.81923714516E+01  0.50528854488E+02  0.29999983703E+02 0.  0.
        -12    1    1    2    0    0 -0.39768233427E+02  0.21304398237E+01 -0.81923714516E+01  0.40659145512E+02  0.00000000000E+00 0.  1.
         11    1    3    3    0    0  0.11278683787E+02  0.31998506521E+01  0.28910243582E+01  0.12075006181E+02  0.51100000000E-03 0. -1.
        -11    1    3    3    0    0  0.30152610372E+01 -0.10078999851E+02  0.67510886774E+01  0.12500209426E+02  0.51100000000E-03 0.  1.
        -12    1    3    3    0    0  0.25474288602E+02  0.47487093748E+01 -0.14497415840E+01  0.25953638881E+02  0.00000000000E+00 0.  1.
</event>
<event>
 7    1  0.6889665E-012  0.5052886E+02  0.7816164E-02  0.1300439E+00
        -11   -1    0    0    0    0  0.00000000000E+00  0.00000000000E+00  0.45593999997E+02  0.45594000000E+02  0.51100000000E-03 0. -1.
         11   -1    0    0    0    0 -0.00000000000E+00 -0.00000000000E+00 -0.45593999997E+02  0.45594000000E+02  0.51100000000E-03 0.  1.
    9900012    2    1    2    0    0 -0.31805691237E+02 -0.11406272484E+02 -0.22615490593E+02  0.50528862505E+02  0.30000008070E+02 0.  0.
         12    1    1    2    0    0  0.31805691237E+02  0.11406272484E+02  0.22615490593E+02  0.40659137495E+02  0.00000000000E+00 0. -1.
         11    1    3    3    0    0 -0.26776639709E+02 -0.58072690889E+01 -0.27545148663E+01  0.27537250422E+02  0.51100000000E-03 0. -1.
        -11    1    3    3    0    0 -0.17475725999E+01 -0.66187846765E+01 -0.74669217013E+01  0.10130016809E+02  0.51100000000E-03 0.  1.
         12    1    3    3    0    0 -0.32814789278E+01  0.10197812813E+01 -0.12394054026E+02  0.12861595274E+02  0.00000000000E+00 0. -1.
</event>
<event>
 7    1  0.6889665E-012  0.5052886E+02  0.7816164E-02  0.1300439E+00
        -11   -1    0    0    0    0  0.00000000000E+00  0.00000000000E+00  0.45593999997E+02  0.45594000000E+02  0.51100000000E-03 0. -1.
         11   -1    0    0    0    0 -0.00000000000E+00 -0.00000000000E+00 -0.45593999997E+02  0.45594000000E+02  0.51100000000E-03 0.  1.
    9900012    2    1    2    0    0 -0.20645387511E+01  0.57609080083E+01 -0.40195962689E+02  0.50528858373E+02  0.29999995511E+02 0.  0.
         12    1    1    2    0    0  0.20645387511E+01 -0.57609080083E+01  0.40195962689E+02  0.40659141627E+02  0.00000000000E+00 0. -1.
         11    1    3    3    0    0 -0.87231120251E+01  0.20229323437E+01 -0.13617001889E+02  0.16297474632E+02  0.51100000000E-03 0. -1.
        -11    1    3    3    0    0  0.12499917249E+02  0.39894757669E+01 -0.24904521230E+02  0.28149583053E+02  0.51100000000E-03 0.  1.
        -12    1    3    3    0    0 -0.58413439752E+01 -0.25150010227E+00 -0.16744395705E+01  0.60818006884E+01  0.00000000000E+00 0.  1.
</event>
<event>
 7    1  0.6889665E-012  0.5052885E+02  0.7816164E-02  0.1300439E+00
        -11   -1    0    0    0    0  0.00000000000E+00  0.00000000000E+00  0.45593999997E+02  0.45594000000E+02  0.51100000000E-03 0. -1.
         11   -1    0    0    0    0 -0.00000000000E+00 -0.00000000000E+00 -0.45593999997E+02  0.45594000000E+02  0.51100000000E-03 0.  1.
    9900012    2    1    2    0    0 -0.66199462678E+01 -0.10861605401E+02 -0.38618237201E+02  0.50528850907E+02  0.29999972817E+02 0.  0.
         12    1    1    2    0    0  0.66199462678E+01  0.10861605401E+02  0.38618237201E+02  0.40659149093E+02  0.00000000000E+00 0. -1.
         11    1    3    3    0    0 -0.18487820978E+01  0.74257626698E+01 -0.94361792225E+01  0.12149132687E+02  0.51100000000E-03 0. -1.
        -11    1    3    3    0    0 -0.16042505619E+01 -0.18234320465E+02 -0.29968128105E+02  0.35116274932E+02  0.51100000000E-03 0.  1.
        -12    1    3    3    0    0 -0.31669136081E+01 -0.53047605930E-01  0.78607012711E+00  0.32634432881E+01  0.00000000000E+00 0.  1.
</event>
<event>
 7    1  0.6889665E-012  0.5052887E+02  0.7816164E-02  0.1300439E+00
        -11   -1    0    0    0    0  0.00000000000E+00  0.00000000000E+00  0.45593999997E+02  0.45594000000E+02  0.51100000000E-03 0. -1.
         11   -1    0    0    0    0 -0.00000000000E+00 -0.00000000000E+00 -0.45593999997E+02  0.45594000000E+02  0.51100000000E-03 0.  1.
    9900012    2    1    2    0    0 -0.13547491351E+02  0.95705863466E+01  0.37121883970E+02  0.50528869237E+02  0.30000028534E+02 0.  0.
        -12    1    1    2    0    0  0.13547491351E+02 -0.95705863466E+01 -0.37121883970E+02  0.40659130763E+02  0.00000000000E+00 0.  1.
         11    1    3    3    0    0  0.25671733281E+01  0.79583163473E+01  0.31285337882E+02  0.32383599933E+02  0.51100000000E-03 0. -1.
        -11    1    3    3    0    0 -0.36084775403E+01 -0.89868457463E+00 -0.74355970575E+00  0.37923113559E+01  0.51100000000E-03 0.  1.
         12    1    3    3    0    0 -0.12506187138E+02  0.25109545739E+01  0.65801057938E+01  0.14352957948E+02  0.00000000000E+00 0. -1.
</event>
<event>
 7    1  0.6889665E-012  0.5052886E+02  0.7816164E-02  0.1300439E+00
        -11   -1    0    0    0    0  0.00000000000E+00  0.00000000000E+00  0.45593999997E+02  0.45594000000E+02  0.51100000000E-03 0. -1.
         11   -1    0    0    0    0 -0.00000000000E+00 -0.00000000000E+00 -0.45593999997E+02  0.45594000000E+02  0.51100000000E-03 0.  1.
    9900012    2    1    2    0    0 -0.15014269958E+02  0.66909490748E+01  0.37188281191E+02  0.50528863760E+02  0.30000011884E+02 0.  0.
        -12    1    1    2    0    0  0.15014269958E+02 -0.66909490748E+01 -0.37188281191E+02  0.40659136240E+02  0.00000000000E+00 0.  1.
         11    1    3    3    0    0  0.45180221136E+01 -0.60861968742E+01  0.16303240413E+02  0.17979153607E+02  0.51100000000E-03 0. -1.
        -11    1    3    3    0    0 -0.12128364486E+02  0.58226097233E+01  0.65049043964E+01  0.14943687315E+02  0.51100000000E-03 0.  1.
         12    1    3    3    0    0 -0.74039275858E+01  0.69545362257E+01  0.14380136381E+02  0.17606022838E+02  0.00000000000E+00 0. -1.
</event>
<event>
 7    1  0.6889665E-012  0.5052885E+02  0.7816164E-02  0.1300439E+00
        -11   -1    0    0    0    0  0.00000000000E+00  0.00000000000E+00  0.45593999997E+02  0.45594000000E+02  0.51100000000E-03 0. -1.
         11   -1    0    0    0    0 -0.00000000000E+00 -0.00000000000E+00 -0.45593999997E+02  0.45594000000E+02  0.51100000000E-03 0.  1.
    9900012    2    1    2    0    0  0.21557304265E+01 -0.33700931138E+01 -0.40461851502E+02  0.50528854310E+02  0.29999983162E+02 0.  0.
         12    1    1    2    0    0 -0.21557304265E+01  0.33700931138E+01  0.40461851502E+02  0.40659145690E+02  0.00000000000E+00 0. -1.
         11    1    3    3    0    0 -0.73698867901E+01 -0.94253522734E+01 -0.16679877371E+02  0.20527318533E+02  0.51100000000E-03 0. -1.
        -11    1    3    3    0    0  0.10345872800E+02  0.38829758240E+01 -0.25033285868E+02  0.27363844519E+02  0.51100000000E-03 0.  1.
         12    1    3    3    0    0 -0.82025558360E+00  0.21722833356E+01  0.12513117373E+01  0.26376912587E+01  0.00000000000E+00 0. -1.
</event>
<event>
 7    1  0.6889665E-012  0.5052888E+02  0.7816164E-02  0.1300439E+00
        -11   -1    0    0    0    0  0.00000000000E+00  0.00000000000E+00  0.45593999997E+02  0.45594000000E+02  0.51100000000E-03 0. -1.
         11   -1    0    0    0    0 -0.00000000000E+00 -0.00000000000E+00 -0.45593999997E+02  0.45594000000E+02  0.51100000000E-03 0.  1.
    9900012    2    1    2    0    0  0.80363971498E+01  0.23626220648E+02  0.32099562335E+02  0.50528881916E+02  0.30000067071E+02 0.  0.
        -12    1    1    2    0    0 -0.80363971498E+01 -0.23626220648E+02 -0.32099562335E+02  0.40659118084E+02  0.00000000000E+00 0.  1.
         11    1    3    3    0    0  0.74059552027E+01  0.23702957625E+02  0.25267852400E+02  0.35427993703E+02  0.51100000000E-03 0. -1.
        -11    1    3    3    0    0  0.22545836119E+01 -0.59930033641E+01  0.62342320231E+01  0.89367156027E+01  0.51100000000E-03 0.  1.
        -12    1    3    3    0    0 -0.16241416648E+01  0.59162663871E+01  0.59747791174E+00  0.61641726099E+01  0.00000000000E+00 0.  1.
</event>
<event>
 7    1  0.6889665E-012  0.5052886E+02  0.7816164E-02  0.1300439E+00
        -11   -1    0    0    0    0  0.00000000000E+00  0.00000000000E+00  0.45593999997E+02  0.45594000000E+02  0.51100000000E-03 0. -1.
         11   -1    0    0    0    0 -0.00000000000E+00 -0.00000000000E+00 -0.45593999997E+02  0.45594000000E+02  0.51100000000E-03 0.  1.
    9900012    2    1    2    0    0  0.14242794455E+02  0.17250122947E+02  0.33952052426E+02  0.50528858353E+02  0.29999995449E+02 0.  0.
        -12    1    1    2    0    0 -0.14242794455E+02 -0.17250122947E+02 -0.33952052426E+02  0.40659141647E+02  0.00000000000E+00 0.  1.
         11    1    3    3    0    0  0.12964357040E+02  0.59691789070E+01  0.18125845045E+02  0.23070585366E+02  0.51100000000E-03 0. -1.
        -11    1    3    3    0    0 -0.18638786336E+01  0.55600244529E+01 -0.36568854499E+01  0.69109136106E+01  0.51100000000E-03 0.  1.
        -12    1    3    3    0    0  0.31423160489E+01  0.57209195871E+01  0.19483092831E+02  0.20547359376E+02  0.00000000000E+00 0.  1.
</event>
<event>
 7    1  0.6889665E-012  0.5052890E+02  0.7816164E-02  0.1300439E+00
        -11   -1    0    0    0    0  0.00000000000E+00  0.00000000000E+00  0.45593999997E+02  0.45594000000E+02  0.51100000000E-03 0. -1.
         11   -1    0    0    0    0 -0.00000000000E+00 -0.00000000000E+00 -0.45593999997E+02  0.45594000000E+02  0.51100000000E-03 0.  1.
    9900012    2    1    2    0    0  0.33754612601E+02  0.20091450263E+02  0.10493928332E+02  0.50528895517E+02  0.30000108413E+02 0.  0.
         12    1    1    2    0    0 -0.33754612601E+02 -0.20091450263E+02 -0.10493928332E+02  0.40659104483E+02  0.00000000000E+00 0. -1.
         11    1    3    3    0    0  0.89823631312E+01 -0.50546827151E+01 -0.19242020026E+01  0.10484999684E+02  0.51100000000E-03 0. -1.
        -11    1    3    3    0    0  0.12219207135E+02  0.93126197528E+01 -0.16074088509E+01  0.15447254551E+02  0.51100000000E-03 0.  1.
         12    1    3    3    0    0  0.12553042335E+02  0.15833513225E+02  0.14025539185E+02  0.24596641282E+02  0.00000000000E+00 0. -1.
</event>
<event>
 7    1  0.7874585E-012  0.5052886E+02  0.7816164E-02  0.1300439E+00
        -11   -1    0    0    0    0  0.00000000000E+00  0.00000000000E+00  0.45593999997E+02  0.45594000000E+02  0.51100000000E-03 0. -1.
         11   -1    0    0    0    0 -0.00000000000E+00 -0.00000000000E+00 -0.45593999997E+02  0.45594000000E+02  0.51100000000E-03 0.  1.
    9900012    2    1    2    0    0  0.17894370954E+00  0.23504469435E+02  0.33176397432E+02  0.50528862640E+02  0.30000008480E+02 0.  0.
        -12    1    1    2    0    0 -0.17894370954E+00 -0.23504469435E+02 -0.33176397432E+02  0.40659137360E+02  0.00000000000E+00 0.  1.
         11    1    3    3    0    0 -0.45697522765E+01  0.16948554654E+02  0.48924553259E+01  0.18222849945E+02  0.51100000000E-03 0. -1.
        -11    1    3    3    0    0  0.58670682055E+01 -0.10220621438E+01  0.49406532776E+01  0.77380330463E+01  0.51100000000E-03 0.  1.
         12    1    3    3    0    0 -0.11183722195E+01  0.75779769249E+01  0.23343288829E+02  0.24567979649E+02  0.00000000000E+00 0. -1.
</event>
<event>
 7    1  0.6889665E-012  0.5052886E+02  0.7816164E-02  0.1300439E+00
        -11   -1    0    0    0    0  0.00000000000E+00  0.00000000000E+00  0.45593999997E+02  0.45594000000E+02  0.51100000000E-03 0. -1.
         11   -1    0    0    0    0 -0.00000000000E+00 -0.00000000000E+00 -0.45593999997E+02  0.45594000000E+02  0.51100000000E-03 0.  1.
    9900012    2    1    2    0    0 -0.76303998501E+01 -0.44335695083E+01  0.39689873402E+02  0.50528860916E+02  0.30000003239E+02 0.  0.
        -12    1    1    2    0    0  0.76303998501E+01  0.44335695083E+01 -0.39689873402E+02  0.40659139084E+02  0.00000000000E+00 0.  1.
         11    1    3    3    0    0  0.41090620593E+01  0.23850536227E+01  0.12648846773E+02  0.13511705915E+02  0.51100000000E-03 0. -1.
        -11    1    3    3    0    0 -0.15593121071E+02  0.16815451855E+01  0.19459376296E+02  0.24992805866E+02  0.51100000000E-03 0.  1.
        -12    1    3    3    0    0  0.38536591618E+01 -0.85001683165E+01  0.75816503322E+01  0.12024349134E+02  0.00000000000E+00 0.  1.
</event>
<event>
 7    1  0.6889665E-012  0.5052889E+02  0.7816164E-02  0.1300439E+00
        -11   -1    0    0    0    0  0.00000000000E+00  0.00000000000E+00  0.45593999997E+02  0.45594000000E+02  0.51100000000E-03 0. -1.
         11   -1    0    0    0    0 -0.00000000000E+00 -0.00000000000E+00 -0.45593999997E+02  0.45594000000E+02  0.51100000000E-03 0.  1.
    9900012    2    1    2    0    0  0.54297532471E+01  0.14117765746E+02  0.37740824991E+02  0.50528887848E+02  0.30000085102E+02 0.  0.
        -12    1    1    2    0    0 -0.54297532471E+01 -0.14117765746E+02 -0.37740824991E+02  0.40659112152E+02  0.00000000000E+00 0.  1.
         11    1    3    3    0    0  0.77385339196E+01  0.37260827645E+01  0.32002466239E+02  0.33134973150E+02  0.51100000000E-03 0. -1.
        -11    1    3    3    0    0 -0.64903263246E+00  0.61054385835E+01 -0.35057020527E+01  0.70701888800E+01  0.51100000000E-03 0.  1.
         12    1    3    3    0    0 -0.16597480401E+01  0.42862443979E+01  0.92440608047E+01  0.10323725818E+02  0.00000000000E+00 0. -1.
</event>
<event>
 7    1  0.6889665E-012  0.5052896E+02  0.7816164E-02  0.1300438E+00
        -11   -1    0    0    0    0  0.00000000000E+00  0.00000000000E+00  0.45593999997E+02  0.45594000000E+02  0.51100000000E-03 0. -1.
         11   -1    0    0    0    0 -0.00000000000E+00 -0.00000000000E+00 -0.45593999997E+02  0.45594000000E+02  0.51100000000E-03 0.  1.
    9900012    2    1    2    0    0 -0.34174367594E+02  0.13497339618E+02 -0.17409535653E+02  0.50528960306E+02  0.30000305343E+02 0.  0.
         12    1    1    2    0    0  0.34174367594E+02 -0.13497339618E+02  0.17409535653E+02  0.40659039694E+02  0.00000000000E+00 0. -1.
         11    1    3    3    0    0  0.12399425780E+01  0.34263576653E+01 -0.69938504973E+00  0.37103266913E+01  0.51100000000E-03 0. -1.
        -11    1    3    3    0    0  0.32257241412E+01  0.20984117072E+01  0.28756206795E+00  0.38589273292E+01  0.51100000000E-03 0.  1.
        -12    1    3    3    0    0 -0.38640034313E+02  0.79725702460E+01 -0.16997712672E+02  0.42959706285E+02  0.00000000000E+00 0.  1.
</event>
<event>
 7    1  0.6889665E-012  0.5052886E+02  0.7816164E-02  0.1300439E+00
        -11   -1    0    0    0    0  0.00000000000E+00  0.00000000000E+00  0.45593999997E+02  0.45594000000E+02  0.51100000000E-03 0. -1.
         11   -1    0    0    0    0 -0.00000000000E+00 -0.00000000000E+00 -0.45593999997E+02  0.45594000000E+02  0.51100000000E-03 0.  1.
    9900012    2    1    2    0    0  0.21551320826E+02 -0.22803531792E+02 -0.25859331944E+02  0.50528861542E+02  0.30000005144E+02 0.  0.
         12    1    1    2    0    0 -0.21551320826E+02  0.22803531792E+02  0.25859331944E+02  0.40659138458E+02  0.00000000000E+00 0. -1.
         11    1    3    3    0    0  0.22916601245E+02 -0.14775195071E+02 -0.28397181045E+02  0.39368475885E+02  0.51100000000E-03 0.  1.
        -11    1    3    3    0    0  0.19938036261E+01 -0.67285387406E+01  0.27849439445E+01  0.75501257949E+01  0.51100000000E-03 0. -1.
        -12    1    3    3    0    0 -0.33590840449E+01 -0.12997979802E+01 -0.24709484403E+00  0.36102598621E+01  0.00000000000E+00 0.  1.
</event>
<event>
 7    1  0.6889665E-012  0.5052886E+02  0.7816164E-02  0.1300439E+00
        -11   -1    0    0    0    0  0.00000000000E+00  0.00000000000E+00  0.45593999997E+02  0.45594000000E+02  0.51100000000E-03 0. -1.
         11   -1    0    0    0    0 -0.00000000000E+00 -0.00000000000E+00 -0.45593999997E+02  0.45594000000E+02  0.51100000000E-03 0.  1.
    9900012    2    1    2    0    0  0.27150031875E+02  0.18440292186E+02  0.23999941650E+02  0.50528858273E+02  0.29999995208E+02 0.  0.
        -12    1    1    2    0    0 -0.27150031875E+02 -0.18440292186E+02 -0.23999941650E+02  0.40659141727E+02  0.00000000000E+00 0.  1.
         11    1    3    3    0    0  0.88435609339E+01 -0.40776726648E+01  0.10939574880E+02  0.14646169573E+02  0.51100000000E-03 0. -1.
        -11    1    3    3    0    0  0.15097157882E+02  0.20639238675E+02  0.16809797291E+02  0.30601824038E+02  0.51100000000E-03 0.  1.
        -12    1    3    3    0    0  0.32093130589E+01  0.18787261765E+01 -0.37494305208E+01  0.52808646628E+01  0.00000000000E+00 0.  1.
</event>
<event>
 7    1  0.6889665E-012  0.5052887E+02  0.7816164E-02  0.1300439E+00
        -11   -1    0    0    0    0  0.00000000000E+00  0.00000000000E+00  0.45593999997E+02  0.45594000000E+02  0.51100000000E-03 0. -1.
         11   -1    0    0    0    0 -0.00000000000E+00 -0.00000000000E+00 -0.45593999997E+02  0.45594000000E+02  0.51100000000E-03 0.  1.
    9900012    2    1    2    0    0 -0.10344805833E+02  0.37497318751E+02  0.11836439585E+02  0.50528865438E+02  0.30000016987E+02 0.  0.
        -12    1    1    2    0    0  0.10344805833E+02 -0.37497318751E+02 -0.11836439585E+02  0.40659134562E+02  0.00000000000E+00 0.  1.
         11    1    3    3    0    0 -0.81265326712E+01  0.30066479418E+02  0.14022280766E+02  0.34156376798E+02  0.51100000000E-03 0. -1.
        -11    1    3    3    0    0 -0.43327165858E+00  0.47211391862E+01 -0.82383164759E+01  0.95050901187E+01  0.51100000000E-03 0.  1.
        -12    1    3    3    0    0 -0.17850015027E+01  0.27097001469E+01  0.60524752953E+01  0.68673985214E+01  0.00000000000E+00 0.  1.
</event>
<event>
 7    1  0.7588180E-012  0.5052885E+02  0.7816164E-02  0.1300439E+00
        -11   -1    0    0    0    0  0.00000000000E+00  0.00000000000E+00  0.45593999997E+02  0.45594000000E+02  0.51100000000E-03 0. -1.
         11   -1    0    0    0    0 -0.00000000000E+00 -0.00000000000E+00 -0.45593999997E+02  0.45594000000E+02  0.51100000000E-03 0.  1.
    9900012    2    1    2    0    0  0.28247460449E+02 -0.88968336141E+01 -0.27858457425E+02  0.50528851948E+02  0.29999975982E+02 0.  0.
         12    1    1    2    0    0 -0.28247460449E+02  0.88968336141E+01  0.27858457425E+02  0.40659148052E+02  0.00000000000E+00 0. -1.
         11    1    3    3    0    0  0.50747267957E+01 -0.13491622163E+02 -0.10965326425E+02  0.18111187275E+02  0.51100000000E-03 0. -1.
        -11    1    3    3    0    0  0.20836787765E+02 -0.35396855983E+00 -0.17075929714E+02  0.26942241814E+02  0.51100000000E-03 0.  1.
         12    1    3    3    0    0  0.23359458882E+01  0.49487571089E+01  0.18279871386E+00  0.54754228591E+01  0.00000000000E+00 0. -1.
</event>
<event>
 7    1  0.6889665E-012  0.5052886E+02  0.7816164E-02  0.1300439E+00
        -11   -1    0    0    0    0  0.00000000000E+00  0.00000000000E+00  0.45593999997E+02  0.45594000000E+02  0.51100000000E-03 0. -1.
         11   -1    0    0    0    0 -0.00000000000E+00 -0.00000000000E+00 -0.45593999997E+02  0.45594000000E+02  0.51100000000E-03 0.  1.
    9900012    2    1    2    0    0 -0.14447815605E+02  0.20813867824E+01  0.37948568732E+02  0.50528863075E+02  0.30000009803E+02 0.  0.
        -12    1    1    2    0    0  0.14447815605E+02 -0.20813867824E+01 -0.37948568732E+02  0.40659136925E+02  0.00000000000E+00 0.  1.
         11    1    3    3    0    0 -0.19371154496E+02  0.62259333806E+01  0.32292741583E+02  0.38168377385E+02  0.51100000000E-03 0. -1.
        -11    1    3    3    0    0  0.16811064385E+01 -0.53361200127E+01  0.67218348966E+01  0.87454765614E+01  0.51100000000E-03 0.  1.
         12    1    3    3    0    0  0.32422324531E+01  0.11915734145E+01 -0.10660077483E+01  0.36150091288E+01  0.00000000000E+00 0. -1.
</event>
<event>
 7    1  0.6889665E-012  0.5052881E+02  0.7816164E-02  0.1300439E+00
        -11   -1    0    0    0    0  0.00000000000E+00  0.00000000000E+00  0.45593999997E+02  0.45594000000E+02  0.51100000000E-03 0. -1.
         11   -1    0    0    0    0 -0.00000000000E+00 -0.00000000000E+00 -0.45593999997E+02  0.45594000000E+02  0.51100000000E-03 0.  1.
    9900012    2    1    2    0    0  0.11350220513E+02 -0.23820473757E+02  0.30934236888E+02  0.50528812999E+02  0.29999857592E+02 0.  0.
        -12    1    1    2    0    0 -0.11350220513E+02  0.23820473757E+02 -0.30934236888E+02  0.40659187001E+02  0.00000000000E+00 0.  1.
         11    1    3    3    0    0 -0.17734713531E+00  0.46668270840E+01  0.39161071430E+01  0.60948029054E+01  0.51100000000E-03 0.  1.
        -11    1    3    3    0    0  0.14604509679E+02 -0.26862369252E+02  0.27236387938E+02  0.40947520230E+02  0.51100000000E-03 0. -1.
        -12    1    3    3    0    0 -0.30769420312E+01 -0.16249315889E+01 -0.21825819303E+00  0.34864898639E+01  0.00000000000E+00 0.  1.
</event>
<event>
 7    1  0.6889665E-012  0.5052874E+02  0.7816164E-02  0.1300439E+00
        -11   -1    0    0    0    0  0.00000000000E+00  0.00000000000E+00  0.45593999997E+02  0.45594000000E+02  0.51100000000E-03 0. -1.
         11   -1    0    0    0    0 -0.00000000000E+00 -0.00000000000E+00 -0.45593999997E+02  0.45594000000E+02  0.51100000000E-03 0.  1.
    9900012    2    1    2    0    0  0.10539034589E+02 -0.18041745279E+02 -0.34879793401E+02  0.50528735244E+02  0.29999621246E+02 0.  0.
         12    1    1    2    0    0 -0.10539034589E+02  0.18041745279E+02  0.34879793401E+02  0.40659264756E+02  0.00000000000E+00 0. -1.
         11    1    3    3    0    0 -0.17900829038E+01  0.10557534114E+01  0.13581586634E+01  0.24826613310E+01  0.51100000000E-03 0. -1.
        -11    1    3    3    0    0  0.15268557386E+02 -0.91268846475E+01 -0.32406254418E+02  0.36967474808E+02  0.51100000000E-03 0.  1.
        -12    1    3    3    0    0 -0.29394398931E+01 -0.99706140432E+01 -0.38316976461E+01  0.11078599105E+02  0.00000000000E+00 0.  1.
</event>
<event>
 7    1  0.6889665E-012  0.5052887E+02  0.7816164E-02  0.1300439E+00
        -11   -1    0    0    0    0  0.00000000000E+00  0.00000000000E+00  0.45593999997E+02  0.45594000000E+02  0.51100000000E-03 0. -1.
         11   -1    0    0    0    0 -0.00000000000E+00 -0.00000000000E+00 -0.45593999997E+02  0.45594000000E+02  0.51100000000E-03 0.  1.
    9900012    2    1    2    0    0  0.13246209413E+02  0.18012420960E+02  0.33959620802E+02  0.50528865508E+02  0.30000017198E+02 0.  0.
        -12    1    1    2    0    0 -0.13246209413E+02 -0.18012420960E+02 -0.33959620802E+02  0.40659134492E+02  0.00000000000E+00 0.  1.
         11    1    3    3    0    0  0.52466684063E+01 -0.74112791264E+01  0.98946492250E+01  0.13429768099E+02  0.51100000000E-03 0. -1.
        -11    1    3    3    0    0  0.70376819409E+01  0.15763902472E+02  0.98205585062E+01  0.19861343305E+02  0.51100000000E-03 0.  1.
         12    1    3    3    0    0  0.96185906605E+00  0.96597976144E+01  0.14244413070E+02  0.17237754104E+02  0.00000000000E+00 0. -1.
</event>
<event>
 7    1  0.6889665E-012  0.5052886E+02  0.7816164E-02  0.1300439E+00
        -11   -1    0    0    0    0  0.00000000000E+00  0.00000000000E+00  0.45593999997E+02  0.45594000000E+02  0.51100000000E-03 0. -1.
         11   -1    0    0    0    0 -0.00000000000E+00 -0.00000000000E+00 -0.45593999997E+02  0.45594000000E+02  0.51100000000E-03 0.  1.
    9900012    2    1    2    0    0  0.15840690763E+01 -0.10858037800E+02  0.39150472149E+02  0.50528859218E+02  0.29999998078E+02 0.  0.
        -12    1    1    2    0    0 -0.15840690763E+01  0.10858037800E+02 -0.39150472149E+02  0.40659140782E+02  0.00000000000E+00 0.  1.
         11    1    3    3    0    0 -0.43916856121E+01  0.44770368144E+01  0.19989738405E+02  0.20950427273E+02  0.51100000000E-03 0. -1.
        -11    1    3    3    0    0  0.62592260724E+01 -0.17407155624E+02  0.20072997726E+02  0.27296743687E+02  0.51100000000E-03 0.  1.
        -12    1    3    3    0    0 -0.28347138401E+00  0.20720810092E+01 -0.91226398212E+00  0.22816882581E+01  0.00000000000E+00 0.  1.
</event>
<event>
 7    1  0.6889665E-012  0.5052885E+02  0.7816164E-02  0.1300439E+00
        -11   -1    0    0    0    0  0.00000000000E+00  0.00000000000E+00  0.45593999997E+02  0.45594000000E+02  0.51100000000E-03 0. -1.
         11   -1    0    0    0    0 -0.00000000000E+00 -0.00000000000E+00 -0.45593999997E+02  0.45594000000E+02  0.51100000000E-03 0.  1.
    9900012    2    1    2    0    0  0.11327636671E+02  0.51463835419E+01 -0.38708731597E+02  0.50528849518E+02  0.29999968594E+02 0.  0.
         12    1    1    2    0    0 -0.11327636671E+02 -0.51463835419E+01  0.38708731597E+02  0.40659150482E+02  0.00000000000E+00 0. -1.
         11    1    3    3    0    0  0.33381533781E+01  0.16541120367E+02 -0.14045539850E+02  0.21955161600E+02  0.51100000000E-03 0. -1.
        -11    1    3    3    0    0  0.12077996204E+01 -0.26469893318E+01 -0.84970627954E+01  0.89813923673E+01  0.51100000000E-03 0.  1.
         12    1    3    3    0    0  0.67816836725E+01 -0.87477474931E+01 -0.16166128951E+02  0.19592295550E+02  0.00000000000E+00 0. -1.
</event>
<event>
 7    1  0.6889665E-012  0.5052883E+02  0.7816164E-02  0.1300439E+00
        -11   -1    0    0    0    0  0.00000000000E+00  0.00000000000E+00  0.45593999997E+02  0.45594000000E+02  0.51100000000E-03 0. -1.
         11   -1    0    0    0    0 -0.00000000000E+00 -0.00000000000E+00 -0.45593999997E+02  0.45594000000E+02  0.51100000000E-03 0.  1.
    9900012    2    1    2    0    0 -0.56215262335E+01 -0.15245637091E+02 -0.37271134973E+02  0.50528825024E+02  0.29999894144E+02 0.  0.
         12    1    1    2    0    0  0.56215262335E+01  0.15245637091E+02  0.37271134973E+02  0.40659174976E+02  0.00000000000E+00 0. -1.
         11    1    3    3    0    0  0.20332858201E+01 -0.66963594363E+01  0.36742755514E+01  0.79041623222E+01  0.51100000000E-03 0. -1.
        -11    1    3    3    0    0 -0.47932423799E+01 -0.42503651207E+01 -0.27115980661E+02  0.27862469087E+02  0.51100000000E-03 0.  1.
         12    1    3    3    0    0 -0.28615696736E+01 -0.42989125336E+01 -0.13829429864E+02  0.14762193615E+02  0.00000000000E+00 0. -1.
</event>
<event>
 7    1  0.6889665E-012  0.5052886E+02  0.7816164E-02  0.1300439E+00
        -11   -1    0    0    0    0  0.00000000000E+00  0.00000000000E+00  0.45593999997E+02  0.45594000000E+02  0.51100000000E-03 0. -1.
         11   -1    0    0    0    0 -0.00000000000E+00 -0.00000000000E+00 -0.45593999997E+02  0.45594000000E+02  0.51100000000E-03 0.  1.
    9900012    2    1    2    0    0  0.93909933607E+01  0.10469489561E+02  0.38149243392E+02  0.50528859093E+02  0.29999997699E+02 0.  0.
        -12    1    1    2    0    0 -0.93909933607E+01 -0.10469489561E+02 -0.38149243392E+02  0.40659140907E+02  0.00000000000E+00 0.  1.
         11    1    3    3    0    0  0.64746144184E+01 -0.19747297750E+00  0.37521318728E+01  0.74858614264E+01  0.51100000000E-03 0. -1.
        -11    1    3    3    0    0 -0.65507548365E+01 -0.43621525783E+01  0.79671157590E+01  0.11198915029E+02  0.51100000000E-03 0.  1.
        -12    1    3    3    0    0  0.94671337788E+01  0.15029115117E+02  0.26429995760E+02  0.31844082638E+02  0.00000000000E+00 0.  1.
</event>
<event>
 7    1  0.6889665E-012  0.5052888E+02  0.7816164E-02  0.1300439E+00
        -11   -1    0    0    0    0  0.00000000000E+00  0.00000000000E+00  0.45593999997E+02  0.45594000000E+02  0.51100000000E-03 0. -1.
         11   -1    0    0    0    0 -0.00000000000E+00 -0.00000000000E+00 -0.45593999997E+02  0.45594000000E+02  0.51100000000E-03 0.  1.
    9900012    2    1    2    0    0 -0.26443397956E+02 -0.15789052435E+02 -0.26544616929E+02  0.50528878512E+02  0.30000056724E+02 0.  0.
         12    1    1    2    0    0  0.26443397956E+02  0.15789052435E+02  0.26544616929E+02  0.40659121488E+02  0.00000000000E+00 0. -1.
         11    1    3    3    0    0 -0.60643764419E+00  0.78118220078E+00 -0.28737120097E+01  0.30391171782E+01  0.51100000000E-03 0. -1.
        -11    1    3    3    0    0 -0.16282566894E+02 -0.47435060456E+01 -0.27038745900E+02  0.31917340340E+02  0.51100000000E-03 0.  1.
        -12    1    3    3    0    0 -0.95543934176E+01 -0.11826728591E+02  0.33678409803E+01  0.15572420994E+02  0.00000000000E+00 0.  1.
</event>
<event>
 7    1  0.6889665E-012  0.5052887E+02  0.7816164E-02  0.1300439E+00
        -11   -1    0    0    0    0  0.00000000000E+00  0.00000000000E+00  0.45593999997E+02  0.45594000000E+02  0.51100000000E-03 0. -1.
         11   -1    0    0    0    0 -0.00000000000E+00 -0.00000000000E+00 -0.45593999997E+02  0.45594000000E+02  0.51100000000E-03 0.  1.
    9900012    2    1    2    0    0 -0.67581027768E+00 -0.22656069291E+02 -0.33755157991E+02  0.50528869583E+02  0.30000029584E+02 0.  0.
         12    1    1    2    0    0  0.67581027768E+00  0.22656069291E+02  0.33755157991E+02  0.40659130417E+02  0.00000000000E+00 0. -1.
         11    1    3    3    0    0  0.11117580273E+01  0.46228129494E+01 -0.16483435780E+02  0.17155467375E+02  0.51100000000E-03 0. -1.
        -11    1    3    3    0    0  0.26584030861E+01 -0.55232945810E+01 -0.20977796331E+01  0.64787784070E+01  0.51100000000E-03 0.  1.
         12    1    3    3    0    0 -0.44459713911E+01 -0.21755587660E+02 -0.15173942578E+02  0.26894623801E+02  0.00000000000E+00 0. -1.
</event>
<event>
 7    1  0.6889665E-012  0.5052889E+02  0.7816164E-02  0.1300439E+00
        -11   -1    0    0    0    0  0.00000000000E+00  0.00000000000E+00  0.45593999997E+02  0.45594000000E+02  0.51100000000E-03 0. -1.
         11   -1    0    0    0    0 -0.00000000000E+00 -0.00000000000E+00 -0.45593999997E+02  0.45594000000E+02  0.51100000000E-03 0.  1.
    9900012    2    1    2    0    0 -0.18445117639E+02  0.81495411166E+01  0.35306173985E+02  0.50528889009E+02  0.30000088632E+02 0.  0.
        -12    1    1    2    0    0  0.18445117639E+02 -0.81495411166E+01 -0.35306173985E+02  0.40659110991E+02  0.00000000000E+00 0.  1.
         11    1    3    3    0    0 -0.11945155989E+02  0.25644246343E+01  0.16432285079E+02  0.20476401503E+02  0.51100000000E-03 0. -1.
        -11    1    3    3    0    0 -0.12532770210E+01  0.10415897623E+02  0.68271064838E+00  0.10513216476E+02  0.51100000000E-03 0.  1.
        -12    1    3    3    0    0 -0.52466846287E+01 -0.48307811402E+01  0.18191178257E+02  0.19539271030E+02  0.00000000000E+00 0.  1.
</event>
<event>
 7    1  0.6889665E-012  0.5052887E+02  0.7816164E-02  0.1300439E+00
        -11   -1    0    0    0    0  0.00000000000E+00  0.00000000000E+00  0.45593999997E+02  0.45594000000E+02  0.51100000000E-03 0. -1.
         11   -1    0    0    0    0 -0.00000000000E+00 -0.00000000000E+00 -0.45593999997E+02  0.45594000000E+02  0.51100000000E-03 0.  1.
    9900012    2    1    2    0    0  0.16748928443E+02 -0.25121961976E+02  0.27230965442E+02  0.50528867490E+02  0.30000023223E+02 0.  0.
        -12    1    1    2    0    0 -0.16748928443E+02  0.25121961976E+02 -0.27230965442E+02  0.40659132510E+02  0.00000000000E+00 0.  1.
         11    1    3    3    0    0 -0.19925467216E+01 -0.96082286965E+01  0.22534158213E+02  0.24577969561E+02  0.51100000000E-03 0. -1.
        -11    1    3    3    0    0  0.17456378896E+02 -0.11090764489E+02  0.51778914106E+01  0.21319962027E+02  0.51100000000E-03 0.  1.
        -12    1    3    3    0    0  0.12850962690E+01 -0.44229687902E+01 -0.48108418107E+00  0.46309359021E+01  0.00000000000E+00 0.  1.
</event>
<event>
 7    1  0.6889665E-012  0.5052887E+02  0.7816164E-02  0.1300439E+00
        -11   -1    0    0    0    0  0.00000000000E+00  0.00000000000E+00  0.45593999997E+02  0.45594000000E+02  0.51100000000E-03 0. -1.
         11   -1    0    0    0    0 -0.00000000000E+00 -0.00000000000E+00 -0.45593999997E+02  0.45594000000E+02  0.51100000000E-03 0.  1.
    9900012    2    1    2    0    0  0.10339403475E+02 -0.17578454281E+02 -0.35174703236E+02  0.50528867362E+02  0.30000022835E+02 0.  0.
         12    1    1    2    0    0 -0.10339403475E+02  0.17578454281E+02  0.35174703236E+02  0.40659132638E+02  0.00000000000E+00 0. -1.
         11    1    3    3    0    0  0.29461078141E+01  0.43184411643E+01 -0.15061265949E+02  0.15942716757E+02  0.51100000000E-03 0. -1.
        -11    1    3    3    0    0 -0.36734784518E+00 -0.19525724739E+02 -0.17009044924E+02  0.25897808411E+02  0.51100000000E-03 0.  1.
        -12    1    3    3    0    0  0.77606435060E+01 -0.23711707063E+01 -0.31043923627E+01  0.86883421944E+01  0.00000000000E+00 0.  1.
</event>
<event>
 7    1  0.6889665E-012  0.5052886E+02  0.7816164E-02  0.1300439E+00
        -11   -1    0    0    0    0  0.00000000000E+00  0.00000000000E+00  0.45593999997E+02  0.45594000000E+02  0.51100000000E-03 0. -1.
         11   -1    0    0    0    0 -0.00000000000E+00 -0.00000000000E+00 -0.45593999997E+02  0.45594000000E+02  0.51100000000E-03 0.  1.
    9900012    2    1    2    0    0 -0.69070984274E+01  0.35598011762E+02  0.18391283435E+02  0.50528858882E+02  0.29999997058E+02 0.  0.
        -12    1    1    2    0    0  0.69070984274E+01 -0.35598011762E+02 -0.18391283435E+02  0.40659141118E+02  0.00000000000E+00 0.  1.
         11    1    3    3    0    0 -0.84290194818E+01  0.32675274643E+02  0.54049364192E+01  0.34175068111E+02  0.51100000000E-03 0. -1.
        -11    1    3    3    0    0  0.23902828096E+01 -0.33344150110E+00 -0.48983379882E+00  0.24626352868E+01  0.51100000000E-03 0.  1.
         12    1    3    3    0    0 -0.86836175524E+00  0.32561786193E+01  0.13476180814E+02  0.13891155484E+02  0.00000000000E+00 0. -1.
</event>
<event>
 7    1  0.6889665E-012  0.5052882E+02  0.7816164E-02  0.1300439E+00
        -11   -1    0    0    0    0  0.00000000000E+00  0.00000000000E+00  0.45593999997E+02  0.45594000000E+02  0.51100000000E-03 0. -1.
         11   -1    0    0    0    0 -0.00000000000E+00 -0.00000000000E+00 -0.45593999997E+02  0.45594000000E+02  0.51100000000E-03 0.  1.
    9900012    2    1    2    0    0  0.30909536360E+00  0.10355876765E+02  0.39317035989E+02  0.50528818473E+02  0.29999874230E+02 0.  0.
        -12    1    1    2    0    0 -0.30909536360E+00 -0.10355876765E+02 -0.39317035989E+02  0.40659181527E+02  0.00000000000E+00 0.  1.
         11    1    3    3    0    0 -0.11242444626E+02  0.66711618353E+01  0.26811089674E+02  0.29828367223E+02  0.51100000000E-03 0. -1.
        -11    1    3    3    0    0  0.69585483632E+01  0.81155771813E+00 -0.71228274706E-01  0.70060755764E+01  0.51100000000E-03 0.  1.
         12    1    3    3    0    0  0.45929916266E+01  0.28731572113E+01  0.12577174589E+02  0.13694375674E+02  0.00000000000E+00 0. -1.
</event>
<event>
 7    1  0.6889665E-012  0.5052887E+02  0.7816164E-02  0.1300439E+00
        -11   -1    0    0    0    0  0.00000000000E+00  0.00000000000E+00  0.45593999997E+02  0.45594000000E+02  0.51100000000E-03 0. -1.
         11   -1    0    0    0    0 -0.00000000000E+00 -0.00000000000E+00 -0.45593999997E+02  0.45594000000E+02  0.51100000000E-03 0.  1.
    9900012    2    1    2    0    0  0.13507591735E+02  0.15178590591E+02  0.35218178820E+02  0.50528871059E+02  0.30000034072E+02 0.  0.
        -12    1    1    2    0    0 -0.13507591735E+02 -0.15178590591E+02 -0.35218178820E+02  0.40659128941E+02  0.00000000000E+00 0.  1.
         11    1    3    3    0    0  0.56034007546E+01  0.17955443663E+02  0.12355702506E+02  0.22504653781E+02  0.51100000000E-03 0. -1.
        -11    1    3    3    0    0  0.11928770908E+02 -0.18645590659E+01  0.16685383213E+02  0.20595489047E+02  0.51100000000E-03 0.  1.
        -12    1    3    3    0    0 -0.40245799274E+01 -0.91229400566E+00  0.61770931017E+01  0.74287282311E+01  0.00000000000E+00 0.  1.
</event>
<event>
 7    1  0.9808219E-012  0.5052887E+02  0.7816164E-02  0.1300439E+00
        -11   -1    0    0    0    0  0.00000000000E+00  0.00000000000E+00  0.45593999997E+02  0.45594000000E+02  0.51100000000E-03 0. -1.
         11   -1    0    0    0    0 -0.00000000000E+00 -0.00000000000E+00 -0.45593999997E+02  0.45594000000E+02  0.51100000000E-03 0.  1.
    9900012    2    1    2    0    0  0.95681041194E+01 -0.16512988027E+02  0.35901776790E+02  0.50528868594E+02  0.30000026577E+02 0.  0.
        -12    1    1    2    0    0 -0.95681041194E+01  0.16512988027E+02 -0.35901776790E+02  0.40659131406E+02  0.00000000000E+00 0.  1.
         11    1    3    3    0    0  0.15419525044E+01 -0.18575135103E+02  0.28490453388E+02  0.34045839630E+02  0.51100000000E-03 0. -1.
        -11    1    3    3    0    0  0.43610634406E+01 -0.31361778755E+01 -0.14606156777E+01  0.55666762452E+01  0.51100000000E-03 0.  1.
         12    1    3    3    0    0  0.36650881744E+01  0.51983249514E+01  0.88719390803E+01  0.10916352718E+02  0.00000000000E+00 0. -1.
</event>
<event>
 7    1  0.6889665E-012  0.5052885E+02  0.7816164E-02  0.1300439E+00
        -11   -1    0    0    0    0  0.00000000000E+00  0.00000000000E+00  0.45593999997E+02  0.45594000000E+02  0.51100000000E-03 0. -1.
         11   -1    0    0    0    0 -0.00000000000E+00 -0.00000000000E+00 -0.45593999997E+02  0.45594000000E+02  0.51100000000E-03 0.  1.
    9900012    2    1    2    0    0  0.17390197012E+02  0.14059448495E+02 -0.33957018017E+02  0.50528854452E+02  0.29999983591E+02 0.  0.
         12    1    1    2    0    0 -0.17390197012E+02 -0.14059448495E+02  0.33957018017E+02  0.40659145548E+02  0.00000000000E+00 0. -1.
         11    1    3    3    0    0 -0.29857434727E+01 -0.37714653141E+01 -0.19616468904E+01  0.51948699199E+01  0.51100000000E-03 0. -1.
        -11    1    3    3    0    0  0.22319216020E+02  0.19390765787E+02 -0.30195086704E+02  0.42259820905E+02  0.51100000000E-03 0.  1.
        -12    1    3    3    0    0 -0.19432755359E+01 -0.15598519781E+01 -0.18002844226E+01  0.30741636268E+01  0.00000000000E+00 0.  1.
</event>
<event>
 7    1  0.6889665E-012  0.5052881E+02  0.7816164E-02  0.1300439E+00
        -11   -1    0    0    0    0  0.00000000000E+00  0.00000000000E+00  0.45593999997E+02  0.45594000000E+02  0.51100000000E-03 0. -1.
         11   -1    0    0    0    0 -0.00000000000E+00 -0.00000000000E+00 -0.45593999997E+02  0.45594000000E+02  0.51100000000E-03 0.  1.
    9900012    2    1    2    0    0  0.97502393604E+01 -0.23413299515E+02  0.31779233530E+02  0.50528813516E+02  0.29999859164E+02 0.  0.
        -12    1    1    2    0    0 -0.97502393604E+01  0.23413299515E+02 -0.31779233530E+02  0.40659186484E+02  0.00000000000E+00 0.  1.
         11    1    3    3    0    0 -0.55684890003E+00 -0.32021900870E-01  0.55247212040E-01  0.56049854162E+00  0.51100000000E-03 0. -1.
        -11    1    3    3    0    0 -0.49526743755E+01 -0.11035360851E+02  0.27282272057E+02  0.29843433807E+02  0.51100000000E-03 0.  1.
        -12    1    3    3    0    0  0.15259762636E+02 -0.12345916763E+02  0.44417142614E+01  0.20124881167E+02  0.00000000000E+00 0.  1.
</event>
<event>
 7    1  0.6889665E-012  0.5052886E+02  0.7816164E-02  0.1300439E+00
        -11   -1    0    0    0    0  0.00000000000E+00  0.00000000000E+00  0.45593999997E+02  0.45594000000E+02  0.51100000000E-03 0. -1.
         11   -1    0    0    0    0 -0.00000000000E+00 -0.00000000000E+00 -0.45593999997E+02  0.45594000000E+02  0.51100000000E-03 0.  1.
    9900012    2    1    2    0    0  0.10999184896E+02 -0.83911581220E+00  0.39134123356E+02  0.50528858413E+02  0.29999995633E+02 0.  0.
        -12    1    1    2    0    0 -0.10999184896E+02  0.83911581220E+00 -0.39134123356E+02  0.40659141587E+02  0.00000000000E+00 0.  1.
         11    1    3    3    0    0  0.18508247052E+02 -0.82895582440E+01  0.29678603711E+02  0.35945674334E+02  0.51100000000E-03 0. -1.
        -11    1    3    3    0    0 -0.27600752740E+01  0.44364175865E+01  0.30154337235E+01  0.60326327024E+01  0.51100000000E-03 0.  1.
         12    1    3    3    0    0 -0.47489868822E+01  0.30140248453E+01  0.64400859212E+01  0.85505513768E+01  0.00000000000E+00 0. -1.
</event>
<event>
 7    1  0.6889665E-012  0.5052886E+02  0.7816164E-02  0.1300439E+00
        -11   -1    0    0    0    0  0.00000000000E+00  0.00000000000E+00  0.45593999997E+02  0.45594000000E+02  0.51100000000E-03 0.  1.
         11   -1    0    0    0    0 -0.00000000000E+00 -0.00000000000E+00 -0.45593999997E+02  0.45594000000E+02  0.51100000000E-03 0. -1.
    9900012    2    1    2    0    0  0.23058424014E+01  0.38665779242E+02 -0.12361473377E+02  0.50528863049E+02  0.30000009722E+02 0.  0.
         12    1    1    2    0    0 -0.23058424014E+01 -0.38665779242E+02  0.12361473377E+02  0.40659136951E+02  0.00000000000E+00 0. -1.
         11    1    3    3    0    0 -0.34408317203E+00  0.23738946221E+02 -0.10713189237E+02  0.26046657843E+02  0.51100000000E-03 0. -1.
        -11    1    3    3    0    0  0.70466111592E+01  0.15574113841E+02  0.37392423742E+01  0.17498276617E+02  0.51100000000E-03 0.  1.
         12    1    3    3    0    0 -0.43966855858E+01 -0.64728081936E+00 -0.53875265138E+01  0.69839285890E+01  0.00000000000E+00 0. -1.
</event>
<event>
 7    1  0.6889665E-012  0.5052885E+02  0.7816164E-02  0.1300439E+00
        -11   -1    0    0    0    0  0.00000000000E+00  0.00000000000E+00  0.45593999997E+02  0.45594000000E+02  0.51100000000E-03 0. -1.
         11   -1    0    0    0    0 -0.00000000000E+00 -0.00000000000E+00 -0.45593999997E+02  0.45594000000E+02  0.51100000000E-03 0.  1.
    9900012    2    1    2    0    0  0.26564084174E+02  0.11397398382E+02  0.28593966309E+02  0.50528853832E+02  0.29999981707E+02 0.  0.
        -12    1    1    2    0    0 -0.26564084174E+02 -0.11397398382E+02 -0.28593966309E+02  0.40659146168E+02  0.00000000000E+00 0.  1.
         11    1    3    3    0    0  0.16451698600E+02  0.51084223104E+01  0.30555152733E+02  0.35076654973E+02  0.51100000000E-03 0. -1.
        -11    1    3    3    0    0  0.61442917695E+01  0.65732771773E+01 -0.51377487344E+01  0.10361310560E+02  0.51100000000E-03 0.  1.
        -12    1    3    3    0    0  0.39680938043E+01 -0.28430110557E+00  0.31765623105E+01  0.50908882988E+01  0.00000000000E+00 0.  1.
</event>
<event>
 7    1  0.6889665E-012  0.5052885E+02  0.7816164E-02  0.1300439E+00
        -11   -1    0    0    0    0  0.00000000000E+00  0.00000000000E+00  0.45593999997E+02  0.45594000000E+02  0.51100000000E-03 0. -1.
         11   -1    0    0    0    0 -0.00000000000E+00 -0.00000000000E+00 -0.45593999997E+02  0.45594000000E+02  0.51100000000E-03 0.  1.
    9900012    2    1    2    0    0  0.31431068993E+02 -0.20788184362E+02 -0.15267796208E+02  0.50528852098E+02  0.29999976436E+02 0.  0.
         12    1    1    2    0    0 -0.31431068993E+02  0.20788184362E+02  0.15267796208E+02  0.40659147902E+02  0.00000000000E+00 0. -1.
         11    1    3    3    0    0 -0.49169236163E+01 -0.18672322498E+00 -0.25597356606E+01  0.55464628661E+01  0.51100000000E-03 0. -1.
        -11    1    3    3    0    0  0.17528843954E+02 -0.14468028788E+02 -0.29653464718E+01  0.22921114880E+02  0.51100000000E-03 0.  1.
         12    1    3    3    0    0  0.18819148655E+02 -0.61334323497E+01 -0.97427140753E+01  0.22061274352E+02  0.00000000000E+00 0. -1.
</event>
<event>
 7    1  0.6889665E-012  0.5052886E+02  0.7816164E-02  0.1300439E+00
        -11   -1    0    0    0    0  0.00000000000E+00  0.00000000000E+00  0.45593999997E+02  0.45594000000E+02  0.51100000000E-03 0. -1.
         11   -1    0    0    0    0 -0.00000000000E+00 -0.00000000000E+00 -0.45593999997E+02  0.45594000000E+02  0.51100000000E-03 0.  1.
    9900012    2    1    2    0    0  0.32668067102E+02  0.78199483866E+01  0.22908761822E+02  0.50528861185E+02  0.30000004058E+02 0.  0.
        -12    1    1    2    0    0 -0.32668067102E+02 -0.78199483866E+01 -0.22908761822E+02  0.40659138815E+02  0.00000000000E+00 0.  1.
         11    1    3    3    0    0  0.20123355452E+02  0.38471866627E+01  0.17315664341E+02  0.26825035167E+02  0.51100000000E-03 0. -1.
        -11    1    3    3    0    0 -0.39855359602E+01 -0.84486667672E+00  0.50349521141E+01  0.64768078283E+01  0.51100000000E-03 0.  1.
        -12    1    3    3    0    0  0.16530247610E+02  0.48176284006E+01  0.55814536709E+00  0.17227018190E+02  0.00000000000E+00 0.  1.
</event>
<event>
 7    1  0.6889665E-012  0.5052887E+02  0.7816164E-02  0.1300439E+00
        -11   -1    0    0    0    0  0.00000000000E+00  0.00000000000E+00  0.45593999997E+02  0.45594000000E+02  0.51100000000E-03 0. -1.
         11   -1    0    0    0    0 -0.00000000000E+00 -0.00000000000E+00 -0.45593999997E+02  0.45594000000E+02  0.51100000000E-03 0.  1.
    9900012    2    1    2    0    0 -0.31298221361E+02 -0.12084943580E+02  0.22968247636E+02  0.50528869154E+02  0.30000028280E+02 0.  0.
        -12    1    1    2    0    0  0.31298221361E+02  0.12084943580E+02 -0.22968247636E+02  0.40659130846E+02  0.00000000000E+00 0.  1.
         11    1    3    3    0    0 -0.11693464953E+02 -0.17771185913E+02  0.49266211432E+01  0.21836294729E+02  0.51100000000E-03 0. -1.
        -11    1    3    3    0    0 -0.68456168191E+01  0.60546531889E+01  0.48896632437E+01  0.10364849337E+02  0.51100000000E-03 0.  1.
         12    1    3    3    0    0 -0.12759139588E+02 -0.36841085653E+00  0.13151963249E+02  0.18327725088E+02  0.00000000000E+00 0. -1.
</event>
<event>
 7    1  0.6889665E-012  0.5052886E+02  0.7816164E-02  0.1300439E+00
        -11   -1    0    0    0    0  0.00000000000E+00  0.00000000000E+00  0.45593999997E+02  0.45594000000E+02  0.51100000000E-03 0. -1.
         11   -1    0    0    0    0 -0.00000000000E+00 -0.00000000000E+00 -0.45593999997E+02  0.45594000000E+02  0.51100000000E-03 0.  1.
    9900012    2    1    2    0    0 -0.14086102912E+02 -0.12298398215E+02 -0.36103973894E+02  0.50528858041E+02  0.29999994500E+02 0.  0.
         12    1    1    2    0    0  0.14086102912E+02  0.12298398215E+02  0.36103973894E+02  0.40659141959E+02  0.00000000000E+00 0. -1.
         11    1    3    3    0    0  0.54043755945E+01 -0.11438353901E+01 -0.20694570251E+02  0.21419170692E+02  0.51100000000E-03 0. -1.
        -11    1    3    3    0    0 -0.27766910223E+01 -0.55386105875E+01 -0.87058292594E+00  0.62565274047E+01  0.51100000000E-03 0.  1.
         12    1    3    3    0    0 -0.16713787484E+02 -0.56159522378E+01 -0.14538820717E+02  0.22853159944E+02  0.00000000000E+00 0. -1.
</event>
<event>
 7    1  0.6889665E-012  0.5052887E+02  0.7816164E-02  0.1300439E+00
        -11   -1    0    0    0    0  0.00000000000E+00  0.00000000000E+00  0.45593999997E+02  0.45594000000E+02  0.51100000000E-03 0. -1.
         11   -1    0    0    0    0 -0.00000000000E+00 -0.00000000000E+00 -0.45593999997E+02  0.45594000000E+02  0.51100000000E-03 0.  1.
    9900012    2    1    2    0    0  0.33786597765E+02  0.66723459471E+01  0.21612740419E+02  0.50528868955E+02  0.30000027675E+02 0.  0.
        -12    1    1    2    0    0 -0.33786597765E+02 -0.66723459471E+01 -0.21612740419E+02  0.40659131045E+02  0.00000000000E+00 0.  1.
         11    1    3    3    0    0  0.66002870032E+01  0.52782195325E+01  0.17047755402E+02  0.19027594553E+02  0.51100000000E-03 0. -1.
        -11    1    3    3    0    0  0.18356539205E+02  0.39236472912E+01 -0.37148332339E+01  0.19135243032E+02  0.51100000000E-03 0.  1.
        -12    1    3    3    0    0  0.88297715561E+01 -0.25295208766E+01  0.82798182503E+01  0.12366031371E+02  0.00000000000E+00 0.  1.
</event>
<event>
 7    1  0.6889665E-012  0.5052886E+02  0.7816164E-02  0.1300439E+00
        -11   -1    0    0    0    0  0.00000000000E+00  0.00000000000E+00  0.45593999997E+02  0.45594000000E+02  0.51100000000E-03 0. -1.
         11   -1    0    0    0    0 -0.00000000000E+00 -0.00000000000E+00 -0.45593999997E+02  0.45594000000E+02  0.51100000000E-03 0.  1.
    9900012    2    1    2    0    0 -0.27161083345E+02  0.27325086987E+02 -0.12991571472E+02  0.50528858880E+02  0.29999997051E+02 0.  0.
         12    1    1    2    0    0  0.27161083345E+02 -0.27325086987E+02  0.12991571472E+02  0.40659141120E+02  0.00000000000E+00 0. -1.
         11    1    3    3    0    0 -0.33344863475E+01 -0.15268462625E+01  0.59761469977E+00  0.37158043949E+01  0.51100000000E-03 0. -1.
        -11    1    3    3    0    0 -0.23476477081E+01  0.13773230787E+02 -0.15041593903E+02  0.20529561210E+02  0.51100000000E-03 0.  1.
        -12    1    3    3    0    0 -0.21478949289E+02  0.15078702462E+02  0.14524077304E+01  0.26283493275E+02  0.00000000000E+00 0.  1.
</event>
<event>
 7    1  0.6889665E-012  0.5052886E+02  0.7816164E-02  0.1300439E+00
        -11   -1    0    0    0    0  0.00000000000E+00  0.00000000000E+00  0.45593999997E+02  0.45594000000E+02  0.51100000000E-03 0.  1.
         11   -1    0    0    0    0 -0.00000000000E+00 -0.00000000000E+00 -0.45593999997E+02  0.45594000000E+02  0.51100000000E-03 0. -1.
    9900012    2    1    2    0    0 -0.24246982471E+02 -0.31198240729E+02  0.95874400633E+01  0.50528863382E+02  0.30000010737E+02 0.  0.
        -12    1    1    2    0    0  0.24246982471E+02  0.31198240729E+02 -0.95874400633E+01  0.40659136618E+02  0.00000000000E+00 0.  1.
         11    1    3    3    0    0  0.21314421613E+01 -0.12555044383E+02  0.60380202762E+01  0.14093611115E+02  0.51100000000E-03 0. -1.
        -11    1    3    3    0    0 -0.20012278936E+02 -0.14506800256E+02  0.98121373329E+01  0.26593544351E+02  0.51100000000E-03 0.  1.
         12    1    3    3    0    0 -0.63661456965E+01 -0.41363960900E+01 -0.62627175457E+01  0.98417079158E+01  0.00000000000E+00 0. -1.
</event>
<event>
 7    1  0.6889665E-012  0.5052886E+02  0.7816164E-02  0.1300439E+00
        -11   -1    0    0    0    0  0.00000000000E+00  0.00000000000E+00  0.45593999997E+02  0.45594000000E+02  0.51100000000E-03 0. -1.
         11   -1    0    0    0    0 -0.00000000000E+00 -0.00000000000E+00 -0.45593999997E+02  0.45594000000E+02  0.51100000000E-03 0.  1.
    9900012    2    1    2    0    0 -0.17789502522E+02 -0.23038525542E+02  0.28388822879E+02  0.50528864205E+02  0.30000013238E+02 0.  0.
        -12    1    1    2    0    0  0.17789502522E+02  0.23038525542E+02 -0.28388822879E+02  0.40659135795E+02  0.00000000000E+00 0.  1.
         11    1    3    3    0    0 -0.64003765004E+01 -0.10349376290E+02 -0.25800079839E+01  0.12439085594E+02  0.51100000000E-03 0. -1.
        -11    1    3    3    0    0  0.14944802918E+01  0.54976757151E+00 -0.43922330850E+00  0.16518574700E+01  0.51100000000E-03 0.  1.
         12    1    3    3    0    0 -0.12883606313E+02 -0.13238916823E+02  0.31408054171E+02  0.36437921142E+02  0.00000000000E+00 0. -1.
</event>
<event>
 7    1  0.6889665E-012  0.5052888E+02  0.7816164E-02  0.1300439E+00
        -11   -1    0    0    0    0  0.00000000000E+00  0.00000000000E+00  0.45593999997E+02  0.45594000000E+02  0.51100000000E-03 0. -1.
         11   -1    0    0    0    0 -0.00000000000E+00 -0.00000000000E+00 -0.45593999997E+02  0.45594000000E+02  0.51100000000E-03 0.  1.
    9900012    2    1    2    0    0  0.33612586938E+02  0.79813755010E+01 -0.21439574455E+02  0.50528884068E+02  0.30000073613E+02 0.  0.
         12    1    1    2    0    0 -0.33612586938E+02 -0.79813755010E+01  0.21439574455E+02  0.40659115932E+02  0.00000000000E+00 0. -1.
         11    1    3    3    0    0  0.29617181729E+02  0.92445122076E+00 -0.13792248646E+02  0.32684219229E+02  0.51100000000E-03 0. -1.
        -11    1    3    3    0    0  0.52176987633E+01  0.63345257468E+01 -0.11277051014E+02  0.13947131485E+02  0.51100000000E-03 0.  1.
         12    1    3    3    0    0 -0.12222935541E+01  0.72239853345E+00  0.36297252057E+01  0.38975333537E+01  0.00000000000E+00 0. -1.
</event>
<event>
 7    1  0.6889665E-012  0.5052885E+02  0.7816164E-02  0.1300439E+00
        -11   -1    0    0    0    0  0.00000000000E+00  0.00000000000E+00  0.45593999997E+02  0.45594000000E+02  0.51100000000E-03 0.  1.
         11   -1    0    0    0    0 -0.00000000000E+00 -0.00000000000E+00 -0.45593999997E+02  0.45594000000E+02  0.51100000000E-03 0. -1.
    9900012    2    1    2    0    0  0.10205417727E+02 -0.39225762946E+02 -0.32179467814E+01  0.50528853290E+02  0.29999980061E+02 0.  0.
         12    1    1    2    0    0 -0.10205417727E+02  0.39225762946E+02  0.32179467814E+01  0.40659146710E+02  0.00000000000E+00 0. -1.
         11    1    3    3    0    0  0.81074447836E+01 -0.57611656158E+01  0.21602609152E+01  0.10177839538E+02  0.51100000000E-03 0. -1.
        -11    1    3    3    0    0 -0.56101251357E+01 -0.77536325610E+01 -0.91561502223E+01  0.13244901249E+02  0.51100000000E-03 0.  1.
        -12    1    3    3    0    0  0.77080980787E+01 -0.25710964769E+02  0.37779425257E+01  0.27106112504E+02  0.00000000000E+00 0.  1.
</event>
<event>
 7    1  0.6889665E-012  0.5052894E+02  0.7816164E-02  0.1300438E+00
        -11   -1    0    0    0    0  0.00000000000E+00  0.00000000000E+00  0.45593999997E+02  0.45594000000E+02  0.51100000000E-03 0. -1.
         11   -1    0    0    0    0 -0.00000000000E+00 -0.00000000000E+00 -0.45593999997E+02  0.45594000000E+02  0.51100000000E-03 0.  1.
    9900012    2    1    2    0    0  0.12515988698E+02  0.12490449911E+02 -0.36612805010E+02  0.50528944394E+02  0.30000256980E+02 0.  0.
         12    1    1    2    0    0 -0.12515988698E+02 -0.12490449911E+02  0.36612805010E+02  0.40659055606E+02  0.00000000000E+00 0. -1.
         11    1    3    3    0    0 -0.65324865512E+01  0.77987833059E+00 -0.39320136521E+01  0.76643540089E+01  0.51100000000E-03 0. -1.
        -11    1    3    3    0    0  0.17646338634E+02  0.45605504133E+01 -0.29996610119E+02  0.35099693819E+02  0.51100000000E-03 0.  1.
        -12    1    3    3    0    0  0.14021366154E+01  0.71500211667E+01 -0.26841812384E+01  0.77648965668E+01  0.00000000000E+00 0.  1.
</event>
<event>
 7    1  0.6889665E-012  0.5052886E+02  0.7816164E-02  0.1300439E+00
        -11   -1    0    0    0    0  0.00000000000E+00  0.00000000000E+00  0.45593999997E+02  0.45594000000E+02  0.51100000000E-03 0. -1.
         11   -1    0    0    0    0 -0.00000000000E+00 -0.00000000000E+00 -0.45593999997E+02  0.45594000000E+02  0.51100000000E-03 0.  1.
    9900012    2    1    2    0    0 -0.16542001398E+02  0.14776710126E+01  0.37112590363E+02  0.50528859757E+02  0.29999999716E+02 0.  0.
        -12    1    1    2    0    0  0.16542001398E+02 -0.14776710126E+01 -0.37112590363E+02  0.40659140243E+02  0.00000000000E+00 0.  1.
         11    1    3    3    0    0 -0.14003939809E+01 -0.10844743405E+02  0.14448580071E+02  0.18119906985E+02  0.51100000000E-03 0. -1.
        -11    1    3    3    0    0 -0.15077298040E+02  0.94553312860E+01  0.12245089420E+02  0.21602555892E+02  0.51100000000E-03 0.  1.
        -12    1    3    3    0    0 -0.64309377259E-01  0.28670831315E+01  0.10418920872E+02  0.10806396879E+02  0.00000000000E+00 0.  1.
</event>
<event>
 7    1  0.6889665E-012  0.5052887E+02  0.7816164E-02  0.1300439E+00
        -11   -1    0    0    0    0  0.00000000000E+00  0.00000000000E+00  0.45593999997E+02  0.45594000000E+02  0.51100000000E-03 0. -1.
         11   -1    0    0    0    0 -0.00000000000E+00 -0.00000000000E+00 -0.45593999997E+02  0.45594000000E+02  0.51100000000E-03 0.  1.
    9900012    2    1    2    0    0 -0.36167754305E+02  0.81286916304E+01 -0.16702778794E+02  0.50528869432E+02  0.30000029126E+02 0.  0.
         12    1    1    2    0    0  0.36167754305E+02 -0.81286916304E+01  0.16702778794E+02  0.40659130568E+02  0.00000000000E+00 0. -1.
         11    1    3    3    0    0 -0.20112412584E+02  0.13002621699E+02 -0.32822555882E+01  0.24173343025E+02  0.51100000000E-03 0.  1.
        -11    1    3    3    0    0 -0.16040089385E+02 -0.87146193708E+01 -0.13164485240E+02  0.22506282016E+02  0.51100000000E-03 0. -1.
        -12    1    3    3    0    0 -0.15252336207E-01  0.38406893018E+01 -0.25603796508E+00  0.38492443916E+01  0.00000000000E+00 0.  1.
</event>
<event>
 7    1  0.6889665E-012  0.5052886E+02  0.7816164E-02  0.1300439E+00
        -11   -1    0    0    0    0  0.00000000000E+00  0.00000000000E+00  0.45593999997E+02  0.45594000000E+02  0.51100000000E-03 0. -1.
         11   -1    0    0    0    0 -0.00000000000E+00 -0.00000000000E+00 -0.45593999997E+02  0.45594000000E+02  0.51100000000E-03 0.  1.
    9900012    2    1    2    0    0 -0.16857732825E+02  0.14991349894E+02 -0.33826643991E+02  0.50528861158E+02  0.30000003976E+02 0.  0.
         12    1    1    2    0    0  0.16857732825E+02 -0.14991349894E+02  0.33826643991E+02  0.40659138842E+02  0.00000000000E+00 0. -1.
         11    1    3    3    0    0  0.50305857024E+01  0.41766334487E+01  0.52568372147E+00  0.65595276590E+01  0.51100000000E-03 0. -1.
        -11    1    3    3    0    0 -0.16264327530E+02  0.16034333470E+01 -0.23833797689E+02  0.28898949134E+02  0.51100000000E-03 0.  1.
         12    1    3    3    0    0 -0.56239909974E+01  0.92112830985E+01 -0.10518530023E+02  0.15070384365E+02  0.00000000000E+00 0. -1.
</event>
<event>
 7    1  0.6889665E-012  0.5052891E+02  0.7816164E-02  0.1300439E+00
        -11   -1    0    0    0    0  0.00000000000E+00  0.00000000000E+00  0.45593999997E+02  0.45594000000E+02  0.51100000000E-03 0. -1.
         11   -1    0    0    0    0 -0.00000000000E+00 -0.00000000000E+00 -0.45593999997E+02  0.45594000000E+02  0.51100000000E-03 0.  1.
    9900012    2    1    2    0    0 -0.37856721923E+02  0.10257391334E+02  0.10715215330E+02  0.50528913545E+02  0.30000163212E+02 0.  0.
        -12    1    1    2    0    0  0.37856721923E+02 -0.10257391334E+02 -0.10715215330E+02  0.40659086455E+02  0.00000000000E+00 0.  1.
         11    1    3    3    0    0 -0.84355195339E+01  0.40995292424E+01  0.20155157884E+00  0.93810848582E+01  0.51100000000E-03 0. -1.
        -11    1    3    3    0    0 -0.29070005854E+01 -0.87707564049E+01  0.11478673302E+01  0.93109838355E+01  0.51100000000E-03 0.  1.
        -12    1    3    3    0    0 -0.26514201804E+02  0.14928618496E+02  0.93657964214E+01  0.31836844852E+02  0.00000000000E+00 0.  1.
</event>
<event>
 7    1  0.6889665E-012  0.5052886E+02  0.7816164E-02  0.1300439E+00
        -11   -1    0    0    0    0  0.00000000000E+00  0.00000000000E+00  0.45593999997E+02  0.45594000000E+02  0.51100000000E-03 0. -1.
         11   -1    0    0    0    0 -0.00000000000E+00 -0.00000000000E+00 -0.45593999997E+02  0.45594000000E+02  0.51100000000E-03 0.  1.
    9900012    2    1    2    0    0  0.26646628501E+02 -0.14045765641E+02  0.27310061786E+02  0.50528858129E+02  0.29999994770E+02 0.  0.
        -12    1    1    2    0    0 -0.26646628501E+02  0.14045765641E+02 -0.27310061786E+02  0.40659141871E+02  0.00000000000E+00 0.  1.
         11    1    3    3    0    0  0.44279849245E+01 -0.46368214494E+01  0.82209921379E+01  0.10425539585E+02  0.51100000000E-03 0. -1.
        -11    1    3    3    0    0  0.16707471101E+02 -0.76047890049E+01 -0.17805961688E+01  0.18442964224E+02  0.51100000000E-03 0.  1.
        -12    1    3    3    0    0  0.55111724760E+01 -0.18041551867E+01  0.20869665816E+02  0.21660354320E+02  0.00000000000E+00 0.  1.
</event>
<event>
 7    1  0.6889665E-012  0.5052886E+02  0.7816164E-02  0.1300439E+00
        -11   -1    0    0    0    0  0.00000000000E+00  0.00000000000E+00  0.45593999997E+02  0.45594000000E+02  0.51100000000E-03 0. -1.
         11   -1    0    0    0    0 -0.00000000000E+00 -0.00000000000E+00 -0.45593999997E+02  0.45594000000E+02  0.51100000000E-03 0.  1.
    9900012    2    1    2    0    0 -0.12179576047E+01  0.11016438323E+02 -0.39119311419E+02  0.50528857609E+02  0.29999993188E+02 0.  0.
         12    1    1    2    0    0  0.12179576047E+01 -0.11016438323E+02  0.39119311419E+02  0.40659142391E+02  0.00000000000E+00 0. -1.
         11    1    3    3    0    0  0.72218220450E+01  0.50010383994E+01 -0.21678670609E+01  0.90479139351E+01  0.51100000000E-03 0. -1.
        -11    1    3    3    0    0 -0.58008029156E+01  0.10672983916E+02 -0.17475888066E+02  0.21283058147E+02  0.51100000000E-03 0.  1.
        -12    1    3    3    0    0 -0.26389767342E+01 -0.46575839921E+01 -0.19475556293E+02  0.20197885527E+02  0.00000000000E+00 0.  1.
</event>
<event>
 7    1  0.6889665E-012  0.5052886E+02  0.7816164E-02  0.1300439E+00
        -11   -1    0    0    0    0  0.00000000000E+00  0.00000000000E+00  0.45593999997E+02  0.45594000000E+02  0.51100000000E-03 0. -1.
         11   -1    0    0    0    0 -0.00000000000E+00 -0.00000000000E+00 -0.45593999997E+02  0.45594000000E+02  0.51100000000E-03 0.  1.
    9900012    2    1    2    0    0  0.14126363400E+02  0.11620141284E+02  0.36312308092E+02  0.50528861478E+02  0.30000004949E+02 0.  0.
        -12    1    1    2    0    0 -0.14126363400E+02 -0.11620141284E+02 -0.36312308092E+02  0.40659138522E+02  0.00000000000E+00 0.  1.
         11    1    3    3    0    0 -0.88677975442E+00  0.57482810353E+01  0.25952602357E+02  0.26596365965E+02  0.51100000000E-03 0. -1.
        -11    1    3    3    0    0  0.17299160291E+02  0.34778564417E+01  0.63968222427E+01  0.18769010823E+02  0.51100000000E-03 0.  1.
         12    1    3    3    0    0 -0.22860171365E+01  0.23940038067E+01  0.39628834922E+01  0.51634846904E+01  0.00000000000E+00 0. -1.
</event>
<event>
 7    1  0.6889665E-012  0.5052882E+02  0.7816164E-02  0.1300439E+00
        -11   -1    0    0    0    0  0.00000000000E+00  0.00000000000E+00  0.45593999997E+02  0.45594000000E+02  0.51100000000E-03 0. -1.
         11   -1    0    0    0    0 -0.00000000000E+00 -0.00000000000E+00 -0.45593999997E+02  0.45594000000E+02  0.51100000000E-03 0.  1.
    9900012    2    1    2    0    0 -0.30341715767E+02 -0.12186577642E+02  0.24166849363E+02  0.50528819014E+02  0.29999875875E+02 0.  0.
        -12    1    1    2    0    0  0.30341715767E+02  0.12186577642E+02 -0.24166849363E+02  0.40659180986E+02  0.00000000000E+00 0.  1.
         11    1    3    3    0    0 -0.23004762737E+02 -0.29849453863E+00  0.14202467593E+02  0.27037349973E+02  0.51100000000E-03 0. -1.
        -11    1    3    3    0    0 -0.46190338140E+01 -0.38420726291E+01 -0.39498864134E+01  0.71901737393E+01  0.51100000000E-03 0.  1.
         12    1    3    3    0    0 -0.27179192156E+01 -0.80460104742E+01  0.13914268184E+02  0.16301295302E+02  0.00000000000E+00 0. -1.
</event>
<event>
 7    1  0.6889665E-012  0.5052885E+02  0.7816164E-02  0.1300439E+00
        -11   -1    0    0    0    0  0.00000000000E+00  0.00000000000E+00  0.45593999997E+02  0.45594000000E+02  0.51100000000E-03 0. -1.
         11   -1    0    0    0    0 -0.00000000000E+00 -0.00000000000E+00 -0.45593999997E+02  0.45594000000E+02  0.51100000000E-03 0.  1.
    9900012    2    1    2    0    0 -0.62981020140E+01 -0.28208166836E+02 -0.28597194392E+02  0.50528852292E+02  0.29999977027E+02 0.  0.
         12    1    1    2    0    0  0.62981020140E+01  0.28208166836E+02  0.28597194392E+02  0.40659147708E+02  0.00000000000E+00 0. -1.
         11    1    3    3    0    0  0.38150123253E+01 -0.90047285141E+01 -0.83303180364E+01  0.12846542473E+02  0.51100000000E-03 0. -1.
        -11    1    3    3    0    0 -0.10009131840E+02 -0.78210046984E+01 -0.22727648240E+02  0.26036451937E+02  0.51100000000E-03 0.  1.
        -12    1    3    3    0    0 -0.10398249930E+00 -0.11382433624E+02  0.24607718843E+01  0.11645857883E+02  0.00000000000E+00 0.  1.
</event>
<event>
 7    1  0.6889665E-012  0.5052888E+02  0.7816164E-02  0.1300439E+00
        -11   -1    0    0    0    0  0.00000000000E+00  0.00000000000E+00  0.45593999997E+02  0.45594000000E+02  0.51100000000E-03 0.  1.
         11   -1    0    0    0    0 -0.00000000000E+00 -0.00000000000E+00 -0.45593999997E+02  0.45594000000E+02  0.51100000000E-03 0. -1.
    9900012    2    1    2    0    0 -0.11067495168E+02  0.28809807077E+01 -0.39017620219E+02  0.50528878186E+02  0.30000055735E+02 0.  0.
         12    1    1    2    0    0  0.11067495168E+02 -0.28809807077E+01  0.39017620219E+02  0.40659121814E+02  0.00000000000E+00 0. -1.
         11    1    3    3    0    0  0.73396909560E+01 -0.52705173160E+01 -0.13211830648E+02  0.16006307677E+02  0.51100000000E-03 0.  1.
        -11    1    3    3    0    0 -0.10672193110E+02  0.80086441302E+01 -0.92121628586E+01  0.16214130608E+02  0.51100000000E-03 0. -1.
        -12    1    3    3    0    0 -0.77349930140E+01  0.14285389353E+00 -0.16593626712E+02  0.18308439902E+02  0.00000000000E+00 0.  1.
</event>
<event>
 7    1  0.6889665E-012  0.5052886E+02  0.7816164E-02  0.1300439E+00
        -11   -1    0    0    0    0  0.00000000000E+00  0.00000000000E+00  0.45593999997E+02  0.45594000000E+02  0.51100000000E-03 0. -1.
         11   -1    0    0    0    0 -0.00000000000E+00 -0.00000000000E+00 -0.45593999997E+02  0.45594000000E+02  0.51100000000E-03 0.  1.
    9900012    2    1    2    0    0  0.25195486335E+02 -0.46086293096E+01  0.31577106350E+02  0.50528860299E+02  0.30000001366E+02 0.  0.
        -12    1    1    2    0    0 -0.25195486335E+02  0.46086293096E+01 -0.31577106350E+02  0.40659139701E+02  0.00000000000E+00 0.  1.
         11    1    3    3    0    0  0.15692516718E+02 -0.51119840316E+01  0.14172581942E+02  0.21754299365E+02  0.51100000000E-03 0. -1.
        -11    1    3    3    0    0 -0.10530541099E+01  0.13706849713E+01  0.18079066613E+02  0.18161507375E+02  0.51100000000E-03 0.  1.
        -12    1    3    3    0    0  0.10556023726E+02 -0.86733024929E+00 -0.67454220564E+00  0.10613053560E+02  0.00000000000E+00 0.  1.
</event>
<event>
 7    1  0.6889665E-012  0.5052881E+02  0.7816164E-02  0.1300439E+00
        -11   -1    0    0    0    0  0.00000000000E+00  0.00000000000E+00  0.45593999997E+02  0.45594000000E+02  0.51100000000E-03 0. -1.
         11   -1    0    0    0    0 -0.00000000000E+00 -0.00000000000E+00 -0.45593999997E+02  0.45594000000E+02  0.51100000000E-03 0.  1.
    9900012    2    1    2    0    0  0.19624555410E+01 -0.33438637085E+02  0.23047253766E+02  0.50528811764E+02  0.29999853838E+02 0.  0.
        -12    1    1    2    0    0 -0.19624555410E+01  0.33438637085E+02 -0.23047253766E+02  0.40659188236E+02  0.00000000000E+00 0.  1.
         11    1    3    3    0    0  0.10198680917E+02 -0.14990228707E+02  0.11750476641E+02  0.21605410218E+02  0.51100000000E-03 0. -1.
        -11    1    3    3    0    0 -0.73779419975E+01 -0.14382944106E+02 -0.74790837834E+00  0.16182165383E+02  0.51100000000E-03 0.  1.
        -12    1    3    3    0    0 -0.85828337808E+00 -0.40654642722E+01  0.12044685503E+02  0.12741236163E+02  0.00000000000E+00 0.  1.
</event>
<event>
 7    1  0.6889665E-012  0.5052886E+02  0.7816164E-02  0.1300439E+00
        -11   -1    0    0    0    0  0.00000000000E+00  0.00000000000E+00  0.45593999997E+02  0.45594000000E+02  0.51100000000E-03 0. -1.
         11   -1    0    0    0    0 -0.00000000000E+00 -0.00000000000E+00 -0.45593999997E+02  0.45594000000E+02  0.51100000000E-03 0.  1.
    9900012    2    1    2    0    0  0.33825402267E+02  0.21931123312E+02 -0.52947029328E+01  0.50528857271E+02  0.29999992161E+02 0.  0.
         12    1    1    2    0    0 -0.33825402267E+02 -0.21931123312E+02  0.52947029328E+01  0.40659142729E+02  0.00000000000E+00 0. -1.
         11    1    3    3    0    0  0.29337241331E+01  0.84321463890E+00 -0.47653563174E+01  0.56591845092E+01  0.51100000000E-03 0. -1.
        -11    1    3    3    0    0  0.15514399306E+02  0.65289407374E+01 -0.12108155574E+02  0.20734779590E+02  0.51100000000E-03 0.  1.
         12    1    3    3    0    0  0.15377278828E+02  0.14558967936E+02  0.11578808958E+02  0.24134893172E+02  0.00000000000E+00 0. -1.
</event>
<event>
 7    1  0.6889665E-012  0.5052888E+02  0.7816164E-02  0.1300439E+00
        -11   -1    0    0    0    0  0.00000000000E+00  0.00000000000E+00  0.45593999997E+02  0.45594000000E+02  0.51100000000E-03 0. -1.
         11   -1    0    0    0    0 -0.00000000000E+00 -0.00000000000E+00 -0.45593999997E+02  0.45594000000E+02  0.51100000000E-03 0.  1.
    9900012    2    1    2    0    0  0.38233083835E+02  0.20176382543E+01 -0.13686665750E+02  0.50528875772E+02  0.30000048397E+02 0.  0.
         12    1    1    2    0    0 -0.38233083835E+02 -0.20176382543E+01  0.13686665750E+02  0.40659124228E+02  0.00000000000E+00 0. -1.
         11    1    3    3    0    0  0.44834002677E+01  0.43127045120E+01  0.77429778438E+01  0.99324722158E+01  0.51100000000E-03 0. -1.
        -11    1    3    3    0    0  0.29692806044E+02 -0.33980953959E+01 -0.16577848588E+02  0.34176524796E+02  0.51100000000E-03 0.  1.
         12    1    3    3    0    0  0.40568775229E+01  0.11030291382E+01 -0.48517950058E+01  0.64198787601E+01  0.00000000000E+00 0. -1.
</event>
<event>
 7    1  0.6889665E-012  0.5052885E+02  0.7816164E-02  0.1300439E+00
        -11   -1    0    0    0    0  0.00000000000E+00  0.00000000000E+00  0.45593999997E+02  0.45594000000E+02  0.51100000000E-03 0.  1.
         11   -1    0    0    0    0 -0.00000000000E+00 -0.00000000000E+00 -0.45593999997E+02  0.45594000000E+02  0.51100000000E-03 0. -1.
    9900012    2    1    2    0    0 -0.40400979611E+02 -0.68480732849E+00 -0.45230794266E+01  0.50528851434E+02  0.29999974420E+02 0.  0.
         12    1    1    2    0    0  0.40400979611E+02  0.68480732849E+00  0.45230794266E+01  0.40659148566E+02  0.00000000000E+00 0. -1.
         11    1    3    3    0    0 -0.13009963275E+02  0.91285668332E+01 -0.38689391398E+01  0.16357217587E+02  0.51100000000E-03 0. -1.
        -11    1    3    3    0    0 -0.27704841071E+02 -0.39814259773E+01  0.12816717792E+01  0.28018791095E+02  0.51100000000E-03 0.  1.
        -12    1    3    3    0    0  0.31382473570E+00 -0.58319481844E+01 -0.19358120660E+01  0.61528427532E+01  0.00000000000E+00 0.  1.
</event>
<event>
 7    1  0.6889665E-012  0.5052886E+02  0.7816164E-02  0.1300439E+00
        -11   -1    0    0    0    0  0.00000000000E+00  0.00000000000E+00  0.45593999997E+02  0.45594000000E+02  0.51100000000E-03 0. -1.
         11   -1    0    0    0    0 -0.00000000000E+00 -0.00000000000E+00 -0.45593999997E+02  0.45594000000E+02  0.51100000000E-03 0.  1.
    9900012    2    1    2    0    0  0.19837230034E+02 -0.19501588870E+02 -0.29653639046E+02  0.50528856224E+02  0.29999988980E+02 0.  0.
         12    1    1    2    0    0 -0.19837230034E+02  0.19501588870E+02  0.29653639046E+02  0.40659143776E+02  0.00000000000E+00 0. -1.
         11    1    3    3    0    0  0.13356092891E+02  0.17677719528E+01 -0.79511329253E+00  0.13496015723E+02  0.51100000000E-03 0. -1.
        -11    1    3    3    0    0  0.14186382542E+01 -0.97194833197E+01 -0.80429061782E+01  0.12695244407E+02  0.51100000000E-03 0.  1.
         12    1    3    3    0    0  0.50624988887E+01 -0.11549877503E+02 -0.20815619576E+02  0.24337596094E+02  0.00000000000E+00 0. -1.
</event>
<event>
 7    1  0.6889665E-012  0.5052886E+02  0.7816164E-02  0.1300439E+00
        -11   -1    0    0    0    0  0.00000000000E+00  0.00000000000E+00  0.45593999997E+02  0.45594000000E+02  0.51100000000E-03 0.  1.
         11   -1    0    0    0    0 -0.00000000000E+00 -0.00000000000E+00 -0.45593999997E+02  0.45594000000E+02  0.51100000000E-03 0. -1.
    9900012    2    1    2    0    0 -0.34712091424E+02 -0.16900608959E+02 -0.12751707712E+02  0.50528856825E+02  0.29999990804E+02 0.  0.
         12    1    1    2    0    0  0.34712091424E+02  0.16900608959E+02  0.12751707712E+02  0.40659143175E+02  0.00000000000E+00 0. -1.
         11    1    3    3    0    0 -0.17603801972E+02 -0.13781388961E+02  0.27995810755E+01  0.22531271159E+02  0.51100000000E-03 0.  1.
        -11    1    3    3    0    0 -0.16209260714E+02  0.32483905118E+01 -0.13183863607E+02  0.21144891432E+02  0.51100000000E-03 0. -1.
         12    1    3    3    0    0 -0.89902873754E+00 -0.63676105098E+01 -0.23674251810E+01  0.68526942339E+01  0.00000000000E+00 0. -1.
</event>
<event>
 7    1  0.6889665E-012  0.5052886E+02  0.7816164E-02  0.1300439E+00
        -11   -1    0    0    0    0  0.00000000000E+00  0.00000000000E+00  0.45593999997E+02  0.45594000000E+02  0.51100000000E-03 0. -1.
         11   -1    0    0    0    0 -0.00000000000E+00 -0.00000000000E+00 -0.45593999997E+02  0.45594000000E+02  0.51100000000E-03 0.  1.
    9900012    2    1    2    0    0 -0.27438075597E+02  0.11004227668E+02  0.27914600095E+02  0.50528856902E+02  0.29999991039E+02 0.  0.
        -12    1    1    2    0    0  0.27438075597E+02 -0.11004227668E+02 -0.27914600095E+02  0.40659143098E+02  0.00000000000E+00 0.  1.
         11    1    3    3    0    0 -0.15433150362E+02  0.99946292944E+01  0.16360262349E+02  0.24611642148E+02  0.51100000000E-03 0. -1.
        -11    1    3    3    0    0 -0.13697348963E+02  0.64927786419E+00 -0.51701767891E+00  0.13722472004E+02  0.51100000000E-03 0.  1.
         12    1    3    3    0    0  0.16924237282E+01  0.36032050911E+00  0.12071355424E+02  0.12194742750E+02  0.00000000000E+00 0. -1.
</event>
<event>
 7    1  0.6889665E-012  0.5052886E+02  0.7816164E-02  0.1300439E+00
        -11   -1    0    0    0    0  0.00000000000E+00  0.00000000000E+00  0.45593999997E+02  0.45594000000E+02  0.51100000000E-03 0. -1.
         11   -1    0    0    0    0 -0.00000000000E+00 -0.00000000000E+00 -0.45593999997E+02  0.45594000000E+02  0.51100000000E-03 0.  1.
    9900012    2    1    2    0    0  0.17048306555E+02  0.16826407867E+02 -0.32854116301E+02  0.50528859380E+02  0.29999998570E+02 0.  0.
         12    1    1    2    0    0 -0.17048306555E+02 -0.16826407867E+02  0.32854116301E+02  0.40659140620E+02  0.00000000000E+00 0. -1.
         11    1    3    3    0    0 -0.73355211700E+00 -0.52846088918E+00 -0.63956027561E+00  0.11074327190E+01  0.51100000000E-03 0. -1.
        -11    1    3    3    0    0 -0.67535640246E+01  0.22536267641E+01 -0.12904998254E+02  0.14738671610E+02  0.51100000000E-03 0.  1.
        -12    1    3    3    0    0  0.24535422696E+02  0.15101241992E+02 -0.19309557771E+02  0.34682755051E+02  0.00000000000E+00 0.  1.
</event>
<event>
 7    1  0.6889665E-012  0.5052886E+02  0.7816164E-02  0.1300439E+00
        -11   -1    0    0    0    0  0.00000000000E+00  0.00000000000E+00  0.45593999997E+02  0.45594000000E+02  0.51100000000E-03 0. -1.
         11   -1    0    0    0    0 -0.00000000000E+00 -0.00000000000E+00 -0.45593999997E+02  0.45594000000E+02  0.51100000000E-03 0.  1.
    9900012    2    1    2    0    0 -0.11110673954E+02  0.31908583288E+02 -0.22617721035E+02  0.50528855051E+02  0.29999985412E+02 0.  0.
         12    1    1    2    0    0  0.11110673954E+02 -0.31908583288E+02  0.22617721035E+02  0.40659144949E+02  0.00000000000E+00 0. -1.
         11    1    3    3    0    0  0.75960192793E+01  0.63777763928E+01 -0.92187169888E+01  0.13541059183E+02  0.51100000000E-03 0. -1.
        -11    1    3    3    0    0 -0.17012009036E+02  0.11951367667E+02 -0.81565143227E+01  0.22333212190E+02  0.51100000000E-03 0.  1.
         12    1    3    3    0    0 -0.16946841979E+01  0.13579439228E+02 -0.52424897235E+01  0.14654583678E+02  0.00000000000E+00 0. -1.
</event>
<event>
 7    1  0.6889665E-012  0.5052885E+02  0.7816164E-02  0.1300439E+00
        -11   -1    0    0    0    0  0.00000000000E+00  0.00000000000E+00  0.45593999997E+02  0.45594000000E+02  0.51100000000E-03 0.  1.
         11   -1    0    0    0    0 -0.00000000000E+00 -0.00000000000E+00 -0.45593999997E+02  0.45594000000E+02  0.51100000000E-03 0. -1.
    9900012    2    1    2    0    0 -0.32191538808E+02 -0.97383523925E+01 -0.22848097810E+02  0.50528852792E+02  0.29999978547E+02 0.  0.
         12    1    1    2    0    0  0.32191538808E+02  0.97383523925E+01  0.22848097810E+02  0.40659147208E+02  0.00000000000E+00 0. -1.
         11    1    3    3    0    0 -0.11373142501E+02 -0.15438134395E+02 -0.17640019274E+02  0.26054839170E+02  0.51100000000E-03 0. -1.
        -11    1    3    3    0    0 -0.14034835735E+02  0.53983173953E+01  0.12680857106E+01  0.15090609214E+02  0.51100000000E-03 0.  1.
        -12    1    3    3    0    0 -0.67835605714E+01  0.30146460717E+00 -0.64761642467E+01  0.93834044081E+01  0.00000000000E+00 0.  1.
</event>
<event>
 7    1  0.6889665E-012  0.5052886E+02  0.7816164E-02  0.1300439E+00
        -11   -1    0    0    0    0  0.00000000000E+00  0.00000000000E+00  0.45593999997E+02  0.45594000000E+02  0.51100000000E-03 0. -1.
         11   -1    0    0    0    0 -0.00000000000E+00 -0.00000000000E+00 -0.45593999997E+02  0.45594000000E+02  0.51100000000E-03 0.  1.
    9900012    2    1    2    0    0 -0.41727758763E+01 -0.59578384360E+01  0.40003221194E+02  0.50528860766E+02  0.30000002783E+02 0.  0.
        -12    1    1    2    0    0  0.41727758763E+01  0.59578384360E+01 -0.40003221194E+02  0.40659139234E+02  0.00000000000E+00 0.  1.
         11    1    3    3    0    0  0.70337630254E+01 -0.97050175231E+01  0.20113823629E+02  0.23414249693E+02  0.51100000000E-03 0. -1.
        -11    1    3    3    0    0 -0.51646529188E+01  0.79349531699E+01  0.16491585591E+02  0.19016033160E+02  0.51100000000E-03 0.  1.
        -12    1    3    3    0    0 -0.60418859830E+01 -0.41877740828E+01  0.33978119743E+01  0.80985779129E+01  0.00000000000E+00 0.  1.
</event>
<event>
 7    1  0.6889665E-012  0.5052890E+02  0.7816164E-02  0.1300439E+00
        -11   -1    0    0    0    0  0.00000000000E+00  0.00000000000E+00  0.45593999997E+02  0.45594000000E+02  0.51100000000E-03 0. -1.
         11   -1    0    0    0    0 -0.00000000000E+00 -0.00000000000E+00 -0.45593999997E+02  0.45594000000E+02  0.51100000000E-03 0.  1.
    9900012    2    1    2    0    0  0.13555136982E+02 -0.22349493873E+02 -0.31143545763E+02  0.50528904367E+02  0.30000135314E+02 0.  0.
         12    1    1    2    0    0 -0.13555136982E+02  0.22349493873E+02  0.31143545763E+02  0.40659095633E+02  0.00000000000E+00 0. -1.
         11    1    3    3    0    0  0.76911013944E+01 -0.79189460620E+01 -0.42516966987E+01  0.11829609988E+02  0.51100000000E-03 0. -1.
        -11    1    3    3    0    0  0.15763164603E+01  0.53271853869E+01 -0.13089223762E+02  0.14219404231E+02  0.51100000000E-03 0.  1.
        -12    1    3    3    0    0  0.42877191273E+01 -0.19757733198E+02 -0.13802625302E+02  0.24479890148E+02  0.00000000000E+00 0.  1.
</event>
<event>
 7    1  0.6889665E-012  0.5052886E+02  0.7816164E-02  0.1300439E+00
        -11   -1    0    0    0    0  0.00000000000E+00  0.00000000000E+00  0.45593999997E+02  0.45594000000E+02  0.51100000000E-03 0. -1.
         11   -1    0    0    0    0 -0.00000000000E+00 -0.00000000000E+00 -0.45593999997E+02  0.45594000000E+02  0.51100000000E-03 0.  1.
    9900012    2    1    2    0    0  0.97322716257E+01 -0.26542749264E+02 -0.29222095220E+02  0.50528862053E+02  0.30000006697E+02 0.  0.
         12    1    1    2    0    0 -0.97322716257E+01  0.26542749264E+02  0.29222095220E+02  0.40659137947E+02  0.00000000000E+00 0. -1.
         11    1    3    3    0    0  0.91484703219E+01 -0.39166662310E+01 -0.25044547320E+00  0.99547730658E+01  0.51100000000E-03 0. -1.
        -11    1    3    3    0    0 -0.40368050733E+01 -0.12631065640E+02 -0.49595081575E+01  0.14157554020E+02  0.51100000000E-03 0.  1.
         12    1    3    3    0    0  0.46206063771E+01 -0.99950173936E+01 -0.24012141590E+02  0.26416534968E+02  0.00000000000E+00 0. -1.
</event>
<event>
 7    1  0.6889665E-012  0.5052886E+02  0.7816164E-02  0.1300439E+00
        -11   -1    0    0    0    0  0.00000000000E+00  0.00000000000E+00  0.45593999997E+02  0.45594000000E+02  0.51100000000E-03 0. -1.
         11   -1    0    0    0    0 -0.00000000000E+00 -0.00000000000E+00 -0.45593999997E+02  0.45594000000E+02  0.51100000000E-03 0.  1.
    9900012    2    1    2    0    0  0.55649872607E+00  0.26758585839E+02 -0.30607740117E+02  0.50528863732E+02  0.30000011801E+02 0.  0.
         12    1    1    2    0    0 -0.55649872607E+00 -0.26758585839E+02  0.30607740117E+02  0.40659136268E+02  0.00000000000E+00 0. -1.
         11    1    3    3    0    0 -0.33832025769E+01  0.76915774966E+01  0.98639285539E+00  0.84604606960E+01  0.51100000000E-03 0. -1.
        -11    1    3    3    0    0  0.70925462691E+01  0.18259528327E+02 -0.33115843451E+02  0.38475624427E+02  0.51100000000E-03 0.  1.
        -12    1    3    3    0    0 -0.31528449661E+01  0.80748001583E+00  0.15217104785E+01  0.35927786095E+01  0.00000000000E+00 0.  1.
</event>
<event>
 7    1  0.6889665E-012  0.5052885E+02  0.7816164E-02  0.1300439E+00
        -11   -1    0    0    0    0  0.00000000000E+00  0.00000000000E+00  0.45593999997E+02  0.45594000000E+02  0.51100000000E-03 0. -1.
         11   -1    0    0    0    0 -0.00000000000E+00 -0.00000000000E+00 -0.45593999997E+02  0.45594000000E+02  0.51100000000E-03 0.  1.
    9900012    2    1    2    0    0  0.27439541412E+02 -0.71020928169E-01  0.30003882365E+02  0.50528850552E+02  0.29999971737E+02 0.  0.
        -12    1    1    2    0    0 -0.27439541412E+02  0.71020928169E-01 -0.30003882365E+02  0.40659149448E+02  0.00000000000E+00 0.  1.
         11    1    3    3    0    0  0.25133973903E+02 -0.54629151932E+00  0.29526927267E+02  0.38779563080E+02  0.51100000000E-03 0. -1.
        -11    1    3    3    0    0 -0.22366720531E+01 -0.39972229272E+01  0.22912542579E+01  0.51215563395E+01  0.51100000000E-03 0.  1.
         12    1    3    3    0    0  0.45422395625E+01  0.44724935183E+01 -0.18142991605E+01  0.66277311321E+01  0.00000000000E+00 0. -1.
</event>
<event>
 7    1  0.6889665E-012  0.5052886E+02  0.7816164E-02  0.1300439E+00
        -11   -1    0    0    0    0  0.00000000000E+00  0.00000000000E+00  0.45593999997E+02  0.45594000000E+02  0.51100000000E-03 0. -1.
         11   -1    0    0    0    0 -0.00000000000E+00 -0.00000000000E+00 -0.45593999997E+02  0.45594000000E+02  0.51100000000E-03 0.  1.
    9900012    2    1    2    0    0  0.33491559709E+02 -0.16986155363E+02 -0.15586907973E+02  0.50528859011E+02  0.29999997451E+02 0.  0.
         12    1    1    2    0    0 -0.33491559709E+02  0.16986155363E+02  0.15586907973E+02  0.40659140989E+02  0.00000000000E+00 0. -1.
         11    1    3    3    0    0  0.57969425406E+01  0.12811663104E+01  0.35281161004E+01  0.69060504931E+01  0.51100000000E-03 0. -1.
        -11    1    3    3    0    0  0.88449032543E+00 -0.10871562130E+02 -0.23787147536E+01  0.11163846579E+02  0.51100000000E-03 0.  1.
        -12    1    3    3    0    0  0.26810126843E+02 -0.73957595431E+01 -0.16736309320E+02  0.32458961940E+02  0.00000000000E+00 0.  1.
</event>
<event>
 7    1  0.7507534E-012  0.5052886E+02  0.7816164E-02  0.1300439E+00
        -11   -1    0    0    0    0  0.00000000000E+00  0.00000000000E+00  0.45593999997E+02  0.45594000000E+02  0.51100000000E-03 0. -1.
         11   -1    0    0    0    0 -0.00000000000E+00 -0.00000000000E+00 -0.45593999997E+02  0.45594000000E+02  0.51100000000E-03 0.  1.
    9900012    2    1    2    0    0  0.14219575169E+02  0.34925312965E+01  0.37931145455E+02  0.50528857260E+02  0.29999992128E+02 0.  0.
        -12    1    1    2    0    0 -0.14219575169E+02 -0.34925312965E+01 -0.37931145455E+02  0.40659142740E+02  0.00000000000E+00 0.  1.
         11    1    3    3    0    0 -0.14162928123E+01 -0.15541887279E+01  0.30077150116E+02  0.30150561309E+02  0.51100000000E-03 0. -1.
        -11    1    3    3    0    0  0.61856537743E+01  0.21917187311E+01 -0.15511079809E+01  0.67432840547E+01  0.51100000000E-03 0.  1.
         12    1    3    3    0    0  0.94502142072E+01  0.28550012932E+01  0.94051033199E+01  0.13635011896E+02  0.00000000000E+00 0. -1.
</event>
<event>
 7    1  0.6889665E-012  0.5052887E+02  0.7816164E-02  0.1300439E+00
        -11   -1    0    0    0    0  0.00000000000E+00  0.00000000000E+00  0.45593999997E+02  0.45594000000E+02  0.51100000000E-03 0. -1.
         11   -1    0    0    0    0 -0.00000000000E+00 -0.00000000000E+00 -0.45593999997E+02  0.45594000000E+02  0.51100000000E-03 0.  1.
    9900012    2    1    2    0    0 -0.16784840104E+01  0.37096010759E+01 -0.40454741437E+02  0.50528873676E+02  0.30000042026E+02 0.  0.
         12    1    1    2    0    0  0.16784840104E+01 -0.37096010759E+01  0.40454741437E+02  0.40659126324E+02  0.00000000000E+00 0. -1.
         11    1    3    3    0    0 -0.75378802490E+01 -0.82726533327E+01 -0.15010964860E+02  0.18723928490E+02  0.51100000000E-03 0. -1.
        -11    1    3    3    0    0  0.40009446464E+01  0.16570267477E+01 -0.19012480842E+02  0.19499428806E+02  0.51100000000E-03 0.  1.
         12    1    3    3    0    0  0.18584515922E+01  0.10325227661E+02 -0.64312957340E+01  0.12305516380E+02  0.00000000000E+00 0. -1.
</event>
<event>
 7    1  0.6889665E-012  0.5052886E+02  0.7816164E-02  0.1300439E+00
        -11   -1    0    0    0    0  0.00000000000E+00  0.00000000000E+00  0.45593999997E+02  0.45594000000E+02  0.51100000000E-03 0. -1.
         11   -1    0    0    0    0 -0.00000000000E+00 -0.00000000000E+00 -0.45593999997E+02  0.45594000000E+02  0.51100000000E-03 0.  1.
    9900012    2    1    2    0    0 -0.25036007910E+01 -0.26671042224E+02  0.30586812460E+02  0.50528860724E+02  0.30000002656E+02 0.  0.
        -12    1    1    2    0    0  0.25036007910E+01  0.26671042224E+02 -0.30586812460E+02  0.40659139276E+02  0.00000000000E+00 0.  1.
         11    1    3    3    0    0  0.12615381318E+02 -0.56038409869E+01  0.77397279696E+01  0.15825747025E+02  0.51100000000E-03 0. -1.
        -11    1    3    3    0    0 -0.54387555173E+01 -0.60881654083E+01  0.56531644364E+01  0.99299591148E+01  0.51100000000E-03 0.  1.
         12    1    3    3    0    0 -0.96802265913E+01 -0.14979035829E+02  0.17193920054E+02  0.24773154584E+02  0.00000000000E+00 0. -1.
</event>
<event>
 7    1  0.6889665E-012  0.5052886E+02  0.7816164E-02  0.1300439E+00
        -11   -1    0    0    0    0  0.00000000000E+00  0.00000000000E+00  0.45593999997E+02  0.45594000000E+02  0.51100000000E-03 0. -1.
         11   -1    0    0    0    0 -0.00000000000E+00 -0.00000000000E+00 -0.45593999997E+02  0.45594000000E+02  0.51100000000E-03 0.  1.
    9900012    2    1    2    0    0  0.95967888531E+00 -0.37897648595E+02 -0.14697377926E+02  0.50528859939E+02  0.30000000271E+02 0.  0.
         12    1    1    2    0    0 -0.95967888531E+00  0.37897648595E+02  0.14697377926E+02  0.40659140061E+02  0.00000000000E+00 0. -1.
         11    1    3    3    0    0 -0.66516757142E+01 -0.52950038177E+01  0.62095547202E+01  0.10528077950E+02  0.51100000000E-03 0.  1.
        -11    1    3    3    0    0  0.58055362406E+01 -0.13565068166E+02 -0.11393277208E+02  0.18641944405E+02  0.51100000000E-03 0. -1.
        -12    1    3    3    0    0  0.18058183589E+01 -0.19037576611E+02 -0.95136554388E+01  0.21358837585E+02  0.00000000000E+00 0.  1.
</event>
<event>
 7    1  0.6889665E-012  0.5052886E+02  0.7816164E-02  0.1300439E+00
        -11   -1    0    0    0    0  0.00000000000E+00  0.00000000000E+00  0.45593999997E+02  0.45594000000E+02  0.51100000000E-03 0. -1.
         11   -1    0    0    0    0 -0.00000000000E+00 -0.00000000000E+00 -0.45593999997E+02  0.45594000000E+02  0.51100000000E-03 0.  1.
    9900012    2    1    2    0    0  0.11643894223E+02  0.15069328538E+02  0.35923535779E+02  0.50528863780E+02  0.30000011946E+02 0.  0.
        -12    1    1    2    0    0 -0.11643894223E+02 -0.15069328538E+02 -0.35923535779E+02  0.40659136220E+02  0.00000000000E+00 0.  1.
         11    1    3    3    0    0  0.98703143309E+00  0.68339461283E+00  0.10795240209E+02  0.10861789479E+02  0.51100000000E-03 0. -1.
        -11    1    3    3    0    0  0.12440142849E+02  0.27998941097E+01  0.93762458156E+00  0.12785761661E+02  0.51100000000E-03 0.  1.
        -12    1    3    3    0    0 -0.17832800596E+01  0.11586039816E+02  0.24190670988E+02  0.26881312640E+02  0.00000000000E+00 0.  1.
</event>
<event>
 7    1  0.6889665E-012  0.5052887E+02  0.7816164E-02  0.1300439E+00
        -11   -1    0    0    0    0  0.00000000000E+00  0.00000000000E+00  0.45593999997E+02  0.45594000000E+02  0.51100000000E-03 0. -1.
         11   -1    0    0    0    0 -0.00000000000E+00 -0.00000000000E+00 -0.45593999997E+02  0.45594000000E+02  0.51100000000E-03 0.  1.
    9900012    2    1    2    0    0  0.14630656316E+02 -0.46859727567E+01  0.37645059294E+02  0.50528868994E+02  0.30000027793E+02 0.  0.
        -12    1    1    2    0    0 -0.14630656316E+02  0.46859727567E+01 -0.37645059294E+02  0.40659131006E+02  0.00000000000E+00 0.  1.
         11    1    3    3    0    0 -0.49660585958E+01  0.10028854910E+01 -0.53445764347E-02  0.50663148452E+01  0.51100000000E-03 0. -1.
        -11    1    3    3    0    0  0.21015103423E+02 -0.48486159791E+01  0.26389017064E+02  0.34081136581E+02  0.51100000000E-03 0.  1.
         12    1    3    3    0    0 -0.14183885109E+01 -0.84024226850E+00  0.11261386806E+02  0.11381417567E+02  0.00000000000E+00 0. -1.
</event>
<event>
 7    1  0.6889665E-012  0.5052886E+02  0.7816164E-02  0.1300439E+00
        -11   -1    0    0    0    0  0.00000000000E+00  0.00000000000E+00  0.45593999997E+02  0.45594000000E+02  0.51100000000E-03 0. -1.
         11   -1    0    0    0    0 -0.00000000000E+00 -0.00000000000E+00 -0.45593999997E+02  0.45594000000E+02  0.51100000000E-03 0.  1.
    9900012    2    1    2    0    0 -0.10139741822E+02 -0.24358003048E+02 -0.30936053269E+02  0.50528855045E+02  0.29999985394E+02 0.  0.
         12    1    1    2    0    0  0.10139741822E+02  0.24358003048E+02  0.30936053269E+02  0.40659144955E+02  0.00000000000E+00 0. -1.
         11    1    3    3    0    0 -0.53628081886E+01  0.38891689258E+01 -0.23559574385E+00  0.66287896495E+01  0.51100000000E-03 0. -1.
        -11    1    3    3    0    0  0.42178911772E+01 -0.13075885767E+02 -0.13756721339E+02  0.19442653544E+02  0.51100000000E-03 0.  1.
         12    1    3    3    0    0 -0.89948248102E+01 -0.15171286206E+02 -0.16943736186E+02  0.24457411851E+02  0.00000000000E+00 0. -1.
</event>
<event>
 7    1  0.6889665E-012  0.5052887E+02  0.7816164E-02  0.1300439E+00
        -11   -1    0    0    0    0  0.00000000000E+00  0.00000000000E+00  0.45593999997E+02  0.45594000000E+02  0.51100000000E-03 0. -1.
         11   -1    0    0    0    0 -0.00000000000E+00 -0.00000000000E+00 -0.45593999997E+02  0.45594000000E+02  0.51100000000E-03 0.  1.
    9900012    2    1    2    0    0  0.35499953639E+02 -0.19222207853E+02  0.48399499049E+01  0.50528866977E+02  0.30000021663E+02 0.  0.
        -12    1    1    2    0    0 -0.35499953639E+02  0.19222207853E+02 -0.48399499049E+01  0.40659133023E+02  0.00000000000E+00 0.  1.
         11    1    3    3    0    0  0.31122387521E+02 -0.21224429813E+02  0.11540857159E+02  0.39398868132E+02  0.51100000000E-03 0. -1.
        -11    1    3    3    0    0  0.38286322277E+01  0.22683046857E+01 -0.83004246611E+01  0.94181038802E+01  0.51100000000E-03 0.  1.
         12    1    3    3    0    0  0.54893389045E+00 -0.26608272582E+00  0.15995174073E+01  0.17118949645E+01  0.00000000000E+00 0. -1.
</event>
<event>
 7    1  0.6889665E-012  0.5052881E+02  0.7816164E-02  0.1300439E+00
        -11   -1    0    0    0    0  0.00000000000E+00  0.00000000000E+00  0.45593999997E+02  0.45594000000E+02  0.51100000000E-03 0. -1.
         11   -1    0    0    0    0 -0.00000000000E+00 -0.00000000000E+00 -0.45593999997E+02  0.45594000000E+02  0.51100000000E-03 0.  1.
    9900012    2    1    2    0    0 -0.16687904853E+02 -0.28789403277E+02 -0.23363514759E+02  0.50528810001E+02  0.29999848478E+02 0.  0.
         12    1    1    2    0    0  0.16687904853E+02  0.28789403277E+02  0.23363514759E+02  0.40659189999E+02  0.00000000000E+00 0. -1.
         11    1    3    3    0    0 -0.15987410156E+02 -0.18818426057E+02 -0.10569572604E+02  0.26859752569E+02  0.51100000000E-03 0. -1.
        -11    1    3    3    0    0 -0.14939449408E+01 -0.58292897436E+00 -0.14070374687E+02  0.14161466088E+02  0.51100000000E-03 0.  1.
         12    1    3    3    0    0  0.79345024291E+00 -0.93880482460E+01  0.12764325316E+01  0.95075913440E+01  0.00000000000E+00 0. -1.
</event>
<event>
 7    1  0.6889665E-012  0.5052887E+02  0.7816164E-02  0.1300439E+00
        -11   -1    0    0    0    0  0.00000000000E+00  0.00000000000E+00  0.45593999997E+02  0.45594000000E+02  0.51100000000E-03 0. -1.
         11   -1    0    0    0    0 -0.00000000000E+00 -0.00000000000E+00 -0.45593999997E+02  0.45594000000E+02  0.51100000000E-03 0.  1.
    9900012    2    1    2    0    0  0.27185294472E+02 -0.16764374035E+02 -0.25161081105E+02  0.50528874645E+02  0.30000044971E+02 0.  0.
         12    1    1    2    0    0 -0.27185294472E+02  0.16764374035E+02  0.25161081105E+02  0.40659125355E+02  0.00000000000E+00 0. -1.
         11    1    3    3    0    0 -0.39210810201E+01 -0.59800974096E+01 -0.13883186284E+01  0.72844951967E+01  0.51100000000E-03 0. -1.
        -11    1    3    3    0    0  0.25040957115E+02 -0.11663263815E+02 -0.24687155057E+02  0.37047764860E+02  0.51100000000E-03 0.  1.
        -12    1    3    3    0    0  0.60654183771E+01  0.87898718968E+00  0.91439258060E+00  0.61966145886E+01  0.00000000000E+00 0.  1.
</event>
<event>
 7    1  0.6889665E-012  0.5052887E+02  0.7816164E-02  0.1300439E+00
        -11   -1    0    0    0    0  0.00000000000E+00  0.00000000000E+00  0.45593999997E+02  0.45594000000E+02  0.51100000000E-03 0. -1.
         11   -1    0    0    0    0 -0.00000000000E+00 -0.00000000000E+00 -0.45593999997E+02  0.45594000000E+02  0.51100000000E-03 0.  1.
    9900012    2    1    2    0    0  0.16715376512E+02 -0.13159227698E+02  0.34649616972E+02  0.50528867670E+02  0.30000023769E+02 0.  0.
        -12    1    1    2    0    0 -0.16715376512E+02  0.13159227698E+02 -0.34649616972E+02  0.40659132330E+02  0.00000000000E+00 0.  1.
         11    1    3    3    0    0  0.19144522307E+01  0.72505461057E+01  0.14675542171E+02  0.16480506196E+02  0.51100000000E-03 0. -1.
        -11    1    3    3    0    0  0.14000648611E+02 -0.11223184798E+02  0.10328366951E+02  0.20703941718E+02  0.51100000000E-03 0.  1.
         12    1    3    3    0    0  0.80027567060E+00 -0.91865890060E+01  0.96457078495E+01  0.13344419756E+02  0.00000000000E+00 0. -1.
</event>
<event>
 7    1  0.6889665E-012  0.5052886E+02  0.7816164E-02  0.1300439E+00
        -11   -1    0    0    0    0  0.00000000000E+00  0.00000000000E+00  0.45593999997E+02  0.45594000000E+02  0.51100000000E-03 0. -1.
         11   -1    0    0    0    0 -0.00000000000E+00 -0.00000000000E+00 -0.45593999997E+02  0.45594000000E+02  0.51100000000E-03 0.  1.
    9900012    2    1    2    0    0 -0.16126632654E+02 -0.72356015073E+01  0.36616160641E+02  0.50528862896E+02  0.30000009260E+02 0.  0.
        -12    1    1    2    0    0  0.16126632654E+02  0.72356015073E+01 -0.36616160641E+02  0.40659137104E+02  0.00000000000E+00 0.  1.
         11    1    3    3    0    0  0.19186059624E+01 -0.30337704119E+01  0.13517247459E+02  0.13985735264E+02  0.51100000000E-03 0. -1.
        -11    1    3    3    0    0 -0.20902251064E+02  0.71263146108E-01  0.11501847505E+02  0.23857947822E+02  0.51100000000E-03 0.  1.
        -12    1    3    3    0    0  0.28570124472E+01 -0.42730942415E+01  0.11597065677E+02  0.12685179811E+02  0.00000000000E+00 0.  1.
</event>
<event>
 7    1  0.6889665E-012  0.5052886E+02  0.7816164E-02  0.1300439E+00
        -11   -1    0    0    0    0  0.00000000000E+00  0.00000000000E+00  0.45593999997E+02  0.45594000000E+02  0.51100000000E-03 0. -1.
         11   -1    0    0    0    0 -0.00000000000E+00 -0.00000000000E+00 -0.45593999997E+02  0.45594000000E+02  0.51100000000E-03 0.  1.
    9900012    2    1    2    0    0  0.37117756369E+01 -0.23546632762E+02  0.32938499385E+02  0.50528856692E+02  0.29999990402E+02 0.  0.
        -12    1    1    2    0    0 -0.37117756369E+01  0.23546632762E+02 -0.32938499385E+02  0.40659143308E+02  0.00000000000E+00 0.  1.
         11    1    3    3    0    0 -0.42805444202E+01 -0.25553424398E+02  0.29587078247E+02  0.39328053072E+02  0.51100000000E-03 0. -1.
        -11    1    3    3    0    0  0.66230025121E+01  0.33735179795E+01  0.47435034613E+01  0.88173471737E+01  0.51100000000E-03 0.  1.
        -12    1    3    3    0    0  0.13693175450E+01 -0.13667263440E+01 -0.13920823235E+01  0.23834564468E+01  0.00000000000E+00 0.  1.
</event>
<event>
 7    1  0.6889665E-012  0.5052886E+02  0.7816164E-02  0.1300439E+00
        -11   -1    0    0    0    0  0.00000000000E+00  0.00000000000E+00  0.45593999997E+02  0.45594000000E+02  0.51100000000E-03 0. -1.
         11   -1    0    0    0    0 -0.00000000000E+00 -0.00000000000E+00 -0.45593999997E+02  0.45594000000E+02  0.51100000000E-03 0.  1.
    9900012    2    1    2    0    0 -0.16846151313E+02  0.74915454248E+01  0.36238785269E+02  0.50528860502E+02  0.30000001981E+02 0.  0.
        -12    1    1    2    0    0  0.16846151313E+02 -0.74915454248E+01 -0.36238785269E+02  0.40659139498E+02  0.00000000000E+00 0.  1.
         11    1    3    3    0    0 -0.36338367265E+00  0.72177825616E-01  0.23102553566E+02  0.23105523990E+02  0.51100000000E-03 0. -1.
        -11    1    3    3    0    0 -0.14989133668E+02  0.11991364162E+02  0.11302474689E+02  0.22275836167E+02  0.51100000000E-03 0.  1.
        -12    1    3    3    0    0 -0.14936339728E+01 -0.45719965626E+01  0.18337570144E+01  0.51475003449E+01  0.00000000000E+00 0.  1.
</event>
<event>
 7    1  0.6889665E-012  0.5052885E+02  0.7816164E-02  0.1300439E+00
        -11   -1    0    0    0    0  0.00000000000E+00  0.00000000000E+00  0.45593999997E+02  0.45594000000E+02  0.51100000000E-03 0. -1.
         11   -1    0    0    0    0 -0.00000000000E+00 -0.00000000000E+00 -0.45593999997E+02  0.45594000000E+02  0.51100000000E-03 0.  1.
    9900012    2    1    2    0    0  0.36196199489E+01 -0.10058754392E+02  0.39228636764E+02  0.50528854278E+02  0.29999983063E+02 0.  0.
        -12    1    1    2    0    0 -0.36196199489E+01  0.10058754392E+02 -0.39228636764E+02  0.40659145722E+02  0.00000000000E+00 0.  1.
         11    1    3    3    0    0 -0.43934257904E+01 -0.15028961603E+02  0.27971637699E+02  0.32055957213E+02  0.51100000000E-03 0. -1.
        -11    1    3    3    0    0  0.78932679324E+01  0.75218424805E+00  0.18196855517E+01  0.81351530756E+01  0.51100000000E-03 0.  1.
        -12    1    3    3    0    0  0.11977780688E+00  0.42180229629E+01  0.94373135134E+01  0.10337743989E+02  0.00000000000E+00 0.  1.
</event>
<event>
 7    1  0.6889665E-012  0.5052886E+02  0.7816164E-02  0.1300439E+00
        -11   -1    0    0    0    0  0.00000000000E+00  0.00000000000E+00  0.45593999997E+02  0.45594000000E+02  0.51100000000E-03 0. -1.
         11   -1    0    0    0    0 -0.00000000000E+00 -0.00000000000E+00 -0.45593999997E+02  0.45594000000E+02  0.51100000000E-03 0.  1.
    9900012    2    1    2    0    0  0.49188041951E+01  0.76288315256E+00  0.40353301665E+02  0.50528861043E+02  0.30000003627E+02 0.  0.
        -12    1    1    2    0    0 -0.49188041951E+01 -0.76288315256E+00 -0.40353301665E+02  0.40659138957E+02  0.00000000000E+00 0.  1.
         11    1    3    3    0    0 -0.37298339875E+01  0.28512715005E+01  0.25784933434E+02  0.26208857342E+02  0.51100000000E-03 0. -1.
        -11    1    3    3    0    0  0.38923936800E+01 -0.97260678534E+01  0.77939233614E+01  0.13057272536E+02  0.51100000000E-03 0.  1.
        -12    1    3    3    0    0  0.47562445027E+01  0.76376795054E+01  0.67744448702E+01  0.11262731165E+02  0.00000000000E+00 0.  1.
</event>
<event>
 7    1  0.6889665E-012  0.5052885E+02  0.7816164E-02  0.1300439E+00
        -11   -1    0    0    0    0  0.00000000000E+00  0.00000000000E+00  0.45593999997E+02  0.45594000000E+02  0.51100000000E-03 0. -1.
         11   -1    0    0    0    0 -0.00000000000E+00 -0.00000000000E+00 -0.45593999997E+02  0.45594000000E+02  0.51100000000E-03 0.  1.
    9900012    2    1    2    0    0  0.72440724197E+01  0.11211117106E+02  0.38405733482E+02  0.50528854703E+02  0.29999984356E+02 0.  0.
        -12    1    1    2    0    0 -0.72440724197E+01 -0.11211117106E+02 -0.38405733482E+02  0.40659145297E+02  0.00000000000E+00 0.  1.
         11    1    3    3    0    0 -0.36332716049E+01  0.15977335755E+01 -0.17183090241E+01  0.43250435023E+01  0.51100000000E-03 0.  1.
        -11    1    3    3    0    0  0.14152572509E+02  0.91817626634E+01  0.39345628228E+02  0.42809794851E+02  0.51100000000E-03 0. -1.
         12    1    3    3    0    0 -0.32752284846E+01  0.43162086701E+00  0.77841427798E+00  0.33940163505E+01  0.00000000000E+00 0. -1.
</event>
<event>
 7    1  0.6889665E-012  0.5052886E+02  0.7816164E-02  0.1300439E+00
        -11   -1    0    0    0    0  0.00000000000E+00  0.00000000000E+00  0.45593999997E+02  0.45594000000E+02  0.51100000000E-03 0. -1.
         11   -1    0    0    0    0 -0.00000000000E+00 -0.00000000000E+00 -0.45593999997E+02  0.45594000000E+02  0.51100000000E-03 0.  1.
    9900012    2    1    2    0    0 -0.66772496996E+01 -0.77423501606E+01 -0.39352716427E+02  0.50528856628E+02  0.29999990205E+02 0.  0.
         12    1    1    2    0    0  0.66772496996E+01  0.77423501606E+01  0.39352716427E+02  0.40659143372E+02  0.00000000000E+00 0. -1.
         11    1    3    3    0    0  0.53459902830E+01 -0.28973731605E+01 -0.10549627051E+02  0.12176576469E+02  0.51100000000E-03 0. -1.
        -11    1    3    3    0    0 -0.14412596038E+02  0.35622627434E+01 -0.24409702944E+02  0.28570023424E+02  0.51100000000E-03 0.  1.
        -12    1    3    3    0    0  0.23893560552E+01 -0.84072397435E+01 -0.43933864329E+01  0.97822567341E+01  0.00000000000E+00 0.  1.
</event>
<event>
 7    1  0.6889665E-012  0.5052886E+02  0.7816164E-02  0.1300439E+00
        -11   -1    0    0    0    0  0.00000000000E+00  0.00000000000E+00  0.45593999997E+02  0.45594000000E+02  0.51100000000E-03 0.  1.
         11   -1    0    0    0    0 -0.00000000000E+00 -0.00000000000E+00 -0.45593999997E+02  0.45594000000E+02  0.51100000000E-03 0. -1.
    9900012    2    1    2    0    0  0.35807154505E+02  0.18197414448E+02  0.63140729498E+01  0.50528859286E+02  0.29999998286E+02 0.  0.
         12    1    1    2    0    0 -0.35807154505E+02 -0.18197414448E+02 -0.63140729498E+01  0.40659140714E+02  0.00000000000E+00 0. -1.
         11    1    3    3    0    0  0.36038201187E+00  0.14085446449E+02 -0.73292163257E+00  0.14109105260E+02  0.51100000000E-03 0. -1.
        -11    1    3    3    0    0  0.18266955803E+02  0.24964916901E+01  0.27885298650E+01  0.18646448566E+02  0.51100000000E-03 0.  1.
         12    1    3    3    0    0  0.17179816691E+02  0.16154763091E+01  0.42584647174E+01  0.17773305460E+02  0.00000000000E+00 0. -1.
</event>
<event>
 7    1  0.6889665E-012  0.5052885E+02  0.7816164E-02  0.1300439E+00
        -11   -1    0    0    0    0  0.00000000000E+00  0.00000000000E+00  0.45593999997E+02  0.45594000000E+02  0.51100000000E-03 0.  1.
         11   -1    0    0    0    0 -0.00000000000E+00 -0.00000000000E+00 -0.45593999997E+02  0.45594000000E+02  0.51100000000E-03 0. -1.
    9900012    2    1    2    0    0  0.35169041182E+02  0.13441387254E+02  0.15350383802E+02  0.50528848117E+02  0.29999964336E+02 0.  0.
        -12    1    1    2    0    0 -0.35169041182E+02 -0.13441387254E+02 -0.15350383802E+02  0.40659151883E+02  0.00000000000E+00 0.  1.
         11    1    3    3    0    0  0.55823708751E+01  0.13904187610E+02  0.11065771688E+02  0.18626341589E+02  0.51100000000E-03 0. -1.
        -11    1    3    3    0    0  0.27753830496E+02  0.14277070103E+01  0.11577298965E+01  0.27814632719E+02  0.51100000000E-03 0.  1.
         12    1    3    3    0    0  0.18328398106E+01 -0.18905073662E+01  0.31268822175E+01  0.40878738086E+01  0.00000000000E+00 0. -1.
</event>
<event>
 7    1  0.6889665E-012  0.5052886E+02  0.7816164E-02  0.1300439E+00
        -11   -1    0    0    0    0  0.00000000000E+00  0.00000000000E+00  0.45593999997E+02  0.45594000000E+02  0.51100000000E-03 0.  1.
         11   -1    0    0    0    0 -0.00000000000E+00 -0.00000000000E+00 -0.45593999997E+02  0.45594000000E+02  0.51100000000E-03 0. -1.
    9900012    2    1    2    0    0 -0.27160211750E+02  0.24196611112E+02  0.18166248155E+02  0.50528860023E+02  0.30000000527E+02 0.  0.
        -12    1    1    2    0    0  0.27160211750E+02 -0.24196611112E+02 -0.18166248155E+02  0.40659139977E+02  0.00000000000E+00 0.  1.
         11    1    3    3    0    0 -0.15819321210E+02  0.32704377335E+01 -0.76237262569E+00  0.16171824226E+02  0.51100000000E-03 0. -1.
        -11    1    3    3    0    0 -0.61748121915E+01  0.22320512048E+02  0.16741314711E+02  0.28576304558E+02  0.51100000000E-03 0.  1.
        -12    1    3    3    0    0 -0.51660783480E+01 -0.13943386686E+01  0.21873060696E+01  0.57807312394E+01  0.00000000000E+00 0.  1.
</event>
<event>
 7    1  0.6889665E-012  0.5052887E+02  0.7816164E-02  0.1300439E+00
        -11   -1    0    0    0    0  0.00000000000E+00  0.00000000000E+00  0.45593999997E+02  0.45594000000E+02  0.51100000000E-03 0. -1.
         11   -1    0    0    0    0 -0.00000000000E+00 -0.00000000000E+00 -0.45593999997E+02  0.45594000000E+02  0.51100000000E-03 0.  1.
    9900012    2    1    2    0    0  0.96198757036E+00  0.92630928143E+01  0.39578203156E+02  0.50528874658E+02  0.30000045009E+02 0.  0.
        -12    1    1    2    0    0 -0.96198757036E+00 -0.92630928143E+01 -0.39578203156E+02  0.40659125342E+02  0.00000000000E+00 0.  1.
         11    1    3    3    0    0  0.13722611106E+02  0.59654033278E+01  0.13008997781E+02  0.19827509071E+02  0.51100000000E-03 0. -1.
        -11    1    3    3    0    0 -0.28455438007E+01 -0.13970179965E+00  0.14187882458E+02  0.14471096884E+02  0.51100000000E-03 0.  1.
         12    1    3    3    0    0 -0.99150797348E+01  0.34373912862E+01  0.12381322917E+02  0.16230268703E+02  0.00000000000E+00 0. -1.
</event>
<event>
 7    1  0.6889665E-012  0.5052886E+02  0.7816164E-02  0.1300439E+00
        -11   -1    0    0    0    0  0.00000000000E+00  0.00000000000E+00  0.45593999997E+02  0.45594000000E+02  0.51100000000E-03 0.  1.
         11   -1    0    0    0    0 -0.00000000000E+00 -0.00000000000E+00 -0.45593999997E+02  0.45594000000E+02  0.51100000000E-03 0. -1.
    9900012    2    1    2    0    0 -0.69089899782E+01 -0.38905447593E+02  0.95811235937E+01  0.50528856819E+02  0.29999990786E+02 0.  0.
        -12    1    1    2    0    0  0.69089899782E+01  0.38905447593E+02 -0.95811235937E+01  0.40659143181E+02  0.00000000000E+00 0.  1.
         11    1    3    3    0    0  0.41822231726E+01 -0.14417969523E+01 -0.37907988594E+01  0.58257982604E+01  0.51100000000E-03 0. -1.
        -11    1    3    3    0    0 -0.76382838927E+01 -0.22005518927E+02  0.16516453305E+02  0.28554850273E+02  0.51100000000E-03 0.  1.
        -12    1    3    3    0    0 -0.34529292581E+01 -0.15458131714E+02 -0.31445308520E+01  0.16148208285E+02  0.00000000000E+00 0.  1.
</event>
<event>
 7    1  0.6889665E-012  0.5052886E+02  0.7816164E-02  0.1300439E+00
        -11   -1    0    0    0    0  0.00000000000E+00  0.00000000000E+00  0.45593999997E+02  0.45594000000E+02  0.51100000000E-03 0. -1.
         11   -1    0    0    0    0 -0.00000000000E+00 -0.00000000000E+00 -0.45593999997E+02  0.45594000000E+02  0.51100000000E-03 0.  1.
    9900012    2    1    2    0    0  0.22179858563E+02  0.10071622149E+01 -0.34061782755E+02  0.50528861470E+02  0.30000004923E+02 0.  0.
         12    1    1    2    0    0 -0.22179858563E+02 -0.10071622149E+01  0.34061782755E+02  0.40659138530E+02  0.00000000000E+00 0. -1.
         11    1    3    3    0    0  0.23359525851E+02 -0.53199996549E+01 -0.25576051657E+02  0.35044318554E+02  0.51100000000E-03 0. -1.
        -11    1    3    3    0    0 -0.58960603916E+01  0.14676833838E+01 -0.49965599919E+01  0.78665897738E+01  0.51100000000E-03 0.  1.
         12    1    3    3    0    0  0.47163931035E+01  0.48594784860E+01 -0.34891711063E+01  0.76179531418E+01  0.00000000000E+00 0. -1.
</event>
<event>
 7    1  0.6889665E-012  0.5052886E+02  0.7816164E-02  0.1300439E+00
        -11   -1    0    0    0    0  0.00000000000E+00  0.00000000000E+00  0.45593999997E+02  0.45594000000E+02  0.51100000000E-03 0. -1.
         11   -1    0    0    0    0 -0.00000000000E+00 -0.00000000000E+00 -0.45593999997E+02  0.45594000000E+02  0.51100000000E-03 0.  1.
    9900012    2    1    2    0    0 -0.38381368962E+01 -0.97984178525E+01  0.39273719275E+02  0.50528864336E+02  0.30000013637E+02 0.  0.
        -12    1    1    2    0    0  0.38381368962E+01  0.97984178525E+01 -0.39273719275E+02  0.40659135664E+02  0.00000000000E+00 0.  1.
         11    1    3    3    0    0 -0.45485619605E+01 -0.50339397651E+01  0.65794222396E+01  0.94508604231E+01  0.51100000000E-03 0. -1.
        -11    1    3    3    0    0  0.21857505533E+01  0.88474958481E+01  0.21640357458E+02  0.23481072366E+02  0.51100000000E-03 0.  1.
        -12    1    3    3    0    0 -0.14753254889E+01 -0.13611973935E+02  0.11053939577E+02  0.17596931548E+02  0.00000000000E+00 0.  1.
</event>
<event>
 7    1  0.6889665E-012  0.5052886E+02  0.7816164E-02  0.1300439E+00
        -11   -1    0    0    0    0  0.00000000000E+00  0.00000000000E+00  0.45593999997E+02  0.45594000000E+02  0.51100000000E-03 0. -1.
         11   -1    0    0    0    0 -0.00000000000E+00 -0.00000000000E+00 -0.45593999997E+02  0.45594000000E+02  0.51100000000E-03 0.  1.
    9900012    2    1    2    0    0  0.14613516444E+02 -0.66283325029E+01  0.37358751166E+02  0.50528856584E+02  0.29999990073E+02 0.  0.
        -12    1    1    2    0    0 -0.14613516444E+02  0.66283325029E+01 -0.37358751166E+02  0.40659143416E+02  0.00000000000E+00 0.  1.
         11    1    3    3    0    0 -0.13857669797E+01 -0.10186361816E+02  0.21670038383E+02  0.23984846903E+02  0.51100000000E-03 0. -1.
        -11    1    3    3    0    0  0.17157327507E+02  0.56454919893E+01  0.16008648528E+02  0.24135498647E+02  0.51100000000E-03 0.  1.
        -12    1    3    3    0    0 -0.11580440831E+01 -0.20874626758E+01 -0.31993574503E+00  0.24085110343E+01  0.00000000000E+00 0.  1.
</event>
<event>
 7    1  0.6889665E-012  0.5052886E+02  0.7816164E-02  0.1300439E+00
        -11   -1    0    0    0    0  0.00000000000E+00  0.00000000000E+00  0.45593999997E+02  0.45594000000E+02  0.51100000000E-03 0. -1.
         11   -1    0    0    0    0 -0.00000000000E+00 -0.00000000000E+00 -0.45593999997E+02  0.45594000000E+02  0.51100000000E-03 0.  1.
    9900012    2    1    2    0    0 -0.14485150501E+02 -0.28904785567E+02  0.24654808238E+02  0.50528858556E+02  0.29999996067E+02 0.  0.
        -12    1    1    2    0    0  0.14485150501E+02  0.28904785567E+02 -0.24654808238E+02  0.40659141444E+02  0.00000000000E+00 0.  1.
         11    1    3    3    0    0 -0.36002357252E+01 -0.31744236296E+01  0.16289983347E+02  0.16982409145E+02  0.51100000000E-03 0. -1.
        -11    1    3    3    0    0  0.50287386148E+00 -0.15935272748E+02 -0.77749490195E+00  0.15962152056E+02  0.51100000000E-03 0.  1.
         12    1    3    3    0    0 -0.11387788638E+02 -0.97950891892E+01  0.91423197927E+01  0.17584297355E+02  0.00000000000E+00 0. -1.
</event>
<event>
 7    1  0.6889665E-012  0.5052885E+02  0.7816164E-02  0.1300439E+00
        -11   -1    0    0    0    0  0.00000000000E+00  0.00000000000E+00  0.45593999997E+02  0.45594000000E+02  0.51100000000E-03 0. -1.
         11   -1    0    0    0    0 -0.00000000000E+00 -0.00000000000E+00 -0.45593999997E+02  0.45594000000E+02  0.51100000000E-03 0.  1.
    9900012    2    1    2    0    0  0.22760031874E+02  0.30846919863E+02  0.13550470137E+02  0.50528846579E+02  0.29999959663E+02 0.  0.
        -12    1    1    2    0    0 -0.22760031874E+02 -0.30846919863E+02 -0.13550470137E+02  0.40659153421E+02  0.00000000000E+00 0.  1.
         11    1    3    3    0    0  0.13980582827E+02  0.38498207162E+01  0.79667998739E+01  0.16545323092E+02  0.51100000000E-03 0. -1.
        -11    1    3    3    0    0  0.42677997695E+01  0.27570519992E+02  0.16118901433E+01  0.27945408882E+02  0.51100000000E-03 0.  1.
        -12    1    3    3    0    0  0.45116492773E+01 -0.57342084473E+00  0.39717801199E+01  0.60381146054E+01  0.00000000000E+00 0.  1.
</event>
<event>
 7    1  0.6889665E-012  0.5052886E+02  0.7816164E-02  0.1300439E+00
        -11   -1    0    0    0    0  0.00000000000E+00  0.00000000000E+00  0.45593999997E+02  0.45594000000E+02  0.51100000000E-03 0. -1.
         11   -1    0    0    0    0 -0.00000000000E+00 -0.00000000000E+00 -0.45593999997E+02  0.45594000000E+02  0.51100000000E-03 0.  1.
    9900012    2    1    2    0    0 -0.20023441648E+02  0.25181928635E+01  0.35297109107E+02  0.50528862994E+02  0.30000009556E+02 0.  0.
        -12    1    1    2    0    0  0.20023441648E+02 -0.25181928635E+01 -0.35297109107E+02  0.40659137006E+02  0.00000000000E+00 0.  1.
         11    1    3    3    0    0 -0.15032333930E+02  0.95335358241E+01  0.14649356765E+02  0.23053481789E+02  0.51100000000E-03 0. -1.
        -11    1    3    3    0    0 -0.31050520979E+01 -0.66373206101E+01  0.23171271898E+02  0.24302329416E+02  0.51100000000E-03 0.  1.
        -12    1    3    3    0    0 -0.18860556199E+01 -0.37802235043E+00 -0.25235195566E+01  0.31730517883E+01  0.00000000000E+00 0.  1.
</event>
<event>
 7    1  0.6889665E-012  0.5052887E+02  0.7816164E-02  0.1300439E+00
        -11   -1    0    0    0    0  0.00000000000E+00  0.00000000000E+00  0.45593999997E+02  0.45594000000E+02  0.51100000000E-03 0. -1.
         11   -1    0    0    0    0 -0.00000000000E+00 -0.00000000000E+00 -0.45593999997E+02  0.45594000000E+02  0.51100000000E-03 0.  1.
    9900012    2    1    2    0    0  0.82475852567E+01 -0.38228170144E+01 -0.39629891384E+02  0.50528869616E+02  0.30000029686E+02 0.  0.
         12    1    1    2    0    0 -0.82475852567E+01  0.38228170144E+01  0.39629891384E+02  0.40659130384E+02  0.00000000000E+00 0. -1.
         11    1    3    3    0    0  0.82815267719E+01  0.94409941357E+01 -0.83955473305E+01  0.15106332155E+02  0.51100000000E-03 0. -1.
        -11    1    3    3    0    0  0.44512367756E+01 -0.26668118345E+01 -0.10347016003E+02  0.11575237994E+02  0.51100000000E-03 0.  1.
         12    1    3    3    0    0 -0.44851782907E+01 -0.10596999316E+02 -0.20887328050E+02  0.23847299467E+02  0.00000000000E+00 0. -1.
</event>
<event>
 7    1  0.6889665E-012  0.5052886E+02  0.7816164E-02  0.1300439E+00
        -11   -1    0    0    0    0  0.00000000000E+00  0.00000000000E+00  0.45593999997E+02  0.45594000000E+02  0.51100000000E-03 0. -1.
         11   -1    0    0    0    0 -0.00000000000E+00 -0.00000000000E+00 -0.45593999997E+02  0.45594000000E+02  0.51100000000E-03 0.  1.
    9900012    2    1    2    0    0 -0.31875745611E+02  0.50714324904E+01 -0.24726160588E+02  0.50528860767E+02  0.30000002787E+02 0.  0.
         12    1    1    2    0    0  0.31875745611E+02 -0.50714324904E+01  0.24726160588E+02  0.40659139233E+02  0.00000000000E+00 0. -1.
         11    1    3    3    0    0  0.17027915034E+01 -0.31207306312E+01 -0.31911738452E+01  0.47772428605E+01  0.51100000000E-03 0. -1.
        -11    1    3    3    0    0 -0.32160469925E+02  0.53183443052E+00 -0.19798942672E+02  0.37770051693E+02  0.51100000000E-03 0.  1.
        -12    1    3    3    0    0 -0.14180671892E+01  0.76603286911E+01 -0.17360440704E+01  0.79815662137E+01  0.00000000000E+00 0.  1.
</event>
<event>
 7    1  0.7307464E-012  0.5052886E+02  0.7816164E-02  0.1300439E+00
        -11   -1    0    0    0    0  0.00000000000E+00  0.00000000000E+00  0.45593999997E+02  0.45594000000E+02  0.51100000000E-03 0. -1.
         11   -1    0    0    0    0 -0.00000000000E+00 -0.00000000000E+00 -0.45593999997E+02  0.45594000000E+02  0.51100000000E-03 0.  1.
    9900012    2    1    2    0    0 -0.86874844866E+01  0.11810920155E+02 -0.37923548222E+02  0.50528859191E+02  0.29999997996E+02 0.  0.
         12    1    1    2    0    0  0.86874844866E+01 -0.11810920155E+02  0.37923548222E+02  0.40659140809E+02  0.00000000000E+00 0. -1.
         11    1    3    3    0    0 -0.33450668096E+01 -0.44923111882E+01 -0.45746770602E-01  0.56011092473E+01  0.51100000000E-03 0. -1.
        -11    1    3    3    0    0 -0.10365410918E+02  0.84973957715E+01 -0.29589292898E+02  0.32483437824E+02  0.51100000000E-03 0.  1.
         12    1    3    3    0    0  0.50229932413E+01  0.78058355720E+01 -0.82885085529E+01  0.12444312119E+02  0.00000000000E+00 0. -1.
</event>
<event>
 7    1  0.6889665E-012  0.5052887E+02  0.7816164E-02  0.1300439E+00
        -11   -1    0    0    0    0  0.00000000000E+00  0.00000000000E+00  0.45593999997E+02  0.45594000000E+02  0.51100000000E-03 0. -1.
         11   -1    0    0    0    0 -0.00000000000E+00 -0.00000000000E+00 -0.45593999997E+02  0.45594000000E+02  0.51100000000E-03 0.  1.
    9900012    2    1    2    0    0 -0.15222759490E+02 -0.37521968581E+02 -0.36789171562E+01  0.50528868625E+02  0.30000026673E+02 0.  0.
        -12    1    1    2    0    0  0.15222759490E+02  0.37521968581E+02  0.36789171562E+01  0.40659131375E+02  0.00000000000E+00 0.  1.
         11    1    3    3    0    0 -0.13872322105E+02 -0.23566712197E+02  0.23152161170E+00  0.27347483374E+02  0.51100000000E-03 0. -1.
        -11    1    3    3    0    0  0.31708139444E+01 -0.13785700692E+02 -0.86886551208E+01  0.16600973848E+02  0.51100000000E-03 0.  1.
         12    1    3    3    0    0 -0.45212513298E+01 -0.16955569251E+00  0.47782163529E+01  0.65804114032E+01  0.00000000000E+00 0. -1.
</event>
<event>
 7    1  0.8058163E-012  0.5052886E+02  0.7816164E-02  0.1300439E+00
        -11   -1    0    0    0    0  0.00000000000E+00  0.00000000000E+00  0.45593999997E+02  0.45594000000E+02  0.51100000000E-03 0. -1.
         11   -1    0    0    0    0 -0.00000000000E+00 -0.00000000000E+00 -0.45593999997E+02  0.45594000000E+02  0.51100000000E-03 0.  1.
    9900012    2    1    2    0    0  0.21654170447E+02 -0.10446088676E+02 -0.32789352479E+02  0.50528862006E+02  0.30000006554E+02 0.  0.
         12    1    1    2    0    0 -0.21654170447E+02  0.10446088676E+02  0.32789352479E+02  0.40659137994E+02  0.00000000000E+00 0. -1.
         11    1    3    3    0    0 -0.37724798201E+00  0.58141490076E+01 -0.13447578618E+02  0.14655511444E+02  0.51100000000E-03 0. -1.
        -11    1    3    3    0    0  0.19320466599E+02 -0.11897809966E+02 -0.20532468420E+02  0.30600989711E+02  0.51100000000E-03 0.  1.
         12    1    3    3    0    0  0.27109518299E+01 -0.43624277175E+01  0.11906945595E+01  0.52723608515E+01  0.00000000000E+00 0. -1.
</event>
<event>
 7    1  0.6889665E-012  0.5052887E+02  0.7816164E-02  0.1300439E+00
        -11   -1    0    0    0    0  0.00000000000E+00  0.00000000000E+00  0.45593999997E+02  0.45594000000E+02  0.51100000000E-03 0. -1.
         11   -1    0    0    0    0 -0.00000000000E+00 -0.00000000000E+00 -0.45593999997E+02  0.45594000000E+02  0.51100000000E-03 0.  1.
    9900012    2    1    2    0    0  0.15938412731E+02  0.26588875218E+01 -0.37310346028E+02  0.50528873055E+02  0.30000040137E+02 0.  0.
         12    1    1    2    0    0 -0.15938412731E+02 -0.26588875218E+01  0.37310346028E+02  0.40659126945E+02  0.00000000000E+00 0. -1.
         11    1    3    3    0    0  0.52617646243E+01  0.14656993754E+02 -0.17087556299E+02  0.23119217405E+02  0.51100000000E-03 0. -1.
        -11    1    3    3    0    0 -0.74919603032E+00 -0.43525831604E+01 -0.73554468698E+01  0.85795613976E+01  0.51100000000E-03 0.  1.
         12    1    3    3    0    0  0.11425844138E+02 -0.76455230720E+01 -0.12867342859E+02  0.18830094252E+02  0.00000000000E+00 0. -1.
</event>
<event>
 7    1  0.6889665E-012  0.5052887E+02  0.7816164E-02  0.1300439E+00
        -11   -1    0    0    0    0  0.00000000000E+00  0.00000000000E+00  0.45593999997E+02  0.45594000000E+02  0.51100000000E-03 0. -1.
         11   -1    0    0    0    0 -0.00000000000E+00 -0.00000000000E+00 -0.45593999997E+02  0.45594000000E+02  0.51100000000E-03 0.  1.
    9900012    2    1    2    0    0  0.16504813329E+02  0.70255770681E+01  0.36488320533E+02  0.50528866567E+02  0.30000020418E+02 0.  0.
        -12    1    1    2    0    0 -0.16504813329E+02 -0.70255770681E+01 -0.36488320533E+02  0.40659133433E+02  0.00000000000E+00 0.  1.
         11    1    3    3    0    0  0.11853990390E+02  0.14401385466E+02  0.31483861382E+02  0.36594405574E+02  0.51100000000E-03 0. -1.
        -11    1    3    3    0    0  0.17807107506E+01  0.22119839860E+01  0.20400043903E+01  0.34964871093E+01  0.51100000000E-03 0.  1.
         12    1    3    3    0    0  0.28701121889E+01 -0.95877923843E+01  0.29644547609E+01  0.10437973884E+02  0.00000000000E+00 0. -1.
</event>
<event>
 7    1  0.6889665E-012  0.5052887E+02  0.7816164E-02  0.1300439E+00
        -11   -1    0    0    0    0  0.00000000000E+00  0.00000000000E+00  0.45593999997E+02  0.45594000000E+02  0.51100000000E-03 0. -1.
         11   -1    0    0    0    0 -0.00000000000E+00 -0.00000000000E+00 -0.45593999997E+02  0.45594000000E+02  0.51100000000E-03 0.  1.
    9900012    2    1    2    0    0  0.16291839666E+02 -0.24082591684E+01 -0.37174469958E+02  0.50528868571E+02  0.30000026507E+02 0.  0.
         12    1    1    2    0    0 -0.16291839666E+02  0.24082591684E+01  0.37174469958E+02  0.40659131429E+02  0.00000000000E+00 0. -1.
         11    1    3    3    0    0 -0.33351957592E+01 -0.53570348699E+01  0.16334125803E+01  0.65183886251E+01  0.51100000000E-03 0. -1.
        -11    1    3    3    0    0  0.10877554381E+02  0.45315363075E+01 -0.20159347783E+02  0.23350702643E+02  0.51100000000E-03 0.  1.
         12    1    3    3    0    0  0.87494810445E+01 -0.15827606059E+01 -0.18648534755E+02  0.20659777303E+02  0.00000000000E+00 0. -1.
</event>
<event>
 7    1  0.6889665E-012  0.5052886E+02  0.7816164E-02  0.1300439E+00
        -11   -1    0    0    0    0  0.00000000000E+00  0.00000000000E+00  0.45593999997E+02  0.45594000000E+02  0.51100000000E-03 0. -1.
         11   -1    0    0    0    0 -0.00000000000E+00 -0.00000000000E+00 -0.45593999997E+02  0.45594000000E+02  0.51100000000E-03 0.  1.
    9900012    2    1    2    0    0 -0.11880034404E+02  0.21834102930E+02 -0.32176116804E+02  0.50528858829E+02  0.29999996895E+02 0.  0.
         12    1    1    2    0    0  0.11880034404E+02 -0.21834102930E+02  0.32176116804E+02  0.40659141171E+02  0.00000000000E+00 0. -1.
         11    1    3    3    0    0 -0.46963361888E+00  0.58955156770E+01 -0.26584396734E+02  0.27234313114E+02  0.51100000000E-03 0. -1.
        -11    1    3    3    0    0 -0.52135462753E+01  0.26229874058E+00 -0.35540968880E+01  0.63151777761E+01  0.51100000000E-03 0.  1.
         12    1    3    3    0    0 -0.61968545095E+01  0.15676288513E+02 -0.20376231822E+01  0.16979367938E+02  0.00000000000E+00 0. -1.
</event>
<event>
 7    1  0.6889665E-012  0.5052886E+02  0.7816164E-02  0.1300439E+00
        -11   -1    0    0    0    0  0.00000000000E+00  0.00000000000E+00  0.45593999997E+02  0.45594000000E+02  0.51100000000E-03 0. -1.
         11   -1    0    0    0    0 -0.00000000000E+00 -0.00000000000E+00 -0.45593999997E+02  0.45594000000E+02  0.51100000000E-03 0.  1.
    9900012    2    1    2    0    0 -0.19392515282E+01 -0.35693397680E+02  0.19374881239E+02  0.50528863789E+02  0.30000011973E+02 0.  0.
        -12    1    1    2    0    0  0.19392515282E+01  0.35693397680E+02 -0.19374881239E+02  0.40659136211E+02  0.00000000000E+00 0.  1.
         11    1    3    3    0    0  0.56456342565E+01 -0.21848067961E+02  0.98919789866E+01  0.24638638524E+02  0.51100000000E-03 0. -1.
        -11    1    3    3    0    0 -0.50278732770E+01  0.30583159663E+01  0.60747670150E+01  0.84578721193E+01  0.51100000000E-03 0.  1.
        -12    1    3    3    0    0 -0.25570125077E+01 -0.16903645685E+02  0.34081352373E+01  0.17432353146E+02  0.00000000000E+00 0.  1.
</event>
<event>
 7    1  0.6889665E-012  0.5052886E+02  0.7816164E-02  0.1300439E+00
        -11   -1    0    0    0    0  0.00000000000E+00  0.00000000000E+00  0.45593999997E+02  0.45594000000E+02  0.51100000000E-03 0. -1.
         11   -1    0    0    0    0 -0.00000000000E+00 -0.00000000000E+00 -0.45593999997E+02  0.45594000000E+02  0.51100000000E-03 0.  1.
    9900012    2    1    2    0    0  0.81314385170E+01 -0.12961624912E+02  0.37670170712E+02  0.50528858664E+02  0.29999996395E+02 0.  0.
        -12    1    1    2    0    0 -0.81314385170E+01  0.12961624912E+02 -0.37670170712E+02  0.40659141336E+02  0.00000000000E+00 0.  1.
         11    1    3    3    0    0  0.64191702872E+01  0.28876475372E+01  0.23072096672E+02  0.24121896703E+02  0.51100000000E-03 0. -1.
        -11    1    3    3    0    0  0.10410315934E+01 -0.17772697277E+02  0.15998038994E+02  0.23935115776E+02  0.51100000000E-03 0.  1.
        -12    1    3    3    0    0  0.67123663646E+00  0.19234248275E+01 -0.13999649543E+01  0.24718461851E+01  0.00000000000E+00 0.  1.
</event>
<event>
 7    1  0.6889665E-012  0.5052890E+02  0.7816164E-02  0.1300439E+00
        -11   -1    0    0    0    0  0.00000000000E+00  0.00000000000E+00  0.45593999997E+02  0.45594000000E+02  0.51100000000E-03 0. -1.
         11   -1    0    0    0    0 -0.00000000000E+00 -0.00000000000E+00 -0.45593999997E+02  0.45594000000E+02  0.51100000000E-03 0.  1.
    9900012    2    1    2    0    0  0.22916673890E+02  0.29774608398E+02  0.15539033713E+02  0.50528895040E+02  0.30000106963E+02 0.  0.
        -12    1    1    2    0    0 -0.22916673890E+02 -0.29774608398E+02 -0.15539033713E+02  0.40659104960E+02  0.00000000000E+00 0.  1.
         11    1    3    3    0    0  0.21172130344E+02  0.15187725967E+02  0.20380523728E+02  0.33080082694E+02  0.51100000000E-03 0. -1.
        -11    1    3    3    0    0  0.33331536278E+01  0.14625865176E+02 -0.35857983360E+01  0.15423481942E+02  0.51100000000E-03 0.  1.
         12    1    3    3    0    0 -0.15886100821E+01 -0.38982745033E-01 -0.12556916797E+01  0.20253304031E+01  0.00000000000E+00 0. -1.
</event>
<event>
 7    1  0.6889665E-012  0.5052886E+02  0.7816164E-02  0.1300439E+00
        -11   -1    0    0    0    0  0.00000000000E+00  0.00000000000E+00  0.45593999997E+02  0.45594000000E+02  0.51100000000E-03 0.  1.
         11   -1    0    0    0    0 -0.00000000000E+00 -0.00000000000E+00 -0.45593999997E+02  0.45594000000E+02  0.51100000000E-03 0. -1.
    9900012    2    1    2    0    0  0.22779153797E+02 -0.24804826609E+02  0.22781495799E+02  0.50528858080E+02  0.29999994620E+02 0.  0.
        -12    1    1    2    0    0 -0.22779153797E+02  0.24804826609E+02 -0.22781495799E+02  0.40659141920E+02  0.00000000000E+00 0.  1.
         11    1    3    3    0    0 -0.23298943607E+01 -0.18220967957E+02  0.12752938107E+02  0.22362234048E+02  0.51100000000E-03 0. -1.
        -11    1    3    3    0    0  0.43361437008E+01 -0.11781351409E+01  0.36067082496E+01  0.57618130188E+01  0.51100000000E-03 0.  1.
         12    1    3    3    0    0  0.20772904457E+02 -0.54057235110E+01  0.64218494426E+01  0.22404811013E+02  0.00000000000E+00 0. -1.
</event>
<event>
 7    1  0.6889665E-012  0.5052886E+02  0.7816164E-02  0.1300439E+00
        -11   -1    0    0    0    0  0.00000000000E+00  0.00000000000E+00  0.45593999997E+02  0.45594000000E+02  0.51100000000E-03 0. -1.
         11   -1    0    0    0    0 -0.00000000000E+00 -0.00000000000E+00 -0.45593999997E+02  0.45594000000E+02  0.51100000000E-03 0.  1.
    9900012    2    1    2    0    0  0.34344280833E+02 -0.15780778245E+02 -0.14986768061E+02  0.50528858287E+02  0.29999995248E+02 0.  0.
         12    1    1    2    0    0 -0.34344280833E+02  0.15780778245E+02  0.14986768061E+02  0.40659141713E+02  0.00000000000E+00 0. -1.
         11    1    3    3    0    0  0.21325070285E+02 -0.16258387461E+02  0.30445177449E+01  0.26988198792E+02  0.51100000000E-03 0. -1.
        -11    1    3    3    0    0  0.51315760608E+01 -0.28989335182E+01 -0.10869065440E+02  0.12364201236E+02  0.51100000000E-03 0.  1.
         12    1    3    3    0    0  0.78876344877E+01  0.33765427338E+01 -0.71622203656E+01  0.11176458259E+02  0.00000000000E+00 0. -1.
</event>
<event>
 7    1  0.6889665E-012  0.5052886E+02  0.7816164E-02  0.1300439E+00
        -11   -1    0    0    0    0  0.00000000000E+00  0.00000000000E+00  0.45593999997E+02  0.45594000000E+02  0.51100000000E-03 0. -1.
         11   -1    0    0    0    0 -0.00000000000E+00 -0.00000000000E+00 -0.45593999997E+02  0.45594000000E+02  0.51100000000E-03 0.  1.
    9900012    2    1    2    0    0  0.11325945001E+02 -0.34918206941E+02 -0.17481640872E+02  0.50528856210E+02  0.29999988935E+02 0.  0.
         12    1    1    2    0    0 -0.11325945001E+02  0.34918206941E+02  0.17481640872E+02  0.40659143790E+02  0.00000000000E+00 0. -1.
         11    1    3    3    0    0 -0.62361886096E+01 -0.11551356408E+02  0.25063914409E+01  0.13364351146E+02  0.51100000000E-03 0. -1.
        -11    1    3    3    0    0  0.26524018026E+01 -0.11560164659E+02 -0.10808529091E+02  0.16046711302E+02  0.51100000000E-03 0.  1.
         12    1    3    3    0    0  0.14909731808E+02 -0.11806685875E+02 -0.91795032222E+01  0.21117793761E+02  0.00000000000E+00 0. -1.
</event>
<event>
 7    1  0.6889665E-012  0.5052886E+02  0.7816164E-02  0.1300439E+00
        -11   -1    0    0    0    0  0.00000000000E+00  0.00000000000E+00  0.45593999997E+02  0.45594000000E+02  0.51100000000E-03 0. -1.
         11   -1    0    0    0    0 -0.00000000000E+00 -0.00000000000E+00 -0.45593999997E+02  0.45594000000E+02  0.51100000000E-03 0.  1.
    9900012    2    1    2    0    0  0.27441436415E+02 -0.68805134779E+01  0.29202595146E+02  0.50528862509E+02  0.30000008082E+02 0.  0.
        -12    1    1    2    0    0 -0.27441436415E+02  0.68805134779E+01 -0.29202595146E+02  0.40659137491E+02  0.00000000000E+00 0.  1.
         11    1    3    3    0    0  0.18377097837E+02 -0.14495846320E+01  0.10105161552E+02  0.21022209940E+02  0.51100000000E-03 0. -1.
        -11    1    3    3    0    0  0.70565168282E+01 -0.11387447206E+02  0.18965079773E+02  0.23219445184E+02  0.51100000000E-03 0.  1.
        -12    1    3    3    0    0  0.20078217501E+01  0.59565183603E+01  0.13235382075E+00  0.62872073841E+01  0.00000000000E+00 0.  1.
</event>
<event>
 7    1  0.6889665E-012  0.5052886E+02  0.7816164E-02  0.1300439E+00
        -11   -1    0    0    0    0  0.00000000000E+00  0.00000000000E+00  0.45593999997E+02  0.45594000000E+02  0.51100000000E-03 0. -1.
         11   -1    0    0    0    0 -0.00000000000E+00 -0.00000000000E+00 -0.45593999997E+02  0.45594000000E+02  0.51100000000E-03 0.  1.
    9900012    2    1    2    0    0  0.15378294932E+02 -0.10793951911E+02  0.36057789154E+02  0.50528861894E+02  0.30000006212E+02 0.  0.
        -12    1    1    2    0    0 -0.15378294932E+02  0.10793951911E+02 -0.36057789154E+02  0.40659138106E+02  0.00000000000E+00 0.  1.
         11    1    3    3    0    0  0.69563530101E+01  0.45873269942E+01  0.99151375008E+01  0.12951616427E+02  0.51100000000E-03 0. -1.
        -11    1    3    3    0    0  0.60490905412E+01 -0.19056373458E+02  0.26490815393E+02  0.33188856054E+02  0.51100000000E-03 0.  1.
        -12    1    3    3    0    0  0.23728513807E+01  0.36750945527E+01 -0.34816373982E+00  0.43883894125E+01  0.00000000000E+00 0.  1.
</event>
<event>
 7    1  0.6889665E-012  0.5052885E+02  0.7816164E-02  0.1300439E+00
        -11   -1    0    0    0    0  0.00000000000E+00  0.00000000000E+00  0.45593999997E+02  0.45594000000E+02  0.51100000000E-03 0.  1.
         11   -1    0    0    0    0 -0.00000000000E+00 -0.00000000000E+00 -0.45593999997E+02  0.45594000000E+02  0.51100000000E-03 0. -1.
    9900012    2    1    2    0    0  0.11001077554E+02  0.35918334725E+02 -0.15556861662E+02  0.50528850703E+02  0.29999972198E+02 0.  0.
         12    1    1    2    0    0 -0.11001077554E+02 -0.35918334725E+02  0.15556861662E+02  0.40659149297E+02  0.00000000000E+00 0. -1.
         11    1    3    3    0    0  0.11643476332E+02  0.91887604373E+01 -0.18265289241E+02  0.23529229711E+02  0.51100000000E-03 0. -1.
        -11    1    3    3    0    0 -0.31769209450E+00  0.13104069819E+02  0.21599053523E-01  0.13107938086E+02  0.51100000000E-03 0.  1.
         12    1    3    3    0    0 -0.32470668329E+00  0.13625504468E+02  0.26868285255E+01  0.13891682906E+02  0.00000000000E+00 0. -1.
</event>
<event>
 7    1  0.6889665E-012  0.5052886E+02  0.7816164E-02  0.1300439E+00
        -11   -1    0    0    0    0  0.00000000000E+00  0.00000000000E+00  0.45593999997E+02  0.45594000000E+02  0.51100000000E-03 0. -1.
         11   -1    0    0    0    0 -0.00000000000E+00 -0.00000000000E+00 -0.45593999997E+02  0.45594000000E+02  0.51100000000E-03 0.  1.
    9900012    2    1    2    0    0  0.26380793145E+02  0.12434583681E+02  0.28330202034E+02  0.50528862459E+02  0.30000007931E+02 0.  0.
        -12    1    1    2    0    0 -0.26380793145E+02 -0.12434583681E+02 -0.28330202034E+02  0.40659137541E+02  0.00000000000E+00 0.  1.
         11    1    3    3    0    0  0.18898736465E+02  0.20272499377E+00  0.26475407485E+02  0.32529225923E+02  0.51100000000E-03 0. -1.
        -11    1    3    3    0    0  0.54671414481E+01  0.23050425606E+01 -0.31322972827E+01  0.67092580325E+01  0.51100000000E-03 0.  1.
         12    1    3    3    0    0  0.20149152315E+01  0.99268161271E+01  0.49870918313E+01  0.11290378503E+02  0.00000000000E+00 0. -1.
</event>
<event>
 7    1  0.6889665E-012  0.5052887E+02  0.7816164E-02  0.1300439E+00
        -11   -1    0    0    0    0  0.00000000000E+00  0.00000000000E+00  0.45593999997E+02  0.45594000000E+02  0.51100000000E-03 0. -1.
         11   -1    0    0    0    0 -0.00000000000E+00 -0.00000000000E+00 -0.45593999997E+02  0.45594000000E+02  0.51100000000E-03 0.  1.
    9900012    2    1    2    0    0  0.48066713215E+01 -0.36483288404E+02  0.17292501680E+02  0.50528867738E+02  0.30000023975E+02 0.  0.
        -12    1    1    2    0    0 -0.48066713215E+01  0.36483288404E+02 -0.17292501680E+02  0.40659132262E+02  0.00000000000E+00 0.  1.
         11    1    3    3    0    0  0.15488938302E+02 -0.26869015682E+02  0.16426348358E+02  0.35095243753E+02  0.51100000000E-03 0. -1.
        -11    1    3    3    0    0 -0.22262283874E+01 -0.15205888535E+01 -0.20307660142E+01  0.33752472739E+01  0.51100000000E-03 0.  1.
         12    1    3    3    0    0 -0.84560385933E+01 -0.80936838690E+01  0.28969193361E+01  0.12058376711E+02  0.00000000000E+00 0. -1.
</event>
<event>
 7    1  0.6889665E-012  0.5052886E+02  0.7816164E-02  0.1300439E+00
        -11   -1    0    0    0    0  0.00000000000E+00  0.00000000000E+00  0.45593999997E+02  0.45594000000E+02  0.51100000000E-03 0. -1.
         11   -1    0    0    0    0 -0.00000000000E+00 -0.00000000000E+00 -0.45593999997E+02  0.45594000000E+02  0.51100000000E-03 0.  1.
    9900012    2    1    2    0    0  0.83878629815E+01  0.14934763716E+02 -0.36874950264E+02  0.50528863639E+02  0.30000011517E+02 0.  0.
         12    1    1    2    0    0 -0.83878629815E+01 -0.14934763716E+02  0.36874950264E+02  0.40659136361E+02  0.00000000000E+00 0. -1.
         11    1    3    3    0    0 -0.45291326339E+01  0.85798988563E+01 -0.13596373021E+01  0.97967505150E+01  0.51100000000E-03 0. -1.
        -11    1    3    3    0    0  0.14008246633E+02  0.26265799374E+01 -0.33388772806E+02  0.36303443992E+02  0.51100000000E-03 0.  1.
        -12    1    3    3    0    0 -0.10912510179E+01  0.37282849227E+01 -0.21265401556E+01  0.44286691322E+01  0.00000000000E+00 0.  1.
</event>
<event>
 7    1  0.6889665E-012  0.5052893E+02  0.7816164E-02  0.1300439E+00
        -11   -1    0    0    0    0  0.00000000000E+00  0.00000000000E+00  0.45593999997E+02  0.45594000000E+02  0.51100000000E-03 0.  1.
         11   -1    0    0    0    0 -0.00000000000E+00 -0.00000000000E+00 -0.45593999997E+02  0.45594000000E+02  0.51100000000E-03 0. -1.
    9900012    2    1    2    0    0 -0.35760025038E+02  0.12201115796E+02  0.15017102677E+02  0.50528929792E+02  0.30000212594E+02 0.  0.
        -12    1    1    2    0    0  0.35760025038E+02 -0.12201115796E+02 -0.15017102677E+02  0.40659070208E+02  0.00000000000E+00 0.  1.
         11    1    3    3    0    0 -0.27116210834E+02  0.13178930725E+01  0.81894672398E+01  0.28356535509E+02  0.51100000000E-03 0. -1.
        -11    1    3    3    0    0  0.33599109921E+01  0.15444652972E+01  0.58648838825E+01  0.69333424945E+01  0.51100000000E-03 0.  1.
        -12    1    3    3    0    0 -0.12003725196E+02  0.93387574264E+01  0.96275155480E+00  0.15239051788E+02  0.00000000000E+00 0.  1.
</event>
<event>
 7    1  0.6889665E-012  0.5052886E+02  0.7816164E-02  0.1300439E+00
        -11   -1    0    0    0    0  0.00000000000E+00  0.00000000000E+00  0.45593999997E+02  0.45594000000E+02  0.51100000000E-03 0. -1.
         11   -1    0    0    0    0 -0.00000000000E+00 -0.00000000000E+00 -0.45593999997E+02  0.45594000000E+02  0.51100000000E-03 0.  1.
    9900012    2    1    2    0    0 -0.13058460254E+02  0.14288275119E+01  0.38478575254E+02  0.50528859751E+02  0.29999999698E+02 0.  0.
        -12    1    1    2    0    0  0.13058460254E+02 -0.14288275119E+01 -0.38478575254E+02  0.40659140249E+02  0.00000000000E+00 0.  1.
         11    1    3    3    0    0 -0.54384813622E+01  0.81998389662E+01  0.12933764037E+02  0.16251051997E+02  0.51100000000E-03 0.  1.
        -11    1    3    3    0    0  0.64246272593E+01 -0.52642925723E+01  0.63975825663E+01  0.10484163041E+02  0.51100000000E-03 0. -1.
        -12    1    3    3    0    0 -0.14044606151E+02 -0.15067188819E+01  0.19147228651E+02  0.23793644713E+02  0.00000000000E+00 0.  1.
</event>
<event>
 7    1  0.6889665E-012  0.5052884E+02  0.7816164E-02  0.1300439E+00
        -11   -1    0    0    0    0  0.00000000000E+00  0.00000000000E+00  0.45593999997E+02  0.45594000000E+02  0.51100000000E-03 0. -1.
         11   -1    0    0    0    0 -0.00000000000E+00 -0.00000000000E+00 -0.45593999997E+02  0.45594000000E+02  0.51100000000E-03 0.  1.
    9900012    2    1    2    0    0 -0.97725377889E+00  0.12800406223E+02 -0.38579298487E+02  0.50528835029E+02  0.29999924553E+02 0.  0.
         12    1    1    2    0    0  0.97725377889E+00 -0.12800406223E+02  0.38579298487E+02  0.40659164971E+02  0.00000000000E+00 0. -1.
         11    1    3    3    0    0  0.10236499734E+02  0.75752271693E+01 -0.17770916806E+02  0.21862650294E+02  0.51100000000E-03 0. -1.
        -11    1    3    3    0    0 -0.15054010725E+02  0.41760957378E+01 -0.15272089445E+02  0.21847190456E+02  0.51100000000E-03 0.  1.
        -12    1    3    3    0    0  0.38402572126E+01  0.10490833157E+01 -0.55362922356E+01  0.68189942792E+01  0.00000000000E+00 0.  1.
</event>
<event>
 7    1  0.6889665E-012  0.5052886E+02  0.7816164E-02  0.1300439E+00
        -11   -1    0    0    0    0  0.00000000000E+00  0.00000000000E+00  0.45593999997E+02  0.45594000000E+02  0.51100000000E-03 0. -1.
         11   -1    0    0    0    0 -0.00000000000E+00 -0.00000000000E+00 -0.45593999997E+02  0.45594000000E+02  0.51100000000E-03 0.  1.
    9900012    2    1    2    0    0  0.29376777263E+02 -0.10141575431E+02  0.26216768861E+02  0.50528861248E+02  0.30000004250E+02 0.  0.
        -12    1    1    2    0    0 -0.29376777263E+02  0.10141575431E+02 -0.26216768861E+02  0.40659138752E+02  0.00000000000E+00 0.  1.
         11    1    3    3    0    0  0.55193025242E+01 -0.94625040612E+01  0.15190458715E+02  0.18728366712E+02  0.51100000000E-03 0. -1.
        -11    1    3    3    0    0  0.25931478594E+02 -0.27255720456E+01  0.73128822190E+01  0.27080409370E+02  0.51100000000E-03 0.  1.
        -12    1    3    3    0    0 -0.20740038554E+01  0.20465006762E+01  0.37134279264E+01  0.47200851660E+01  0.00000000000E+00 0.  1.
</event>
<event>
 7    1  0.6889665E-012  0.5052884E+02  0.7816164E-02  0.1300439E+00
        -11   -1    0    0    0    0  0.00000000000E+00  0.00000000000E+00  0.45593999997E+02  0.45594000000E+02  0.51100000000E-03 0. -1.
         11   -1    0    0    0    0 -0.00000000000E+00 -0.00000000000E+00 -0.45593999997E+02  0.45594000000E+02  0.51100000000E-03 0.  1.
    9900012    2    1    2    0    0 -0.94970075964E+01  0.58236858072E+01 -0.39103181146E+02  0.50528840572E+02  0.29999941403E+02 0.  0.
         12    1    1    2    0    0  0.94970075964E+01 -0.58236858072E+01  0.39103181146E+02  0.40659159428E+02  0.00000000000E+00 0. -1.
         11    1    3    3    0    0 -0.12696115714E+02 -0.34988346659E+01 -0.35039383729E+02  0.37432494048E+02  0.51100000000E-03 0.  1.
        -11    1    3    3    0    0  0.55539327348E+01  0.72072895790E+01 -0.39761176366E+01  0.99297886997E+01  0.51100000000E-03 0. -1.
        -12    1    3    3    0    0 -0.23548246171E+01  0.21152308941E+01 -0.87679779800E-01  0.31665578246E+01  0.00000000000E+00 0.  1.
</event>
<event>
 7    1  0.6889665E-012  0.5052885E+02  0.7816164E-02  0.1300439E+00
        -11   -1    0    0    0    0  0.00000000000E+00  0.00000000000E+00  0.45593999997E+02  0.45594000000E+02  0.51100000000E-03 0. -1.
         11   -1    0    0    0    0 -0.00000000000E+00 -0.00000000000E+00 -0.45593999997E+02  0.45594000000E+02  0.51100000000E-03 0.  1.
    9900012    2    1    2    0    0  0.24121350756E+02  0.67217656182E+00 -0.32724221966E+02  0.50528854819E+02  0.29999984707E+02 0.  0.
         12    1    1    2    0    0 -0.24121350756E+02 -0.67217656182E+00  0.32724221966E+02  0.40659145181E+02  0.00000000000E+00 0. -1.
         11    1    3    3    0    0  0.14158123547E-01 -0.86651126803E+01 -0.83181368289E+01  0.12011485286E+02  0.51100000000E-03 0. -1.
        -11    1    3    3    0    0  0.16174417106E+02  0.10574502369E+02 -0.93794342986E+01  0.21480355144E+02  0.51100000000E-03 0.  1.
        -12    1    3    3    0    0  0.79327755265E+01 -0.12372131271E+01 -0.15026650838E+02  0.17037014389E+02  0.00000000000E+00 0.  1.
</event>
<event>
 7    1  0.6889665E-012  0.5052889E+02  0.7816164E-02  0.1300439E+00
        -11   -1    0    0    0    0  0.00000000000E+00  0.00000000000E+00  0.45593999997E+02  0.45594000000E+02  0.51100000000E-03 0. -1.
         11   -1    0    0    0    0 -0.00000000000E+00 -0.00000000000E+00 -0.45593999997E+02  0.45594000000E+02  0.51100000000E-03 0.  1.
    9900012    2    1    2    0    0  0.12731564743E+02  0.10749860026E+02 -0.37087881917E+02  0.50528890117E+02  0.30000091998E+02 0.  0.
         12    1    1    2    0    0 -0.12731564743E+02 -0.10749860026E+02  0.37087881917E+02  0.40659109883E+02  0.00000000000E+00 0. -1.
         11    1    3    3    0    0  0.19508385901E+02  0.81279086186E+01 -0.19482903221E+02  0.28744104390E+02  0.51100000000E-03 0. -1.
        -11    1    3    3    0    0 -0.54955756308E+00 -0.11728213017E+01 -0.13203831232E+02  0.13267203277E+02  0.51100000000E-03 0.  1.
         12    1    3    3    0    0 -0.62272635950E+01  0.37947727092E+01 -0.44011474646E+01  0.85175824505E+01  0.00000000000E+00 0. -1.
</event>
<event>
 7    1  0.6889665E-012  0.5052886E+02  0.7816164E-02  0.1300439E+00
        -11   -1    0    0    0    0  0.00000000000E+00  0.00000000000E+00  0.45593999997E+02  0.45594000000E+02  0.51100000000E-03 0. -1.
         11   -1    0    0    0    0 -0.00000000000E+00 -0.00000000000E+00 -0.45593999997E+02  0.45594000000E+02  0.51100000000E-03 0.  1.
    9900012    2    1    2    0    0  0.24923960620E+02  0.48319354496E+01  0.31758683086E+02  0.50528863702E+02  0.30000011708E+02 0.  0.
        -12    1    1    2    0    0 -0.24923960620E+02 -0.48319354496E+01 -0.31758683086E+02  0.40659136298E+02  0.00000000000E+00 0.  1.
         11    1    3    3    0    0  0.92127421659E+01 -0.28434220577E+01  0.16523276615E+02  0.19130560305E+02  0.51100000000E-03 0. -1.
        -11    1    3    3    0    0  0.39721673992E+01 -0.18650831810E+01 -0.46628191691E+01  0.64030096036E+01  0.51100000000E-03 0.  1.
         12    1    3    3    0    0  0.11739051055E+02  0.95404406883E+01  0.19898225640E+02  0.24995293793E+02  0.00000000000E+00 0. -1.
</event>
<event>
 7    1  0.6889665E-012  0.5052886E+02  0.7816164E-02  0.1300439E+00
        -11   -1    0    0    0    0  0.00000000000E+00  0.00000000000E+00  0.45593999997E+02  0.45594000000E+02  0.51100000000E-03 0. -1.
         11   -1    0    0    0    0 -0.00000000000E+00 -0.00000000000E+00 -0.45593999997E+02  0.45594000000E+02  0.51100000000E-03 0.  1.
    9900012    2    1    2    0    0 -0.16850799287E+02  0.73310465670E+01 -0.36269438255E+02  0.50528857957E+02  0.29999994245E+02 0.  0.
         12    1    1    2    0    0  0.16850799287E+02 -0.73310465670E+01  0.36269438255E+02  0.40659142043E+02  0.00000000000E+00 0. -1.
         11    1    3    3    0    0  0.39826100649E+01  0.28796255623E+01 -0.13712236072E+02  0.14566360035E+02  0.51100000000E-03 0. -1.
        -11    1    3    3    0    0 -0.23131305383E+02  0.28351731798E+01 -0.23404370391E+02  0.33028170542E+02  0.51100000000E-03 0.  1.
         12    1    3    3    0    0  0.22978960312E+01  0.16162478249E+01  0.84716820773E+00  0.29343273801E+01  0.00000000000E+00 0. -1.
</event>
<event>
 7    1  0.6889665E-012  0.5052885E+02  0.7816164E-02  0.1300439E+00
        -11   -1    0    0    0    0  0.00000000000E+00  0.00000000000E+00  0.45593999997E+02  0.45594000000E+02  0.51100000000E-03 0. -1.
         11   -1    0    0    0    0 -0.00000000000E+00 -0.00000000000E+00 -0.45593999997E+02  0.45594000000E+02  0.51100000000E-03 0.  1.
    9900012    2    1    2    0    0 -0.20076601344E+02  0.14432382056E+01  0.35327232249E+02  0.50528853472E+02  0.29999980613E+02 0.  0.
        -12    1    1    2    0    0  0.20076601344E+02 -0.14432382056E+01 -0.35327232249E+02  0.40659146528E+02  0.00000000000E+00 0.  1.
         11    1    3    3    0    0 -0.25590471946E+01 -0.62899678442E+01  0.26640383026E+01  0.72944854763E+01  0.51100000000E-03 0. -1.
        -11    1    3    3    0    0 -0.16351862082E+02  0.10571617540E+02  0.13184310799E+02  0.23515283168E+02  0.51100000000E-03 0.  1.
        -12    1    3    3    0    0 -0.11656920674E+01 -0.28384114905E+01  0.19478883147E+02  0.19719084827E+02  0.00000000000E+00 0.  1.
</event>
<event>
 7    1  0.6889665E-012  0.5052885E+02  0.7816164E-02  0.1300439E+00
        -11   -1    0    0    0    0  0.00000000000E+00  0.00000000000E+00  0.45593999997E+02  0.45594000000E+02  0.51100000000E-03 0. -1.
         11   -1    0    0    0    0 -0.00000000000E+00 -0.00000000000E+00 -0.45593999997E+02  0.45594000000E+02  0.51100000000E-03 0.  1.
    9900012    2    1    2    0    0  0.19096369422E+02 -0.12896213074E+02  0.33498992431E+02  0.50528854280E+02  0.29999983070E+02 0.  0.
        -12    1    1    2    0    0 -0.19096369422E+02  0.12896213074E+02 -0.33498992431E+02  0.40659145720E+02  0.00000000000E+00 0.  1.
         11    1    3    3    0    0  0.22941147505E+01 -0.75124628857E+01  0.99611666956E+01  0.12685617971E+02  0.51100000000E-03 0. -1.
        -11    1    3    3    0    0  0.19802954488E+01  0.85405738224E+01  0.39800555939E+01  0.96282819896E+01  0.51100000000E-03 0.  1.
        -12    1    3    3    0    0  0.14821959223E+02 -0.13924324011E+02  0.19557770142E+02  0.28214954320E+02  0.00000000000E+00 0.  1.
</event>
<event>
 7    1  0.6889665E-012  0.5052887E+02  0.7816164E-02  0.1300439E+00
        -11   -1    0    0    0    0  0.00000000000E+00  0.00000000000E+00  0.45593999997E+02  0.45594000000E+02  0.51100000000E-03 0. -1.
         11   -1    0    0    0    0 -0.00000000000E+00 -0.00000000000E+00 -0.45593999997E+02  0.45594000000E+02  0.51100000000E-03 0.  1.
    9900012    2    1    2    0    0  0.28155738312E+02  0.29280804694E+02  0.17476066135E+01  0.50528865082E+02  0.30000015905E+02 0.  0.
        -12    1    1    2    0    0 -0.28155738312E+02 -0.29280804694E+02 -0.17476066135E+01  0.40659134918E+02  0.00000000000E+00 0.  1.
         11    1    3    3    0    0  0.15037472585E+02  0.13013041173E+02 -0.77458778836E+01  0.21341589602E+02  0.51100000000E-03 0. -1.
        -11    1    3    3    0    0  0.11083805224E+02  0.19389687444E+01  0.94823001798E+01  0.14714766562E+02  0.51100000000E-03 0.  1.
        -12    1    3    3    0    0  0.20344605032E+01  0.14328794777E+02  0.11184317303E-01  0.14472508918E+02  0.00000000000E+00 0.  1.
</event>
<event>
 7    1  0.6889665E-012  0.5052886E+02  0.7816164E-02  0.1300439E+00
        -11   -1    0    0    0    0  0.00000000000E+00  0.00000000000E+00  0.45593999997E+02  0.45594000000E+02  0.51100000000E-03 0. -1.
         11   -1    0    0    0    0 -0.00000000000E+00 -0.00000000000E+00 -0.45593999997E+02  0.45594000000E+02  0.51100000000E-03 0.  1.
    9900012    2    1    2    0    0 -0.20472049990E+02 -0.28894201000E+02 -0.19979638120E+02  0.50528860540E+02  0.30000002097E+02 0.  0.
         12    1    1    2    0    0  0.20472049990E+02  0.28894201000E+02  0.19979638120E+02  0.40659139460E+02  0.00000000000E+00 0. -1.
         11    1    3    3    0    0  0.29306386639E+01  0.13345214151E+00 -0.85119022591E+01  0.90032734482E+01  0.51100000000E-03 0. -1.
        -11    1    3    3    0    0 -0.19838102266E+02 -0.13562840333E+02 -0.73414691249E+01  0.25127636351E+02  0.51100000000E-03 0.  1.
         12    1    3    3    0    0 -0.35645863880E+01 -0.15464812809E+02 -0.41262667363E+01  0.16397950741E+02  0.00000000000E+00 0. -1.
</event>
<event>
 7    1  0.6889665E-012  0.5052886E+02  0.7816164E-02  0.1300439E+00
        -11   -1    0    0    0    0  0.00000000000E+00  0.00000000000E+00  0.45593999997E+02  0.45594000000E+02  0.51100000000E-03 0. -1.
         11   -1    0    0    0    0 -0.00000000000E+00 -0.00000000000E+00 -0.45593999997E+02  0.45594000000E+02  0.51100000000E-03 0.  1.
    9900012    2    1    2    0    0  0.18871400279E+02 -0.18540393342E+02  0.30875384025E+02  0.50528864834E+02  0.30000015149E+02 0.  0.
        -12    1    1    2    0    0 -0.18871400279E+02  0.18540393342E+02 -0.30875384025E+02  0.40659135166E+02  0.00000000000E+00 0.  1.
         11    1    3    3    0    0 -0.80366106354E+00 -0.10119103371E+02  0.24557176581E+02  0.26572486636E+02  0.51100000000E-03 0. -1.
        -11    1    3    3    0    0  0.18972197246E+01  0.84704551542E+00  0.29781241417E+01  0.36312742189E+01  0.51100000000E-03 0.  1.
         12    1    3    3    0    0  0.17777841618E+02 -0.92683354867E+01  0.33400833026E+01  0.20325103979E+02  0.00000000000E+00 0. -1.
</event>
<event>
 7    1  0.6889665E-012  0.5052885E+02  0.7816164E-02  0.1300439E+00
        -11   -1    0    0    0    0  0.00000000000E+00  0.00000000000E+00  0.45593999997E+02  0.45594000000E+02  0.51100000000E-03 0. -1.
         11   -1    0    0    0    0 -0.00000000000E+00 -0.00000000000E+00 -0.45593999997E+02  0.45594000000E+02  0.51100000000E-03 0.  1.
    9900012    2    1    2    0    0 -0.60051837991E+01  0.17707198330E+02  0.36104841003E+02  0.50528847906E+02  0.29999963694E+02 0.  0.
        -12    1    1    2    0    0  0.60051837991E+01 -0.17707198330E+02 -0.36104841003E+02  0.40659152094E+02  0.00000000000E+00 0.  1.
         11    1    3    3    0    0 -0.95148462142E+01  0.91590424918E+01  0.20271454587E+02  0.24194053591E+02  0.51100000000E-03 0. -1.
        -11    1    3    3    0    0  0.10228993475E+02  0.20979094833E+00  0.90418993855E+01  0.13654020086E+02  0.51100000000E-03 0.  1.
        -12    1    3    3    0    0 -0.67193310603E+01  0.83383648896E+01  0.67914870314E+01  0.12680774228E+02  0.00000000000E+00 0.  1.
</event>
<event>
 7    1  0.6889665E-012  0.5052887E+02  0.7816164E-02  0.1300439E+00
        -11   -1    0    0    0    0  0.00000000000E+00  0.00000000000E+00  0.45593999997E+02  0.45594000000E+02  0.51100000000E-03 0. -1.
         11   -1    0    0    0    0 -0.00000000000E+00 -0.00000000000E+00 -0.45593999997E+02  0.45594000000E+02  0.51100000000E-03 0.  1.
    9900012    2    1    2    0    0  0.56347268049E+01 -0.26283852775E+02  0.30505301405E+02  0.50528874620E+02  0.30000044895E+02 0.  0.
        -12    1    1    2    0    0 -0.56347268049E+01  0.26283852775E+02 -0.30505301405E+02  0.40659125380E+02  0.00000000000E+00 0.  1.
         11    1    3    3    0    0 -0.11035595116E+01  0.13360921114E+01  0.17809569570E+02  0.17893679171E+02  0.51100000000E-03 0. -1.
        -11    1    3    3    0    0  0.63759103839E+00 -0.11804722126E+02  0.64955410239E+00  0.11839759609E+02  0.51100000000E-03 0.  1.
         12    1    3    3    0    0  0.61006952781E+01 -0.15815222760E+02  0.12046177733E+02  0.20795435840E+02  0.00000000000E+00 0. -1.
</event>
<event>
 7    1  0.6889665E-012  0.5052885E+02  0.7816164E-02  0.1300439E+00
        -11   -1    0    0    0    0  0.00000000000E+00  0.00000000000E+00  0.45593999997E+02  0.45594000000E+02  0.51100000000E-03 0. -1.
         11   -1    0    0    0    0 -0.00000000000E+00 -0.00000000000E+00 -0.45593999997E+02  0.45594000000E+02  0.51100000000E-03 0.  1.
    9900012    2    1    2    0    0  0.37000801774E+01  0.24351266555E+02  0.32349523224E+02  0.50528850611E+02  0.29999971919E+02 0.  0.
        -12    1    1    2    0    0 -0.37000801774E+01 -0.24351266555E+02 -0.32349523224E+02  0.40659149389E+02  0.00000000000E+00 0.  1.
         11    1    3    3    0    0  0.86862721087E+01  0.97407394205E+01  0.21142861864E+01  0.13221328751E+02  0.51100000000E-03 0. -1.
        -11    1    3    3    0    0 -0.92162308845E+01  0.82008965143E+01  0.10749017185E+02  0.16362609390E+02  0.51100000000E-03 0.  1.
         12    1    3    3    0    0  0.42300389533E+01  0.64096306207E+01  0.19486219852E+02  0.20944912470E+02  0.00000000000E+00 0. -1.
</event>
<event>
 7    1  0.6889665E-012  0.5052888E+02  0.7816164E-02  0.1300439E+00
        -11   -1    0    0    0    0  0.00000000000E+00  0.00000000000E+00  0.45593999997E+02  0.45594000000E+02  0.51100000000E-03 0.  1.
         11   -1    0    0    0    0 -0.00000000000E+00 -0.00000000000E+00 -0.45593999997E+02  0.45594000000E+02  0.51100000000E-03 0. -1.
    9900012    2    1    2    0    0  0.37904321412E+02  0.14707232439E+02 -0.35238642711E+00  0.50528875023E+02  0.30000046120E+02 0.  0.
         12    1    1    2    0    0 -0.37904321412E+02 -0.14707232439E+02  0.35238642711E+00  0.40659124977E+02  0.00000000000E+00 0. -1.
         11    1    3    3    0    0  0.27003504717E+02 -0.36767426548E+01  0.36881218237E+01  0.27501089913E+02  0.51100000000E-03 0. -1.
        -11    1    3    3    0    0  0.90080157263E+01  0.10977013771E+02 -0.55305114958E+01  0.15238954568E+02  0.51100000000E-03 0.  1.
         12    1    3    3    0    0  0.18928009687E+01  0.74069613230E+01  0.14900032450E+01  0.77888305424E+01  0.00000000000E+00 0. -1.
</event>
<event>
 7    1  0.6889665E-012  0.5052886E+02  0.7816164E-02  0.1300439E+00
        -11   -1    0    0    0    0  0.00000000000E+00  0.00000000000E+00  0.45593999997E+02  0.45594000000E+02  0.51100000000E-03 0. -1.
         11   -1    0    0    0    0 -0.00000000000E+00 -0.00000000000E+00 -0.45593999997E+02  0.45594000000E+02  0.51100000000E-03 0.  1.
    9900012    2    1    2    0    0 -0.89826646921E+01  0.27720406216E+02  0.28355893159E+02  0.50528857577E+02  0.29999993090E+02 0.  0.
        -12    1    1    2    0    0  0.89826646921E+01 -0.27720406216E+02 -0.28355893159E+02  0.40659142423E+02  0.00000000000E+00 0.  1.
         11    1    3    3    0    0  0.52113129484E+01  0.99989625876E+01  0.19083979099E+02  0.22166084318E+02  0.51100000000E-03 0. -1.
        -11    1    3    3    0    0 -0.44403090543E+01  0.13342139069E+02 -0.22334982672E+00  0.14063388810E+02  0.51100000000E-03 0.  1.
        -12    1    3    3    0    0 -0.97536685863E+01  0.43793045598E+01  0.94952638869E+01  0.14299384448E+02  0.00000000000E+00 0.  1.
</event>
<event>
 7    1  0.6889665E-012  0.5052886E+02  0.7816164E-02  0.1300439E+00
        -11   -1    0    0    0    0  0.00000000000E+00  0.00000000000E+00  0.45593999997E+02  0.45594000000E+02  0.51100000000E-03 0.  1.
         11   -1    0    0    0    0 -0.00000000000E+00 -0.00000000000E+00 -0.45593999997E+02  0.45594000000E+02  0.51100000000E-03 0. -1.
    9900012    2    1    2    0    0  0.38804731220E+02  0.10576718582E+02 -0.59574552359E+01  0.50528863094E+02  0.30000009861E+02 0.  0.
         12    1    1    2    0    0 -0.38804731220E+02 -0.10576718582E+02  0.59574552359E+01  0.40659136906E+02  0.00000000000E+00 0. -1.
         11    1    3    3    0    0  0.26712797708E+00 -0.28354166561E+01 -0.74544275126E+01  0.79799395218E+01  0.51100000000E-03 0. -1.
        -11    1    3    3    0    0  0.11074551462E+02  0.90996043490E+01  0.32387293423E+01  0.14694824171E+02  0.51100000000E-03 0.  1.
         12    1    3    3    0    0  0.27463051781E+02  0.43125308895E+01 -0.17417570657E+01  0.27854099402E+02  0.00000000000E+00 0. -1.
</event>
<event>
 7    1  0.6889665E-012  0.5052886E+02  0.7816164E-02  0.1300439E+00
        -11   -1    0    0    0    0  0.00000000000E+00  0.00000000000E+00  0.45593999997E+02  0.45594000000E+02  0.51100000000E-03 0. -1.
         11   -1    0    0    0    0 -0.00000000000E+00 -0.00000000000E+00 -0.45593999997E+02  0.45594000000E+02  0.51100000000E-03 0.  1.
    9900012    2    1    2    0    0 -0.20440155467E+01 -0.87194795679E+00  0.40598366094E+02  0.50528860532E+02  0.30000002072E+02 0.  0.
        -12    1    1    2    0    0  0.20440155467E+01  0.87194795679E+00 -0.40598366094E+02  0.40659139468E+02  0.00000000000E+00 0.  1.
         11    1    3    3    0    0 -0.59748665223E+01 -0.31644909870E+01  0.22912088189E+02  0.23888842973E+02  0.51100000000E-03 0. -1.
        -11    1    3    3    0    0  0.56561090956E+01 -0.23742822750E+01 -0.19078285930E+01  0.64240638714E+01  0.51100000000E-03 0.  1.
         12    1    3    3    0    0 -0.17252581199E+01  0.46668253053E+01  0.19594106498E+02  0.20215953687E+02  0.00000000000E+00 0. -1.
</event>
<event>
 7    1  0.6889665E-012  0.5052891E+02  0.7816164E-02  0.1300439E+00
        -11   -1    0    0    0    0  0.00000000000E+00  0.00000000000E+00  0.45593999997E+02  0.45594000000E+02  0.51100000000E-03 0. -1.
         11   -1    0    0    0    0 -0.00000000000E+00 -0.00000000000E+00 -0.45593999997E+02  0.45594000000E+02  0.51100000000E-03 0.  1.
    9900012    2    1    2    0    0  0.71756490944E+01 -0.25883112270E+02  0.30524357930E+02  0.50528906703E+02  0.30000142414E+02 0.  0.
        -12    1    1    2    0    0 -0.71756490944E+01  0.25883112270E+02 -0.30524357930E+02  0.40659093297E+02  0.00000000000E+00 0.  1.
         11    1    3    3    0    0  0.17787660453E+02 -0.15153630933E+02  0.18016494786E+02  0.29506397264E+02  0.51100000000E-03 0. -1.
        -11    1    3    3    0    0 -0.80472083831E+01 -0.54852335581E+01  0.36221035444E+01  0.10390620015E+02  0.51100000000E-03 0.  1.
         12    1    3    3    0    0 -0.25648029754E+01 -0.52442477795E+01  0.88857595992E+01  0.10631889424E+02  0.00000000000E+00 0. -1.
</event>
<event>
 7    1  0.6889665E-012  0.5052886E+02  0.7816164E-02  0.1300439E+00
        -11   -1    0    0    0    0  0.00000000000E+00  0.00000000000E+00  0.45593999997E+02  0.45594000000E+02  0.51100000000E-03 0. -1.
         11   -1    0    0    0    0 -0.00000000000E+00 -0.00000000000E+00 -0.45593999997E+02  0.45594000000E+02  0.51100000000E-03 0.  1.
    9900012    2    1    2    0    0  0.23224022233E+02 -0.17812726910E+02  0.28222633361E+02  0.50528862251E+02  0.30000007298E+02 0.  0.
        -12    1    1    2    0    0 -0.23224022233E+02  0.17812726910E+02 -0.28222633361E+02  0.40659137749E+02  0.00000000000E+00 0.  1.
         11    1    3    3    0    0  0.12960207136E+02 -0.13391252347E+01  0.23929749822E+02  0.27246892524E+02  0.51100000000E-03 0. -1.
        -11    1    3    3    0    0  0.28669751898E+01 -0.75022178595E+01 -0.40270306212E+01  0.89844195937E+01  0.51100000000E-03 0.  1.
         12    1    3    3    0    0  0.73968399071E+01 -0.89713838156E+01  0.83199141609E+01  0.14297550134E+02  0.00000000000E+00 0. -1.
</event>
<event>
 7    1  0.6889665E-012  0.5052880E+02  0.7816164E-02  0.1300439E+00
        -11   -1    0    0    0    0  0.00000000000E+00  0.00000000000E+00  0.45593999997E+02  0.45594000000E+02  0.51100000000E-03 0. -1.
         11   -1    0    0    0    0 -0.00000000000E+00 -0.00000000000E+00 -0.45593999997E+02  0.45594000000E+02  0.51100000000E-03 0.  1.
    9900012    2    1    2    0    0 -0.19191530199E+02  0.43093903089E+01 -0.35584893222E+02  0.50528802986E+02  0.29999827155E+02 0.  0.
         12    1    1    2    0    0  0.19191530199E+02 -0.43093903089E+01  0.35584893222E+02  0.40659197014E+02  0.00000000000E+00 0. -1.
         11    1    3    3    0    0 -0.15736871561E+02 -0.10773590591E+02 -0.16628884301E+02  0.25302947933E+02  0.51100000000E-03 0. -1.
        -11    1    3    3    0    0 -0.31195266143E+01  0.82932139940E+01 -0.14825055910E+02  0.17271106729E+02  0.51100000000E-03 0.  1.
         12    1    3    3    0    0 -0.33513202378E+00  0.67897669058E+01 -0.41309530110E+01  0.79547483233E+01  0.00000000000E+00 0. -1.
</event>
<event>
 7    1  0.6889665E-012  0.5052885E+02  0.7816164E-02  0.1300439E+00
        -11   -1    0    0    0    0  0.00000000000E+00  0.00000000000E+00  0.45593999997E+02  0.45594000000E+02  0.51100000000E-03 0. -1.
         11   -1    0    0    0    0 -0.00000000000E+00 -0.00000000000E+00 -0.45593999997E+02  0.45594000000E+02  0.51100000000E-03 0.  1.
    9900012    2    1    2    0    0 -0.37956773718E+01 -0.20696412458E+02  0.34791058515E+02  0.50528850870E+02  0.29999972705E+02 0.  0.
        -12    1    1    2    0    0  0.37956773718E+01  0.20696412458E+02 -0.34791058515E+02  0.40659149130E+02  0.00000000000E+00 0.  1.
         11    1    3    3    0    0  0.82067599931E+01 -0.26421523349E+00  0.90111857761E+00  0.82603107826E+01  0.51100000000E-03 0.  1.
        -11    1    3    3    0    0 -0.10632988472E+02 -0.17459117357E+02  0.22418626936E+02  0.30339348324E+02  0.51100000000E-03 0. -1.
         12    1    3    3    0    0 -0.13694488934E+01 -0.29730798670E+01  0.11471313001E+02  0.11929191764E+02  0.00000000000E+00 0. -1.
</event>
<event>
 7    1  0.6889665E-012  0.5052886E+02  0.7816164E-02  0.1300439E+00
        -11   -1    0    0    0    0  0.00000000000E+00  0.00000000000E+00  0.45593999997E+02  0.45594000000E+02  0.51100000000E-03 0. -1.
         11   -1    0    0    0    0 -0.00000000000E+00 -0.00000000000E+00 -0.45593999997E+02  0.45594000000E+02  0.51100000000E-03 0.  1.
    9900012    2    1    2    0    0 -0.28411865671E+02  0.35949721024E+00 -0.29082682099E+02  0.50528858995E+02  0.29999997403E+02 0.  0.
         12    1    1    2    0    0  0.28411865671E+02 -0.35949721024E+00  0.29082682099E+02  0.40659141005E+02  0.00000000000E+00 0. -1.
         11    1    3    3    0    0 -0.64692128047E+01  0.10064833388E+02  0.59452720428E+00  0.11979359261E+02  0.51100000000E-03 0. -1.
        -11    1    3    3    0    0 -0.13258657395E+02 -0.29753358949E+01 -0.15484856298E+02  0.20601587183E+02  0.51100000000E-03 0.  1.
         12    1    3    3    0    0 -0.86839954717E+01 -0.67300002830E+01 -0.14192353005E+02  0.17947912552E+02  0.00000000000E+00 0. -1.
</event>
<event>
 7    1  0.6889665E-012  0.5052886E+02  0.7816164E-02  0.1300439E+00
        -11   -1    0    0    0    0  0.00000000000E+00  0.00000000000E+00  0.45593999997E+02  0.45594000000E+02  0.51100000000E-03 0. -1.
         11   -1    0    0    0    0 -0.00000000000E+00 -0.00000000000E+00 -0.45593999997E+02  0.45594000000E+02  0.51100000000E-03 0.  1.
    9900012    2    1    2    0    0  0.33265159799E+02  0.25449644050E+01 -0.23240433639E+02  0.50528862577E+02  0.30000008289E+02 0.  0.
         12    1    1    2    0    0 -0.33265159799E+02 -0.25449644050E+01  0.23240433639E+02  0.40659137423E+02  0.00000000000E+00 0. -1.
         11    1    3    3    0    0  0.35851310573E+01 -0.30551696814E+01  0.26531883190E+01  0.54061663864E+01  0.51100000000E-03 0. -1.
        -11    1    3    3    0    0  0.23909130533E+02  0.49373654022E+01 -0.29494952594E+02  0.38288070319E+02  0.51100000000E-03 0.  1.
        -12    1    3    3    0    0  0.57708982086E+01  0.66276868422E+00  0.36013306360E+01  0.68346258722E+01  0.00000000000E+00 0.  1.
</event>
<event>
 7    1  0.6889665E-012  0.5052886E+02  0.7816164E-02  0.1300439E+00
        -11   -1    0    0    0    0  0.00000000000E+00  0.00000000000E+00  0.45593999997E+02  0.45594000000E+02  0.51100000000E-03 0.  1.
         11   -1    0    0    0    0 -0.00000000000E+00 -0.00000000000E+00 -0.45593999997E+02  0.45594000000E+02  0.51100000000E-03 0. -1.
    9900012    2    1    2    0    0  0.29373200698E+02 -0.24257383134E+02  0.14211275778E+02  0.50528856933E+02  0.29999991133E+02 0.  0.
        -12    1    1    2    0    0 -0.29373200698E+02  0.24257383134E+02 -0.14211275778E+02  0.40659143067E+02  0.00000000000E+00 0.  1.
         11    1    3    3    0    0  0.30141160139E+02 -0.28021487937E+02  0.14205841727E+02  0.43537331799E+02  0.51100000000E-03 0. -1.
        -11    1    3    3    0    0 -0.26839150911E+01 -0.71449154671E-01 -0.24985020055E+00  0.26964663138E+01  0.51100000000E-03 0.  1.
         12    1    3    3    0    0  0.19159556498E+01  0.38355539584E+01  0.25528425189E+00  0.42950588202E+01  0.00000000000E+00 0. -1.
</event>
<event>
 7    1  0.6889665E-012  0.5052886E+02  0.7816164E-02  0.1300439E+00
        -11   -1    0    0    0    0  0.00000000000E+00  0.00000000000E+00  0.45593999997E+02  0.45594000000E+02  0.51100000000E-03 0.  1.
         11   -1    0    0    0    0 -0.00000000000E+00 -0.00000000000E+00 -0.45593999997E+02  0.45594000000E+02  0.51100000000E-03 0. -1.
    9900012    2    1    2    0    0  0.11758117342E+01  0.25215874401E+02 -0.31873861796E+02  0.50528856860E+02  0.29999990912E+02 0.  0.
         12    1    1    2    0    0 -0.11758117342E+01 -0.25215874401E+02  0.31873861796E+02  0.40659143140E+02  0.00000000000E+00 0. -1.
         11    1    3    3    0    0 -0.12428852189E+01 -0.31252809951E+01 -0.14381260191E+02  0.14769319209E+02  0.51100000000E-03 0. -1.
        -11    1    3    3    0    0  0.30965823701E+00  0.16669271961E+02 -0.17114206325E+02  0.23892605014E+02  0.51100000000E-03 0.  1.
         12    1    3    3    0    0  0.21090387161E+01  0.11671883435E+02 -0.37839528041E+00  0.11866932638E+02  0.00000000000E+00 0. -1.
</event>
<event>
 7    1  0.6889665E-012  0.5052886E+02  0.7816164E-02  0.1300439E+00
        -11   -1    0    0    0    0  0.00000000000E+00  0.00000000000E+00  0.45593999997E+02  0.45594000000E+02  0.51100000000E-03 0. -1.
         11   -1    0    0    0    0 -0.00000000000E+00 -0.00000000000E+00 -0.45593999997E+02  0.45594000000E+02  0.51100000000E-03 0.  1.
    9900012    2    1    2    0    0 -0.78913214439E+01  0.22403812065E+01  0.39823030361E+02  0.50528855774E+02  0.29999987610E+02 0.  0.
        -12    1    1    2    0    0  0.78913214439E+01 -0.22403812065E+01 -0.39823030361E+02  0.40659144226E+02  0.00000000000E+00 0.  1.
         11    1    3    3    0    0  0.36558069138E+01  0.39246442974E+01  0.99009848769E+01  0.11260428893E+02  0.51100000000E-03 0. -1.
        -11    1    3    3    0    0 -0.85149599586E+01 -0.67157449715E+01  0.23745738504E+01  0.11101548309E+02  0.51100000000E-03 0.  1.
        -12    1    3    3    0    0 -0.30321683991E+01  0.50314818806E+01  0.27547471634E+02  0.28166878572E+02  0.00000000000E+00 0.  1.
</event>
<event>
 7    1  0.6889665E-012  0.5052886E+02  0.7816164E-02  0.1300439E+00
        -11   -1    0    0    0    0  0.00000000000E+00  0.00000000000E+00  0.45593999997E+02  0.45594000000E+02  0.51100000000E-03 0. -1.
         11   -1    0    0    0    0 -0.00000000000E+00 -0.00000000000E+00 -0.45593999997E+02  0.45594000000E+02  0.51100000000E-03 0.  1.
    9900012    2    1    2    0    0 -0.64178876280E+01  0.30382295967E+02  0.26246753986E+02  0.50528864684E+02  0.30000014693E+02 0.  0.
        -12    1    1    2    0    0  0.64178876280E+01 -0.30382295967E+02 -0.26246753986E+02  0.40659135316E+02  0.00000000000E+00 0.  1.
         11    1    3    3    0    0 -0.13844845798E+02  0.95997661017E+01  0.13182028537E+02  0.21391613801E+02  0.51100000000E-03 0. -1.
        -11    1    3    3    0    0  0.84637633044E+01  0.13908420283E+02  0.14766428318E+02  0.21980146714E+02  0.51100000000E-03 0.  1.
         12    1    3    3    0    0 -0.10368051345E+01  0.68741095825E+01 -0.17017028688E+01  0.71571041694E+01  0.00000000000E+00 0. -1.
</event>
<event>
 7    1  0.6889665E-012  0.5052887E+02  0.7816164E-02  0.1300439E+00
        -11   -1    0    0    0    0  0.00000000000E+00  0.00000000000E+00  0.45593999997E+02  0.45594000000E+02  0.51100000000E-03 0. -1.
         11   -1    0    0    0    0 -0.00000000000E+00 -0.00000000000E+00 -0.45593999997E+02  0.45594000000E+02  0.51100000000E-03 0.  1.
    9900012    2    1    2    0    0  0.11380234695E+02  0.10955141258E+02  0.37465185485E+02  0.50528868367E+02  0.30000025890E+02 0.  0.
        -12    1    1    2    0    0 -0.11380234695E+02 -0.10955141258E+02 -0.37465185485E+02  0.40659131633E+02  0.00000000000E+00 0.  1.
         11    1    3    3    0    0 -0.51977124577E+01 -0.45309517446E+01  0.21475594290E+02  0.22555418171E+02  0.51100000000E-03 0. -1.
        -11    1    3    3    0    0  0.35256203477E+01  0.39979344767E+01  0.21401772547E+01  0.57440262759E+01  0.51100000000E-03 0.  1.
         12    1    3    3    0    0  0.13052326805E+02  0.11488158526E+02  0.13849413940E+02  0.22229423920E+02  0.00000000000E+00 0. -1.
</event>
<event>
 7    1  0.6889665E-012  0.5052886E+02  0.7816164E-02  0.1300439E+00
        -11   -1    0    0    0    0  0.00000000000E+00  0.00000000000E+00  0.45593999997E+02  0.45594000000E+02  0.51100000000E-03 0. -1.
         11   -1    0    0    0    0 -0.00000000000E+00 -0.00000000000E+00 -0.45593999997E+02  0.45594000000E+02  0.51100000000E-03 0.  1.
    9900012    2    1    2    0    0 -0.29750235881E+02  0.11505624540E+01 -0.27690525549E+02  0.50528861616E+02  0.30000005366E+02 0.  0.
         12    1    1    2    0    0  0.29750235881E+02 -0.11505624540E+01  0.27690525549E+02  0.40659138384E+02  0.00000000000E+00 0. -1.
         11    1    3    3    0    0 -0.19245601616E+02 -0.12293390972E+02 -0.84393402169E+01  0.24346316081E+02  0.51100000000E-03 0. -1.
        -11    1    3    3    0    0 -0.27246463967E+01  0.42432595686E+01 -0.92007450564E+01  0.10492028384E+02  0.51100000000E-03 0.  1.
         12    1    3    3    0    0 -0.77799878684E+01  0.92006938579E+01 -0.10050440276E+02  0.15690517150E+02  0.00000000000E+00 0. -1.
</event>
<event>
 7    1  0.6889665E-012  0.5052886E+02  0.7816164E-02  0.1300439E+00
        -11   -1    0    0    0    0  0.00000000000E+00  0.00000000000E+00  0.45593999997E+02  0.45594000000E+02  0.51100000000E-03 0. -1.
         11   -1    0    0    0    0 -0.00000000000E+00 -0.00000000000E+00 -0.45593999997E+02  0.45594000000E+02  0.51100000000E-03 0.  1.
    9900012    2    1    2    0    0  0.21097445163E+01 -0.24855678391E+02 -0.32107790179E+02  0.50528856375E+02  0.29999989437E+02 0.  0.
         12    1    1    2    0    0 -0.21097445163E+01  0.24855678391E+02  0.32107790179E+02  0.40659143625E+02  0.00000000000E+00 0. -1.
         11    1    3    3    0    0  0.56377218325E+01 -0.24118516484E+02 -0.28206520715E+02  0.37537908253E+02  0.51100000000E-03 0.  1.
        -11    1    3    3    0    0 -0.55217493911E+01  0.25139894310E+01 -0.60877804836E+01  0.85948199908E+01  0.51100000000E-03 0. -1.
        -12    1    3    3    0    0  0.19937720748E+01 -0.32511513375E+01  0.21865110202E+01  0.43961281313E+01  0.00000000000E+00 0.  1.
</event>
<event>
 7    1  0.6889665E-012  0.5052885E+02  0.7816164E-02  0.1300439E+00
        -11   -1    0    0    0    0  0.00000000000E+00  0.00000000000E+00  0.45593999997E+02  0.45594000000E+02  0.51100000000E-03 0. -1.
         11   -1    0    0    0    0 -0.00000000000E+00 -0.00000000000E+00 -0.45593999997E+02  0.45594000000E+02  0.51100000000E-03 0.  1.
    9900012    2    1    2    0    0  0.51591795798E+01  0.32392175677E+02 -0.24026983347E+02  0.50528854561E+02  0.29999983925E+02 0.  0.
         12    1    1    2    0    0 -0.51591795798E+01 -0.32392175677E+02  0.24026983347E+02  0.40659145439E+02  0.00000000000E+00 0. -1.
         11    1    3    3    0    0 -0.56817863330E+01  0.69942750926E+01 -0.74585612836E+01  0.11697551739E+02  0.51100000000E-03 0. -1.
        -11    1    3    3    0    0  0.10932719519E+02  0.27460856615E+02 -0.88679646880E+01  0.30858771850E+02  0.51100000000E-03 0.  1.
        -12    1    3    3    0    0 -0.91753606361E-01 -0.20629560308E+01 -0.77004573756E+01  0.79725309722E+01  0.00000000000E+00 0.  1.
</event>
<event>
 7    1  0.6889665E-012  0.5052884E+02  0.7816164E-02  0.1300439E+00
        -11   -1    0    0    0    0  0.00000000000E+00  0.00000000000E+00  0.45593999997E+02  0.45594000000E+02  0.51100000000E-03 0.  1.
         11   -1    0    0    0    0 -0.00000000000E+00 -0.00000000000E+00 -0.45593999997E+02  0.45594000000E+02  0.51100000000E-03 0. -1.
    9900012    2    1    2    0    0 -0.21208097711E+02 -0.10158051254E+02  0.33169229594E+02  0.50528841061E+02  0.29999942889E+02 0.  0.
        -12    1    1    2    0    0  0.21208097711E+02  0.10158051254E+02 -0.33169229594E+02  0.40659158939E+02  0.00000000000E+00 0.  1.
         11    1    3    3    0    0 -0.53204482026E+01 -0.52953923267E+00  0.11448969227E+02  0.12635920129E+02  0.51100000000E-03 0. -1.
        -11    1    3    3    0    0 -0.16074777132E+02 -0.72036287520E+01  0.16681781647E+01  0.17693884415E+02  0.51100000000E-03 0.  1.
        -12    1    3    3    0    0  0.18712762324E+00 -0.24248832689E+01  0.20052082202E+02  0.20199036517E+02  0.00000000000E+00 0.  1.
</event>
<event>
 7    1  0.6889665E-012  0.5052887E+02  0.7816164E-02  0.1300439E+00
        -11   -1    0    0    0    0  0.00000000000E+00  0.00000000000E+00  0.45593999997E+02  0.45594000000E+02  0.51100000000E-03 0. -1.
         11   -1    0    0    0    0 -0.00000000000E+00 -0.00000000000E+00 -0.45593999997E+02  0.45594000000E+02  0.51100000000E-03 0.  1.
    9900012    2    1    2    0    0  0.19908266340E+02 -0.28344877825E+02  0.21293041423E+02  0.50528870882E+02  0.30000033533E+02 0.  0.
        -12    1    1    2    0    0 -0.19908266340E+02  0.28344877825E+02 -0.21293041423E+02  0.40659129118E+02  0.00000000000E+00 0.  1.
         11    1    3    3    0    0  0.18370022255E+02 -0.90123629449E+01  0.35866014740E+01  0.20773639881E+02  0.51100000000E-03 0. -1.
        -11    1    3    3    0    0 -0.33319915332E+01 -0.33439592237E+00  0.24503565345E-01  0.33488190300E+01  0.51100000000E-03 0.  1.
         12    1    3    3    0    0  0.48702356177E+01 -0.18998118958E+02  0.17681936384E+02  0.26406411971E+02  0.00000000000E+00 0. -1.
</event>
<event>
 7    1  0.6889665E-012  0.5052885E+02  0.7816164E-02  0.1300439E+00
        -11   -1    0    0    0    0  0.00000000000E+00  0.00000000000E+00  0.45593999997E+02  0.45594000000E+02  0.51100000000E-03 0. -1.
         11   -1    0    0    0    0 -0.00000000000E+00 -0.00000000000E+00 -0.45593999997E+02  0.45594000000E+02  0.51100000000E-03 0.  1.
    9900012    2    1    2    0    0 -0.25967246295E+02  0.77112960554E+00  0.31277374397E+02  0.50528847646E+02  0.29999962904E+02 0.  0.
        -12    1    1    2    0    0  0.25967246295E+02 -0.77112960554E+00 -0.31277374397E+02  0.40659152354E+02  0.00000000000E+00 0.  1.
         11    1    3    3    0    0 -0.25253809990E+02 -0.31038465643E+01  0.89941538312E+01  0.26986729811E+02  0.51100000000E-03 0. -1.
        -11    1    3    3    0    0 -0.21756964327E+01  0.50911093396E+01  0.14272802685E+02  0.15309015188E+02  0.51100000000E-03 0.  1.
        -12    1    3    3    0    0  0.14622601281E+01 -0.12161331698E+01  0.80104178805E+01  0.82331026466E+01  0.00000000000E+00 0.  1.
</event>
<event>
 7    1  0.8021943E-012  0.5052887E+02  0.7816164E-02  0.1300439E+00
        -11   -1    0    0    0    0  0.00000000000E+00  0.00000000000E+00  0.45593999997E+02  0.45594000000E+02  0.51100000000E-03 0. -1.
         11   -1    0    0    0    0 -0.00000000000E+00 -0.00000000000E+00 -0.45593999997E+02  0.45594000000E+02  0.51100000000E-03 0.  1.
    9900012    2    1    2    0    0 -0.13524808808E+02 -0.29138392368E+02 -0.24923857104E+02  0.50528867987E+02  0.30000024734E+02 0.  0.
         12    1    1    2    0    0  0.13524808808E+02  0.29138392368E+02  0.24923857104E+02  0.40659132013E+02  0.00000000000E+00 0. -1.
         11    1    3    3    0    0 -0.95371580437E+01  0.20362939091E+01 -0.16256505802E+01  0.98866888545E+01  0.51100000000E-03 0. -1.
        -11    1    3    3    0    0 -0.70309380469E+01 -0.19296669415E+02 -0.17905346971E+02  0.27246962964E+02  0.51100000000E-03 0.  1.
         12    1    3    3    0    0  0.30432872827E+01 -0.11878016862E+02 -0.53928595525E+01  0.13395216169E+02  0.00000000000E+00 0. -1.
</event>
<event>
 7    1  0.6889665E-012  0.5052886E+02  0.7816164E-02  0.1300439E+00
        -11   -1    0    0    0    0  0.00000000000E+00  0.00000000000E+00  0.45593999997E+02  0.45594000000E+02  0.51100000000E-03 0. -1.
         11   -1    0    0    0    0 -0.00000000000E+00 -0.00000000000E+00 -0.45593999997E+02  0.45594000000E+02  0.51100000000E-03 0.  1.
    9900012    2    1    2    0    0  0.31038733752E+02  0.22453360752E+02 -0.13623862645E+02  0.50528855452E+02  0.29999986633E+02 0.  0.
         12    1    1    2    0    0 -0.31038733752E+02 -0.22453360752E+02  0.13623862645E+02  0.40659144548E+02  0.00000000000E+00 0. -1.
         11    1    3    3    0    0 -0.13270443219E+01  0.48275699252E+01  0.49124345989E+01  0.70141636682E+01  0.51100000000E-03 0. -1.
        -11    1    3    3    0    0  0.28053045482E+02  0.19032227886E+02 -0.19153610399E+02  0.38936613241E+02  0.51100000000E-03 0.  1.
         12    1    3    3    0    0  0.43127325920E+01 -0.14064370596E+01  0.61731315523E+00  0.45780785428E+01  0.00000000000E+00 0. -1.
</event>
<event>
 7    1  0.6889665E-012  0.5052887E+02  0.7816164E-02  0.1300439E+00
        -11   -1    0    0    0    0  0.00000000000E+00  0.00000000000E+00  0.45593999997E+02  0.45594000000E+02  0.51100000000E-03 0. -1.
         11   -1    0    0    0    0 -0.00000000000E+00 -0.00000000000E+00 -0.45593999997E+02  0.45594000000E+02  0.51100000000E-03 0.  1.
    9900012    2    1    2    0    0  0.59543854052E+01  0.30060436566E+02  0.26722283770E+02  0.50528868160E+02  0.30000025260E+02 0.  0.
        -12    1    1    2    0    0 -0.59543854052E+01 -0.30060436566E+02 -0.26722283770E+02  0.40659131840E+02  0.00000000000E+00 0.  1.
         11    1    3    3    0    0 -0.88342085027E+01  0.85488406678E+01  0.18326212843E+02  0.22067532578E+02  0.51100000000E-03 0. -1.
        -11    1    3    3    0    0  0.59765155988E+01  0.13264075060E+02  0.74758759925E+01  0.16356746254E+02  0.51100000000E-03 0.  1.
         12    1    3    3    0    0  0.88120783091E+01  0.82475208377E+01  0.92019493449E+00  0.12104589328E+02  0.00000000000E+00 0. -1.
</event>
<event>
 7    1  0.6889665E-012  0.5052886E+02  0.7816164E-02  0.1300439E+00
        -11   -1    0    0    0    0  0.00000000000E+00  0.00000000000E+00  0.45593999997E+02  0.45594000000E+02  0.51100000000E-03 0.  1.
         11   -1    0    0    0    0 -0.00000000000E+00 -0.00000000000E+00 -0.45593999997E+02  0.45594000000E+02  0.51100000000E-03 0. -1.
    9900012    2    1    2    0    0 -0.25444302887E+02 -0.31672737273E+02  0.16096243974E+01  0.50528859250E+02  0.29999998177E+02 0.  0.
         12    1    1    2    0    0  0.25444302887E+02  0.31672737273E+02 -0.16096243974E+01  0.40659140750E+02  0.00000000000E+00 0. -1.
         11    1    3    3    0    0 -0.17567517921E+02 -0.12528061684E+02 -0.10296030298E+02  0.23907702851E+02  0.51100000000E-03 0. -1.
        -11    1    3    3    0    0 -0.44708204973E+01 -0.18817946658E+02  0.12660984770E+02  0.23117177335E+02  0.51100000000E-03 0.  1.
        -12    1    3    3    0    0 -0.34059644693E+01 -0.32672893242E+00 -0.75533007457E+00  0.35039790643E+01  0.00000000000E+00 0.  1.
</event>
<event>
 7    1  0.6889665E-012  0.5052886E+02  0.7816164E-02  0.1300439E+00
        -11   -1    0    0    0    0  0.00000000000E+00  0.00000000000E+00  0.45593999997E+02  0.45594000000E+02  0.51100000000E-03 0.  1.
         11   -1    0    0    0    0 -0.00000000000E+00 -0.00000000000E+00 -0.45593999997E+02  0.45594000000E+02  0.51100000000E-03 0. -1.
    9900012    2    1    2    0    0 -0.15900208650E+02 -0.34892958580E+02  0.13521491532E+02  0.50528856787E+02  0.29999990689E+02 0.  0.
        -12    1    1    2    0    0  0.15900208650E+02  0.34892958580E+02 -0.13521491532E+02  0.40659143213E+02  0.00000000000E+00 0.  1.
         11    1    3    3    0    0 -0.71712066552E+01 -0.57242212490E+01 -0.46827704760E+01  0.10301517043E+02  0.51100000000E-03 0. -1.
        -11    1    3    3    0    0 -0.78779029270E+01 -0.29725178885E+02  0.21009775516E+02  0.37243231356E+02  0.51100000000E-03 0.  1.
        -12    1    3    3    0    0 -0.85109906765E+00  0.55644155415E+00 -0.28055135082E+01  0.29841083879E+01  0.00000000000E+00 0.  1.
</event>
<event>
 7    1  0.6889665E-012  0.5052886E+02  0.7816164E-02  0.1300439E+00
        -11   -1    0    0    0    0  0.00000000000E+00  0.00000000000E+00  0.45593999997E+02  0.45594000000E+02  0.51100000000E-03 0.  1.
         11   -1    0    0    0    0 -0.00000000000E+00 -0.00000000000E+00 -0.45593999997E+02  0.45594000000E+02  0.51100000000E-03 0. -1.
    9900012    2    1    2    0    0  0.15701232335E+02 -0.36106041371E+02 -0.10148448876E+02  0.50528856688E+02  0.29999990387E+02 0.  0.
         12    1    1    2    0    0 -0.15701232335E+02  0.36106041371E+02  0.10148448876E+02  0.40659143312E+02  0.00000000000E+00 0. -1.
         11    1    3    3    0    0 -0.44061865614E+01 -0.33560609493E+01 -0.11636251952E+01  0.56596509579E+01  0.51100000000E-03 0. -1.
        -11    1    3    3    0    0  0.14511435061E+02 -0.13894951583E+02  0.50392636717E+01  0.20713416079E+02  0.51100000000E-03 0.  1.
        -12    1    3    3    0    0  0.55959838346E+01 -0.18855028839E+02 -0.14024087352E+02  0.24155789651E+02  0.00000000000E+00 0.  1.
</event>
<event>
 7    1  0.6889665E-012  0.5052887E+02  0.7816164E-02  0.1300439E+00
        -11   -1    0    0    0    0  0.00000000000E+00  0.00000000000E+00  0.45593999997E+02  0.45594000000E+02  0.51100000000E-03 0. -1.
         11   -1    0    0    0    0 -0.00000000000E+00 -0.00000000000E+00 -0.45593999997E+02  0.45594000000E+02  0.51100000000E-03 0.  1.
    9900012    2    1    2    0    0  0.24285597251E+02 -0.63276513665E+01  0.31989613192E+02  0.50528871163E+02  0.30000034387E+02 0.  0.
        -12    1    1    2    0    0 -0.24285597251E+02  0.63276513665E+01 -0.31989613192E+02  0.40659128837E+02  0.00000000000E+00 0.  1.
         11    1    3    3    0    0 -0.26638341722E+01  0.57535496455E+01  0.44564401605E+01  0.77497874284E+01  0.51100000000E-03 0. -1.
        -11    1    3    3    0    0  0.19580900853E+02 -0.78873368288E+01  0.10117102467E+02  0.23408919733E+02  0.51100000000E-03 0.  1.
         12    1    3    3    0    0  0.73685305697E+01 -0.41938641831E+01  0.17416070565E+02  0.19370164002E+02  0.00000000000E+00 0. -1.
</event>
<event>
 7    1  0.6889665E-012  0.5052886E+02  0.7816164E-02  0.1300439E+00
        -11   -1    0    0    0    0  0.00000000000E+00  0.00000000000E+00  0.45593999997E+02  0.45594000000E+02  0.51100000000E-03 0. -1.
         11   -1    0    0    0    0 -0.00000000000E+00 -0.00000000000E+00 -0.45593999997E+02  0.45594000000E+02  0.51100000000E-03 0.  1.
    9900012    2    1    2    0    0  0.12369782286E+02 -0.39731148814E+01  0.38527506668E+02  0.50528856801E+02  0.29999990731E+02 0.  0.
        -12    1    1    2    0    0 -0.12369782286E+02  0.39731148814E+01 -0.38527506668E+02  0.40659143199E+02  0.00000000000E+00 0.  1.
         11    1    3    3    0    0 -0.58367881318E+01 -0.74809363286E+01  0.24927940743E+02  0.26672733906E+02  0.51100000000E-03 0. -1.
        -11    1    3    3    0    0  0.96560801764E+01  0.50661857681E+01  0.73158231471E+01  0.13131161076E+02  0.51100000000E-03 0.  1.
         12    1    3    3    0    0  0.85504902417E+01 -0.15583643209E+01  0.62837427773E+01  0.10724961819E+02  0.00000000000E+00 0. -1.
</event>
<event>
 7    1  0.6889665E-012  0.5052889E+02  0.7816164E-02  0.1300439E+00
        -11   -1    0    0    0    0  0.00000000000E+00  0.00000000000E+00  0.45593999997E+02  0.45594000000E+02  0.51100000000E-03 0. -1.
         11   -1    0    0    0    0 -0.00000000000E+00 -0.00000000000E+00 -0.45593999997E+02  0.45594000000E+02  0.51100000000E-03 0.  1.
    9900012    2    1    2    0    0 -0.21496398120E+00 -0.37334046575E+02  0.16102349446E+02  0.50528893998E+02  0.30000103796E+02 0.  0.
        -12    1    1    2    0    0  0.21496398120E+00  0.37334046575E+02 -0.16102349446E+02  0.40659106002E+02  0.00000000000E+00 0.  1.
         11    1    3    3    0    0  0.66458781318E+01 -0.63914863781E+01  0.12950583688E+02  0.15897685756E+02  0.51100000000E-03 0. -1.
        -11    1    3    3    0    0 -0.10877105057E+02 -0.24194861490E+02  0.12775773611E+01  0.26558142652E+02  0.51100000000E-03 0.  1.
        -12    1    3    3    0    0  0.40162629442E+01 -0.67476987069E+01  0.18741883966E+01  0.80730655901E+01  0.00000000000E+00 0.  1.
</event>
<event>
 7    1  0.6889665E-012  0.5052885E+02  0.7816164E-02  0.1300439E+00
        -11   -1    0    0    0    0  0.00000000000E+00  0.00000000000E+00  0.45593999997E+02  0.45594000000E+02  0.51100000000E-03 0. -1.
         11   -1    0    0    0    0 -0.00000000000E+00 -0.00000000000E+00 -0.45593999997E+02  0.45594000000E+02  0.51100000000E-03 0.  1.
    9900012    2    1    2    0    0  0.42156562543E+00 -0.21788755646E+02 -0.34325486754E+02  0.50528848126E+02  0.29999964365E+02 0.  0.
         12    1    1    2    0    0 -0.42156562543E+00  0.21788755646E+02  0.34325486754E+02  0.40659151874E+02  0.00000000000E+00 0. -1.
         11    1    3    3    0    0 -0.13433420174E+02 -0.76060970660E+01 -0.18679452938E+02  0.24232858941E+02  0.51100000000E-03 0. -1.
        -11    1    3    3    0    0 -0.34583221223E+00 -0.53888718726E+00 -0.25903656208E+01  0.26683316193E+01  0.51100000000E-03 0.  1.
         12    1    3    3    0    0  0.14200818012E+02 -0.13643771393E+02 -0.13055668196E+02  0.23627657566E+02  0.00000000000E+00 0. -1.
</event>
<event>
 7    1  0.6889665E-012  0.5052886E+02  0.7816164E-02  0.1300439E+00
        -11   -1    0    0    0    0  0.00000000000E+00  0.00000000000E+00  0.45593999997E+02  0.45594000000E+02  0.51100000000E-03 0. -1.
         11   -1    0    0    0    0 -0.00000000000E+00 -0.00000000000E+00 -0.45593999997E+02  0.45594000000E+02  0.51100000000E-03 0.  1.
    9900012    2    1    2    0    0  0.14143270045E+02  0.23225301815E+02 -0.30227787090E+02  0.50528857802E+02  0.29999993774E+02 0.  0.
         12    1    1    2    0    0 -0.14143270045E+02 -0.23225301815E+02  0.30227787090E+02  0.40659142198E+02  0.00000000000E+00 0. -1.
         11    1    3    3    0    0 -0.48563247182E+01  0.11180798475E+01 -0.10412183589E+01  0.50909849976E+01  0.51100000000E-03 0. -1.
        -11    1    3    3    0    0  0.19241408197E+02  0.24496643991E+02 -0.22764982637E+02  0.38581884232E+02  0.51100000000E-03 0.  1.
        -12    1    3    3    0    0 -0.24181343352E+00 -0.23894220231E+01 -0.64215860937E+01  0.68559885721E+01  0.00000000000E+00 0.  1.
</event>
<event>
 7    1  0.6889665E-012  0.5052880E+02  0.7816164E-02  0.1300439E+00
        -11   -1    0    0    0    0  0.00000000000E+00  0.00000000000E+00  0.45593999997E+02  0.45594000000E+02  0.51100000000E-03 0. -1.
         11   -1    0    0    0    0 -0.00000000000E+00 -0.00000000000E+00 -0.45593999997E+02  0.45594000000E+02  0.51100000000E-03 0.  1.
    9900012    2    1    2    0    0 -0.26927365612E+02 -0.10721643018E+02  0.28515503371E+02  0.50528799561E+02  0.29999816745E+02 0.  0.
        -12    1    1    2    0    0  0.26927365612E+02  0.10721643018E+02 -0.28515503371E+02  0.40659200439E+02  0.00000000000E+00 0.  1.
         11    1    3    3    0    0 -0.25694414285E+02  0.18120446116E+01  0.23405480854E+02  0.34803778033E+02  0.51100000000E-03 0. -1.
        -11    1    3    3    0    0 -0.53134395523E+00 -0.10199825654E+02  0.72148046215E+01  0.12504886076E+02  0.51100000000E-03 0.  1.
         12    1    3    3    0    0 -0.70160737184E+00 -0.23338619757E+01 -0.21047821037E+01  0.32201354521E+01  0.00000000000E+00 0. -1.
</event>
<event>
 7    1  0.6889665E-012  0.5052885E+02  0.7816164E-02  0.1300439E+00
        -11   -1    0    0    0    0  0.00000000000E+00  0.00000000000E+00  0.45593999997E+02  0.45594000000E+02  0.51100000000E-03 0. -1.
         11   -1    0    0    0    0 -0.00000000000E+00 -0.00000000000E+00 -0.45593999997E+02  0.45594000000E+02  0.51100000000E-03 0.  1.
    9900012    2    1    2    0    0 -0.40894380370E+01 -0.56586091966E+01  0.40055253314E+02  0.50528847530E+02  0.29999962552E+02 0.  0.
        -12    1    1    2    0    0  0.40894380370E+01  0.56586091966E+01 -0.40055253314E+02  0.40659152470E+02  0.00000000000E+00 0.  1.
         11    1    3    3    0    0 -0.41999194379E+01  0.88492613468E+01  0.24561504090E+02  0.26442697160E+02  0.51100000000E-03 0. -1.
        -11    1    3    3    0    0  0.31292733349E+01 -0.15031734243E+02  0.12449781032E+02  0.19767206023E+02  0.51100000000E-03 0.  1.
        -12    1    3    3    0    0 -0.30187919340E+01  0.52386369927E+00  0.30439681931E+01  0.43189443475E+01  0.00000000000E+00 0.  1.
</event>
<event>
 7    1  0.6889665E-012  0.5052886E+02  0.7816164E-02  0.1300439E+00
        -11   -1    0    0    0    0  0.00000000000E+00  0.00000000000E+00  0.45593999997E+02  0.45594000000E+02  0.51100000000E-03 0. -1.
         11   -1    0    0    0    0 -0.00000000000E+00 -0.00000000000E+00 -0.45593999997E+02  0.45594000000E+02  0.51100000000E-03 0.  1.
    9900012    2    1    2    0    0  0.68702407770E+01 -0.19687240503E+02  0.34905269390E+02  0.50528862304E+02  0.30000007460E+02 0.  0.
        -12    1    1    2    0    0 -0.68702407770E+01  0.19687240503E+02 -0.34905269390E+02  0.40659137696E+02  0.00000000000E+00 0.  1.
         11    1    3    3    0    0  0.65151399123E+01 -0.14271285039E+01  0.30540466611E+02  0.31260259835E+02  0.51100000000E-03 0. -1.
        -11    1    3    3    0    0 -0.14305627937E+01 -0.89508624002E+01  0.65007415820E+00  0.90877414293E+01  0.51100000000E-03 0.  1.
         12    1    3    3    0    0  0.17856636584E+01 -0.93092495988E+01  0.37147286207E+01  0.10180861040E+02  0.00000000000E+00 0. -1.
</event>
<event>
 7    1  0.6889665E-012  0.5052889E+02  0.7816164E-02  0.1300439E+00
        -11   -1    0    0    0    0  0.00000000000E+00  0.00000000000E+00  0.45593999997E+02  0.45594000000E+02  0.51100000000E-03 0. -1.
         11   -1    0    0    0    0 -0.00000000000E+00 -0.00000000000E+00 -0.45593999997E+02  0.45594000000E+02  0.51100000000E-03 0.  1.
    9900012    2    1    2    0    0 -0.56594822031E+01  0.10352648229E+02  0.38909594525E+02  0.50528885274E+02  0.30000077280E+02 0.  0.
        -12    1    1    2    0    0  0.56594822031E+01 -0.10352648229E+02 -0.38909594525E+02  0.40659114726E+02  0.00000000000E+00 0.  1.
         11    1    3    3    0    0 -0.41204335581E+01 -0.26320345010E+00  0.18112234949E+02  0.18576875515E+02  0.51100000000E-03 0. -1.
        -11    1    3    3    0    0 -0.35319682990E+00  0.17198201955E+02  0.17331935092E+02  0.24419231618E+02  0.51100000000E-03 0.  1.
        -12    1    3    3    0    0 -0.11858518152E+01 -0.65823502762E+01  0.34654244834E+01  0.75327781419E+01  0.00000000000E+00 0.  1.
</event>
<event>
 7    1  0.6889665E-012  0.5052887E+02  0.7816164E-02  0.1300439E+00
        -11   -1    0    0    0    0  0.00000000000E+00  0.00000000000E+00  0.45593999997E+02  0.45594000000E+02  0.51100000000E-03 0. -1.
         11   -1    0    0    0    0 -0.00000000000E+00 -0.00000000000E+00 -0.45593999997E+02  0.45594000000E+02  0.51100000000E-03 0.  1.
    9900012    2    1    2    0    0 -0.77151771758E+01  0.24713513053E+02 -0.31350966323E+02  0.50528870943E+02  0.30000033719E+02 0.  0.
         12    1    1    2    0    0  0.77151771758E+01 -0.24713513053E+02  0.31350966323E+02  0.40659129057E+02  0.00000000000E+00 0. -1.
         11    1    3    3    0    0 -0.21958215815E+01 -0.63151577009E+01 -0.22155950992E+01  0.70435581285E+01  0.51100000000E-03 0. -1.
        -11    1    3    3    0    0 -0.55877439377E+01  0.19009447034E+02 -0.21541071883E+02  0.29267725177E+02  0.51100000000E-03 0.  1.
         12    1    3    3    0    0  0.68388343406E-01  0.12019223719E+02 -0.75942993406E+01  0.14217587638E+02  0.00000000000E+00 0. -1.
</event>
<event>
 7    1  0.6889665E-012  0.5052885E+02  0.7816164E-02  0.1300439E+00
        -11   -1    0    0    0    0  0.00000000000E+00  0.00000000000E+00  0.45593999997E+02  0.45594000000E+02  0.51100000000E-03 0.  1.
         11   -1    0    0    0    0 -0.00000000000E+00 -0.00000000000E+00 -0.45593999997E+02  0.45594000000E+02  0.51100000000E-03 0. -1.
    9900012    2    1    2    0    0 -0.14305399765E+02  0.31203333806E+02 -0.21791604427E+02  0.50528849412E+02  0.29999968273E+02 0.  0.
         12    1    1    2    0    0  0.14305399765E+02 -0.31203333806E+02  0.21791604427E+02  0.40659150588E+02  0.00000000000E+00 0. -1.
         11    1    3    3    0    0 -0.10974509511E+02  0.20496766929E+01 -0.44272072658E+01  0.12010045711E+02  0.51100000000E-03 0.  1.
        -11    1    3    3    0    0  0.14520762803E+01  0.27031508424E+02 -0.18958227529E+02  0.33048833028E+02  0.51100000000E-03 0. -1.
         12    1    3    3    0    0 -0.47829665336E+01  0.21221486882E+01  0.15938303675E+01  0.54699706724E+01  0.00000000000E+00 0. -1.
</event>
<event>
 7    1  0.6889665E-012  0.5052886E+02  0.7816164E-02  0.1300439E+00
        -11   -1    0    0    0    0  0.00000000000E+00  0.00000000000E+00  0.45593999997E+02  0.45594000000E+02  0.51100000000E-03 0. -1.
         11   -1    0    0    0    0 -0.00000000000E+00 -0.00000000000E+00 -0.45593999997E+02  0.45594000000E+02  0.51100000000E-03 0.  1.
    9900012    2    1    2    0    0 -0.27044281466E+02 -0.11629234362E+02  0.28045199762E+02  0.50528862263E+02  0.30000007334E+02 0.  0.
        -12    1    1    2    0    0  0.27044281466E+02  0.11629234362E+02 -0.28045199762E+02  0.40659137737E+02  0.00000000000E+00 0.  1.
         11    1    3    3    0    0 -0.17599019403E+02 -0.72245079821E+01  0.29456026833E+02  0.35065317859E+02  0.51100000000E-03 0. -1.
        -11    1    3    3    0    0 -0.69265312643E+01 -0.62701541628E+00 -0.58690402284E+01  0.91003086295E+01  0.51100000000E-03 0.  1.
        -12    1    3    3    0    0 -0.25187307984E+01 -0.37777109639E+01  0.44582131575E+01  0.63632357743E+01  0.00000000000E+00 0.  1.
</event>
<event>
 7    1  0.6889665E-012  0.5052886E+02  0.7816164E-02  0.1300439E+00
        -11   -1    0    0    0    0  0.00000000000E+00  0.00000000000E+00  0.45593999997E+02  0.45594000000E+02  0.51100000000E-03 0. -1.
         11   -1    0    0    0    0 -0.00000000000E+00 -0.00000000000E+00 -0.45593999997E+02  0.45594000000E+02  0.51100000000E-03 0.  1.
    9900012    2    1    2    0    0 -0.12970132174E+02  0.31577232487E+02 -0.22086634781E+02  0.50528863559E+02  0.30000011275E+02 0.  0.
         12    1    1    2    0    0  0.12970132174E+02 -0.31577232487E+02  0.22086634781E+02  0.40659136441E+02  0.00000000000E+00 0. -1.
         11    1    3    3    0    0 -0.15362592340E+02  0.66575385420E+01 -0.86957295548E+01  0.18866578270E+02  0.51100000000E-03 0. -1.
        -11    1    3    3    0    0 -0.19818639358E+01  0.24146245198E+02 -0.10864706441E+02  0.26552039247E+02  0.51100000000E-03 0.  1.
        -12    1    3    3    0    0  0.43743241025E+01  0.77344874671E+00 -0.25261987853E+01  0.51102460431E+01  0.00000000000E+00 0.  1.
</event>
<event>
 7    1  0.6889665E-012  0.5052886E+02  0.7816164E-02  0.1300439E+00
        -11   -1    0    0    0    0  0.00000000000E+00  0.00000000000E+00  0.45593999997E+02  0.45594000000E+02  0.51100000000E-03 0. -1.
         11   -1    0    0    0    0 -0.00000000000E+00 -0.00000000000E+00 -0.45593999997E+02  0.45594000000E+02  0.51100000000E-03 0.  1.
    9900012    2    1    2    0    0 -0.20249575820E+02  0.32737868399E+02  0.13090172303E+02  0.50528856390E+02  0.29999989483E+02 0.  0.
        -12    1    1    2    0    0  0.20249575820E+02 -0.32737868399E+02 -0.13090172303E+02  0.40659143610E+02  0.00000000000E+00 0.  1.
         11    1    3    3    0    0 -0.77209239713E+01  0.79424838500E+01  0.14193627861E+02  0.18004299175E+02  0.51100000000E-03 0. -1.
        -11    1    3    3    0    0 -0.14383621641E+02  0.12865012325E+02 -0.48224762170E+01  0.19891037951E+02  0.51100000000E-03 0.  1.
        -12    1    3    3    0    0  0.18549697925E+01  0.11930372224E+02  0.37190206588E+01  0.12633519264E+02  0.00000000000E+00 0.  1.
</event>
<event>
 7    1  0.6889665E-012  0.5052888E+02  0.7816164E-02  0.1300439E+00
        -11   -1    0    0    0    0  0.00000000000E+00  0.00000000000E+00  0.45593999997E+02  0.45594000000E+02  0.51100000000E-03 0. -1.
         11   -1    0    0    0    0 -0.00000000000E+00 -0.00000000000E+00 -0.45593999997E+02  0.45594000000E+02  0.51100000000E-03 0.  1.
    9900012    2    1    2    0    0 -0.13662406977E+01 -0.16897039799E+01 -0.40601017259E+02  0.50528876600E+02  0.30000050914E+02 0.  0.
         12    1    1    2    0    0  0.13662406977E+01  0.16897039799E+01  0.40601017259E+02  0.40659123400E+02  0.00000000000E+00 0. -1.
         11    1    3    3    0    0  0.74483497731E+01  0.45427134776E+01 -0.32577980601E+02  0.33725939281E+02  0.51100000000E-03 0.  1.
        -11    1    3    3    0    0 -0.61528949546E+01  0.15636727057E+01 -0.22165722119E+01  0.67243126998E+01  0.51100000000E-03 0. -1.
        -12    1    3    3    0    0 -0.26616955162E+01 -0.77960901633E+01 -0.58064644462E+01  0.10078624619E+02  0.00000000000E+00 0.  1.
</event>
<event>
 7    1  0.6889665E-012  0.5052888E+02  0.7816164E-02  0.1300439E+00
        -11   -1    0    0    0    0  0.00000000000E+00  0.00000000000E+00  0.45593999997E+02  0.45594000000E+02  0.51100000000E-03 0. -1.
         11   -1    0    0    0    0 -0.00000000000E+00 -0.00000000000E+00 -0.45593999997E+02  0.45594000000E+02  0.51100000000E-03 0.  1.
    9900012    2    1    2    0    0  0.70048489665E+01  0.12645006097E+02 -0.38002633940E+02  0.50528877105E+02  0.30000052448E+02 0.  0.
         12    1    1    2    0    0 -0.70048489665E+01 -0.12645006097E+02  0.38002633940E+02  0.40659122895E+02  0.00000000000E+00 0. -1.
         11    1    3    3    0    0 -0.94874675992E+00  0.73935215765E+01  0.10015317419E+00  0.74548180820E+01  0.51100000000E-03 0. -1.
        -11    1    3    3    0    0 -0.20362306889E+01 -0.23635297175E+01 -0.23944078607E+02  0.24146457478E+02  0.51100000000E-03 0.  1.
        -12    1    3    3    0    0  0.99898264153E+01  0.76150142383E+01 -0.14158708506E+02  0.18927601544E+02  0.00000000000E+00 0.  1.
</event>
<event>
 7    1  0.6889665E-012  0.5052894E+02  0.7816164E-02  0.1300439E+00
        -11   -1    0    0    0    0  0.00000000000E+00  0.00000000000E+00  0.45593999997E+02  0.45594000000E+02  0.51100000000E-03 0. -1.
         11   -1    0    0    0    0 -0.00000000000E+00 -0.00000000000E+00 -0.45593999997E+02  0.45594000000E+02  0.51100000000E-03 0.  1.
    9900012    2    1    2    0    0 -0.89195768056E+01 -0.18468396721E+02 -0.35107246463E+02  0.50528938500E+02  0.30000239064E+02 0.  0.
         12    1    1    2    0    0  0.89195768056E+01  0.18468396721E+02  0.35107246463E+02  0.40659061500E+02  0.00000000000E+00 0. -1.
         11    1    3    3    0    0 -0.13373565927E+02 -0.24756582301E+01 -0.41885798020E+01  0.14231140162E+02  0.51100000000E-03 0. -1.
        -11    1    3    3    0    0  0.59800131794E+01 -0.12177602955E+02 -0.16802764224E+02  0.21596005584E+02  0.51100000000E-03 0.  1.
         12    1    3    3    0    0 -0.15260240579E+01 -0.38151355363E+01 -0.14115902437E+02  0.14701792755E+02  0.00000000000E+00 0. -1.
</event>
<event>
 7    1  0.6889665E-012  0.5052887E+02  0.7816164E-02  0.1300439E+00
        -11   -1    0    0    0    0  0.00000000000E+00  0.00000000000E+00  0.45593999997E+02  0.45594000000E+02  0.51100000000E-03 0.  1.
         11   -1    0    0    0    0 -0.00000000000E+00 -0.00000000000E+00 -0.45593999997E+02  0.45594000000E+02  0.51100000000E-03 0. -1.
    9900012    2    1    2    0    0  0.10325882181E+02 -0.37192845667E+02  0.12776273546E+02  0.50528870923E+02  0.30000033657E+02 0.  0.
        -12    1    1    2    0    0 -0.10325882181E+02  0.37192845667E+02 -0.12776273546E+02  0.40659129077E+02  0.00000000000E+00 0.  1.
         11    1    3    3    0    0  0.31726615595E+00 -0.73678056923E+01 -0.20029249654E+01  0.76417882208E+01  0.51100000000E-03 0. -1.
        -11    1    3    3    0    0  0.14354293901E+02 -0.25421414406E+02  0.19497646354E+02  0.35106299683E+02  0.51100000000E-03 0.  1.
        -12    1    3    3    0    0 -0.43456778759E+01 -0.44036255685E+01 -0.47184478431E+01  0.77807830195E+01  0.00000000000E+00 0.  1.
</event>
<event>
 7    1  0.7896658E-012  0.5052886E+02  0.7816164E-02  0.1300439E+00
        -11   -1    0    0    0    0  0.00000000000E+00  0.00000000000E+00  0.45593999997E+02  0.45594000000E+02  0.51100000000E-03 0. -1.
         11   -1    0    0    0    0 -0.00000000000E+00 -0.00000000000E+00 -0.45593999997E+02  0.45594000000E+02  0.51100000000E-03 0.  1.
    9900012    2    1    2    0    0  0.11416732111E+02 -0.16024271324E+02  0.35581549176E+02  0.50528859757E+02  0.29999999717E+02 0.  0.
        -12    1    1    2    0    0 -0.11416732111E+02  0.16024271324E+02 -0.35581549176E+02  0.40659140243E+02  0.00000000000E+00 0.  1.
         11    1    3    3    0    0 -0.75104477211E+01 -0.96343467665E+01  0.65191708563E+01  0.13846553777E+02  0.51100000000E-03 0. -1.
        -11    1    3    3    0    0  0.51096568616E+01  0.25773130666E+01  0.55342845471E+01  0.79611206244E+01  0.51100000000E-03 0.  1.
         12    1    3    3    0    0  0.13817522970E+02 -0.89672376239E+01  0.23528093773E+02  0.28721185355E+02  0.00000000000E+00 0. -1.
</event>
<event>
 7    1  0.6889665E-012  0.5052887E+02  0.7816164E-02  0.1300439E+00
        -11   -1    0    0    0    0  0.00000000000E+00  0.00000000000E+00  0.45593999997E+02  0.45594000000E+02  0.51100000000E-03 0. -1.
         11   -1    0    0    0    0 -0.00000000000E+00 -0.00000000000E+00 -0.45593999997E+02  0.45594000000E+02  0.51100000000E-03 0.  1.
    9900012    2    1    2    0    0  0.39977077696E+01  0.22310803631E+02  0.33755170453E+02  0.50528866237E+02  0.30000019413E+02 0.  0.
        -12    1    1    2    0    0 -0.39977077696E+01 -0.22310803631E+02 -0.33755170453E+02  0.40659133763E+02  0.00000000000E+00 0.  1.
         11    1    3    3    0    0  0.62438093647E+01  0.38519397534E+01  0.24183189731E+02  0.25271510859E+02  0.51100000000E-03 0. -1.
        -11    1    3    3    0    0  0.15129481135E+00  0.15402197883E+01 -0.34448509654E+01  0.37765282405E+01  0.51100000000E-03 0.  1.
         12    1    3    3    0    0 -0.23973964064E+01  0.16918644089E+02  0.13016831687E+02  0.21480827138E+02  0.00000000000E+00 0. -1.
</event>
<event>
 7    1  0.6889665E-012  0.5052886E+02  0.7816164E-02  0.1300439E+00
        -11   -1    0    0    0    0  0.00000000000E+00  0.00000000000E+00  0.45593999997E+02  0.45594000000E+02  0.51100000000E-03 0. -1.
         11   -1    0    0    0    0 -0.00000000000E+00 -0.00000000000E+00 -0.45593999997E+02  0.45594000000E+02  0.51100000000E-03 0.  1.
    9900012    2    1    2    0    0  0.44214896294E+01 -0.20832400629E+02 -0.34635637772E+02  0.50528857236E+02  0.29999992053E+02 0.  0.
         12    1    1    2    0    0 -0.44214896294E+01  0.20832400629E+02  0.34635637772E+02  0.40659142764E+02  0.00000000000E+00 0. -1.
         11    1    3    3    0    0 -0.50320617948E+01  0.52155266700E+00 -0.16290983922E+02  0.17058423740E+02  0.51100000000E-03 0. -1.
        -11    1    3    3    0    0  0.13649562713E+02 -0.16569072541E+02 -0.15614870401E+02  0.26545600484E+02  0.51100000000E-03 0.  1.
         12    1    3    3    0    0 -0.41960112885E+01 -0.47848807542E+01 -0.27297834486E+01  0.69248330118E+01  0.00000000000E+00 0. -1.
</event>
<event>
 7    1  0.6889665E-012  0.5052875E+02  0.7816164E-02  0.1300439E+00
        -11   -1    0    0    0    0  0.00000000000E+00  0.00000000000E+00  0.45593999997E+02  0.45594000000E+02  0.51100000000E-03 0. -1.
         11   -1    0    0    0    0 -0.00000000000E+00 -0.00000000000E+00 -0.45593999997E+02  0.45594000000E+02  0.51100000000E-03 0.  1.
    9900012    2    1    2    0    0  0.13795204458E+02  0.67335036300E+01 -0.37650053468E+02  0.50528754270E+02  0.29999679078E+02 0.  0.
         12    1    1    2    0    0 -0.13795204458E+02 -0.67335036300E+01  0.37650053468E+02  0.40659245730E+02  0.00000000000E+00 0. -1.
         11    1    3    3    0    0 -0.24019576588E+01 -0.88109538044E+00  0.15936509291E+01  0.30142085543E+01  0.51100000000E-03 0. -1.
        -11    1    3    3    0    0  0.54523506275E+01  0.13332258812E+02 -0.18272270459E+02  0.23266996377E+02  0.51100000000E-03 0.  1.
        -12    1    3    3    0    0  0.10744811489E+02 -0.57176598018E+01 -0.20971433938E+02  0.24247549339E+02  0.00000000000E+00 0.  1.
</event>
<event>
 7    1  0.6889665E-012  0.5052886E+02  0.7816164E-02  0.1300439E+00
        -11   -1    0    0    0    0  0.00000000000E+00  0.00000000000E+00  0.45593999997E+02  0.45594000000E+02  0.51100000000E-03 0. -1.
         11   -1    0    0    0    0 -0.00000000000E+00 -0.00000000000E+00 -0.45593999997E+02  0.45594000000E+02  0.51100000000E-03 0.  1.
    9900012    2    1    2    0    0  0.17876579609E+02  0.26486846784E+01  0.36422221400E+02  0.50528857845E+02  0.29999993907E+02 0.  0.
        -12    1    1    2    0    0 -0.17876579609E+02 -0.26486846784E+01 -0.36422221400E+02  0.40659142155E+02  0.00000000000E+00 0.  1.
         11    1    3    3    0    0  0.78098169795E+00  0.25182314767E+00 -0.17448797081E+00  0.83892408674E+00  0.51100000000E-03 0.  1.
        -11    1    3    3    0    0  0.10445836708E+02  0.14308152966E+02  0.29247788052E+02  0.34194617297E+02  0.51100000000E-03 0. -1.
        -12    1    3    3    0    0  0.66497612030E+01 -0.11911291435E+02  0.73489213183E+01  0.15495316462E+02  0.00000000000E+00 0.  1.
</event>
<event>
 7    1  0.6889665E-012  0.5052886E+02  0.7816164E-02  0.1300439E+00
        -11   -1    0    0    0    0  0.00000000000E+00  0.00000000000E+00  0.45593999997E+02  0.45594000000E+02  0.51100000000E-03 0. -1.
         11   -1    0    0    0    0 -0.00000000000E+00 -0.00000000000E+00 -0.45593999997E+02  0.45594000000E+02  0.51100000000E-03 0.  1.
    9900012    2    1    2    0    0 -0.19234073539E+02  0.20249848199E+02  0.29549275603E+02  0.50528860491E+02  0.30000001949E+02 0.  0.
        -12    1    1    2    0    0  0.19234073539E+02 -0.20249848199E+02 -0.29549275603E+02  0.40659139509E+02  0.00000000000E+00 0.  1.
         11    1    3    3    0    0 -0.63672872456E+00  0.18310912071E+01  0.45341466863E+01  0.49312072469E+01  0.51100000000E-03 0. -1.
        -11    1    3    3    0    0  0.41424769587E+01  0.11527388593E+02  0.18044670294E+01  0.12381312719E+02  0.51100000000E-03 0.  1.
        -12    1    3    3    0    0 -0.22739821773E+02  0.68913683985E+01  0.23210661887E+02  0.33216340525E+02  0.00000000000E+00 0.  1.
</event>
<event>
 7    1  0.6889665E-012  0.5052886E+02  0.7816164E-02  0.1300439E+00
        -11   -1    0    0    0    0  0.00000000000E+00  0.00000000000E+00  0.45593999997E+02  0.45594000000E+02  0.51100000000E-03 0. -1.
         11   -1    0    0    0    0 -0.00000000000E+00 -0.00000000000E+00 -0.45593999997E+02  0.45594000000E+02  0.51100000000E-03 0.  1.
    9900012    2    1    2    0    0  0.30969464014E+02  0.81674881952E+01  0.25046956444E+02  0.50528860907E+02  0.30000003212E+02 0.  0.
        -12    1    1    2    0    0 -0.30969464014E+02 -0.81674881952E+01 -0.25046956444E+02  0.40659139093E+02  0.00000000000E+00 0.  1.
         11    1    3    3    0    0  0.12625179050E+02  0.25386331141E+01 -0.18015488942E+01  0.13003283540E+02  0.51100000000E-03 0. -1.
        -11    1    3    3    0    0  0.13407489781E+02 -0.51427570724E+01  0.14250707761E+02  0.20230951646E+02  0.51100000000E-03 0.  1.
        -12    1    3    3    0    0  0.49367951827E+01  0.10771612153E+02  0.12597797576E+02  0.17294625721E+02  0.00000000000E+00 0.  1.
</event>
<event>
 7    1  0.6889665E-012  0.5052886E+02  0.7816164E-02  0.1300439E+00
        -11   -1    0    0    0    0  0.00000000000E+00  0.00000000000E+00  0.45593999997E+02  0.45594000000E+02  0.51100000000E-03 0. -1.
         11   -1    0    0    0    0 -0.00000000000E+00 -0.00000000000E+00 -0.45593999997E+02  0.45594000000E+02  0.51100000000E-03 0.  1.
    9900012    2    1    2    0    0  0.16139856427E+02  0.11019998128E+02  0.35654317919E+02  0.50528859447E+02  0.29999998775E+02 0.  0.
        -12    1    1    2    0    0 -0.16139856427E+02 -0.11019998128E+02 -0.35654317919E+02  0.40659140553E+02  0.00000000000E+00 0.  1.
         11    1    3    3    0    0 -0.73485619248E+01 -0.33387565967E+00  0.16284456834E+02  0.17868865940E+02  0.51100000000E-03 0. -1.
        -11    1    3    3    0    0  0.14874298630E+02  0.86116850047E+01  0.11556653706E+02  0.20711400810E+02  0.51100000000E-03 0.  1.
         12    1    3    3    0    0  0.86141197222E+01  0.27421887832E+01  0.78132073783E+01  0.11948592697E+02  0.00000000000E+00 0. -1.
</event>
<event>
 7    1  0.6889665E-012  0.5052885E+02  0.7816164E-02  0.1300439E+00
        -11   -1    0    0    0    0  0.00000000000E+00  0.00000000000E+00  0.45593999997E+02  0.45594000000E+02  0.51100000000E-03 0. -1.
         11   -1    0    0    0    0 -0.00000000000E+00 -0.00000000000E+00 -0.45593999997E+02  0.45594000000E+02  0.51100000000E-03 0.  1.
    9900012    2    1    2    0    0  0.14607055783E+02 -0.71267548887E+01  0.37269416780E+02  0.50528854153E+02  0.29999982683E+02 0.  0.
        -12    1    1    2    0    0 -0.14607055783E+02  0.71267548887E+01 -0.37269416780E+02  0.40659145847E+02  0.00000000000E+00 0.  1.
         11    1    3    3    0    0  0.13098815562E+02 -0.79257856563E+01  0.90292959007E+01  0.17774285699E+02  0.51100000000E-03 0. -1.
        -11    1    3    3    0    0  0.38305430177E+01  0.79893008537E+01  0.12834513371E+02  0.15595727674E+02  0.51100000000E-03 0.  1.
        -12    1    3    3    0    0 -0.23223027968E+01 -0.71902700861E+01  0.15405607508E+02  0.17158840779E+02  0.00000000000E+00 0.  1.
</event>
<event>
 7    1  0.6889665E-012  0.5052885E+02  0.7816164E-02  0.1300439E+00
        -11   -1    0    0    0    0  0.00000000000E+00  0.00000000000E+00  0.45593999997E+02  0.45594000000E+02  0.51100000000E-03 0. -1.
         11   -1    0    0    0    0 -0.00000000000E+00 -0.00000000000E+00 -0.45593999997E+02  0.45594000000E+02  0.51100000000E-03 0.  1.
    9900012    2    1    2    0    0 -0.29042578157E+01 -0.24868066354E+02  0.32036090355E+02  0.50528849457E+02  0.29999968410E+02 0.  0.
        -12    1    1    2    0    0  0.29042578157E+01  0.24868066354E+02 -0.32036090355E+02  0.40659150543E+02  0.00000000000E+00 0.  1.
         11    1    3    3    0    0 -0.14235969033E+01 -0.11646996954E+01  0.15132661138E+02  0.15244034470E+02  0.51100000000E-03 0. -1.
        -11    1    3    3    0    0 -0.82809242444E+00 -0.13247153858E+02 -0.22413811428E+01  0.13460929095E+02  0.51100000000E-03 0.  1.
        -12    1    3    3    0    0 -0.65256848798E+00 -0.10456212800E+02  0.19144810359E+02  0.21823885892E+02  0.00000000000E+00 0.  1.
</event>
<event>
 7    1  0.6889665E-012  0.5052886E+02  0.7816164E-02  0.1300439E+00
        -11   -1    0    0    0    0  0.00000000000E+00  0.00000000000E+00  0.45593999997E+02  0.45594000000E+02  0.51100000000E-03 0. -1.
         11   -1    0    0    0    0 -0.00000000000E+00 -0.00000000000E+00 -0.45593999997E+02  0.45594000000E+02  0.51100000000E-03 0.  1.
    9900012    2    1    2    0    0 -0.17527139461E+02 -0.55164569771E+01  0.36270286241E+02  0.50528861061E+02  0.30000003680E+02 0.  0.
        -12    1    1    2    0    0  0.17527139461E+02  0.55164569771E+01 -0.36270286241E+02  0.40659138939E+02  0.00000000000E+00 0.  1.
         11    1    3    3    0    0 -0.12657036857E+02  0.74594409095E+00  0.36232128545E+02  0.38386510049E+02  0.51100000000E-03 0. -1.
        -11    1    3    3    0    0 -0.31307057349E+01  0.60117173517E-01 -0.34959194267E+01  0.46932276071E+01  0.51100000000E-03 0.  1.
         12    1    3    3    0    0 -0.17393968698E+01 -0.63225182416E+01  0.35340771225E+01  0.74491234044E+01  0.00000000000E+00 0. -1.
</event>
<event>
 7    1  0.6889665E-012  0.5052894E+02  0.7816164E-02  0.1300439E+00
        -11   -1    0    0    0    0  0.00000000000E+00  0.00000000000E+00  0.45593999997E+02  0.45594000000E+02  0.51100000000E-03 0. -1.
         11   -1    0    0    0    0 -0.00000000000E+00 -0.00000000000E+00 -0.45593999997E+02  0.45594000000E+02  0.51100000000E-03 0.  1.
    9900012    2    1    2    0    0  0.36713312790E+02  0.48199532222E+01 -0.16794635321E+02  0.50528941223E+02  0.30000247340E+02 0.  0.
         12    1    1    2    0    0 -0.36713312790E+02 -0.48199532222E+01  0.16794635321E+02  0.40659058777E+02  0.00000000000E+00 0. -1.
         11    1    3    3    0    0  0.26386200489E+02  0.62913298605E+01 -0.83481640742E+01  0.28381406789E+02  0.51100000000E-03 0. -1.
        -11    1    3    3    0    0  0.24760981255E+01 -0.12576456958E+01 -0.12847734416E+02  0.13144467069E+02  0.51100000000E-03 0.  1.
        -12    1    3    3    0    0  0.78510141755E+01 -0.21373094244E+00  0.44012631692E+01  0.90030673653E+01  0.00000000000E+00 0.  1.
</event>
<event>
 7    1  0.6889665E-012  0.5052886E+02  0.7816164E-02  0.1300439E+00
        -11   -1    0    0    0    0  0.00000000000E+00  0.00000000000E+00  0.45593999997E+02  0.45594000000E+02  0.51100000000E-03 0. -1.
         11   -1    0    0    0    0 -0.00000000000E+00 -0.00000000000E+00 -0.45593999997E+02  0.45594000000E+02  0.51100000000E-03 0.  1.
    9900012    2    1    2    0    0 -0.22884610526E+02  0.47399475797E+01 -0.33271510965E+02  0.50528856577E+02  0.29999990052E+02 0.  0.
         12    1    1    2    0    0  0.22884610526E+02 -0.47399475797E+01  0.33271510965E+02  0.40659143423E+02  0.00000000000E+00 0. -1.
         11    1    3    3    0    0 -0.28848587503E+01  0.97794359819E+01 -0.44625754024E+01  0.11129885786E+02  0.51100000000E-03 0. -1.
        -11    1    3    3    0    0 -0.20808249490E+02 -0.41153374478E+01 -0.30596749396E+02  0.37230099692E+02  0.51100000000E-03 0.  1.
        -12    1    3    3    0    0  0.80849771425E+00 -0.92415095434E+00  0.17878138341E+01  0.21688710994E+01  0.00000000000E+00 0.  1.
</event>
<event>
 7    1  0.6889665E-012  0.5052886E+02  0.7816164E-02  0.1300439E+00
        -11   -1    0    0    0    0  0.00000000000E+00  0.00000000000E+00  0.45593999997E+02  0.45594000000E+02  0.51100000000E-03 0. -1.
         11   -1    0    0    0    0 -0.00000000000E+00 -0.00000000000E+00 -0.45593999997E+02  0.45594000000E+02  0.51100000000E-03 0.  1.
    9900012    2    1    2    0    0 -0.14500488102E+01 -0.11017800217E+02  0.39111010749E+02  0.50528859269E+02  0.29999998235E+02 0.  0.
        -12    1    1    2    0    0  0.14500488102E+01  0.11017800217E+02 -0.39111010749E+02  0.40659140731E+02  0.00000000000E+00 0.  1.
         11    1    3    3    0    0 -0.67239396151E+01 -0.90629283262E+01  0.34786121711E+02  0.36570784757E+02  0.51100000000E-03 0. -1.
        -11    1    3    3    0    0  0.77543703363E+01  0.19199532198E+01  0.48211952147E+01  0.93306164447E+01  0.51100000000E-03 0.  1.
        -12    1    3    3    0    0 -0.24804795314E+01 -0.38748251105E+01 -0.49630617717E+00  0.46274580673E+01  0.00000000000E+00 0.  1.
</event>
<event>
 7    1  0.6889665E-012  0.5052886E+02  0.7816164E-02  0.1300439E+00
        -11   -1    0    0    0    0  0.00000000000E+00  0.00000000000E+00  0.45593999997E+02  0.45594000000E+02  0.51100000000E-03 0. -1.
         11   -1    0    0    0    0 -0.00000000000E+00 -0.00000000000E+00 -0.45593999997E+02  0.45594000000E+02  0.51100000000E-03 0.  1.
    9900012    2    1    2    0    0 -0.32397254712E+02  0.22353048013E+02 -0.10194333105E+02  0.50528864547E+02  0.30000014277E+02 0.  0.
        -12    1    1    2    0    0  0.32397254712E+02 -0.22353048013E+02  0.10194333105E+02  0.40659135453E+02  0.00000000000E+00 0.  1.
         11    1    3    3    0    0 -0.14114614662E+02  0.15242698838E+02  0.76415794687E+01  0.22134948655E+02  0.51100000000E-03 0. -1.
        -11    1    3    3    0    0 -0.22123139302E+01  0.54981807783E+01 -0.43253980949E+01  0.73371243507E+01  0.51100000000E-03 0.  1.
         12    1    3    3    0    0 -0.16070326120E+02  0.16121683963E+01 -0.13510514479E+02  0.21056791542E+02  0.00000000000E+00 0. -1.
</event>
<event>
 7    1  0.6889665E-012  0.5052886E+02  0.7816164E-02  0.1300439E+00
        -11   -1    0    0    0    0  0.00000000000E+00  0.00000000000E+00  0.45593999997E+02  0.45594000000E+02  0.51100000000E-03 0. -1.
         11   -1    0    0    0    0 -0.00000000000E+00 -0.00000000000E+00 -0.45593999997E+02  0.45594000000E+02  0.51100000000E-03 0.  1.
    9900012    2    1    2    0    0 -0.42568142643E+01 -0.40540755199E+01 -0.40231946312E+02  0.50528862035E+02  0.30000006643E+02 0.  0.
         12    1    1    2    0    0  0.42568142643E+01  0.40540755199E+01  0.40231946312E+02  0.40659137965E+02  0.00000000000E+00 0. -1.
         11    1    3    3    0    0 -0.33717712170E+01  0.78569084326E+01 -0.19454145474E+02  0.21250026533E+02  0.51100000000E-03 0. -1.
        -11    1    3    3    0    0 -0.59597862296E+01 -0.13714633772E+02 -0.17303716199E+02  0.22869823479E+02  0.51100000000E-03 0.  1.
         12    1    3    3    0    0  0.50747431823E+01  0.18036498199E+01 -0.34740846388E+01  0.64090120235E+01  0.00000000000E+00 0. -1.
</event>
<event>
 7    1  0.6889665E-012  0.5052890E+02  0.7816164E-02  0.1300439E+00
        -11   -1    0    0    0    0  0.00000000000E+00  0.00000000000E+00  0.45593999997E+02  0.45594000000E+02  0.51100000000E-03 0. -1.
         11   -1    0    0    0    0 -0.00000000000E+00 -0.00000000000E+00 -0.45593999997E+02  0.45594000000E+02  0.51100000000E-03 0.  1.
    9900012    2    1    2    0    0 -0.83906203315E+01  0.44529937161E+01  0.39533922635E+02  0.50528896450E+02  0.30000111249E+02 0.  0.
        -12    1    1    2    0    0  0.83906203315E+01 -0.44529937161E+01 -0.39533922635E+02  0.40659103550E+02  0.00000000000E+00 0.  1.
         11    1    3    3    0    0 -0.58855313854E+01 -0.59962908792E+01  0.18749092158E+01  0.86087321265E+01  0.51100000000E-03 0.  1.
        -11    1    3    3    0    0  0.51477616567E+01 -0.14334394873E-01  0.14399703865E+02  0.15292191707E+02  0.51100000000E-03 0. -1.
         12    1    3    3    0    0 -0.76528506028E+01  0.10463618990E+02  0.23259309554E+02  0.26627972616E+02  0.00000000000E+00 0. -1.
</event>
<event>
 7    1  0.6889665E-012  0.5052886E+02  0.7816164E-02  0.1300439E+00
        -11   -1    0    0    0    0  0.00000000000E+00  0.00000000000E+00  0.45593999997E+02  0.45594000000E+02  0.51100000000E-03 0. -1.
         11   -1    0    0    0    0 -0.00000000000E+00 -0.00000000000E+00 -0.45593999997E+02  0.45594000000E+02  0.51100000000E-03 0.  1.
    9900012    2    1    2    0    0 -0.14860125308E+02  0.89238213651E+01  0.36779175488E+02  0.50528860049E+02  0.30000000606E+02 0.  0.
        -12    1    1    2    0    0  0.14860125308E+02 -0.89238213651E+01 -0.36779175488E+02  0.40659139951E+02  0.00000000000E+00 0.  1.
         11    1    3    3    0    0  0.11805483618E+00  0.77480431435E+01 -0.22151393924E+01  0.80593394448E+01  0.51100000000E-03 0.  1.
        -11    1    3    3    0    0 -0.94030409144E+01  0.28549598874E+01  0.31388921916E+02  0.32891220617E+02  0.51100000000E-03 0. -1.
        -12    1    3    3    0    0 -0.55751392299E+01 -0.16791816658E+01  0.76053929646E+01  0.95782999872E+01  0.00000000000E+00 0.  1.
</event>
<event>
 7    1  0.6889665E-012  0.5052878E+02  0.7816164E-02  0.1300439E+00
        -11   -1    0    0    0    0  0.00000000000E+00  0.00000000000E+00  0.45593999997E+02  0.45594000000E+02  0.51100000000E-03 0.  1.
         11   -1    0    0    0    0 -0.00000000000E+00 -0.00000000000E+00 -0.45593999997E+02  0.45594000000E+02  0.51100000000E-03 0. -1.
    9900012    2    1    2    0    0 -0.88859813192E+01  0.39676319664E+02 -0.33585610961E-01  0.50528780454E+02  0.29999758667E+02 0.  0.
        -12    1    1    2    0    0  0.88859813192E+01 -0.39676319664E+02  0.33585610961E-01  0.40659219546E+02  0.00000000000E+00 0.  1.
         11    1    3    3    0    0 -0.17043574217E+01  0.88025451191E+00 -0.77470591013E+01  0.79810154245E+01  0.51100000000E-03 0. -1.
        -11    1    3    3    0    0 -0.31582124902E+01  0.36789731367E+02  0.87196849284E+01  0.37940631857E+02  0.51100000000E-03 0.  1.
        -12    1    3    3    0    0 -0.40234114073E+01  0.20063337850E+01 -0.10062114381E+01  0.46071331724E+01  0.00000000000E+00 0.  1.
</event>
<event>
 7    1  0.6889665E-012  0.5052886E+02  0.7816164E-02  0.1300439E+00
        -11   -1    0    0    0    0  0.00000000000E+00  0.00000000000E+00  0.45593999997E+02  0.45594000000E+02  0.51100000000E-03 0. -1.
         11   -1    0    0    0    0 -0.00000000000E+00 -0.00000000000E+00 -0.45593999997E+02  0.45594000000E+02  0.51100000000E-03 0.  1.
    9900012    2    1    2    0    0 -0.32733881013E+02 -0.54278633560E+01  0.23498868991E+02  0.50528861905E+02  0.30000006247E+02 0.  0.
        -12    1    1    2    0    0  0.32733881013E+02  0.54278633560E+01 -0.23498868991E+02  0.40659138095E+02  0.00000000000E+00 0.  1.
         11    1    3    3    0    0 -0.32628642507E+02 -0.11070036195E+01  0.23746758768E+02  0.40370314850E+02  0.51100000000E-03 0. -1.
        -11    1    3    3    0    0 -0.40328379046E+01 -0.16814657106E+01 -0.23719371280E+01  0.49716390155E+01  0.51100000000E-03 0.  1.
         12    1    3    3    0    0  0.39275993989E+01 -0.26393940259E+01  0.21240473502E+01  0.51869080393E+01  0.00000000000E+00 0. -1.
</event>
<event>
 7    1  0.6889665E-012  0.5052886E+02  0.7816164E-02  0.1300439E+00
        -11   -1    0    0    0    0  0.00000000000E+00  0.00000000000E+00  0.45593999997E+02  0.45594000000E+02  0.51100000000E-03 0. -1.
         11   -1    0    0    0    0 -0.00000000000E+00 -0.00000000000E+00 -0.45593999997E+02  0.45594000000E+02  0.51100000000E-03 0.  1.
    9900012    2    1    2    0    0  0.24903401237E+01 -0.13486547190E+02  0.38276323210E+02  0.50528859975E+02  0.30000000380E+02 0.  0.
        -12    1    1    2    0    0 -0.24903401237E+01  0.13486547190E+02 -0.38276323210E+02  0.40659140025E+02  0.00000000000E+00 0.  1.
         11    1    3    3    0    0  0.47155056950E+01 -0.18218978519E+02  0.23104110873E+02  0.29798777017E+02  0.51100000000E-03 0. -1.
        -11    1    3    3    0    0 -0.51805378650E+01  0.78693278505E+01  0.79866812331E+01  0.12351168802E+02  0.51100000000E-03 0.  1.
        -12    1    3    3    0    0  0.29553722937E+01 -0.31368965220E+01  0.71855311041E+01  0.83789141559E+01  0.00000000000E+00 0.  1.
</event>
<event>
 7    1  0.6889665E-012  0.5052884E+02  0.7816164E-02  0.1300439E+00
        -11   -1    0    0    0    0  0.00000000000E+00  0.00000000000E+00  0.45593999997E+02  0.45594000000E+02  0.51100000000E-03 0. -1.
         11   -1    0    0    0    0 -0.00000000000E+00 -0.00000000000E+00 -0.45593999997E+02  0.45594000000E+02  0.51100000000E-03 0.  1.
    9900012    2    1    2    0    0  0.17183197226E+02  0.35805340725E+02 -0.87110608528E+01  0.50528840238E+02  0.29999940387E+02 0.  0.
         12    1    1    2    0    0 -0.17183197226E+02 -0.35805340725E+02  0.87110608528E+01  0.40659159762E+02  0.00000000000E+00 0. -1.
         11    1    3    3    0    0 -0.30373956246E+01  0.37251413567E+01  0.12390161001E+01  0.49636288606E+01  0.51100000000E-03 0. -1.
        -11    1    3    3    0    0  0.16910414562E+02  0.35677327334E+02 -0.97727309583E+01  0.40673579594E+02  0.51100000000E-03 0.  1.
        -12    1    3    3    0    0  0.33101782884E+01 -0.35971279654E+01 -0.17734599467E+00  0.48916317832E+01  0.00000000000E+00 0.  1.
</event>
<event>
 7    1  0.6889665E-012  0.5052887E+02  0.7816164E-02  0.1300439E+00
        -11   -1    0    0    0    0  0.00000000000E+00  0.00000000000E+00  0.45593999997E+02  0.45594000000E+02  0.51100000000E-03 0. -1.
         11   -1    0    0    0    0 -0.00000000000E+00 -0.00000000000E+00 -0.45593999997E+02  0.45594000000E+02  0.51100000000E-03 0.  1.
    9900012    2    1    2    0    0  0.34340077428E+02 -0.44573745332E+01 -0.21308588892E+02  0.50528867372E+02  0.30000022864E+02 0.  0.
         12    1    1    2    0    0 -0.34340077428E+02  0.44573745332E+01  0.21308588892E+02  0.40659132628E+02  0.00000000000E+00 0. -1.
         11    1    3    3    0    0  0.59254185923E+01  0.49166199315E+01 -0.31707890791E+01  0.83269226422E+01  0.51100000000E-03 0. -1.
        -11    1    3    3    0    0  0.32071757272E+02 -0.55576842764E+01 -0.17263407754E+02  0.36844412285E+02  0.51100000000E-03 0.  1.
        -12    1    3    3    0    0 -0.36570984366E+01 -0.38163101883E+01 -0.87439205846E+00  0.53575324451E+01  0.00000000000E+00 0.  1.
</event>
<event>
 7    1  0.6889665E-012  0.5052887E+02  0.7816164E-02  0.1300439E+00
        -11   -1    0    0    0    0  0.00000000000E+00  0.00000000000E+00  0.45593999997E+02  0.45594000000E+02  0.51100000000E-03 0. -1.
         11   -1    0    0    0    0 -0.00000000000E+00 -0.00000000000E+00 -0.45593999997E+02  0.45594000000E+02  0.51100000000E-03 0.  1.
    9900012    2    1    2    0    0  0.35610546281E+01 -0.27275329622E+02 -0.29942274840E+02  0.50528873858E+02  0.30000042579E+02 0.  0.
         12    1    1    2    0    0 -0.35610546281E+01  0.27275329622E+02  0.29942274840E+02  0.40659126142E+02  0.00000000000E+00 0. -1.
         11    1    3    3    0    0  0.38339027209E+01 -0.25147911446E+02 -0.15887592250E+02  0.29992196450E+02  0.51100000000E-03 0. -1.
        -11    1    3    3    0    0 -0.44543144433E+01  0.29594923365E+01 -0.12746709298E+02  0.13823100601E+02  0.51100000000E-03 0.  1.
        -12    1    3    3    0    0  0.41814663505E+01 -0.50869105129E+01 -0.13079732926E+01  0.67135768068E+01  0.00000000000E+00 0.  1.
</event>
<event>
 7    1  0.6889665E-012  0.5052886E+02  0.7816164E-02  0.1300439E+00
        -11   -1    0    0    0    0  0.00000000000E+00  0.00000000000E+00  0.45593999997E+02  0.45594000000E+02  0.51100000000E-03 0. -1.
         11   -1    0    0    0    0 -0.00000000000E+00 -0.00000000000E+00 -0.45593999997E+02  0.45594000000E+02  0.51100000000E-03 0.  1.
    9900012    2    1    2    0    0  0.20531609769E+02 -0.13872001246E+02 -0.32236412989E+02  0.50528859076E+02  0.29999997648E+02 0.  0.
         12    1    1    2    0    0 -0.20531609769E+02  0.13872001246E+02  0.32236412989E+02  0.40659140924E+02  0.00000000000E+00 0. -1.
         11    1    3    3    0    0  0.11080041630E+02 -0.12900853665E+01 -0.12526037566E+02  0.16772991985E+02  0.51100000000E-03 0. -1.
        -11    1    3    3    0    0  0.17663314957E+01 -0.17606625073E+02 -0.15987703246E+02  0.23847847466E+02  0.51100000000E-03 0.  1.
        -12    1    3    3    0    0  0.76852366430E+01  0.50247091938E+01 -0.37226721770E+01  0.99080196245E+01  0.00000000000E+00 0.  1.
</event>
<event>
 7    1  0.6889665E-012  0.5052885E+02  0.7816164E-02  0.1300439E+00
        -11   -1    0    0    0    0  0.00000000000E+00  0.00000000000E+00  0.45593999997E+02  0.45594000000E+02  0.51100000000E-03 0. -1.
         11   -1    0    0    0    0 -0.00000000000E+00 -0.00000000000E+00 -0.45593999997E+02  0.45594000000E+02  0.51100000000E-03 0.  1.
    9900012    2    1    2    0    0  0.93195733052E+01 -0.22928293508E+02 -0.32258413090E+02  0.50528852138E+02  0.29999976559E+02 0.  0.
         12    1    1    2    0    0 -0.93195733052E+01  0.22928293508E+02  0.32258413090E+02  0.40659147862E+02  0.00000000000E+00 0. -1.
         11    1    3    3    0    0 -0.65481271239E+01 -0.94011742578E+01 -0.20418920772E+02  0.23413508323E+02  0.51100000000E-03 0. -1.
        -11    1    3    3    0    0  0.17752724723E+02 -0.13267037148E+02 -0.12005440218E+02  0.25205239631E+02  0.51100000000E-03 0.  1.
        -12    1    3    3    0    0 -0.18850242938E+01 -0.26008210280E+00  0.16594790003E+00  0.19101041840E+01  0.00000000000E+00 0.  1.
</event>
<event>
 7    1  0.6889665E-012  0.5052886E+02  0.7816164E-02  0.1300439E+00
        -11   -1    0    0    0    0  0.00000000000E+00  0.00000000000E+00  0.45593999997E+02  0.45594000000E+02  0.51100000000E-03 0.  1.
         11   -1    0    0    0    0 -0.00000000000E+00 -0.00000000000E+00 -0.45593999997E+02  0.45594000000E+02  0.51100000000E-03 0. -1.
    9900012    2    1    2    0    0  0.36383844054E+02 -0.50570033088E+01 -0.17430087437E+02  0.50528864020E+02  0.30000012674E+02 0.  0.
         12    1    1    2    0    0 -0.36383844054E+02  0.50570033088E+01  0.17430087437E+02  0.40659135980E+02  0.00000000000E+00 0. -1.
         11    1    3    3    0    0 -0.35269805336E+01 -0.12877959220E+01 -0.47109148277E+01  0.60241786823E+01  0.51100000000E-03 0. -1.
        -11    1    3    3    0    0  0.38072064459E+02 -0.69000625990E+01 -0.99862111877E+01  0.39960197325E+02  0.51100000000E-03 0.  1.
        -12    1    3    3    0    0  0.18387601281E+01  0.31308552122E+01 -0.27329614215E+01  0.45444880129E+01  0.00000000000E+00 0.  1.
</event>
<event>
 7    1  0.6889665E-012  0.5052887E+02  0.7816164E-02  0.1300439E+00
        -11   -1    0    0    0    0  0.00000000000E+00  0.00000000000E+00  0.45593999997E+02  0.45594000000E+02  0.51100000000E-03 0. -1.
         11   -1    0    0    0    0 -0.00000000000E+00 -0.00000000000E+00 -0.45593999997E+02  0.45594000000E+02  0.51100000000E-03 0.  1.
    9900012    2    1    2    0    0  0.14979022375E+02  0.18861267243E+01  0.37752306699E+02  0.50528865154E+02  0.30000016123E+02 0.  0.
        -12    1    1    2    0    0 -0.14979022375E+02 -0.18861267243E+01 -0.37752306699E+02  0.40659134846E+02  0.00000000000E+00 0.  1.
         11    1    3    3    0    0 -0.45483288052E+01 -0.72083490083E+01  0.68720619482E+01  0.10948644940E+02  0.51100000000E-03 0.  1.
        -11    1    3    3    0    0  0.94423988533E+01  0.10357929373E+02  0.13582323997E+02  0.19517303154E+02  0.51100000000E-03 0. -1.
        -12    1    3    3    0    0  0.10084952327E+02 -0.12634536405E+01  0.17297920754E+02  0.20062917060E+02  0.00000000000E+00 0.  1.
</event>
<event>
 7    1  0.6889665E-012  0.5052886E+02  0.7816164E-02  0.1300439E+00
        -11   -1    0    0    0    0  0.00000000000E+00  0.00000000000E+00  0.45593999997E+02  0.45594000000E+02  0.51100000000E-03 0. -1.
         11   -1    0    0    0    0 -0.00000000000E+00 -0.00000000000E+00 -0.45593999997E+02  0.45594000000E+02  0.51100000000E-03 0.  1.
    9900012    2    1    2    0    0  0.74211223833E+01 -0.12865691217E+02 -0.37849259774E+02  0.50528861626E+02  0.30000005397E+02 0.  0.
         12    1    1    2    0    0 -0.74211223833E+01  0.12865691217E+02  0.37849259774E+02  0.40659138374E+02  0.00000000000E+00 0. -1.
         11    1    3    3    0    0 -0.29266297924E+01 -0.10437424836E+01  0.33326494036E+01  0.45564363950E+01  0.51100000000E-03 0. -1.
        -11    1    3    3    0    0  0.10911490472E+02 -0.31247652866E+01 -0.27502642816E+02  0.29752649370E+02  0.51100000000E-03 0.  1.
         12    1    3    3    0    0 -0.56373829648E+00 -0.86971834466E+01 -0.13679266362E+02  0.16219775860E+02  0.00000000000E+00 0. -1.
</event>
<event>
 7    1  0.6889665E-012  0.5052887E+02  0.7816164E-02  0.1300439E+00
        -11   -1    0    0    0    0  0.00000000000E+00  0.00000000000E+00  0.45593999997E+02  0.45594000000E+02  0.51100000000E-03 0. -1.
         11   -1    0    0    0    0 -0.00000000000E+00 -0.00000000000E+00 -0.45593999997E+02  0.45594000000E+02  0.51100000000E-03 0.  1.
    9900012    2    1    2    0    0  0.32231616479E+01  0.11780646666E+01  0.40514049910E+02  0.50528870060E+02  0.30000031035E+02 0.  0.
        -12    1    1    2    0    0 -0.32231616479E+01 -0.11780646666E+01 -0.40514049910E+02  0.40659129940E+02  0.00000000000E+00 0.  1.
         11    1    3    3    0    0  0.34041225322E+01 -0.78019568123E+01  0.97183314219E+01  0.12919154237E+02  0.51100000000E-03 0. -1.
        -11    1    3    3    0    0 -0.92435383719E+01  0.47952689502E+01  0.21854784593E+02  0.24208866471E+02  0.51100000000E-03 0.  1.
        -12    1    3    3    0    0  0.90625774876E+01  0.41847525288E+01  0.89409338951E+01  0.13400849352E+02  0.00000000000E+00 0.  1.
</event>
<event>
 7    1  0.6889665E-012  0.5052886E+02  0.7816164E-02  0.1300439E+00
        -11   -1    0    0    0    0  0.00000000000E+00  0.00000000000E+00  0.45593999997E+02  0.45594000000E+02  0.51100000000E-03 0.  1.
         11   -1    0    0    0    0 -0.00000000000E+00 -0.00000000000E+00 -0.45593999997E+02  0.45594000000E+02  0.51100000000E-03 0. -1.
    9900012    2    1    2    0    0 -0.32310803459E+02  0.24362639044E+02 -0.39546326943E+01  0.50528864236E+02  0.30000013330E+02 0.  0.
        -12    1    1    2    0    0  0.32310803459E+02 -0.24362639044E+02  0.39546326943E+01  0.40659135764E+02  0.00000000000E+00 0.  1.
         11    1    3    3    0    0 -0.25506574621E+02  0.27628965720E+02 -0.86299546937E+01  0.38580062389E+02  0.51100000000E-03 0.  1.
        -11    1    3    3    0    0 -0.83036502080E+01 -0.24503699328E+01  0.21842185037E+01  0.89289266050E+01  0.51100000000E-03 0. -1.
        -12    1    3    3    0    0  0.14994213700E+01 -0.81595674268E+00  0.24911034956E+01  0.30198752419E+01  0.00000000000E+00 0.  1.
</event>
<event>
 7    1  0.6889665E-012  0.5052886E+02  0.7816164E-02  0.1300439E+00
        -11   -1    0    0    0    0  0.00000000000E+00  0.00000000000E+00  0.45593999997E+02  0.45594000000E+02  0.51100000000E-03 0. -1.
         11   -1    0    0    0    0 -0.00000000000E+00 -0.00000000000E+00 -0.45593999997E+02  0.45594000000E+02  0.51100000000E-03 0.  1.
    9900012    2    1    2    0    0 -0.11327354271E+02  0.31671677964E+02  0.22842104605E+02  0.50528857331E+02  0.29999992343E+02 0.  0.
        -12    1    1    2    0    0  0.11327354271E+02 -0.31671677964E+02 -0.22842104605E+02  0.40659142669E+02  0.00000000000E+00 0.  1.
         11    1    3    3    0    0 -0.26558382570E+01  0.15664326770E+02  0.19844531960E+02  0.25421055426E+02  0.51100000000E-03 0. -1.
        -11    1    3    3    0    0 -0.95813034395E+01  0.18584172956E+02 -0.18954123559E+00  0.20909538163E+02  0.51100000000E-03 0.  1.
        -12    1    3    3    0    0  0.90978742503E+00 -0.25768217628E+01  0.31871138801E+01  0.41982637412E+01  0.00000000000E+00 0.  1.
</event>
<event>
 7    1  0.6889665E-012  0.5052886E+02  0.7816164E-02  0.1300439E+00
        -11   -1    0    0    0    0  0.00000000000E+00  0.00000000000E+00  0.45593999997E+02  0.45594000000E+02  0.51100000000E-03 0. -1.
         11   -1    0    0    0    0 -0.00000000000E+00 -0.00000000000E+00 -0.45593999997E+02  0.45594000000E+02  0.51100000000E-03 0.  1.
    9900012    2    1    2    0    0  0.10841277411E+02  0.39103193895E+02 -0.25637351384E+01  0.50528858266E+02  0.29999995184E+02 0.  0.
         12    1    1    2    0    0 -0.10841277411E+02 -0.39103193895E+02  0.25637351384E+01  0.40659141734E+02  0.00000000000E+00 0. -1.
         11    1    3    3    0    0  0.14755825980E+02  0.25746271679E+02  0.13321190556E+01  0.29704872448E+02  0.51100000000E-03 0. -1.
        -11    1    3    3    0    0 -0.82928082532E+01  0.13569563619E+02 -0.19289717645E+01  0.16019508665E+02  0.51100000000E-03 0.  1.
         12    1    3    3    0    0  0.43782596837E+01 -0.21264140197E+00 -0.19668824295E+01  0.48044771532E+01  0.00000000000E+00 0. -1.
</event>
<event>
 7    1  0.6889665E-012  0.5052886E+02  0.7816164E-02  0.1300439E+00
        -11   -1    0    0    0    0  0.00000000000E+00  0.00000000000E+00  0.45593999997E+02  0.45594000000E+02  0.51100000000E-03 0. -1.
         11   -1    0    0    0    0 -0.00000000000E+00 -0.00000000000E+00 -0.45593999997E+02  0.45594000000E+02  0.51100000000E-03 0.  1.
    9900012    2    1    2    0    0  0.11357080720E+02 -0.22945869059E+02  0.31585900639E+02  0.50528864390E+02  0.30000013799E+02 0.  0.
        -12    1    1    2    0    0 -0.11357080720E+02  0.22945869059E+02 -0.31585900639E+02  0.40659135610E+02  0.00000000000E+00 0.  1.
         11    1    3    3    0    0  0.20780929205E+01 -0.55151194178E+00  0.35850003408E+01  0.41802946443E+01  0.51100000000E-03 0. -1.
        -11    1    3    3    0    0  0.79416423989E+01 -0.29959118551E+01 -0.36199240456E+01  0.92276227812E+01  0.51100000000E-03 0.  1.
        -12    1    3    3    0    0  0.13373454006E+01 -0.19398445262E+02  0.31620824344E+02  0.37120946964E+02  0.00000000000E+00 0.  1.
</event>
<event>
 7    1  0.6889665E-012  0.5052886E+02  0.7816164E-02  0.1300439E+00
        -11   -1    0    0    0    0  0.00000000000E+00  0.00000000000E+00  0.45593999997E+02  0.45594000000E+02  0.51100000000E-03 0. -1.
         11   -1    0    0    0    0 -0.00000000000E+00 -0.00000000000E+00 -0.45593999997E+02  0.45594000000E+02  0.51100000000E-03 0.  1.
    9900012    2    1    2    0    0  0.34381482755E+01  0.22434885697E+02  0.33734566277E+02  0.50528856850E+02  0.29999990883E+02 0.  0.
        -12    1    1    2    0    0 -0.34381482755E+01 -0.22434885697E+02 -0.33734566277E+02  0.40659143150E+02  0.00000000000E+00 0.  1.
         11    1    3    3    0    0  0.72504246899E+01  0.17902892891E+02  0.39267961892E+01  0.19710453080E+02  0.51100000000E-03 0. -1.
        -11    1    3    3    0    0 -0.16140983084E+01  0.32346720060E+00  0.18239861893E+02  0.18313997557E+02  0.51100000000E-03 0.  1.
         12    1    3    3    0    0 -0.21981781060E+01  0.42085256048E+01  0.11567908194E+02  0.12504406213E+02  0.00000000000E+00 0. -1.
</event>
<event>
 7    1  0.6889665E-012  0.5052887E+02  0.7816164E-02  0.1300439E+00
        -11   -1    0    0    0    0  0.00000000000E+00  0.00000000000E+00  0.45593999997E+02  0.45594000000E+02  0.51100000000E-03 0.  1.
         11   -1    0    0    0    0 -0.00000000000E+00 -0.00000000000E+00 -0.45593999997E+02  0.45594000000E+02  0.51100000000E-03 0. -1.
    9900012    2    1    2    0    0 -0.31437665541E+02  0.15442037034E+02 -0.20649012296E+02  0.50528867801E+02  0.30000024167E+02 0.  0.
         12    1    1    2    0    0  0.31437665541E+02 -0.15442037034E+02  0.20649012296E+02  0.40659132199E+02  0.00000000000E+00 0. -1.
         11    1    3    3    0    0 -0.44919460579E+01  0.10950599295E+02 -0.27113600996E+01  0.12142680024E+02  0.51100000000E-03 0. -1.
        -11    1    3    3    0    0 -0.28183290970E+02  0.83049714957E+01 -0.13287764776E+02  0.32246474760E+02  0.51100000000E-03 0.  1.
        -12    1    3    3    0    0  0.12375714872E+01 -0.38135337575E+01 -0.46498874205E+01  0.61397130169E+01  0.00000000000E+00 0.  1.
</event>
<event>
 7    1  0.6889665E-012  0.5052886E+02  0.7816164E-02  0.1300439E+00
        -11   -1    0    0    0    0  0.00000000000E+00  0.00000000000E+00  0.45593999997E+02  0.45594000000E+02  0.51100000000E-03 0.  1.
         11   -1    0    0    0    0 -0.00000000000E+00 -0.00000000000E+00 -0.45593999997E+02  0.45594000000E+02  0.51100000000E-03 0. -1.
    9900012    2    1    2    0    0 -0.28726532994E+02  0.84362359005E+01  0.27509669405E+02  0.50528859763E+02  0.29999999735E+02 0.  0.
        -12    1    1    2    0    0  0.28726532994E+02 -0.84362359005E+01 -0.27509669405E+02  0.40659140237E+02  0.00000000000E+00 0.  1.
         11    1    3    3    0    0 -0.24115237416E+02  0.13654791595E+02  0.97302980068E+01  0.29371358646E+02  0.51100000000E-03 0. -1.
        -11    1    3    3    0    0 -0.48563481948E+01  0.11536375491E+01  0.92118652054E+01  0.10477282959E+02  0.51100000000E-03 0.  1.
         12    1    3    3    0    0  0.24505261675E+00 -0.63721932439E+01  0.85675061932E+01  0.10680218158E+02  0.00000000000E+00 0. -1.
</event>
<event>
 7    1  0.6889665E-012  0.5052886E+02  0.7816164E-02  0.1300439E+00
        -11   -1    0    0    0    0  0.00000000000E+00  0.00000000000E+00  0.45593999997E+02  0.45594000000E+02  0.51100000000E-03 0.  1.
         11   -1    0    0    0    0 -0.00000000000E+00 -0.00000000000E+00 -0.45593999997E+02  0.45594000000E+02  0.51100000000E-03 0. -1.
    9900012    2    1    2    0    0 -0.14176302767E+02  0.28254000942E+02  0.25571661563E+02  0.50528855832E+02  0.29999987786E+02 0.  0.
        -12    1    1    2    0    0  0.14176302767E+02 -0.28254000942E+02 -0.25571661563E+02  0.40659144168E+02  0.00000000000E+00 0.  1.
         11    1    3    3    0    0 -0.54890827884E+01 -0.53468791622E+00  0.66857633005E+01  0.86669113413E+01  0.51100000000E-03 0. -1.
        -11    1    3    3    0    0 -0.15724417544E+02  0.22688927681E+02  0.16809786032E+02  0.32320483491E+02  0.51100000000E-03 0.  1.
        -12    1    3    3    0    0  0.70371975658E+01  0.60997611780E+01  0.20761122309E+01  0.95414609995E+01  0.00000000000E+00 0.  1.
</event>
<event>
 7    1  0.6889665E-012  0.5052886E+02  0.7816164E-02  0.1300439E+00
        -11   -1    0    0    0    0  0.00000000000E+00  0.00000000000E+00  0.45593999997E+02  0.45594000000E+02  0.51100000000E-03 0. -1.
         11   -1    0    0    0    0 -0.00000000000E+00 -0.00000000000E+00 -0.45593999997E+02  0.45594000000E+02  0.51100000000E-03 0.  1.
    9900012    2    1    2    0    0 -0.16447053408E+02 -0.18320399054E+02  0.32357739886E+02  0.50528856897E+02  0.29999991024E+02 0.  0.
        -12    1    1    2    0    0  0.16447053408E+02  0.18320399054E+02 -0.32357739886E+02  0.40659143103E+02  0.00000000000E+00 0.  1.
         11    1    3    3    0    0 -0.15874811790E+02 -0.10770620849E+02  0.19396348722E+02  0.27280657376E+02  0.51100000000E-03 0. -1.
        -11    1    3    3    0    0  0.21918955123E+01 -0.12445481987E+02  0.52013849254E+01  0.13665607678E+02  0.51100000000E-03 0.  1.
        -12    1    3    3    0    0 -0.27641371309E+01  0.48957037818E+01  0.77600062385E+01  0.95825918425E+01  0.00000000000E+00 0.  1.
</event>
<event>
 7    1  0.6889665E-012  0.5052886E+02  0.7816164E-02  0.1300439E+00
        -11   -1    0    0    0    0  0.00000000000E+00  0.00000000000E+00  0.45593999997E+02  0.45594000000E+02  0.51100000000E-03 0. -1.
         11   -1    0    0    0    0 -0.00000000000E+00 -0.00000000000E+00 -0.45593999997E+02  0.45594000000E+02  0.51100000000E-03 0.  1.
    9900012    2    1    2    0    0  0.18420056554E+02  0.87367275552E+01 -0.35178639969E+02  0.50528860782E+02  0.30000002834E+02 0.  0.
         12    1    1    2    0    0 -0.18420056554E+02 -0.87367275552E+01  0.35178639969E+02  0.40659139218E+02  0.00000000000E+00 0. -1.
         11    1    3    3    0    0  0.45048364556E+01  0.10415458316E+02  0.71178469094E+00  0.11370222563E+02  0.51100000000E-03 0. -1.
        -11    1    3    3    0    0  0.53911228566E+01  0.97850098467E+00 -0.21795598483E+02  0.22473757659E+02  0.51100000000E-03 0.  1.
         12    1    3    3    0    0  0.85240972418E+01 -0.26572317457E+01 -0.14094826177E+02  0.16684880560E+02  0.00000000000E+00 0. -1.
</event>
<event>
 7    1  0.6889665E-012  0.5052886E+02  0.7816164E-02  0.1300439E+00
        -11   -1    0    0    0    0  0.00000000000E+00  0.00000000000E+00  0.45593999997E+02  0.45594000000E+02  0.51100000000E-03 0. -1.
         11   -1    0    0    0    0 -0.00000000000E+00 -0.00000000000E+00 -0.45593999997E+02  0.45594000000E+02  0.51100000000E-03 0.  1.
    9900012    2    1    2    0    0 -0.10955022515E+02  0.25015888444E+02  0.30122390902E+02  0.50528860478E+02  0.30000001910E+02 0.  0.
        -12    1    1    2    0    0  0.10955022515E+02 -0.25015888444E+02 -0.30122390902E+02  0.40659139522E+02  0.00000000000E+00 0.  1.
         11    1    3    3    0    0  0.38667658430E+01  0.13191880439E+02  0.61874626599E+01  0.15075220795E+02  0.51100000000E-03 0.  1.
        -11    1    3    3    0    0 -0.12088805460E+02 -0.14853797535E+01  0.82949794099E+01  0.14736086799E+02  0.51100000000E-03 0. -1.
         12    1    3    3    0    0 -0.27329828977E+01  0.13309387759E+02  0.15639948832E+02  0.20717552885E+02  0.00000000000E+00 0. -1.
</event>
<event>
 7    1  0.6889665E-012  0.5052887E+02  0.7816164E-02  0.1300439E+00
        -11   -1    0    0    0    0  0.00000000000E+00  0.00000000000E+00  0.45593999997E+02  0.45594000000E+02  0.51100000000E-03 0. -1.
         11   -1    0    0    0    0 -0.00000000000E+00 -0.00000000000E+00 -0.45593999997E+02  0.45594000000E+02  0.51100000000E-03 0.  1.
    9900012    2    1    2    0    0  0.27674073953E+02  0.18574710579E+02 -0.23287127574E+02  0.50528873682E+02  0.30000042045E+02 0.  0.
         12    1    1    2    0    0 -0.27674073953E+02 -0.18574710579E+02  0.23287127574E+02  0.40659126318E+02  0.00000000000E+00 0. -1.
         11    1    3    3    0    0  0.79805915835E+01 -0.67775449287E+01 -0.11467074866E+02  0.15527999341E+02  0.51100000000E-03 0. -1.
        -11    1    3    3    0    0  0.93530868797E+01  0.17734697573E+02 -0.81539751066E+01  0.21644561499E+02  0.51100000000E-03 0.  1.
         12    1    3    3    0    0  0.10340395490E+02  0.76175579351E+01 -0.36660776017E+01  0.13356312843E+02  0.00000000000E+00 0. -1.
</event>
<event>
 7    1  0.6889665E-012  0.5052886E+02  0.7816164E-02  0.1300439E+00
        -11   -1    0    0    0    0  0.00000000000E+00  0.00000000000E+00  0.45593999997E+02  0.45594000000E+02  0.51100000000E-03 0.  1.
         11   -1    0    0    0    0 -0.00000000000E+00 -0.00000000000E+00 -0.45593999997E+02  0.45594000000E+02  0.51100000000E-03 0. -1.
    9900012    2    1    2    0    0  0.39421649816E+02  0.28555823307E+01  0.95364792020E+01  0.50528864985E+02  0.30000015607E+02 0.  0.
        -12    1    1    2    0    0 -0.39421649816E+02 -0.28555823307E+01 -0.95364792020E+01  0.40659135015E+02  0.00000000000E+00 0.  1.
         11    1    3    3    0    0  0.35167552775E+02 -0.16730195372E+01  0.44653587067E+01  0.35489367298E+02  0.51100000000E-03 0. -1.
        -11    1    3    3    0    0  0.12686772054E+01  0.80516305519E+01 -0.40238964865E-01  0.81510683859E+01  0.51100000000E-03 0.  1.
         12    1    3    3    0    0  0.29854198347E+01 -0.35230286841E+01  0.51113594602E+01  0.68884293006E+01  0.00000000000E+00 0. -1.
</event>
<event>
 7    1  0.6889665E-012  0.5052887E+02  0.7816164E-02  0.1300439E+00
        -11   -1    0    0    0    0  0.00000000000E+00  0.00000000000E+00  0.45593999997E+02  0.45594000000E+02  0.51100000000E-03 0. -1.
         11   -1    0    0    0    0 -0.00000000000E+00 -0.00000000000E+00 -0.45593999997E+02  0.45594000000E+02  0.51100000000E-03 0.  1.
    9900012    2    1    2    0    0 -0.14111069640E+02 -0.91942232738E+01 -0.37006873779E+02  0.50528871445E+02  0.30000035244E+02 0.  0.
         12    1    1    2    0    0  0.14111069640E+02  0.91942232738E+01  0.37006873779E+02  0.40659128555E+02  0.00000000000E+00 0. -1.
         11    1    3    3    0    0  0.25958766794E+01  0.41507868268E+01  0.22766215319E+01  0.53991307520E+01  0.51100000000E-03 0. -1.
        -11    1    3    3    0    0 -0.95184847035E+01 -0.11213243763E+02 -0.26606109563E+02  0.30401043618E+02  0.51100000000E-03 0.  1.
        -12    1    3    3    0    0 -0.71884616158E+01 -0.21317663373E+01 -0.12677385748E+02  0.14728697075E+02  0.00000000000E+00 0.  1.
</event>
<event>
 7    1  0.6889665E-012  0.5052886E+02  0.7816164E-02  0.1300439E+00
        -11   -1    0    0    0    0  0.00000000000E+00  0.00000000000E+00  0.45593999997E+02  0.45594000000E+02  0.51100000000E-03 0. -1.
         11   -1    0    0    0    0 -0.00000000000E+00 -0.00000000000E+00 -0.45593999997E+02  0.45594000000E+02  0.51100000000E-03 0.  1.
    9900012    2    1    2    0    0 -0.14881325734E+02  0.88788862777E+01 -0.36781481250E+02  0.50528857854E+02  0.29999993932E+02 0.  0.
         12    1    1    2    0    0  0.14881325734E+02 -0.88788862777E+01  0.36781481250E+02  0.40659142146E+02  0.00000000000E+00 0. -1.
         11    1    3    3    0    0 -0.71094083542E+01 -0.25473415945E+00 -0.22487906102E+02  0.23586320140E+02  0.51100000000E-03 0.  1.
        -11    1    3    3    0    0  0.25885945105E+01  0.55104428143E+01  0.27421457848E+01  0.66772123911E+01  0.51100000000E-03 0. -1.
        -12    1    3    3    0    0 -0.10360511891E+02  0.36231776229E+01 -0.17035720933E+02  0.20265325322E+02  0.00000000000E+00 0.  1.
</event>
<event>
 7    1  0.6889665E-012  0.5052887E+02  0.7816164E-02  0.1300439E+00
        -11   -1    0    0    0    0  0.00000000000E+00  0.00000000000E+00  0.45593999997E+02  0.45594000000E+02  0.51100000000E-03 0. -1.
         11   -1    0    0    0    0 -0.00000000000E+00 -0.00000000000E+00 -0.45593999997E+02  0.45594000000E+02  0.51100000000E-03 0.  1.
    9900012    2    1    2    0    0 -0.17360792031E+02  0.36155157852E+02  0.66762514600E+01  0.50528869748E+02  0.30000030087E+02 0.  0.
        -12    1    1    2    0    0  0.17360792031E+02 -0.36155157852E+02 -0.66762514600E+01  0.40659130252E+02  0.00000000000E+00 0.  1.
         11    1    3    3    0    0 -0.97742816210E+00  0.84231140290E+01  0.99025105209E+01  0.13037021540E+02  0.51100000000E-03 0. -1.
        -11    1    3    3    0    0 -0.14230564703E+02  0.29484007516E+02 -0.63119352536E+01  0.33341508633E+02  0.51100000000E-03 0.  1.
         12    1    3    3    0    0 -0.21527991654E+01 -0.17519636929E+01  0.30856761927E+01  0.41503395758E+01  0.00000000000E+00 0. -1.
</event>
<event>
 7    1  0.6889665E-012  0.5052886E+02  0.7816164E-02  0.1300439E+00
        -11   -1    0    0    0    0  0.00000000000E+00  0.00000000000E+00  0.45593999997E+02  0.45594000000E+02  0.51100000000E-03 0. -1.
         11   -1    0    0    0    0 -0.00000000000E+00 -0.00000000000E+00 -0.45593999997E+02  0.45594000000E+02  0.51100000000E-03 0.  1.
    9900012    2    1    2    0    0 -0.27407789847E+02  0.24487873087E+02 -0.17387431109E+02  0.50528860398E+02  0.30000001665E+02 0.  0.
         12    1    1    2    0    0  0.27407789847E+02 -0.24487873087E+02  0.17387431109E+02  0.40659139602E+02  0.00000000000E+00 0. -1.
         11    1    3    3    0    0 -0.26488146950E+02  0.10184927586E+02 -0.14283320842E+02  0.31770551353E+02  0.51100000000E-03 0.  1.
        -11    1    3    3    0    0  0.49376159257E+01  0.30872435974E+01 -0.14173792290E+01  0.59933369836E+01  0.51100000000E-03 0. -1.
        -12    1    3    3    0    0 -0.58572588222E+01  0.11215701904E+02 -0.16867310384E+01  0.12764972061E+02  0.00000000000E+00 0.  1.
</event>
<event>
 7    1  0.6889665E-012  0.5052885E+02  0.7816164E-02  0.1300439E+00
        -11   -1    0    0    0    0  0.00000000000E+00  0.00000000000E+00  0.45593999997E+02  0.45594000000E+02  0.51100000000E-03 0.  1.
         11   -1    0    0    0    0 -0.00000000000E+00 -0.00000000000E+00 -0.45593999997E+02  0.45594000000E+02  0.51100000000E-03 0. -1.
    9900012    2    1    2    0    0  0.40091501877E+02 -0.65093221832E+01  0.18618486245E+01  0.50528852464E+02  0.29999977549E+02 0.  0.
        -12    1    1    2    0    0 -0.40091501877E+02  0.65093221832E+01 -0.18618486245E+01  0.40659147536E+02  0.00000000000E+00 0.  1.
         11    1    3    3    0    0  0.23741721601E+02 -0.26720398778E+01 -0.11568045698E+01  0.23919601559E+02  0.51100000000E-03 0. -1.
        -11    1    3    3    0    0  0.62310367301E+01  0.53745342647E+01  0.85347086539E+01  0.11855491949E+02  0.51100000000E-03 0.  1.
        -12    1    3    3    0    0  0.10118743547E+02 -0.92118165701E+01 -0.55160554595E+01  0.14753758956E+02  0.00000000000E+00 0.  1.
</event>
<event>
 7    1  0.6889665E-012  0.5052884E+02  0.7816164E-02  0.1300439E+00
        -11   -1    0    0    0    0  0.00000000000E+00  0.00000000000E+00  0.45593999997E+02  0.45594000000E+02  0.51100000000E-03 0. -1.
         11   -1    0    0    0    0 -0.00000000000E+00 -0.00000000000E+00 -0.45593999997E+02  0.45594000000E+02  0.51100000000E-03 0.  1.
    9900012    2    1    2    0    0 -0.93981535144E+00  0.97576487761E+01  0.39459751245E+02  0.50528844440E+02  0.29999953161E+02 0.  0.
        -12    1    1    2    0    0  0.93981535144E+00 -0.97576487761E+01 -0.39459751245E+02  0.40659155560E+02  0.00000000000E+00 0.  1.
         11    1    3    3    0    0 -0.67679007085E+01  0.62802524547E+01  0.20726103874E+02  0.22689588647E+02  0.51100000000E-03 0. -1.
        -11    1    3    3    0    0  0.39143386874E+01 -0.68373657110E+01  0.20660410029E+01  0.81449458508E+01  0.51100000000E-03 0.  1.
        -12    1    3    3    0    0  0.19137466696E+01  0.10314762032E+02  0.16667606367E+02  0.19694309943E+02  0.00000000000E+00 0.  1.
</event>
<event>
 7    1  0.6889665E-012  0.5052887E+02  0.7816164E-02  0.1300439E+00
        -11   -1    0    0    0    0  0.00000000000E+00  0.00000000000E+00  0.45593999997E+02  0.45594000000E+02  0.51100000000E-03 0. -1.
         11   -1    0    0    0    0 -0.00000000000E+00 -0.00000000000E+00 -0.45593999997E+02  0.45594000000E+02  0.51100000000E-03 0.  1.
    9900012    2    1    2    0    0 -0.14952346949E+01  0.36634851132E+02 -0.17573180386E+02  0.50528871712E+02  0.30000036056E+02 0.  0.
         12    1    1    2    0    0  0.14952346949E+01 -0.36634851132E+02  0.17573180386E+02  0.40659128288E+02  0.00000000000E+00 0. -1.
         11    1    3    3    0    0  0.38382964377E+00  0.37039059597E+02 -0.93105232563E+01  0.38193259937E+02  0.51100000000E-03 0.  1.
        -11    1    3    3    0    0 -0.36854218004E+01 -0.91113788722E+00  0.67311223728E-01  0.37969773713E+01  0.51100000000E-03 0. -1.
         12    1    3    3    0    0  0.18063574617E+01  0.50692942241E+00 -0.83299683534E+01  0.85386344041E+01  0.00000000000E+00 0. -1.
</event>
<event>
 7    1  0.6889665E-012  0.5052886E+02  0.7816164E-02  0.1300439E+00
        -11   -1    0    0    0    0  0.00000000000E+00  0.00000000000E+00  0.45593999997E+02  0.45594000000E+02  0.51100000000E-03 0. -1.
         11   -1    0    0    0    0 -0.00000000000E+00 -0.00000000000E+00 -0.45593999997E+02  0.45594000000E+02  0.51100000000E-03 0.  1.
    9900012    2    1    2    0    0  0.17936075541E+02 -0.50740317161E+00  0.36485685929E+02  0.50528861525E+02  0.30000005092E+02 0.  0.
        -12    1    1    2    0    0 -0.17936075541E+02  0.50740317161E+00 -0.36485685929E+02  0.40659138475E+02  0.00000000000E+00 0.  1.
         11    1    3    3    0    0  0.32077567521E+01 -0.11603218031E+02  0.21384236301E+02  0.24539966066E+02  0.51100000000E-03 0. -1.
        -11    1    3    3    0    0  0.79162349554E+01  0.11062153351E+02  0.66722504490E+01  0.15151136556E+02  0.51100000000E-03 0.  1.
        -12    1    3    3    0    0  0.68120838331E+01  0.33661508368E-01  0.84291991793E+01  0.10837758904E+02  0.00000000000E+00 0.  1.
</event>
<event>
 7    1  0.6889665E-012  0.5052885E+02  0.7816164E-02  0.1300439E+00
        -11   -1    0    0    0    0  0.00000000000E+00  0.00000000000E+00  0.45593999997E+02  0.45594000000E+02  0.51100000000E-03 0. -1.
         11   -1    0    0    0    0 -0.00000000000E+00 -0.00000000000E+00 -0.45593999997E+02  0.45594000000E+02  0.51100000000E-03 0.  1.
    9900012    2    1    2    0    0  0.15692239390E+01  0.46327114325E+01 -0.40363868627E+02  0.50528851343E+02  0.29999974143E+02 0.  0.
         12    1    1    2    0    0 -0.15692239390E+01 -0.46327114325E+01  0.40363868627E+02  0.40659148657E+02  0.00000000000E+00 0. -1.
         11    1    3    3    0    0  0.16081565307E+01  0.86970250367E+01 -0.11948117515E+02  0.14865460784E+02  0.51100000000E-03 0. -1.
        -11    1    3    3    0    0 -0.30488177072E+01 -0.91974803207E+01 -0.39154485173E+01  0.10450821547E+02  0.51100000000E-03 0.  1.
        -12    1    3    3    0    0  0.30098851155E+01  0.51331667164E+01 -0.24500302595E+02  0.25212569012E+02  0.00000000000E+00 0.  1.
</event>
<event>
 7    1  0.6889665E-012  0.5052886E+02  0.7816164E-02  0.1300439E+00
        -11   -1    0    0    0    0  0.00000000000E+00  0.00000000000E+00  0.45593999997E+02  0.45594000000E+02  0.51100000000E-03 0. -1.
         11   -1    0    0    0    0 -0.00000000000E+00 -0.00000000000E+00 -0.45593999997E+02  0.45594000000E+02  0.51100000000E-03 0.  1.
    9900012    2    1    2    0    0  0.84545311761E+01 -0.39769854501E+02  0.21201756732E+00  0.50528863562E+02  0.30000011284E+02 0.  0.
         12    1    1    2    0    0 -0.84545311761E+01  0.39769854501E+02 -0.21201756732E+00  0.40659136438E+02  0.00000000000E+00 0. -1.
         11    1    3    3    0    0  0.10200445298E+02 -0.80470072959E+00  0.14946814022E+01  0.10340730163E+02  0.51100000000E-03 0. -1.
        -11    1    3    3    0    0  0.72059634043E+00 -0.21302249954E+02 -0.51758186859E+01  0.21933859932E+02  0.51100000000E-03 0.  1.
         12    1    3    3    0    0 -0.24665104627E+01 -0.17662903817E+02  0.38931548511E+01  0.18254273467E+02  0.00000000000E+00 0. -1.
</event>
<event>
 7    1  0.6958214E-012  0.5052882E+02  0.7816164E-02  0.1300439E+00
        -11   -1    0    0    0    0  0.00000000000E+00  0.00000000000E+00  0.45593999997E+02  0.45594000000E+02  0.51100000000E-03 0. -1.
         11   -1    0    0    0    0 -0.00000000000E+00 -0.00000000000E+00 -0.45593999997E+02  0.45594000000E+02  0.51100000000E-03 0.  1.
    9900012    2    1    2    0    0 -0.21097383591E+02 -0.24037454411E+02 -0.25105187347E+02  0.50528816036E+02  0.29999866822E+02 0.  0.
         12    1    1    2    0    0  0.21097383591E+02  0.24037454411E+02  0.25105187347E+02  0.40659183964E+02  0.00000000000E+00 0. -1.
         11    1    3    3    0    0 -0.47146907649E+01 -0.29483485248E+01  0.28306594629E+01  0.62396875954E+01  0.51100000000E-03 0. -1.
        -11    1    3    3    0    0 -0.10561200825E+02 -0.10400174155E+02 -0.28479240147E+02  0.32105602392E+02  0.51100000000E-03 0.  1.
        -12    1    3    3    0    0 -0.58214920005E+01 -0.10688931731E+02  0.54339333720E+00  0.12183526049E+02  0.00000000000E+00 0.  1.
</event>
<event>
 7    1  0.6889665E-012  0.5052886E+02  0.7816164E-02  0.1300439E+00
        -11   -1    0    0    0    0  0.00000000000E+00  0.00000000000E+00  0.45593999997E+02  0.45594000000E+02  0.51100000000E-03 0. -1.
         11   -1    0    0    0    0 -0.00000000000E+00 -0.00000000000E+00 -0.45593999997E+02  0.45594000000E+02  0.51100000000E-03 0.  1.
    9900012    2    1    2    0    0 -0.13451268288E+02  0.27213174898E+02 -0.27049436809E+02  0.50528861565E+02  0.30000005213E+02 0.  0.
         12    1    1    2    0    0  0.13451268288E+02 -0.27213174898E+02  0.27049436809E+02  0.40659138435E+02  0.00000000000E+00 0. -1.
         11    1    3    3    0    0  0.52853376226E+01  0.77095098200E+01  0.22526843177E+01  0.96148802565E+01  0.51100000000E-03 0. -1.
        -11    1    3    3    0    0 -0.93829173810E+01  0.75512551065E+01 -0.19257912930E+02  0.22714044178E+02  0.51100000000E-03 0.  1.
         12    1    3    3    0    0 -0.93536885293E+01  0.11952409971E+02 -0.10044208197E+02  0.18199937130E+02  0.00000000000E+00 0. -1.
</event>
<event>
 7    1  0.6889665E-012  0.5052885E+02  0.7816164E-02  0.1300439E+00
        -11   -1    0    0    0    0  0.00000000000E+00  0.00000000000E+00  0.45593999997E+02  0.45594000000E+02  0.51100000000E-03 0. -1.
         11   -1    0    0    0    0 -0.00000000000E+00 -0.00000000000E+00 -0.45593999997E+02  0.45594000000E+02  0.51100000000E-03 0.  1.
    9900012    2    1    2    0    0 -0.16043584775E+02  0.30914183264E+02  0.20978154138E+02  0.50528852316E+02  0.29999977101E+02 0.  0.
        -12    1    1    2    0    0  0.16043584775E+02 -0.30914183264E+02 -0.20978154138E+02  0.40659147684E+02  0.00000000000E+00 0.  1.
         11    1    3    3    0    0 -0.88950876320E+01  0.20950420642E+02  0.26764417328E+02  0.35133698129E+02  0.51100000000E-03 0. -1.
        -11    1    3    3    0    0 -0.61769677251E+01  0.85528828087E+01 -0.13457570193E+01  0.10635685066E+02  0.51100000000E-03 0.  1.
         12    1    3    3    0    0 -0.97152941765E+00  0.14108798130E+01 -0.44405061706E+01  0.47594691203E+01  0.00000000000E+00 0. -1.
</event>
<event>
 7    1  0.6889665E-012  0.5052886E+02  0.7816164E-02  0.1300439E+00
        -11   -1    0    0    0    0  0.00000000000E+00  0.00000000000E+00  0.45593999997E+02  0.45594000000E+02  0.51100000000E-03 0. -1.
         11   -1    0    0    0    0 -0.00000000000E+00 -0.00000000000E+00 -0.45593999997E+02  0.45594000000E+02  0.51100000000E-03 0.  1.
    9900012    2    1    2    0    0  0.20673333875E+02  0.54164872150E+01  0.34589599942E+02  0.50528862142E+02  0.30000006965E+02 0.  0.
        -12    1    1    2    0    0 -0.20673333875E+02 -0.54164872150E+01 -0.34589599942E+02  0.40659137858E+02  0.00000000000E+00 0.  1.
         11    1    3    3    0    0  0.48820042419E+01 -0.11997102816E+01  0.16887339792E+02  0.17619747890E+02  0.51100000000E-03 0. -1.
        -11    1    3    3    0    0  0.12015285287E+02  0.11499994197E+02  0.29154656717E+01  0.16885404567E+02  0.51100000000E-03 0.  1.
        -12    1    3    3    0    0  0.37760443461E+01 -0.48837967006E+01  0.14786794478E+02  0.16023709684E+02  0.00000000000E+00 0.  1.
</event>
<event>
 7    1  0.6889665E-012  0.5052885E+02  0.7816164E-02  0.1300439E+00
        -11   -1    0    0    0    0  0.00000000000E+00  0.00000000000E+00  0.45593999997E+02  0.45594000000E+02  0.51100000000E-03 0.  1.
         11   -1    0    0    0    0 -0.00000000000E+00 -0.00000000000E+00 -0.45593999997E+02  0.45594000000E+02  0.51100000000E-03 0. -1.
    9900012    2    1    2    0    0 -0.37684873462E+02  0.84352716448E-01  0.15264653404E+02  0.50528850393E+02  0.29999971254E+02 0.  0.
        -12    1    1    2    0    0  0.37684873462E+02 -0.84352716448E-01 -0.15264653404E+02  0.40659149607E+02  0.00000000000E+00 0.  1.
         11    1    3    3    0    0 -0.24271991190E+01  0.62809588029E+01 -0.25096154990E+01  0.71860913758E+01  0.51100000000E-03 0. -1.
        -11    1    3    3    0    0 -0.26158013706E+02 -0.77725477533E+01  0.52614167695E+01  0.27790946121E+02  0.51100000000E-03 0.  1.
        -12    1    3    3    0    0 -0.90996606373E+01  0.15759416668E+01  0.12512852133E+02  0.15551812896E+02  0.00000000000E+00 0.  1.
</event>
<event>
 7    1  0.6889665E-012  0.5052885E+02  0.7816164E-02  0.1300439E+00
        -11   -1    0    0    0    0  0.00000000000E+00  0.00000000000E+00  0.45593999997E+02  0.45594000000E+02  0.51100000000E-03 0. -1.
         11   -1    0    0    0    0 -0.00000000000E+00 -0.00000000000E+00 -0.45593999997E+02  0.45594000000E+02  0.51100000000E-03 0.  1.
    9900012    2    1    2    0    0 -0.29513616881E+02  0.90433381210E+01 -0.26463760340E+02  0.50528853955E+02  0.29999982081E+02 0.  0.
         12    1    1    2    0    0  0.29513616881E+02 -0.90433381210E+01  0.26463760340E+02  0.40659146045E+02  0.00000000000E+00 0. -1.
         11    1    3    3    0    0 -0.21110183084E+01  0.45180275222E+01  0.59382683907E+01  0.77544827507E+01  0.51100000000E-03 0. -1.
        -11    1    3    3    0    0 -0.20962876215E+02  0.40049298729E+01 -0.26482788697E+02  0.34012052863E+02  0.51100000000E-03 0.  1.
         12    1    3    3    0    0 -0.64397223574E+01  0.52038072581E+00 -0.59192400340E+01  0.87623183416E+01  0.00000000000E+00 0. -1.
</event>
<event>
 7    1  0.6889665E-012  0.5052887E+02  0.7816164E-02  0.1300439E+00
        -11   -1    0    0    0    0  0.00000000000E+00  0.00000000000E+00  0.45593999997E+02  0.45594000000E+02  0.51100000000E-03 0. -1.
         11   -1    0    0    0    0 -0.00000000000E+00 -0.00000000000E+00 -0.45593999997E+02  0.45594000000E+02  0.51100000000E-03 0.  1.
    9900012    2    1    2    0    0 -0.73837636115E+01  0.31614271047E+02  0.24478214165E+02  0.50528867353E+02  0.30000022807E+02 0.  0.
        -12    1    1    2    0    0  0.73837636115E+01 -0.31614271047E+02 -0.24478214165E+02  0.40659132647E+02  0.00000000000E+00 0.  1.
         11    1    3    3    0    0  0.39896765478E+01  0.83110772062E+01  0.12168631703E+02  0.15266535988E+02  0.51100000000E-03 0. -1.
        -11    1    3    3    0    0 -0.53279743642E+01  0.24349996478E+02  0.44968998289E+01  0.25328477009E+02  0.51100000000E-03 0.  1.
        -12    1    3    3    0    0 -0.60454657951E+01 -0.10468026369E+01  0.78126826333E+01  0.99338543561E+01  0.00000000000E+00 0.  1.
</event>
<event>
 7    1  0.6889665E-012  0.5052887E+02  0.7816164E-02  0.1300439E+00
        -11   -1    0    0    0    0  0.00000000000E+00  0.00000000000E+00  0.45593999997E+02  0.45594000000E+02  0.51100000000E-03 0. -1.
         11   -1    0    0    0    0 -0.00000000000E+00 -0.00000000000E+00 -0.45593999997E+02  0.45594000000E+02  0.51100000000E-03 0.  1.
    9900012    2    1    2    0    0 -0.70935198858E+01  0.81209432482E+01  0.39203281291E+02  0.50528868091E+02  0.30000025048E+02 0.  0.
        -12    1    1    2    0    0  0.70935198858E+01 -0.81209432482E+01 -0.39203281291E+02  0.40659131909E+02  0.00000000000E+00 0.  1.
         11    1    3    3    0    0 -0.88278890999E+01  0.71050866881E+01  0.37390039561E+02  0.39069539816E+02  0.51100000000E-03 0. -1.
        -11    1    3    3    0    0  0.62170726664E+01  0.11030022741E+01 -0.64341145844E+00  0.63468563180E+01  0.51100000000E-03 0.  1.
        -12    1    3    3    0    0 -0.44827034523E+01 -0.87145713990E-01  0.24566531887E+01  0.51124719565E+01  0.00000000000E+00 0.  1.
</event>
<event>
 7    1  0.6889665E-012  0.5052886E+02  0.7816164E-02  0.1300439E+00
        -11   -1    0    0    0    0  0.00000000000E+00  0.00000000000E+00  0.45593999997E+02  0.45594000000E+02  0.51100000000E-03 0. -1.
         11   -1    0    0    0    0 -0.00000000000E+00 -0.00000000000E+00 -0.45593999997E+02  0.45594000000E+02  0.51100000000E-03 0.  1.
    9900012    2    1    2    0    0  0.90969853947E+01 -0.36225839865E+02 -0.16065469145E+02  0.50528856919E+02  0.29999991092E+02 0.  0.
         12    1    1    2    0    0 -0.90969853947E+01  0.36225839865E+02  0.16065469145E+02  0.40659143081E+02  0.00000000000E+00 0. -1.
         11    1    3    3    0    0 -0.91670562966E+01 -0.63682536220E+01 -0.64396027744E+01  0.12886351675E+02  0.51100000000E-03 0. -1.
        -11    1    3    3    0    0  0.35543820073E+01 -0.13391290953E+02 -0.66330063384E+01  0.15360894446E+02  0.51100000000E-03 0.  1.
         12    1    3    3    0    0  0.14709659684E+02 -0.16466295290E+02 -0.29928600325E+01  0.22281610798E+02  0.00000000000E+00 0. -1.
</event>
<event>
 7    1  0.6889665E-012  0.5052893E+02  0.7816164E-02  0.1300439E+00
        -11   -1    0    0    0    0  0.00000000000E+00  0.00000000000E+00  0.45593999997E+02  0.45594000000E+02  0.51100000000E-03 0. -1.
         11   -1    0    0    0    0 -0.00000000000E+00 -0.00000000000E+00 -0.45593999997E+02  0.45594000000E+02  0.51100000000E-03 0.  1.
    9900012    2    1    2    0    0 -0.52652251106E+01 -0.32845906283E+02 -0.23379134088E+02  0.50528928863E+02  0.30000209771E+02 0.  0.
         12    1    1    2    0    0  0.52652251106E+01  0.32845906283E+02  0.23379134088E+02  0.40659071137E+02  0.00000000000E+00 0. -1.
         11    1    3    3    0    0 -0.51084749769E+01 -0.58952373357E+01  0.49687978320E+01  0.92487454279E+01  0.51100000000E-03 0. -1.
        -11    1    3    3    0    0  0.32637621796E+01 -0.15020075781E+02 -0.77054491142E+01  0.17193858390E+02  0.51100000000E-03 0.  1.
         12    1    3    3    0    0 -0.34205123132E+01 -0.11930593166E+02 -0.20642482805E+02  0.24086325045E+02  0.00000000000E+00 0. -1.
</event>
<event>
 7    1  0.6889665E-012  0.5052886E+02  0.7816164E-02  0.1300439E+00
        -11   -1    0    0    0    0  0.00000000000E+00  0.00000000000E+00  0.45593999997E+02  0.45594000000E+02  0.51100000000E-03 0. -1.
         11   -1    0    0    0    0 -0.00000000000E+00 -0.00000000000E+00 -0.45593999997E+02  0.45594000000E+02  0.51100000000E-03 0.  1.
    9900012    2    1    2    0    0  0.23845728228E+01 -0.18668780716E+02  0.36041032763E+02  0.50528860762E+02  0.30000002772E+02 0.  0.
        -12    1    1    2    0    0 -0.23845728228E+01  0.18668780716E+02 -0.36041032763E+02  0.40659139238E+02  0.00000000000E+00 0.  1.
         11    1    3    3    0    0 -0.45224562738E+01  0.14888301732E-01  0.13681985949E+02  0.14410051082E+02  0.51100000000E-03 0. -1.
        -11    1    3    3    0    0  0.10444708939E+02 -0.21226326125E+02  0.20771914034E+02  0.31482078688E+02  0.51100000000E-03 0.  1.
        -12    1    3    3    0    0 -0.35376798423E+01  0.25426571079E+01  0.15871327798E+01  0.46367309924E+01  0.00000000000E+00 0.  1.
</event>
<event>
 7    1  0.6889665E-012  0.5052886E+02  0.7816164E-02  0.1300439E+00
        -11   -1    0    0    0    0  0.00000000000E+00  0.00000000000E+00  0.45593999997E+02  0.45594000000E+02  0.51100000000E-03 0.  1.
         11   -1    0    0    0    0 -0.00000000000E+00 -0.00000000000E+00 -0.45593999997E+02  0.45594000000E+02  0.51100000000E-03 0. -1.
    9900012    2    1    2    0    0 -0.34799445021E+02 -0.20736567269E+02  0.34870235242E+01  0.50528856761E+02  0.29999990610E+02 0.  0.
         12    1    1    2    0    0  0.34799445021E+02  0.20736567269E+02 -0.34870235242E+01  0.40659143239E+02  0.00000000000E+00 0. -1.
         11    1    3    3    0    0 -0.21003456202E+02 -0.18898946750E+02  0.40848304387E+01  0.28548225876E+02  0.51100000000E-03 0. -1.
        -11    1    3    3    0    0 -0.31918893856E+01  0.23666226304E+01  0.71577657851E+01  0.81867375566E+01  0.51100000000E-03 0.  1.
         12    1    3    3    0    0 -0.10604099433E+02 -0.42042431492E+01 -0.77555726996E+01  0.13793893328E+02  0.00000000000E+00 0. -1.
</event>
<event>
 7    1  0.6889665E-012  0.5052886E+02  0.7816164E-02  0.1300439E+00
        -11   -1    0    0    0    0  0.00000000000E+00  0.00000000000E+00  0.45593999997E+02  0.45594000000E+02  0.51100000000E-03 0.  1.
         11   -1    0    0    0    0 -0.00000000000E+00 -0.00000000000E+00 -0.45593999997E+02  0.45594000000E+02  0.51100000000E-03 0. -1.
    9900012    2    1    2    0    0  0.30484191748E+02 -0.12699746505E+02  0.23719107502E+02  0.50528861193E+02  0.30000004082E+02 0.  0.
        -12    1    1    2    0    0 -0.30484191748E+02  0.12699746505E+02 -0.23719107502E+02  0.40659138807E+02  0.00000000000E+00 0.  1.
         11    1    3    3    0    0  0.15675225068E+02  0.52545975583E+01  0.80128773485E+01  0.18371980843E+02  0.51100000000E-03 0. -1.
        -11    1    3    3    0    0  0.13612674368E+02 -0.16130735185E+02  0.18871329292E+02  0.28313116935E+02  0.51100000000E-03 0.  1.
         12    1    3    3    0    0  0.11962923127E+01 -0.18236088785E+01 -0.31650991381E+01  0.38437634154E+01  0.00000000000E+00 0. -1.
</event>
<event>
 7    1  0.6889665E-012  0.5052886E+02  0.7816164E-02  0.1300439E+00
        -11   -1    0    0    0    0  0.00000000000E+00  0.00000000000E+00  0.45593999997E+02  0.45594000000E+02  0.51100000000E-03 0. -1.
         11   -1    0    0    0    0 -0.00000000000E+00 -0.00000000000E+00 -0.45593999997E+02  0.45594000000E+02  0.51100000000E-03 0.  1.
    9900012    2    1    2    0    0 -0.45123876257E+00 -0.20224976100E+01  0.40606299139E+02  0.50528860280E+02  0.30000001308E+02 0.  0.
        -12    1    1    2    0    0  0.45123876257E+00  0.20224976100E+01 -0.40606299139E+02  0.40659139720E+02  0.00000000000E+00 0.  1.
         11    1    3    3    0    0 -0.74458371241E+01  0.26374465384E+01  0.16836467688E+02  0.18597399258E+02  0.51100000000E-03 0. -1.
        -11    1    3    3    0    0  0.85926300692E+01  0.60206488833E+01  0.12563256165E+02  0.16368167589E+02  0.51100000000E-03 0.  1.
        -12    1    3    3    0    0 -0.15980317076E+01 -0.10680593032E+02  0.11206575286E+02  0.15563293433E+02  0.00000000000E+00 0.  1.
</event>
<event>
 7    1  0.6889665E-012  0.5052888E+02  0.7816164E-02  0.1300439E+00
        -11   -1    0    0    0    0  0.00000000000E+00  0.00000000000E+00  0.45593999997E+02  0.45594000000E+02  0.51100000000E-03 0. -1.
         11   -1    0    0    0    0 -0.00000000000E+00 -0.00000000000E+00 -0.45593999997E+02  0.45594000000E+02  0.51100000000E-03 0.  1.
    9900012    2    1    2    0    0 -0.67108661775E+01 -0.31844732950E+02  0.24372969055E+02  0.50528876029E+02  0.30000049179E+02 0.  0.
        -12    1    1    2    0    0  0.67108661775E+01  0.31844732950E+02 -0.24372969055E+02  0.40659123971E+02  0.00000000000E+00 0.  1.
         11    1    3    3    0    0 -0.10267872620E+02 -0.13751573634E+02  0.16261551665E+02  0.23642610862E+02  0.51100000000E-03 0. -1.
        -11    1    3    3    0    0  0.71585542739E+01 -0.24862536494E-01  0.30393752801E+01  0.77771022747E+01  0.51100000000E-03 0.  1.
         12    1    3    3    0    0 -0.36015478313E+01 -0.18068296780E+02  0.50720421100E+01  0.19109162893E+02  0.00000000000E+00 0. -1.
</event>
<event>
 7    1  0.6889665E-012  0.5052886E+02  0.7816164E-02  0.1300439E+00
        -11   -1    0    0    0    0  0.00000000000E+00  0.00000000000E+00  0.45593999997E+02  0.45594000000E+02  0.51100000000E-03 0. -1.
         11   -1    0    0    0    0 -0.00000000000E+00 -0.00000000000E+00 -0.45593999997E+02  0.45594000000E+02  0.51100000000E-03 0.  1.
    9900012    2    1    2    0    0  0.54418158583E+01  0.75506728812E+01  0.39579539035E+02  0.50528856736E+02  0.29999990533E+02 0.  0.
        -12    1    1    2    0    0 -0.54418158583E+01 -0.75506728812E+01 -0.39579539035E+02  0.40659143264E+02  0.00000000000E+00 0.  1.
         11    1    3    3    0    0  0.14765162586E+02  0.76086557796E+01  0.33241517538E+02  0.37160464979E+02  0.51100000000E-03 0. -1.
        -11    1    3    3    0    0 -0.46847708602E+01 -0.32109002870E+01  0.12936534061E+01  0.58249891040E+01  0.51100000000E-03 0.  1.
         12    1    3    3    0    0 -0.46385758679E+01  0.31529173886E+01  0.50443680904E+01  0.75434026521E+01  0.00000000000E+00 0. -1.
</event>
<event>
 7    1  0.6889665E-012  0.5052886E+02  0.7816164E-02  0.1300439E+00
        -11   -1    0    0    0    0  0.00000000000E+00  0.00000000000E+00  0.45593999997E+02  0.45594000000E+02  0.51100000000E-03 0. -1.
         11   -1    0    0    0    0 -0.00000000000E+00 -0.00000000000E+00 -0.45593999997E+02  0.45594000000E+02  0.51100000000E-03 0.  1.
    9900012    2    1    2    0    0 -0.23416756254E+02 -0.12328356382E+02 -0.30867996019E+02  0.50528855607E+02  0.29999987102E+02 0.  0.
         12    1    1    2    0    0  0.23416756254E+02  0.12328356382E+02  0.30867996019E+02  0.40659144393E+02  0.00000000000E+00 0. -1.
         11    1    3    3    0    0 -0.58162375484E+01 -0.61754610542E+01 -0.26282037774E+02  0.27617212899E+02  0.51100000000E-03 0.  1.
        -11    1    3    3    0    0  0.16117630883E+01 -0.10535862231E+01  0.11248600167E+01  0.22300525780E+01  0.51100000000E-03 0. -1.
         12    1    3    3    0    0 -0.19212281794E+02 -0.50993091048E+01 -0.57108182616E+01  0.20681590130E+02  0.00000000000E+00 0. -1.
</event>
<event>
 7    1  0.6889665E-012  0.5052891E+02  0.7816164E-02  0.1300439E+00
        -11   -1    0    0    0    0  0.00000000000E+00  0.00000000000E+00  0.45593999997E+02  0.45594000000E+02  0.51100000000E-03 0. -1.
         11   -1    0    0    0    0 -0.00000000000E+00 -0.00000000000E+00 -0.45593999997E+02  0.45594000000E+02  0.51100000000E-03 0.  1.
    9900012    2    1    2    0    0 -0.23745603546E+02  0.67361477588E+01  0.32309940185E+02  0.50528909883E+02  0.30000152080E+02 0.  0.
        -12    1    1    2    0    0  0.23745603546E+02 -0.67361477588E+01 -0.32309940185E+02  0.40659090117E+02  0.00000000000E+00 0.  1.
         11    1    3    3    0    0 -0.72627799574E+01 -0.72059377307E+01  0.28102706853E+01  0.10609954424E+02  0.51100000000E-03 0. -1.
        -11    1    3    3    0    0 -0.12140096891E+02  0.17486620081E+02  0.23477675628E+02  0.31691719543E+02  0.51100000000E-03 0.  1.
        -12    1    3    3    0    0 -0.43427266979E+01 -0.35445345919E+01  0.60219938708E+01  0.82272359165E+01  0.00000000000E+00 0.  1.
</event>
<event>
 7    1  0.6889665E-012  0.5052886E+02  0.7816164E-02  0.1300439E+00
        -11   -1    0    0    0    0  0.00000000000E+00  0.00000000000E+00  0.45593999997E+02  0.45594000000E+02  0.51100000000E-03 0. -1.
         11   -1    0    0    0    0 -0.00000000000E+00 -0.00000000000E+00 -0.45593999997E+02  0.45594000000E+02  0.51100000000E-03 0.  1.
    9900012    2    1    2    0    0 -0.97341163042E+00 -0.28629620714E+02  0.28854166437E+02  0.50528860398E+02  0.30000001666E+02 0.  0.
        -12    1    1    2    0    0  0.97341163042E+00  0.28629620714E+02 -0.28854166437E+02  0.40659139602E+02  0.00000000000E+00 0.  1.
         11    1    3    3    0    0 -0.11413773518E+01 -0.15837731197E+02  0.30544661184E+02  0.34425467301E+02  0.51100000000E-03 0. -1.
        -11    1    3    3    0    0  0.18386627936E+01 -0.95603782659E+01 -0.52097425380E+01  0.11041871718E+02  0.51100000000E-03 0.  1.
         12    1    3    3    0    0 -0.16706970722E+01 -0.32315112503E+01  0.35192477903E+01  0.50615213797E+01  0.00000000000E+00 0. -1.
</event>
<event>
 7    1  0.6889665E-012  0.5052886E+02  0.7816164E-02  0.1300439E+00
        -11   -1    0    0    0    0  0.00000000000E+00  0.00000000000E+00  0.45593999997E+02  0.45594000000E+02  0.51100000000E-03 0. -1.
         11   -1    0    0    0    0 -0.00000000000E+00 -0.00000000000E+00 -0.45593999997E+02  0.45594000000E+02  0.51100000000E-03 0.  1.
    9900012    2    1    2    0    0  0.22439603994E+01  0.27594227756E+02 -0.29777326068E+02  0.50528856975E+02  0.29999991261E+02 0.  0.
         12    1    1    2    0    0 -0.22439603994E+01 -0.27594227756E+02  0.29777326068E+02  0.40659143025E+02  0.00000000000E+00 0. -1.
         11    1    3    3    0    0 -0.15263313698E+01 -0.58274141714E+01 -0.76698598176E+01  0.97527018440E+01  0.51100000000E-03 0. -1.
        -11    1    3    3    0    0  0.43296045586E+01  0.10835724882E+02 -0.77097174329E+01  0.13985640940E+02  0.51100000000E-03 0.  1.
         12    1    3    3    0    0 -0.55931278943E+00  0.22585917046E+02 -0.14397748818E+02  0.26790514191E+02  0.00000000000E+00 0. -1.
</event>
<event>
 7    1  0.7345477E-012  0.5052886E+02  0.7816164E-02  0.1300439E+00
        -11   -1    0    0    0    0  0.00000000000E+00  0.00000000000E+00  0.45593999997E+02  0.45594000000E+02  0.51100000000E-03 0. -1.
         11   -1    0    0    0    0 -0.00000000000E+00 -0.00000000000E+00 -0.45593999997E+02  0.45594000000E+02  0.51100000000E-03 0.  1.
    9900012    2    1    2    0    0  0.50960592305E+01 -0.15119165970E+02 -0.37397950402E+02  0.50528859655E+02  0.29999999407E+02 0.  0.
         12    1    1    2    0    0 -0.50960592305E+01  0.15119165970E+02  0.37397950402E+02  0.40659140345E+02  0.00000000000E+00 0. -1.
         11    1    3    3    0    0  0.80733441510E+01 -0.70032857165E+01 -0.91905147199E+00  0.10727047706E+02  0.51100000000E-03 0. -1.
        -11    1    3    3    0    0 -0.80320411366E+01 -0.39279991364E+01 -0.25358058646E+02  0.26888175851E+02  0.51100000000E-03 0.  1.
        -12    1    3    3    0    0  0.50547562161E+01 -0.41878811170E+01 -0.11120840284E+02  0.12913636098E+02  0.00000000000E+00 0.  1.
</event>
<event>
 7    1  0.6889665E-012  0.5052886E+02  0.7816164E-02  0.1300439E+00
        -11   -1    0    0    0    0  0.00000000000E+00  0.00000000000E+00  0.45593999997E+02  0.45594000000E+02  0.51100000000E-03 0. -1.
         11   -1    0    0    0    0 -0.00000000000E+00 -0.00000000000E+00 -0.45593999997E+02  0.45594000000E+02  0.51100000000E-03 0.  1.
    9900012    2    1    2    0    0 -0.18991783292E+02 -0.19716508818E+02 -0.30062226540E+02  0.50528855676E+02  0.29999987313E+02 0.  0.
         12    1    1    2    0    0  0.18991783292E+02  0.19716508818E+02  0.30062226540E+02  0.40659144324E+02  0.00000000000E+00 0. -1.
         11    1    3    3    0    0 -0.66084944540E+01  0.89444921647E+00 -0.81324907358E+00  0.67181554512E+01  0.51100000000E-03 0. -1.
        -11    1    3    3    0    0 -0.74164096040E+01 -0.64909228253E+01 -0.26913657941E+02  0.28661475791E+02  0.51100000000E-03 0.  1.
        -12    1    3    3    0    0 -0.49668792345E+01 -0.14120035209E+02 -0.23353195259E+01  0.15149224433E+02  0.00000000000E+00 0.  1.
</event>
<event>
 7    1  0.6889665E-012  0.5052886E+02  0.7816164E-02  0.1300439E+00
        -11   -1    0    0    0    0  0.00000000000E+00  0.00000000000E+00  0.45593999997E+02  0.45594000000E+02  0.51100000000E-03 0. -1.
         11   -1    0    0    0    0 -0.00000000000E+00 -0.00000000000E+00 -0.45593999997E+02  0.45594000000E+02  0.51100000000E-03 0.  1.
    9900012    2    1    2    0    0 -0.27065418224E+02 -0.13447689146E+02  0.27199052652E+02  0.50528859918E+02  0.30000000208E+02 0.  0.
        -12    1    1    2    0    0  0.27065418224E+02  0.13447689146E+02 -0.27199052652E+02  0.40659140082E+02  0.00000000000E+00 0.  1.
         11    1    3    3    0    0 -0.12996714410E+02 -0.57073145909E+01  0.23643143988E+02  0.27576915766E+02  0.51100000000E-03 0. -1.
        -11    1    3    3    0    0 -0.14873275032E+02 -0.53867207838E+01 -0.28560255564E+01  0.16074450324E+02  0.51100000000E-03 0.  1.
        -12    1    3    3    0    0  0.80457121681E+00 -0.23536537709E+01  0.64119342201E+01  0.68774938283E+01  0.00000000000E+00 0.  1.
</event>
<event>
 7    1  0.6889665E-012  0.5052886E+02  0.7816164E-02  0.1300439E+00
        -11   -1    0    0    0    0  0.00000000000E+00  0.00000000000E+00  0.45593999997E+02  0.45594000000E+02  0.51100000000E-03 0. -1.
         11   -1    0    0    0    0 -0.00000000000E+00 -0.00000000000E+00 -0.45593999997E+02  0.45594000000E+02  0.51100000000E-03 0.  1.
    9900012    2    1    2    0    0 -0.78143370411E+01  0.82344796395E+01 -0.39042222010E+02  0.50528860587E+02  0.30000002240E+02 0.  0.
         12    1    1    2    0    0  0.78143370411E+01 -0.82344796395E+01  0.39042222010E+02  0.40659139413E+02  0.00000000000E+00 0. -1.
         11    1    3    3    0    0 -0.36156188281E+01  0.24421144841E+01  0.14520288101E+01  0.45983704277E+01  0.51100000000E-03 0. -1.
        -11    1    3    3    0    0 -0.76417303303E+01 -0.56761707642E+01 -0.20924328088E+02  0.22987876439E+02  0.51100000000E-03 0.  1.
        -12    1    3    3    0    0  0.34430121173E+01  0.11468535920E+02 -0.19569922732E+02  0.22942613720E+02  0.00000000000E+00 0.  1.
</event>
<event>
 7    1  0.6889665E-012  0.5052885E+02  0.7816164E-02  0.1300439E+00
        -11   -1    0    0    0    0  0.00000000000E+00  0.00000000000E+00  0.45593999997E+02  0.45594000000E+02  0.51100000000E-03 0. -1.
         11   -1    0    0    0    0 -0.00000000000E+00 -0.00000000000E+00 -0.45593999997E+02  0.45594000000E+02  0.51100000000E-03 0.  1.
    9900012    2    1    2    0    0 -0.62872613319E+00 -0.49123381537E+01  0.40356413687E+02  0.50528849881E+02  0.29999969698E+02 0.  0.
        -12    1    1    2    0    0  0.62872613319E+00  0.49123381537E+01 -0.40356413687E+02  0.40659150119E+02  0.00000000000E+00 0.  1.
         11    1    3    3    0    0 -0.49134943618E+01  0.17971886801E+01  0.59645121007E+01  0.79339598472E+01  0.51100000000E-03 0. -1.
        -11    1    3    3    0    0  0.87691176522E+01 -0.78129516496E+01  0.35871732277E+02  0.37745474095E+02  0.51100000000E-03 0.  1.
        -12    1    3    3    0    0 -0.44843494236E+01  0.11034248158E+01 -0.14798306899E+01  0.48494159388E+01  0.00000000000E+00 0.  1.
</event>
<event>
 7    1  0.6889665E-012  0.5052887E+02  0.7816164E-02  0.1300439E+00
        -11   -1    0    0    0    0  0.00000000000E+00  0.00000000000E+00  0.45593999997E+02  0.45594000000E+02  0.51100000000E-03 0. -1.
         11   -1    0    0    0    0 -0.00000000000E+00 -0.00000000000E+00 -0.45593999997E+02  0.45594000000E+02  0.51100000000E-03 0.  1.
    9900012    2    1    2    0    0  0.88730541568E+01 -0.16689888518E+02  0.35998352775E+02  0.50528869767E+02  0.30000030144E+02 0.  0.
        -12    1    1    2    0    0 -0.88730541568E+01  0.16689888518E+02 -0.35998352775E+02  0.40659130233E+02  0.00000000000E+00 0.  1.
         11    1    3    3    0    0  0.41993478290E+01 -0.22885450042E+02  0.26115612027E+02  0.34977185960E+02  0.51100000000E-03 0. -1.
        -11    1    3    3    0    0 -0.14490192807E+01  0.46008960909E+01  0.72292539189E+01  0.86908005500E+01  0.51100000000E-03 0.  1.
         12    1    3    3    0    0  0.61227256086E+01  0.15946654334E+01  0.26534868285E+01  0.68608832574E+01  0.00000000000E+00 0. -1.
</event>
<event>
 7    1  0.6889665E-012  0.5052873E+02  0.7816164E-02  0.1300439E+00
        -11   -1    0    0    0    0  0.00000000000E+00  0.00000000000E+00  0.45593999997E+02  0.45594000000E+02  0.51100000000E-03 0. -1.
         11   -1    0    0    0    0 -0.00000000000E+00 -0.00000000000E+00 -0.45593999997E+02  0.45594000000E+02  0.51100000000E-03 0.  1.
    9900012    2    1    2    0    0 -0.16842277886E+01 -0.17531590139E+02 -0.36646734605E+02  0.50528727586E+02  0.29999597967E+02 0.  0.
         12    1    1    2    0    0  0.16842277886E+01  0.17531590139E+02  0.36646734605E+02  0.40659272414E+02  0.00000000000E+00 0. -1.
         11    1    3    3    0    0 -0.12350936958E+01  0.51563143098E+01 -0.15983601784E+02  0.16840087884E+02  0.51100000000E-03 0. -1.
        -11    1    3    3    0    0 -0.44476658452E+01 -0.14152739542E+02 -0.19019559583E+02  0.24121057502E+02  0.51100000000E-03 0.  1.
         12    1    3    3    0    0  0.39985317525E+01 -0.85351649065E+01 -0.16435732385E+01  0.95675821996E+01  0.00000000000E+00 0. -1.
</event>
<event>
 7    1  0.6889665E-012  0.5052886E+02  0.7816164E-02  0.1300439E+00
        -11   -1    0    0    0    0  0.00000000000E+00  0.00000000000E+00  0.45593999997E+02  0.45594000000E+02  0.51100000000E-03 0. -1.
         11   -1    0    0    0    0 -0.00000000000E+00 -0.00000000000E+00 -0.45593999997E+02  0.45594000000E+02  0.51100000000E-03 0.  1.
    9900012    2    1    2    0    0  0.13991929750E+02 -0.33669288279E+02  0.17993615490E+02  0.50528864867E+02  0.30000015249E+02 0.  0.
        -12    1    1    2    0    0 -0.13991929750E+02  0.33669288279E+02 -0.17993615490E+02  0.40659135133E+02  0.00000000000E+00 0.  1.
         11    1    3    3    0    0 -0.92338045204E+01 -0.12538001793E+02  0.54062019754E+01  0.16483071769E+02  0.51100000000E-03 0. -1.
        -11    1    3    3    0    0  0.82982007062E+01 -0.10046239359E+02  0.47677228440E+01  0.13875094291E+02  0.51100000000E-03 0.  1.
         12    1    3    3    0    0  0.14927533565E+02 -0.11085047128E+02  0.78196906709E+01  0.20170698806E+02  0.00000000000E+00 0. -1.
</event>
<event>
 7    1  0.6889665E-012  0.5052886E+02  0.7816164E-02  0.1300439E+00
        -11   -1    0    0    0    0  0.00000000000E+00  0.00000000000E+00  0.45593999997E+02  0.45594000000E+02  0.51100000000E-03 0. -1.
         11   -1    0    0    0    0 -0.00000000000E+00 -0.00000000000E+00 -0.45593999997E+02  0.45594000000E+02  0.51100000000E-03 0.  1.
    9900012    2    1    2    0    0  0.40704099442E+01  0.19605623734E+02  0.35386681011E+02  0.50528856968E+02  0.29999991240E+02 0.  0.
        -12    1    1    2    0    0 -0.40704099442E+01 -0.19605623734E+02 -0.35386681011E+02  0.40659143032E+02  0.00000000000E+00 0.  1.
         11    1    3    3    0    0 -0.20629130068E+01  0.77373831717E+01  0.27531656347E+02  0.28672544532E+02  0.51100000000E-03 0. -1.
        -11    1    3    3    0    0  0.16883113295E+01  0.13804445968E+01 -0.45311651274E+01  0.50286658373E+01  0.51100000000E-03 0.  1.
        -12    1    3    3    0    0  0.44450116216E+01  0.10487795966E+02  0.12386189791E+02  0.16827646599E+02  0.00000000000E+00 0.  1.
</event>
<event>
 7    1  0.8152647E-012  0.5052885E+02  0.7816164E-02  0.1300439E+00
        -11   -1    0    0    0    0  0.00000000000E+00  0.00000000000E+00  0.45593999997E+02  0.45594000000E+02  0.51100000000E-03 0. -1.
         11   -1    0    0    0    0 -0.00000000000E+00 -0.00000000000E+00 -0.45593999997E+02  0.45594000000E+02  0.51100000000E-03 0.  1.
    9900012    2    1    2    0    0  0.20993826681E+02 -0.76173798680E+01 -0.33976480655E+02  0.50528850077E+02  0.29999970294E+02 0.  0.
         12    1    1    2    0    0 -0.20993826681E+02  0.76173798680E+01  0.33976480655E+02  0.40659149923E+02  0.00000000000E+00 0. -1.
         11    1    3    3    0    0  0.19827310526E+01 -0.19510108907E+01  0.28430434299E+01  0.39775070243E+01  0.51100000000E-03 0. -1.
        -11    1    3    3    0    0  0.91036616301E+01 -0.19579138632E+00 -0.33560692843E+02  0.34774057768E+02  0.51100000000E-03 0.  1.
        -12    1    3    3    0    0  0.99074339980E+01 -0.54705775909E+01 -0.32588312422E+01  0.11777285284E+02  0.00000000000E+00 0.  1.
</event>
<event>
 7    1  0.6889665E-012  0.5052885E+02  0.7816164E-02  0.1300439E+00
        -11   -1    0    0    0    0  0.00000000000E+00  0.00000000000E+00  0.45593999997E+02  0.45594000000E+02  0.51100000000E-03 0. -1.
         11   -1    0    0    0    0 -0.00000000000E+00 -0.00000000000E+00 -0.45593999997E+02  0.45594000000E+02  0.51100000000E-03 0.  1.
    9900012    2    1    2    0    0 -0.13461135163E+02 -0.29162881607E+02 -0.24929706510E+02  0.50528854778E+02  0.29999984583E+02 0.  0.
         12    1    1    2    0    0  0.13461135163E+02  0.29162881607E+02  0.24929706510E+02  0.40659145222E+02  0.00000000000E+00 0. -1.
         11    1    3    3    0    0 -0.14243005359E+02 -0.13691246359E+02 -0.65420664205E+00  0.19767180252E+02  0.51100000000E-03 0. -1.
        -11    1    3    3    0    0 -0.27721458547E+01 -0.14779630754E+02 -0.17450203382E+02  0.23035448253E+02  0.51100000000E-03 0.  1.
         12    1    3    3    0    0  0.35540160502E+01 -0.69200449302E+00 -0.68252964854E+01  0.77262262727E+01  0.00000000000E+00 0. -1.
</event>
<event>
 7    1  0.6889665E-012  0.5052886E+02  0.7816164E-02  0.1300439E+00
        -11   -1    0    0    0    0  0.00000000000E+00  0.00000000000E+00  0.45593999997E+02  0.45594000000E+02  0.51100000000E-03 0. -1.
         11   -1    0    0    0    0 -0.00000000000E+00 -0.00000000000E+00 -0.45593999997E+02  0.45594000000E+02  0.51100000000E-03 0.  1.
    9900012    2    1    2    0    0  0.14919879924E+02  0.11811189585E+00 -0.37822599935E+02  0.50528857938E+02  0.29999994189E+02 0.  0.
         12    1    1    2    0    0 -0.14919879924E+02 -0.11811189585E+00  0.37822599935E+02  0.40659142062E+02  0.00000000000E+00 0. -1.
         11    1    3    3    0    0 -0.80355108441E+01  0.39398246736E+01 -0.50127244742E+01  0.10257634225E+02  0.51100000000E-03 0. -1.
        -11    1    3    3    0    0  0.13228223456E+02 -0.30981977901E+01 -0.18484253399E+02  0.22940190699E+02  0.51100000000E-03 0.  1.
         12    1    3    3    0    0  0.97271673118E+01 -0.72351498767E+00 -0.14325622062E+02  0.17331033014E+02  0.00000000000E+00 0. -1.
</event>
<event>
 7    1  0.6889665E-012  0.5052885E+02  0.7816164E-02  0.1300439E+00
        -11   -1    0    0    0    0  0.00000000000E+00  0.00000000000E+00  0.45593999997E+02  0.45594000000E+02  0.51100000000E-03 0. -1.
         11   -1    0    0    0    0 -0.00000000000E+00 -0.00000000000E+00 -0.45593999997E+02  0.45594000000E+02  0.51100000000E-03 0.  1.
    9900012    2    1    2    0    0 -0.89844494888E+00  0.27575027137E+02  0.29865992666E+02  0.50528845522E+02  0.29999956450E+02 0.  0.
        -12    1    1    2    0    0  0.89844494888E+00 -0.27575027137E+02 -0.29865992666E+02  0.40659154478E+02  0.00000000000E+00 0.  1.
         11    1    3    3    0    0  0.12160404545E+01  0.15959090537E+02  0.36247408035E+01  0.16410669435E+02  0.51100000000E-03 0. -1.
        -11    1    3    3    0    0  0.30105606954E+01  0.66593146102E+01  0.25974861406E+02  0.26983390670E+02  0.51100000000E-03 0.  1.
        -12    1    3    3    0    0 -0.51250460989E+01  0.49566219897E+01  0.26639045657E+00  0.71347854165E+01  0.00000000000E+00 0.  1.
</event>
<event>
 7    1  0.6889665E-012  0.5052883E+02  0.7816164E-02  0.1300439E+00
        -11   -1    0    0    0    0  0.00000000000E+00  0.00000000000E+00  0.45593999997E+02  0.45594000000E+02  0.51100000000E-03 0. -1.
         11   -1    0    0    0    0 -0.00000000000E+00 -0.00000000000E+00 -0.45593999997E+02  0.45594000000E+02  0.51100000000E-03 0.  1.
    9900012    2    1    2    0    0  0.83819152590E+01  0.98439162186E+01 -0.38548786746E+02  0.50528829454E+02  0.29999907607E+02 0.  0.
         12    1    1    2    0    0 -0.83819152590E+01 -0.98439162186E+01  0.38548786746E+02  0.40659170546E+02  0.00000000000E+00 0. -1.
         11    1    3    3    0    0  0.12779122620E+02  0.15827579333E+02 -0.33554276627E+02  0.39239109606E+02  0.51100000000E-03 0.  1.
        -11    1    3    3    0    0  0.83534662335E+00 -0.15448871162E+01  0.11332611647E+01  0.20901582025E+01  0.51100000000E-03 0. -1.
         12    1    3    3    0    0 -0.52325539840E+01 -0.44387759979E+01 -0.61277712837E+01  0.91995616450E+01  0.00000000000E+00 0. -1.
</event>
<event>
 7    1  0.6889665E-012  0.5052886E+02  0.7816164E-02  0.1300439E+00
        -11   -1    0    0    0    0  0.00000000000E+00  0.00000000000E+00  0.45593999997E+02  0.45594000000E+02  0.51100000000E-03 0. -1.
         11   -1    0    0    0    0 -0.00000000000E+00 -0.00000000000E+00 -0.45593999997E+02  0.45594000000E+02  0.51100000000E-03 0.  1.
    9900012    2    1    2    0    0 -0.16810892090E+02 -0.12069748170E+02 -0.34998291960E+02  0.50528863833E+02  0.30000012105E+02 0.  0.
         12    1    1    2    0    0  0.16810892090E+02  0.12069748170E+02  0.34998291960E+02  0.40659136167E+02  0.00000000000E+00 0. -1.
         11    1    3    3    0    0 -0.37761387241E+01 -0.15015147346E+02 -0.51377566028E+01  0.16312891119E+02  0.51100000000E-03 0. -1.
        -11    1    3    3    0    0 -0.67185988427E+01  0.62985491576E+01 -0.20166138224E+02  0.22169447964E+02  0.51100000000E-03 0.  1.
        -12    1    3    3    0    0 -0.63161545234E+01 -0.33531499812E+01 -0.96943971337E+01  0.12046524750E+02  0.00000000000E+00 0.  1.
</event>
<event>
 7    1  0.6889665E-012  0.5052886E+02  0.7816164E-02  0.1300439E+00
        -11   -1    0    0    0    0  0.00000000000E+00  0.00000000000E+00  0.45593999997E+02  0.45594000000E+02  0.51100000000E-03 0. -1.
         11   -1    0    0    0    0 -0.00000000000E+00 -0.00000000000E+00 -0.45593999997E+02  0.45594000000E+02  0.51100000000E-03 0.  1.
    9900012    2    1    2    0    0  0.90808936672E+01  0.96278287721E+01 -0.38444868223E+02  0.50528860691E+02  0.30000002558E+02 0.  0.
         12    1    1    2    0    0 -0.90808936672E+01 -0.96278287721E+01  0.38444868223E+02  0.40659139309E+02  0.00000000000E+00 0. -1.
         11    1    3    3    0    0 -0.76399329976E+01  0.43787045414E+01 -0.23797438254E+02  0.25374390582E+02  0.51100000000E-03 0. -1.
        -11    1    3    3    0    0  0.63411721613E+01  0.73732682914E+01 -0.84297721034E+01  0.12869988642E+02  0.51100000000E-03 0.  1.
         12    1    3    3    0    0  0.10379654503E+02 -0.21241440607E+01 -0.62176578651E+01  0.12284481468E+02  0.00000000000E+00 0. -1.
</event>
<event>
 7    1  0.6889665E-012  0.5052886E+02  0.7816164E-02  0.1300439E+00
        -11   -1    0    0    0    0  0.00000000000E+00  0.00000000000E+00  0.45593999997E+02  0.45594000000E+02  0.51100000000E-03 0. -1.
         11   -1    0    0    0    0 -0.00000000000E+00 -0.00000000000E+00 -0.45593999997E+02  0.45594000000E+02  0.51100000000E-03 0.  1.
    9900012    2    1    2    0    0 -0.27443649728E+02  0.22497304643E+02  0.19846482745E+02  0.50528861987E+02  0.30000006496E+02 0.  0.
        -12    1    1    2    0    0  0.27443649728E+02 -0.22497304643E+02 -0.19846482745E+02  0.40659138013E+02  0.00000000000E+00 0.  1.
         11    1    3    3    0    0 -0.22473660276E+01  0.25886231997E+01  0.34109871966E+01  0.48359547194E+01  0.51100000000E-03 0. -1.
        -11    1    3    3    0    0  0.26570204377E+01 -0.17666678356E+01  0.91027394439E+01  0.96457627222E+01  0.51100000000E-03 0.  1.
        -12    1    3    3    0    0 -0.27853304138E+02  0.21675349279E+02  0.73327561044E+01  0.36047144545E+02  0.00000000000E+00 0.  1.
</event>
<event>
 7    1  0.6889665E-012  0.5052886E+02  0.7816164E-02  0.1300439E+00
        -11   -1    0    0    0    0  0.00000000000E+00  0.00000000000E+00  0.45593999997E+02  0.45594000000E+02  0.51100000000E-03 0. -1.
         11   -1    0    0    0    0 -0.00000000000E+00 -0.00000000000E+00 -0.45593999997E+02  0.45594000000E+02  0.51100000000E-03 0.  1.
    9900012    2    1    2    0    0 -0.24449871022E+02  0.13810105000E+02 -0.29404944030E+02  0.50528856791E+02  0.29999990701E+02 0.  0.
         12    1    1    2    0    0  0.24449871022E+02 -0.13810105000E+02  0.29404944030E+02  0.40659143209E+02  0.00000000000E+00 0. -1.
         11    1    3    3    0    0 -0.49000419554E+00  0.15047503828E+02 -0.12130448610E+02  0.19334302659E+02  0.51100000000E-03 0. -1.
        -11    1    3    3    0    0 -0.24722711178E+02 -0.13028282382E+01 -0.17586622671E+02  0.30367731338E+02  0.51100000000E-03 0.  1.
        -12    1    3    3    0    0  0.76284435089E+00  0.65429409782E-01  0.31212725103E+00  0.82682279371E+00  0.00000000000E+00 0.  1.
</event>
<event>
 7    1  0.6889665E-012  0.5052884E+02  0.7816164E-02  0.1300439E+00
        -11   -1    0    0    0    0  0.00000000000E+00  0.00000000000E+00  0.45593999997E+02  0.45594000000E+02  0.51100000000E-03 0. -1.
         11   -1    0    0    0    0 -0.00000000000E+00 -0.00000000000E+00 -0.45593999997E+02  0.45594000000E+02  0.51100000000E-03 0.  1.
    9900012    2    1    2    0    0 -0.37364017530E+02 -0.10579833902E+02 -0.12048421852E+02  0.50528841616E+02  0.29999944576E+02 0.  0.
         12    1    1    2    0    0  0.37364017530E+02  0.10579833902E+02  0.12048421852E+02  0.40659158384E+02  0.00000000000E+00 0. -1.
         11    1    3    3    0    0 -0.23169181285E+02 -0.16381947874E+02  0.18768250809E+01  0.28437680113E+02  0.51100000000E-03 0. -1.
        -11    1    3    3    0    0 -0.11872936265E+02  0.11940727506E+01 -0.10528118170E+02  0.15913318251E+02  0.51100000000E-03 0.  1.
         12    1    3    3    0    0 -0.23218999796E+01  0.46080412215E+01 -0.33971287634E+01  0.61778432523E+01  0.00000000000E+00 0. -1.
</event>
<event>
 7    1  0.6889665E-012  0.5052886E+02  0.7816164E-02  0.1300439E+00
        -11   -1    0    0    0    0  0.00000000000E+00  0.00000000000E+00  0.45593999997E+02  0.45594000000E+02  0.51100000000E-03 0. -1.
         11   -1    0    0    0    0 -0.00000000000E+00 -0.00000000000E+00 -0.45593999997E+02  0.45594000000E+02  0.51100000000E-03 0.  1.
    9900012    2    1    2    0    0  0.20140795627E+02  0.27191251717E+01  0.35215345553E+02  0.50528857700E+02  0.29999993463E+02 0.  0.
        -12    1    1    2    0    0 -0.20140795627E+02 -0.27191251717E+01 -0.35215345553E+02  0.40659142300E+02  0.00000000000E+00 0.  1.
         11    1    3    3    0    0  0.37028869788E+01 -0.20666267286E+01  0.29281202763E+02  0.29586671890E+02  0.51100000000E-03 0. -1.
        -11    1    3    3    0    0  0.10430840559E+02 -0.23153554527E+01  0.42012959471E+01  0.11481036257E+02  0.51100000000E-03 0.  1.
         12    1    3    3    0    0  0.60070680895E+01  0.71011073531E+01  0.17328468426E+01  0.94611495523E+01  0.00000000000E+00 0. -1.
</event>
<event>
 7    1  0.6889665E-012  0.5052886E+02  0.7816164E-02  0.1300439E+00
        -11   -1    0    0    0    0  0.00000000000E+00  0.00000000000E+00  0.45593999997E+02  0.45594000000E+02  0.51100000000E-03 0. -1.
         11   -1    0    0    0    0 -0.00000000000E+00 -0.00000000000E+00 -0.45593999997E+02  0.45594000000E+02  0.51100000000E-03 0.  1.
    9900012    2    1    2    0    0  0.22241493330E+01  0.22964073530E+02 -0.33479403641E+02  0.50528856114E+02  0.29999988646E+02 0.  0.
         12    1    1    2    0    0 -0.22241493330E+01 -0.22964073530E+02  0.33479403641E+02  0.40659143886E+02  0.00000000000E+00 0. -1.
         11    1    3    3    0    0  0.30953442076E+00  0.89204946042E+01  0.36001559437E+01  0.96245601781E+01  0.51100000000E-03 0. -1.
        -11    1    3    3    0    0  0.23810409492E+01  0.19065669078E+01 -0.18209259242E+02  0.18462975810E+02  0.51100000000E-03 0.  1.
         12    1    3    3    0    0 -0.46642603699E+00  0.12137012018E+02 -0.18870300343E+02  0.22441320126E+02  0.00000000000E+00 0. -1.
</event>
<event>
 7    1  0.6889665E-012  0.5052885E+02  0.7816164E-02  0.1300439E+00
        -11   -1    0    0    0    0  0.00000000000E+00  0.00000000000E+00  0.45593999997E+02  0.45594000000E+02  0.51100000000E-03 0. -1.
         11   -1    0    0    0    0 -0.00000000000E+00 -0.00000000000E+00 -0.45593999997E+02  0.45594000000E+02  0.51100000000E-03 0.  1.
    9900012    2    1    2    0    0 -0.57961412477E+01  0.26780681222E+02 -0.30039409246E+02  0.50528852838E+02  0.29999978687E+02 0.  0.
         12    1    1    2    0    0  0.57961412477E+01 -0.26780681222E+02  0.30039409246E+02  0.40659147162E+02  0.00000000000E+00 0. -1.
         11    1    3    3    0    0 -0.90235271903E+01  0.10259919308E+02 -0.14931746600E+01  0.13744801126E+02  0.51100000000E-03 0. -1.
        -11    1    3    3    0    0  0.93891400288E+01  0.12172541544E+02 -0.16330532213E+02  0.22427951327E+02  0.51100000000E-03 0.  1.
        -12    1    3    3    0    0 -0.61617540862E+01  0.43482203700E+01 -0.12215702373E+02  0.14356100386E+02  0.00000000000E+00 0.  1.
</event>
<event>
 7    1  0.6889665E-012  0.5052886E+02  0.7816164E-02  0.1300439E+00
        -11   -1    0    0    0    0  0.00000000000E+00  0.00000000000E+00  0.45593999997E+02  0.45594000000E+02  0.51100000000E-03 0. -1.
         11   -1    0    0    0    0 -0.00000000000E+00 -0.00000000000E+00 -0.45593999997E+02  0.45594000000E+02  0.51100000000E-03 0.  1.
    9900012    2    1    2    0    0  0.49892553529E+01  0.10528627491E+02 -0.38954088208E+02  0.50528860143E+02  0.30000000890E+02 0.  0.
         12    1    1    2    0    0 -0.49892553529E+01 -0.10528627491E+02  0.38954088208E+02  0.40659139857E+02  0.00000000000E+00 0. -1.
         11    1    3    3    0    0 -0.12126585996E+02  0.35025559715E+00 -0.14611797596E+02  0.18991613838E+02  0.51100000000E-03 0. -1.
        -11    1    3    3    0    0  0.77352300276E+01  0.43396541481E+01 -0.90574961116E+01  0.12676932507E+02  0.51100000000E-03 0.  1.
         12    1    3    3    0    0  0.93806113214E+01  0.58387177453E+01 -0.15284794500E+02  0.18860313799E+02  0.00000000000E+00 0. -1.
</event>
<event>
 7    1  0.6889665E-012  0.5052885E+02  0.7816164E-02  0.1300439E+00
        -11   -1    0    0    0    0  0.00000000000E+00  0.00000000000E+00  0.45593999997E+02  0.45594000000E+02  0.51100000000E-03 0. -1.
         11   -1    0    0    0    0 -0.00000000000E+00 -0.00000000000E+00 -0.45593999997E+02  0.45594000000E+02  0.51100000000E-03 0.  1.
    9900012    2    1    2    0    0  0.75949183481E+01  0.89755900052E+01 -0.38922004742E+02  0.50528850306E+02  0.29999970991E+02 0.  0.
         12    1    1    2    0    0 -0.75949183481E+01 -0.89755900052E+01  0.38922004742E+02  0.40659149694E+02  0.00000000000E+00 0. -1.
         11    1    3    3    0    0  0.10591855390E+02  0.80034651913E+01 -0.77283921902E+01  0.15361344400E+02  0.51100000000E-03 0. -1.
        -11    1    3    3    0    0 -0.76576539751E+01 -0.32191207506E+01 -0.25047164285E+02  0.26388687761E+02  0.51100000000E-03 0.  1.
        -12    1    3    3    0    0  0.46607169329E+01  0.41912455646E+01 -0.61464482674E+01  0.87788181445E+01  0.00000000000E+00 0.  1.
</event>
<event>
 7    1  0.6889665E-012  0.5052885E+02  0.7816164E-02  0.1300439E+00
        -11   -1    0    0    0    0  0.00000000000E+00  0.00000000000E+00  0.45593999997E+02  0.45594000000E+02  0.51100000000E-03 0. -1.
         11   -1    0    0    0    0 -0.00000000000E+00 -0.00000000000E+00 -0.45593999997E+02  0.45594000000E+02  0.51100000000E-03 0.  1.
    9900012    2    1    2    0    0 -0.25398312296E+02 -0.19286344272E+02  0.25221598093E+02  0.50528851543E+02  0.29999974750E+02 0.  0.
        -12    1    1    2    0    0  0.25398312296E+02  0.19286344272E+02 -0.25221598093E+02  0.40659148457E+02  0.00000000000E+00 0.  1.
         11    1    3    3    0    0 -0.15496993882E+02 -0.16025749165E+02  0.70563149851E+01  0.23383178508E+02  0.51100000000E-03 0. -1.
        -11    1    3    3    0    0 -0.91740634681E+01  0.56927696403E+01  0.72303482359E+01  0.12994191109E+02  0.51100000000E-03 0.  1.
         12    1    3    3    0    0 -0.72725494592E+00 -0.89533647473E+01  0.10934934872E+02  0.14151481927E+02  0.00000000000E+00 0. -1.
</event>
<event>
 7    1  0.6889665E-012  0.5052885E+02  0.7816164E-02  0.1300439E+00
        -11   -1    0    0    0    0  0.00000000000E+00  0.00000000000E+00  0.45593999997E+02  0.45594000000E+02  0.51100000000E-03 0. -1.
         11   -1    0    0    0    0 -0.00000000000E+00 -0.00000000000E+00 -0.45593999997E+02  0.45594000000E+02  0.51100000000E-03 0.  1.
    9900012    2    1    2    0    0  0.13396238971E+02 -0.23014970763E+02 -0.30724885483E+02  0.50528847454E+02  0.29999962322E+02 0.  0.
         12    1    1    2    0    0 -0.13396238971E+02  0.23014970763E+02  0.30724885483E+02  0.40659152546E+02  0.00000000000E+00 0. -1.
         11    1    3    3    0    0  0.95779457733E+01 -0.16062230678E+01 -0.18975917022E+02  0.21316717028E+02  0.51100000000E-03 0. -1.
        -11    1    3    3    0    0  0.44042982956E+01 -0.23726205715E+02 -0.95128539008E+01  0.25938871809E+02  0.51100000000E-03 0.  1.
        -12    1    3    3    0    0 -0.58600509751E+00  0.23174580198E+01 -0.22361145603E+01  0.32732586171E+01  0.00000000000E+00 0.  1.
</event>
<event>
 7    1  0.6889665E-012  0.5052888E+02  0.7816164E-02  0.1300439E+00
        -11   -1    0    0    0    0  0.00000000000E+00  0.00000000000E+00  0.45593999997E+02  0.45594000000E+02  0.51100000000E-03 0.  1.
         11   -1    0    0    0    0 -0.00000000000E+00 -0.00000000000E+00 -0.45593999997E+02  0.45594000000E+02  0.51100000000E-03 0. -1.
    9900012    2    1    2    0    0  0.32565123263E+02  0.18848514662E+02  0.15408136548E+02  0.50528875194E+02  0.30000046639E+02 0.  0.
         12    1    1    2    0    0 -0.32565123263E+02 -0.18848514662E+02 -0.15408136548E+02  0.40659124806E+02  0.00000000000E+00 0. -1.
         11    1    3    3    0    0 -0.37443223144E+01  0.13827732970E+01 -0.14454013974E+01  0.42451380479E+01  0.51100000000E-03 0. -1.
        -11    1    3    3    0    0  0.32581218865E+02  0.96426368264E+01  0.16056957808E+02  0.37581141042E+02  0.51100000000E-03 0.  1.
         12    1    3    3    0    0  0.37282267127E+01  0.78231045381E+01  0.79658013739E+00  0.87025961041E+01  0.00000000000E+00 0. -1.
</event>
<event>
 7    1  0.6889665E-012  0.5052886E+02  0.7816164E-02  0.1300439E+00
        -11   -1    0    0    0    0  0.00000000000E+00  0.00000000000E+00  0.45593999997E+02  0.45594000000E+02  0.51100000000E-03 0.  1.
         11   -1    0    0    0    0 -0.00000000000E+00 -0.00000000000E+00 -0.45593999997E+02  0.45594000000E+02  0.51100000000E-03 0. -1.
    9900012    2    1    2    0    0 -0.27824169586E+02 -0.28733478408E+02  0.73053918847E+01  0.50528856561E+02  0.29999990004E+02 0.  0.
        -12    1    1    2    0    0  0.27824169586E+02  0.28733478408E+02 -0.73053918847E+01  0.40659143439E+02  0.00000000000E+00 0.  1.
         11    1    3    3    0    0 -0.20440626033E+02 -0.17994419966E+02  0.79141542194E-01  0.27232785502E+02  0.51100000000E-03 0. -1.
        -11    1    3    3    0    0 -0.41139485433E+01  0.46250791284E+01  0.50567681419E+00  0.62106069641E+01  0.51100000000E-03 0.  1.
         12    1    3    3    0    0 -0.32695950095E+01 -0.15364137570E+02  0.67205735283E+01  0.17085464095E+02  0.00000000000E+00 0. -1.
</event>
<event>
 7    1  0.6889665E-012  0.5052886E+02  0.7816164E-02  0.1300439E+00
        -11   -1    0    0    0    0  0.00000000000E+00  0.00000000000E+00  0.45593999997E+02  0.45594000000E+02  0.51100000000E-03 0. -1.
         11   -1    0    0    0    0 -0.00000000000E+00 -0.00000000000E+00 -0.45593999997E+02  0.45594000000E+02  0.51100000000E-03 0.  1.
    9900012    2    1    2    0    0  0.35692829231E+00  0.40083394285E+02  0.68087738464E+01  0.50528864538E+02  0.30000014251E+02 0.  0.
        -12    1    1    2    0    0 -0.35692829231E+00 -0.40083394285E+02 -0.68087738464E+01  0.40659135462E+02  0.00000000000E+00 0.  1.
         11    1    3    3    0    0  0.48854902915E+00 -0.32130308338E+01  0.94605551840E+00  0.33848587264E+01  0.51100000000E-03 0. -1.
        -11    1    3    3    0    0  0.14437765142E+01  0.31062405833E+02 -0.39981590469E+01  0.31351918965E+02  0.51100000000E-03 0.  1.
        -12    1    3    3    0    0 -0.15753972511E+01  0.12234019286E+02  0.98608773749E+01  0.15792086847E+02  0.00000000000E+00 0.  1.
</event>
<event>
 7    1  0.6889665E-012  0.5052886E+02  0.7816164E-02  0.1300439E+00
        -11   -1    0    0    0    0  0.00000000000E+00  0.00000000000E+00  0.45593999997E+02  0.45594000000E+02  0.51100000000E-03 0.  1.
         11   -1    0    0    0    0 -0.00000000000E+00 -0.00000000000E+00 -0.45593999997E+02  0.45594000000E+02  0.51100000000E-03 0. -1.
    9900012    2    1    2    0    0  0.30097502929E+02  0.15630995258E+02 -0.22427175021E+02  0.50528857427E+02  0.29999992635E+02 0.  0.
         12    1    1    2    0    0 -0.30097502929E+02 -0.15630995258E+02  0.22427175021E+02  0.40659142573E+02  0.00000000000E+00 0. -1.
         11    1    3    3    0    0  0.13165185584E+02  0.11770533163E+02 -0.12230400145E+02  0.21481393120E+02  0.51100000000E-03 0. -1.
        -11    1    3    3    0    0  0.24567065432E+01  0.74393251509E+01  0.37000911703E+01  0.86642738109E+01  0.51100000000E-03 0.  1.
        -12    1    3    3    0    0  0.14475610802E+02 -0.35788630564E+01 -0.13896866047E+02  0.20383190496E+02  0.00000000000E+00 0.  1.
</event>
<event>
 7    1  0.6889665E-012  0.5052886E+02  0.7816164E-02  0.1300439E+00
        -11   -1    0    0    0    0  0.00000000000E+00  0.00000000000E+00  0.45593999997E+02  0.45594000000E+02  0.51100000000E-03 0. -1.
         11   -1    0    0    0    0 -0.00000000000E+00 -0.00000000000E+00 -0.45593999997E+02  0.45594000000E+02  0.51100000000E-03 0.  1.
    9900012    2    1    2    0    0  0.35689884803E+00  0.19617730977E+02  0.35611552290E+02  0.50528863241E+02  0.30000010308E+02 0.  0.
        -12    1    1    2    0    0 -0.35689884803E+00 -0.19617730977E+02 -0.35611552290E+02  0.40659136759E+02  0.00000000000E+00 0.  1.
         11    1    3    3    0    0 -0.95043145918E+00  0.91976882447E+01  0.13762152234E+02  0.16580036894E+02  0.51100000000E-03 0. -1.
        -11    1    3    3    0    0  0.87743810797E+01 -0.17747177082E+01  0.14985346340E+01  0.90766179045E+01  0.51100000000E-03 0.  1.
        -12    1    3    3    0    0 -0.74670507724E+01  0.12194760440E+02  0.20350865422E+02  0.24872208443E+02  0.00000000000E+00 0.  1.
</event>
<event>
 7    1  0.6889665E-012  0.5052886E+02  0.7816164E-02  0.1300439E+00
        -11   -1    0    0    0    0  0.00000000000E+00  0.00000000000E+00  0.45593999997E+02  0.45594000000E+02  0.51100000000E-03 0. -1.
         11   -1    0    0    0    0 -0.00000000000E+00 -0.00000000000E+00 -0.45593999997E+02  0.45594000000E+02  0.51100000000E-03 0.  1.
    9900012    2    1    2    0    0  0.36310105392E+02 -0.19029633854E+01 -0.18196724296E+02  0.50528858368E+02  0.29999995494E+02 0.  0.
         12    1    1    2    0    0 -0.36310105392E+02  0.19029633854E+01  0.18196724296E+02  0.40659141632E+02  0.00000000000E+00 0. -1.
         11    1    3    3    0    0  0.57650859526E+01  0.10046041029E+02 -0.21916730732E+01  0.11788239374E+02  0.51100000000E-03 0. -1.
        -11    1    3    3    0    0  0.22011613229E+02 -0.13476017895E+02 -0.82130736196E+01  0.27084474406E+02  0.51100000000E-03 0.  1.
         12    1    3    3    0    0  0.85334062096E+01  0.15270134805E+01 -0.77919776027E+01  0.11656144589E+02  0.00000000000E+00 0. -1.
</event>
<event>
 7    1  0.6889665E-012  0.5052885E+02  0.7816164E-02  0.1300439E+00
        -11   -1    0    0    0    0  0.00000000000E+00  0.00000000000E+00  0.45593999997E+02  0.45594000000E+02  0.51100000000E-03 0. -1.
         11   -1    0    0    0    0 -0.00000000000E+00 -0.00000000000E+00 -0.45593999997E+02  0.45594000000E+02  0.51100000000E-03 0.  1.
    9900012    2    1    2    0    0 -0.24982359820E+02 -0.70599805655E+00 -0.32071011278E+02  0.50528849740E+02  0.29999969269E+02 0.  0.
         12    1    1    2    0    0  0.24982359820E+02  0.70599805655E+00  0.32071011278E+02  0.40659150260E+02  0.00000000000E+00 0. -1.
         11    1    3    3    0    0 -0.28151670290E+01 -0.10166888689E+02 -0.16870004740E+01  0.10683480794E+02  0.51100000000E-03 0. -1.
        -11    1    3    3    0    0 -0.14377976137E+02  0.80171216481E+01 -0.13856964434E+02  0.21517804277E+02  0.51100000000E-03 0.  1.
        -12    1    3    3    0    0 -0.77892166549E+01  0.14437689843E+01 -0.16527046370E+02  0.18327564669E+02  0.00000000000E+00 0.  1.
</event>
<event>
 7    1  0.6889665E-012  0.5052888E+02  0.7816164E-02  0.1300439E+00
        -11   -1    0    0    0    0  0.00000000000E+00  0.00000000000E+00  0.45593999997E+02  0.45594000000E+02  0.51100000000E-03 0. -1.
         11   -1    0    0    0    0 -0.00000000000E+00 -0.00000000000E+00 -0.45593999997E+02  0.45594000000E+02  0.51100000000E-03 0.  1.
    9900012    2    1    2    0    0  0.29792028926E+02 -0.27341666150E+02  0.42464702746E+01  0.50528877959E+02  0.30000055043E+02 0.  0.
        -12    1    1    2    0    0 -0.29792028926E+02  0.27341666150E+02 -0.42464702746E+01  0.40659122041E+02  0.00000000000E+00 0.  1.
         11    1    3    3    0    0  0.12929032857E+02 -0.17303254614E+02 -0.96173318983E+01  0.23644356281E+02  0.51100000000E-03 0. -1.
        -11    1    3    3    0    0  0.14776210788E+02 -0.12671303624E+02  0.13027184084E+02  0.23422336907E+02  0.51100000000E-03 0.  1.
        -12    1    3    3    0    0  0.20867852804E+01  0.26328920881E+01  0.83661808906E+00  0.34621847699E+01  0.00000000000E+00 0.  1.
</event>
<event>
 7    1  0.6889665E-012  0.5052886E+02  0.7816164E-02  0.1300439E+00
        -11   -1    0    0    0    0  0.00000000000E+00  0.00000000000E+00  0.45593999997E+02  0.45594000000E+02  0.51100000000E-03 0.  1.
         11   -1    0    0    0    0 -0.00000000000E+00 -0.00000000000E+00 -0.45593999997E+02  0.45594000000E+02  0.51100000000E-03 0. -1.
    9900012    2    1    2    0    0  0.28429621380E+02  0.29016068707E+02 -0.17292385272E+01  0.50528857351E+02  0.29999992405E+02 0.  0.
         12    1    1    2    0    0 -0.28429621380E+02 -0.29016068707E+02  0.17292385272E+01  0.40659142649E+02  0.00000000000E+00 0. -1.
         11    1    3    3    0    0  0.12484854490E+02  0.14211286257E+02  0.13729989901E+02  0.23374021299E+02  0.51100000000E-03 0. -1.
        -11    1    3    3    0    0  0.11370540916E+02  0.74484267621E+01 -0.10474205745E+02  0.17160339397E+02  0.51100000000E-03 0.  1.
         12    1    3    3    0    0  0.45742259738E+01  0.73563556876E+01 -0.49850226827E+01  0.99944966562E+01  0.00000000000E+00 0. -1.
</event>
<event>
 7    1  0.6889665E-012  0.5052886E+02  0.7816164E-02  0.1300439E+00
        -11   -1    0    0    0    0  0.00000000000E+00  0.00000000000E+00  0.45593999997E+02  0.45594000000E+02  0.51100000000E-03 0. -1.
         11   -1    0    0    0    0 -0.00000000000E+00 -0.00000000000E+00 -0.45593999997E+02  0.45594000000E+02  0.51100000000E-03 0.  1.
    9900012    2    1    2    0    0 -0.13979795339E+02 -0.36627097025E+02  0.10778982085E+02  0.50528863647E+02  0.30000011541E+02 0.  0.
        -12    1    1    2    0    0  0.13979795339E+02  0.36627097025E+02 -0.10778982085E+02  0.40659136353E+02  0.00000000000E+00 0.  1.
         11    1    3    3    0    0 -0.17029602998E+02 -0.25040531793E+02 -0.35002844389E+01  0.30484218903E+02  0.51100000000E-03 0. -1.
        -11    1    3    3    0    0 -0.20082889462E+01 -0.82764737181E+00  0.19884116807E+01  0.29448269791E+01  0.51100000000E-03 0.  1.
         12    1    3    3    0    0  0.50580966056E+01 -0.10758917860E+02  0.12290854843E+02  0.17099817765E+02  0.00000000000E+00 0. -1.
</event>
<event>
 7    1  0.6889665E-012  0.5052888E+02  0.7816164E-02  0.1300439E+00
        -11   -1    0    0    0    0  0.00000000000E+00  0.00000000000E+00  0.45593999997E+02  0.45594000000E+02  0.51100000000E-03 0. -1.
         11   -1    0    0    0    0 -0.00000000000E+00 -0.00000000000E+00 -0.45593999997E+02  0.45594000000E+02  0.51100000000E-03 0.  1.
    9900012    2    1    2    0    0 -0.14890158872E+00  0.13827737194E+02 -0.38235261449E+02  0.50528884101E+02  0.30000073713E+02 0.  0.
         12    1    1    2    0    0  0.14890158872E+00 -0.13827737194E+02  0.38235261449E+02  0.40659115899E+02  0.00000000000E+00 0. -1.
         11    1    3    3    0    0 -0.28661837830E+00 -0.35347571992E+01 -0.41235631274E+00  0.35702516077E+01  0.51100000000E-03 0. -1.
        -11    1    3    3    0    0  0.63170963401E+01  0.17106898577E+02 -0.36247827919E+02  0.40576553750E+02  0.51100000000E-03 0.  1.
        -12    1    3    3    0    0 -0.61793795505E+01  0.25559581646E+00 -0.15750772176E+01  0.63820787438E+01  0.00000000000E+00 0.  1.
</event>
<event>
 7    1  0.6889665E-012  0.5052886E+02  0.7816164E-02  0.1300439E+00
        -11   -1    0    0    0    0  0.00000000000E+00  0.00000000000E+00  0.45593999997E+02  0.45594000000E+02  0.51100000000E-03 0. -1.
         11   -1    0    0    0    0 -0.00000000000E+00 -0.00000000000E+00 -0.45593999997E+02  0.45594000000E+02  0.51100000000E-03 0.  1.
    9900012    2    1    2    0    0 -0.24429513950E+02  0.11498904599E+02 -0.30399671686E+02  0.50528855919E+02  0.29999988051E+02 0.  0.
         12    1    1    2    0    0  0.24429513950E+02 -0.11498904599E+02  0.30399671686E+02  0.40659144081E+02  0.00000000000E+00 0. -1.
         11    1    3    3    0    0 -0.90862234074E+01  0.15016488248E+02 -0.35317842752E+01  0.17903292310E+02  0.51100000000E-03 0. -1.
        -11    1    3    3    0    0 -0.20078141421E+01  0.29060621200E+01 -0.70996380367E+01  0.79297777515E+01  0.51100000000E-03 0.  1.
         12    1    3    3    0    0 -0.13335476401E+02 -0.64236457695E+01 -0.19768249374E+02  0.24695785857E+02  0.00000000000E+00 0. -1.
</event>
<event>
 7    1  0.6889665E-012  0.5052886E+02  0.7816164E-02  0.1300439E+00
        -11   -1    0    0    0    0  0.00000000000E+00  0.00000000000E+00  0.45593999997E+02  0.45594000000E+02  0.51100000000E-03 0. -1.
         11   -1    0    0    0    0 -0.00000000000E+00 -0.00000000000E+00 -0.45593999997E+02  0.45594000000E+02  0.51100000000E-03 0.  1.
    9900012    2    1    2    0    0  0.45319176075E+01 -0.26715532150E+02  0.30313495765E+02  0.50528856370E+02  0.29999989421E+02 0.  0.
        -12    1    1    2    0    0 -0.45319176075E+01  0.26715532150E+02 -0.30313495765E+02  0.40659143630E+02  0.00000000000E+00 0.  1.
         11    1    3    3    0    0  0.26591915356E+01 -0.10625062564E+02  0.29929286387E+02  0.31870447722E+02  0.51100000000E-03 0. -1.
        -11    1    3    3    0    0 -0.31554196606E+01 -0.54453210467E+01 -0.20839495658E+01  0.66295580992E+01  0.51100000000E-03 0.  1.
         12    1    3    3    0    0  0.50281457324E+01 -0.10645148540E+02  0.24681589434E+01  0.12028850548E+02  0.00000000000E+00 0. -1.
</event>
<event>
 7    1  0.6889665E-012  0.5052886E+02  0.7816164E-02  0.1300439E+00
        -11   -1    0    0    0    0  0.00000000000E+00  0.00000000000E+00  0.45593999997E+02  0.45594000000E+02  0.51100000000E-03 0. -1.
         11   -1    0    0    0    0 -0.00000000000E+00 -0.00000000000E+00 -0.45593999997E+02  0.45594000000E+02  0.51100000000E-03 0.  1.
    9900012    2    1    2    0    0 -0.17501022239E+02  0.86134728587E+01 -0.35674754909E+02  0.50528857954E+02  0.29999994237E+02 0.  0.
         12    1    1    2    0    0  0.17501022239E+02 -0.86134728587E+01  0.35674754909E+02  0.40659142046E+02  0.00000000000E+00 0. -1.
         11    1    3    3    0    0 -0.89812742023E+01 -0.64703041178E+01 -0.19628145023E+02  0.22534245028E+02  0.51100000000E-03 0. -1.
        -11    1    3    3    0    0  0.33438147008E+01  0.89762555014E+01 -0.72378214461E+01  0.12005845207E+02  0.51100000000E-03 0.  1.
         12    1    3    3    0    0 -0.11863562738E+02  0.61075214751E+01 -0.88087884398E+01  0.15988767719E+02  0.00000000000E+00 0. -1.
</event>
<event>
 7    1  0.6889665E-012  0.5052888E+02  0.7816164E-02  0.1300439E+00
        -11   -1    0    0    0    0  0.00000000000E+00  0.00000000000E+00  0.45593999997E+02  0.45594000000E+02  0.51100000000E-03 0. -1.
         11   -1    0    0    0    0 -0.00000000000E+00 -0.00000000000E+00 -0.45593999997E+02  0.45594000000E+02  0.51100000000E-03 0.  1.
    9900012    2    1    2    0    0  0.30930374923E+02 -0.40777705268E+00  0.26387678743E+02  0.50528880919E+02  0.30000064040E+02 0.  0.
        -12    1    1    2    0    0 -0.30930374923E+02  0.40777705268E+00 -0.26387678743E+02  0.40659119081E+02  0.00000000000E+00 0.  1.
         11    1    3    3    0    0 -0.41236966659E+01 -0.42829905382E+01  0.88069173551E+01  0.10625943521E+02  0.51100000000E-03 0. -1.
        -11    1    3    3    0    0  0.16364511372E+02  0.42651516586E+01  0.61685492368E+01  0.18001104162E+02  0.51100000000E-03 0.  1.
         12    1    3    3    0    0  0.18689560217E+02 -0.38993817308E+00  0.11412212151E+02  0.21901833236E+02  0.00000000000E+00 0. -1.
</event>
<event>
 7    1  0.6889665E-012  0.5052887E+02  0.7816164E-02  0.1300439E+00
        -11   -1    0    0    0    0  0.00000000000E+00  0.00000000000E+00  0.45593999997E+02  0.45594000000E+02  0.51100000000E-03 0. -1.
         11   -1    0    0    0    0 -0.00000000000E+00 -0.00000000000E+00 -0.45593999997E+02  0.45594000000E+02  0.51100000000E-03 0.  1.
    9900012    2    1    2    0    0 -0.15413772743E+02  0.37083161426E+01 -0.37441009611E+02  0.50528865732E+02  0.30000017878E+02 0.  0.
         12    1    1    2    0    0  0.15413772743E+02 -0.37083161426E+01  0.37441009611E+02  0.40659134268E+02  0.00000000000E+00 0. -1.
         11    1    3    3    0    0  0.34518617803E+01  0.53589770235E+01 -0.28903570744E+01  0.69991534322E+01  0.51100000000E-03 0.  1.
        -11    1    3    3    0    0 -0.18614762467E+02 -0.51021869956E+01 -0.35069762964E+02  0.40030363082E+02  0.51100000000E-03 0. -1.
         12    1    3    3    0    0 -0.25087205598E+00  0.34515261146E+01  0.51911042828E+00  0.34993492174E+01  0.00000000000E+00 0. -1.
</event>
<event>
 7    1  0.6889665E-012  0.5052886E+02  0.7816164E-02  0.1300439E+00
        -11   -1    0    0    0    0  0.00000000000E+00  0.00000000000E+00  0.45593999997E+02  0.45594000000E+02  0.51100000000E-03 0. -1.
         11   -1    0    0    0    0 -0.00000000000E+00 -0.00000000000E+00 -0.45593999997E+02  0.45594000000E+02  0.51100000000E-03 0.  1.
    9900012    2    1    2    0    0 -0.12631864769E+02 -0.11583667541E+02  0.36870315146E+02  0.50528862033E+02  0.30000006636E+02 0.  0.
        -12    1    1    2    0    0  0.12631864769E+02  0.11583667541E+02 -0.36870315146E+02  0.40659137967E+02  0.00000000000E+00 0.  1.
         11    1    3    3    0    0 -0.60670573977E+01 -0.14232419510E+02  0.39761281273E+02  0.42665330648E+02  0.51100000000E-03 0. -1.
        -11    1    3    3    0    0 -0.31680776712E+01  0.36800253357E+00 -0.16328223252E+01  0.35830505163E+01  0.51100000000E-03 0.  1.
         12    1    3    3    0    0 -0.33967297003E+01  0.22807494354E+01 -0.12581438020E+01  0.42804808690E+01  0.00000000000E+00 0. -1.
</event>
<event>
 7    1  0.6889665E-012  0.5052887E+02  0.7816164E-02  0.1300439E+00
        -11   -1    0    0    0    0  0.00000000000E+00  0.00000000000E+00  0.45593999997E+02  0.45594000000E+02  0.51100000000E-03 0. -1.
         11   -1    0    0    0    0 -0.00000000000E+00 -0.00000000000E+00 -0.45593999997E+02  0.45594000000E+02  0.51100000000E-03 0.  1.
    9900012    2    1    2    0    0  0.11706540515E+01  0.91791840310E+01  0.39592135904E+02  0.50528867252E+02  0.30000022499E+02 0.  0.
        -12    1    1    2    0    0 -0.11706540515E+01 -0.91791840310E+01 -0.39592135904E+02  0.40659132748E+02  0.00000000000E+00 0.  1.
         11    1    3    3    0    0 -0.11279435888E+02  0.18436882275E+01  0.20341298026E+02  0.23332236624E+02  0.51100000000E-03 0. -1.
        -11    1    3    3    0    0  0.14904197527E+02  0.49958364049E+01  0.14701420511E+02  0.21522668297E+02  0.51100000000E-03 0.  1.
        -12    1    3    3    0    0 -0.24541075874E+01  0.23396593985E+01  0.45494173670E+01  0.56739623308E+01  0.00000000000E+00 0.  1.
</event>
<event>
 7    1  0.6889665E-012  0.5052889E+02  0.7816164E-02  0.1300439E+00
        -11   -1    0    0    0    0  0.00000000000E+00  0.00000000000E+00  0.45593999997E+02  0.45594000000E+02  0.51100000000E-03 0.  1.
         11   -1    0    0    0    0 -0.00000000000E+00 -0.00000000000E+00 -0.45593999997E+02  0.45594000000E+02  0.51100000000E-03 0. -1.
    9900012    2    1    2    0    0  0.25974182424E+02  0.26170480740E+02  0.17135092785E+02  0.50528885161E+02  0.30000076935E+02 0.  0.
        -12    1    1    2    0    0 -0.25974182424E+02 -0.26170480740E+02 -0.17135092785E+02  0.40659114839E+02  0.00000000000E+00 0.  1.
         11    1    3    3    0    0  0.17613957512E+02  0.10917316173E+02  0.58385824814E+01  0.21529708250E+02  0.51100000000E-03 0. -1.
        -11    1    3    3    0    0 -0.39088738995E+01  0.62217719119E+01  0.11634735585E+02  0.13760698139E+02  0.51100000000E-03 0.  1.
        -12    1    3    3    0    0  0.12269098811E+02  0.90313926552E+01 -0.33822528161E+00  0.15238478772E+02  0.00000000000E+00 0.  1.
</event>
<event>
 7    1  0.6889665E-012  0.5052886E+02  0.7816164E-02  0.1300439E+00
        -11   -1    0    0    0    0  0.00000000000E+00  0.00000000000E+00  0.45593999997E+02  0.45594000000E+02  0.51100000000E-03 0.  1.
         11   -1    0    0    0    0 -0.00000000000E+00 -0.00000000000E+00 -0.45593999997E+02  0.45594000000E+02  0.51100000000E-03 0. -1.
    9900012    2    1    2    0    0  0.12474308120E+02 -0.29943766854E+02  0.24513841222E+02  0.50528856527E+02  0.29999989900E+02 0.  0.
         12    1    1    2    0    0 -0.12474308120E+02  0.29943766854E+02 -0.24513841222E+02  0.40659143473E+02  0.00000000000E+00 0. -1.
         11    1    3    3    0    0 -0.44982220428E+01 -0.53957214154E-02  0.58247330489E+01  0.73594528338E+01  0.51100000000E-03 0. -1.
        -11    1    3    3    0    0  0.16375939088E+02 -0.10527978050E+02  0.85602970699E+01  0.21267072883E+02  0.51100000000E-03 0.  1.
         12    1    3    3    0    0  0.59659107442E+00 -0.19410393083E+02  0.10128811103E+02  0.21902330810E+02  0.00000000000E+00 0. -1.
</event>
<event>
 7    1  0.6889665E-012  0.5052886E+02  0.7816164E-02  0.1300439E+00
        -11   -1    0    0    0    0  0.00000000000E+00  0.00000000000E+00  0.45593999997E+02  0.45594000000E+02  0.51100000000E-03 0. -1.
         11   -1    0    0    0    0 -0.00000000000E+00 -0.00000000000E+00 -0.45593999997E+02  0.45594000000E+02  0.51100000000E-03 0.  1.
    9900012    2    1    2    0    0  0.34349097416E+02 -0.92250360762E+01  0.19702886485E+02  0.50528861793E+02  0.30000005907E+02 0.  0.
        -12    1    1    2    0    0 -0.34349097416E+02  0.92250360762E+01 -0.19702886485E+02  0.40659138207E+02  0.00000000000E+00 0.  1.
         11    1    3    3    0    0  0.27619571888E+02 -0.99866630914E+01  0.12601075720E+02  0.31958743726E+02  0.51100000000E-03 0. -1.
        -11    1    3    3    0    0  0.56156722814E+01  0.79040316757E+01  0.25425032347E+01  0.10023662747E+02  0.51100000000E-03 0.  1.
        -12    1    3    3    0    0  0.11138532460E+01 -0.71424046606E+01  0.45593075305E+01  0.85464553206E+01  0.00000000000E+00 0.  1.
</event>
<event>
 7    1  0.6889665E-012  0.5052887E+02  0.7816164E-02  0.1300439E+00
        -11   -1    0    0    0    0  0.00000000000E+00  0.00000000000E+00  0.45593999997E+02  0.45594000000E+02  0.51100000000E-03 0. -1.
         11   -1    0    0    0    0 -0.00000000000E+00 -0.00000000000E+00 -0.45593999997E+02  0.45594000000E+02  0.51100000000E-03 0.  1.
    9900012    2    1    2    0    0 -0.66946966223E+01 -0.13836735337E+02 -0.37641613291E+02  0.50528865002E+02  0.30000015659E+02 0.  0.
         12    1    1    2    0    0  0.66946966223E+01  0.13836735337E+02  0.37641613291E+02  0.40659134998E+02  0.00000000000E+00 0. -1.
         11    1    3    3    0    0 -0.58357632368E+01 -0.42525853587E+01  0.20267302373E+00  0.72236895977E+01  0.51100000000E-03 0. -1.
        -11    1    3    3    0    0 -0.19569656411E+01 -0.13003095612E+01 -0.34044566620E+02  0.34125548144E+02  0.51100000000E-03 0.  1.
        -12    1    3    3    0    0  0.10980322556E+01 -0.82838404166E+01 -0.37997196947E+01  0.91796272604E+01  0.00000000000E+00 0.  1.
</event>
<event>
 7    1  0.6889665E-012  0.5052885E+02  0.7816164E-02  0.1300439E+00
        -11   -1    0    0    0    0  0.00000000000E+00  0.00000000000E+00  0.45593999997E+02  0.45594000000E+02  0.51100000000E-03 0. -1.
         11   -1    0    0    0    0 -0.00000000000E+00 -0.00000000000E+00 -0.45593999997E+02  0.45594000000E+02  0.51100000000E-03 0.  1.
    9900012    2    1    2    0    0 -0.25535763486E+02 -0.30173977694E+02 -0.95195587041E+01  0.50528854108E+02  0.29999982547E+02 0.  0.
         12    1    1    2    0    0  0.25535763486E+02  0.30173977694E+02  0.95195587041E+01  0.40659145892E+02  0.00000000000E+00 0. -1.
         11    1    3    3    0    0 -0.87261009737E+01  0.53669600626E+01 -0.13955067866E+01  0.10339078197E+02  0.51100000000E-03 0. -1.
        -11    1    3    3    0    0 -0.13190120272E+02 -0.26117361853E+02 -0.57281036382E+01  0.29814544009E+02  0.51100000000E-03 0.  1.
         12    1    3    3    0    0 -0.36195422400E+01 -0.94235759045E+01 -0.23959482793E+01  0.10375231902E+02  0.00000000000E+00 0. -1.
</event>
<event>
 7    1  0.6889665E-012  0.5052887E+02  0.7816164E-02  0.1300439E+00
        -11   -1    0    0    0    0  0.00000000000E+00  0.00000000000E+00  0.45593999997E+02  0.45594000000E+02  0.51100000000E-03 0. -1.
         11   -1    0    0    0    0 -0.00000000000E+00 -0.00000000000E+00 -0.45593999997E+02  0.45594000000E+02  0.51100000000E-03 0.  1.
    9900012    2    1    2    0    0  0.19503570154E+02 -0.13647722568E+02  0.32962336301E+02  0.50528865793E+02  0.30000018065E+02 0.  0.
        -12    1    1    2    0    0 -0.19503570154E+02  0.13647722568E+02 -0.32962336301E+02  0.40659134207E+02  0.00000000000E+00 0.  1.
         11    1    3    3    0    0  0.14730483250E+02 -0.15035428770E+02  0.23265390761E+02  0.31374028472E+02  0.51100000000E-03 0. -1.
        -11    1    3    3    0    0  0.76434482911E+01  0.31584596139E+01 -0.62692214683E+00  0.82940460904E+01  0.51100000000E-03 0.  1.
        -12    1    3    3    0    0 -0.28703613867E+01 -0.17707534118E+01  0.10323867687E+02  0.10860791231E+02  0.00000000000E+00 0.  1.
</event>
<event>
 7    1  0.6889665E-012  0.5052886E+02  0.7816164E-02  0.1300439E+00
        -11   -1    0    0    0    0  0.00000000000E+00  0.00000000000E+00  0.45593999997E+02  0.45594000000E+02  0.51100000000E-03 0. -1.
         11   -1    0    0    0    0 -0.00000000000E+00 -0.00000000000E+00 -0.45593999997E+02  0.45594000000E+02  0.51100000000E-03 0.  1.
    9900012    2    1    2    0    0  0.40008667188E+01  0.71267736880E+01 -0.39829230226E+02  0.50528863042E+02  0.30000009704E+02 0.  0.
         12    1    1    2    0    0 -0.40008667188E+01 -0.71267736880E+01  0.39829230226E+02  0.40659136958E+02  0.00000000000E+00 0. -1.
         11    1    3    3    0    0  0.59283443458E+01 -0.79544007496E+01 -0.13478293554E+02  0.16735655211E+02  0.51100000000E-03 0. -1.
        -11    1    3    3    0    0 -0.75379782259E+01  0.98060284324E+01 -0.21148127038E+02  0.24499440541E+02  0.51100000000E-03 0.  1.
         12    1    3    3    0    0  0.56105005989E+01  0.52751460051E+01 -0.52028096344E+01  0.92937672898E+01  0.00000000000E+00 0. -1.
</event>
<event>
 7    1  0.6889665E-012  0.5052886E+02  0.7816164E-02  0.1300439E+00
        -11   -1    0    0    0    0  0.00000000000E+00  0.00000000000E+00  0.45593999997E+02  0.45594000000E+02  0.51100000000E-03 0. -1.
         11   -1    0    0    0    0 -0.00000000000E+00 -0.00000000000E+00 -0.45593999997E+02  0.45594000000E+02  0.51100000000E-03 0.  1.
    9900012    2    1    2    0    0  0.15982492847E+02 -0.37208723810E+01  0.37200548936E+02  0.50528858223E+02  0.29999995054E+02 0.  0.
        -12    1    1    2    0    0 -0.15982492847E+02  0.37208723810E+01 -0.37200548936E+02  0.40659141777E+02  0.00000000000E+00 0.  1.
         11    1    3    3    0    0  0.56432355754E+01 -0.14019751123E+02  0.71809531911E+01  0.16732173149E+02  0.51100000000E-03 0. -1.
        -11    1    3    3    0    0  0.44916149656E+01  0.67029390459E+01  0.20737031884E+02  0.22251482838E+02  0.51100000000E-03 0.  1.
         12    1    3    3    0    0  0.58476423064E+01  0.35959396957E+01  0.92825638610E+01  0.11545202236E+02  0.00000000000E+00 0. -1.
</event>
<event>
 7    1  0.6889665E-012  0.5052886E+02  0.7816164E-02  0.1300439E+00
        -11   -1    0    0    0    0  0.00000000000E+00  0.00000000000E+00  0.45593999997E+02  0.45594000000E+02  0.51100000000E-03 0.  1.
         11   -1    0    0    0    0 -0.00000000000E+00 -0.00000000000E+00 -0.45593999997E+02  0.45594000000E+02  0.51100000000E-03 0. -1.
    9900012    2    1    2    0    0 -0.35701111185E+02  0.12804924019E+02 -0.14650251905E+02  0.50528864497E+02  0.30000014125E+02 0.  0.
         12    1    1    2    0    0  0.35701111185E+02 -0.12804924019E+02  0.14650251905E+02  0.40659135503E+02  0.00000000000E+00 0. -1.
         11    1    3    3    0    0  0.18856093975E+00  0.13679318132E+01 -0.81494365057E+01  0.82655978789E+01  0.51100000000E-03 0. -1.
        -11    1    3    3    0    0 -0.19734601735E+02 -0.31229930272E+01 -0.22861078455E+01  0.20110541525E+02  0.51100000000E-03 0.  1.
        -12    1    3    3    0    0 -0.16155070389E+02  0.14559985233E+02 -0.42147075536E+01  0.22152725093E+02  0.00000000000E+00 0.  1.
</event>
<event>
 7    1  0.7050690E-012  0.5052879E+02  0.7816164E-02  0.1300439E+00
        -11   -1    0    0    0    0  0.00000000000E+00  0.00000000000E+00  0.45593999997E+02  0.45594000000E+02  0.51100000000E-03 0. -1.
         11   -1    0    0    0    0 -0.00000000000E+00 -0.00000000000E+00 -0.45593999997E+02  0.45594000000E+02  0.51100000000E-03 0.  1.
    9900012    2    1    2    0    0 -0.18777875041E+02  0.87982869715E+01 -0.34973598797E+02  0.50528793693E+02  0.29999798910E+02 0.  0.
         12    1    1    2    0    0  0.18777875041E+02 -0.87982869715E+01  0.34973598797E+02  0.40659206307E+02  0.00000000000E+00 0. -1.
         11    1    3    3    0    0 -0.12132455276E+01  0.89804948504E+01 -0.67200107548E+01  0.11281834836E+02  0.51100000000E-03 0. -1.
        -11    1    3    3    0    0 -0.17515048562E+01 -0.88405078932E+01 -0.11725667651E+02  0.14788969917E+02  0.51100000000E-03 0.  1.
        -12    1    3    3    0    0 -0.15813124657E+02  0.86583000144E+01 -0.16527920390E+02  0.24457988940E+02  0.00000000000E+00 0.  1.
</event>
<event>
 7    1  0.6889665E-012  0.5052886E+02  0.7816164E-02  0.1300439E+00
        -11   -1    0    0    0    0  0.00000000000E+00  0.00000000000E+00  0.45593999997E+02  0.45594000000E+02  0.51100000000E-03 0. -1.
         11   -1    0    0    0    0 -0.00000000000E+00 -0.00000000000E+00 -0.45593999997E+02  0.45594000000E+02  0.51100000000E-03 0.  1.
    9900012    2    1    2    0    0  0.32346111256E+02 -0.14685234385E+02  0.19779747347E+02  0.50528862928E+02  0.30000009355E+02 0.  0.
        -12    1    1    2    0    0 -0.32346111256E+02  0.14685234385E+02 -0.19779747347E+02  0.40659137072E+02  0.00000000000E+00 0.  1.
         11    1    3    3    0    0  0.91910393321E+01 -0.15229471765E+02  0.82104934165E+01  0.19591432225E+02  0.51100000000E-03 0. -1.
        -11    1    3    3    0    0  0.14866694443E+02  0.47930965152E+01 -0.57731961806E+00  0.15630920512E+02  0.51100000000E-03 0.  1.
         12    1    3    3    0    0  0.82883774813E+01 -0.42488591354E+01  0.12146573549E+02  0.15306510190E+02  0.00000000000E+00 0. -1.
</event>
<event>
 7    1  0.6889665E-012  0.5052891E+02  0.7816164E-02  0.1300439E+00
        -11   -1    0    0    0    0  0.00000000000E+00  0.00000000000E+00  0.45593999997E+02  0.45594000000E+02  0.51100000000E-03 0. -1.
         11   -1    0    0    0    0 -0.00000000000E+00 -0.00000000000E+00 -0.45593999997E+02  0.45594000000E+02  0.51100000000E-03 0.  1.
    9900012    2    1    2    0    0  0.26114550180E+01  0.35214862825E+02 -0.20155779365E+02  0.50528908730E+02  0.30000148574E+02 0.  0.
         12    1    1    2    0    0 -0.26114550180E+01 -0.35214862825E+02  0.20155779365E+02  0.40659091270E+02  0.00000000000E+00 0. -1.
         11    1    3    3    0    0  0.20156827489E+01  0.82485747126E+01 -0.12568943922E+02  0.15168398509E+02  0.51100000000E-03 0. -1.
        -11    1    3    3    0    0  0.80476904075E+01  0.13500346043E+02  0.38550975272E+01  0.16182905839E+02  0.51100000000E-03 0.  1.
        -12    1    3    3    0    0 -0.74519181383E+01  0.13465942070E+02 -0.11441932970E+02  0.19177604383E+02  0.00000000000E+00 0.  1.
</event>
<event>
 7    1  0.6889665E-012  0.5052884E+02  0.7816164E-02  0.1300439E+00
        -11   -1    0    0    0    0  0.00000000000E+00  0.00000000000E+00  0.45593999997E+02  0.45594000000E+02  0.51100000000E-03 0. -1.
         11   -1    0    0    0    0 -0.00000000000E+00 -0.00000000000E+00 -0.45593999997E+02  0.45594000000E+02  0.51100000000E-03 0.  1.
    9900012    2    1    2    0    0  0.13026482383E+02  0.25796159320E+02 -0.28601339058E+02  0.50528835291E+02  0.29999925350E+02 0.  0.
         12    1    1    2    0    0 -0.13026482383E+02 -0.25796159320E+02  0.28601339058E+02  0.40659164709E+02  0.00000000000E+00 0. -1.
         11    1    3    3    0    0 -0.19528733248E+01 -0.95693012545E-01  0.30222643091E+01  0.35995768071E+01  0.51100000000E-03 0. -1.
        -11    1    3    3    0    0  0.13585669968E+02  0.22853491587E+02 -0.33752558331E+02  0.42966122705E+02  0.51100000000E-03 0.  1.
         12    1    3    3    0    0  0.13936857400E+01  0.30383607452E+01  0.21289549634E+01  0.39631357781E+01  0.00000000000E+00 0. -1.
</event>
<event>
 7    1  0.6889665E-012  0.5052884E+02  0.7816164E-02  0.1300439E+00
        -11   -1    0    0    0    0  0.00000000000E+00  0.00000000000E+00  0.45593999997E+02  0.45594000000E+02  0.51100000000E-03 0. -1.
         11   -1    0    0    0    0 -0.00000000000E+00 -0.00000000000E+00 -0.45593999997E+02  0.45594000000E+02  0.51100000000E-03 0.  1.
    9900012    2    1    2    0    0 -0.24675757752E+02  0.15090683585E+02 -0.28575256151E+02  0.50528843395E+02  0.29999949985E+02 0.  0.
         12    1    1    2    0    0  0.24675757752E+02 -0.15090683585E+02  0.28575256151E+02  0.40659156605E+02  0.00000000000E+00 0. -1.
         11    1    3    3    0    0 -0.71474934167E+01  0.91333900581E+01  0.26105439283E+01  0.11887826377E+02  0.51100000000E-03 0. -1.
        -11    1    3    3    0    0 -0.63785997510E+01 -0.21340597483E+00 -0.22066349040E+02  0.22970760482E+02  0.51100000000E-03 0.  1.
        -12    1    3    3    0    0 -0.11149664584E+02  0.61706995021E+01 -0.91194510389E+01  0.15670256537E+02  0.00000000000E+00 0.  1.
</event>
<event>
 7    1  0.6889665E-012  0.5052887E+02  0.7816164E-02  0.1300439E+00
        -11   -1    0    0    0    0  0.00000000000E+00  0.00000000000E+00  0.45593999997E+02  0.45594000000E+02  0.51100000000E-03 0. -1.
         11   -1    0    0    0    0 -0.00000000000E+00 -0.00000000000E+00 -0.45593999997E+02  0.45594000000E+02  0.51100000000E-03 0.  1.
    9900012    2    1    2    0    0  0.54788498113E+01  0.11117246918E+02 -0.38724073551E+02  0.50528870070E+02  0.30000031065E+02 0.  0.
         12    1    1    2    0    0 -0.54788498113E+01 -0.11117246918E+02  0.38724073551E+02  0.40659129930E+02  0.00000000000E+00 0. -1.
         11    1    3    3    0    0 -0.39799541432E+01 -0.40353281664E+01 -0.64481009942E+01  0.85849819502E+01  0.51100000000E-03 0. -1.
        -11    1    3    3    0    0  0.24611259823E+01  0.17641662570E+02 -0.28508599170E+02  0.33615853793E+02  0.51100000000E-03 0.  1.
        -12    1    3    3    0    0  0.69976779722E+01 -0.24890874859E+01 -0.37673733862E+01  0.83280343267E+01  0.00000000000E+00 0.  1.
</event>
<event>
 7    1  0.6889665E-012  0.5052885E+02  0.7816164E-02  0.1300439E+00
        -11   -1    0    0    0    0  0.00000000000E+00  0.00000000000E+00  0.45593999997E+02  0.45594000000E+02  0.51100000000E-03 0. -1.
         11   -1    0    0    0    0 -0.00000000000E+00 -0.00000000000E+00 -0.45593999997E+02  0.45594000000E+02  0.51100000000E-03 0.  1.
    9900012    2    1    2    0    0 -0.26311122147E+02 -0.97153100942E+01  0.29436436289E+02  0.50528853670E+02  0.29999981215E+02 0.  0.
        -12    1    1    2    0    0  0.26311122147E+02  0.97153100942E+01 -0.29436436289E+02  0.40659146330E+02  0.00000000000E+00 0.  1.
         11    1    3    3    0    0 -0.18237453268E+02 -0.89980840593E+01  0.24303018929E+02  0.31689224474E+02  0.51100000000E-03 0. -1.
        -11    1    3    3    0    0 -0.10363294164E+02 -0.41067935904E+01 -0.12927535063E+01  0.11222068946E+02  0.51100000000E-03 0.  1.
         12    1    3    3    0    0  0.22896252851E+01  0.33895675555E+01  0.64261708664E+01  0.76175602501E+01  0.00000000000E+00 0. -1.
</event>
<event>
 7    1  0.6889665E-012  0.5052886E+02  0.7816164E-02  0.1300439E+00
        -11   -1    0    0    0    0  0.00000000000E+00  0.00000000000E+00  0.45593999997E+02  0.45594000000E+02  0.51100000000E-03 0.  1.
         11   -1    0    0    0    0 -0.00000000000E+00 -0.00000000000E+00 -0.45593999997E+02  0.45594000000E+02  0.51100000000E-03 0. -1.
    9900012    2    1    2    0    0  0.27954998919E+01  0.39345223701E+02  0.98642762520E+01  0.50528863343E+02  0.30000010617E+02 0.  0.
         12    1    1    2    0    0 -0.27954998919E+01 -0.39345223701E+02 -0.98642762520E+01  0.40659136657E+02  0.00000000000E+00 0. -1.
         11    1    3    3    0    0  0.13733347896E+02  0.15264676538E+02  0.98104762480E+01  0.22756551556E+02  0.51100000000E-03 0. -1.
        -11    1    3    3    0    0 -0.56413070190E+01  0.19774518113E+02  0.20366783048E+01  0.20664074387E+02  0.51100000000E-03 0.  1.
         12    1    3    3    0    0 -0.52965409846E+01  0.43060290497E+01 -0.19828783007E+01  0.71082374000E+01  0.00000000000E+00 0. -1.
</event>
<event>
 7    1  0.6889665E-012  0.5052886E+02  0.7816164E-02  0.1300439E+00
        -11   -1    0    0    0    0  0.00000000000E+00  0.00000000000E+00  0.45593999997E+02  0.45594000000E+02  0.51100000000E-03 0. -1.
         11   -1    0    0    0    0 -0.00000000000E+00 -0.00000000000E+00 -0.45593999997E+02  0.45594000000E+02  0.51100000000E-03 0.  1.
    9900012    2    1    2    0    0  0.48704712921E+01  0.32686509586E+02 -0.23686210226E+02  0.50528856448E+02  0.29999989660E+02 0.  0.
         12    1    1    2    0    0 -0.48704712921E+01 -0.32686509586E+02  0.23686210226E+02  0.40659143552E+02  0.00000000000E+00 0. -1.
         11    1    3    3    0    0  0.14341354540E+02  0.79042214821E+01 -0.11956452574E+02  0.20275796549E+02  0.51100000000E-03 0.  1.
        -11    1    3    3    0    0 -0.66984380235E+01  0.15237567490E+02 -0.27745159263E+01  0.16874551071E+02  0.51100000000E-03 0. -1.
        -12    1    3    3    0    0 -0.27724452241E+01  0.95447206134E+01 -0.89552417257E+01  0.13378508829E+02  0.00000000000E+00 0.  1.
</event>
<event>
 7    1  0.6948448E-012  0.5052886E+02  0.7816164E-02  0.1300439E+00
        -11   -1    0    0    0    0  0.00000000000E+00  0.00000000000E+00  0.45593999997E+02  0.45594000000E+02  0.51100000000E-03 0.  1.
         11   -1    0    0    0    0 -0.00000000000E+00 -0.00000000000E+00 -0.45593999997E+02  0.45594000000E+02  0.51100000000E-03 0. -1.
    9900012    2    1    2    0    0 -0.15606038794E+02 -0.87465052183E+01 -0.36511860561E+02  0.50528858814E+02  0.29999996851E+02 0.  0.
         12    1    1    2    0    0  0.15606038794E+02  0.87465052183E+01  0.36511860561E+02  0.40659141186E+02  0.00000000000E+00 0. -1.
         11    1    3    3    0    0 -0.18717007955E+01 -0.48019244959E+01  0.24003141480E+01  0.56853540789E+01  0.51100000000E-03 0. -1.
        -11    1    3    3    0    0 -0.42462799102E+01  0.32779629628E+00 -0.32156334812E+02  0.32437142481E+02  0.51100000000E-03 0.  1.
        -12    1    3    3    0    0 -0.94880580886E+01 -0.42723770187E+01 -0.67558398963E+01  0.12406362254E+02  0.00000000000E+00 0.  1.
</event>
<event>
 7    1  0.6889665E-012  0.5052885E+02  0.7816164E-02  0.1300439E+00
        -11   -1    0    0    0    0  0.00000000000E+00  0.00000000000E+00  0.45593999997E+02  0.45594000000E+02  0.51100000000E-03 0. -1.
         11   -1    0    0    0    0 -0.00000000000E+00 -0.00000000000E+00 -0.45593999997E+02  0.45594000000E+02  0.51100000000E-03 0.  1.
    9900012    2    1    2    0    0 -0.26067881469E+02 -0.46142559592E+01 -0.30860012981E+02  0.50528853384E+02  0.29999980346E+02 0.  0.
         12    1    1    2    0    0  0.26067881469E+02  0.46142559592E+01  0.30860012981E+02  0.40659146616E+02  0.00000000000E+00 0. -1.
         11    1    3    3    0    0  0.90493716240E+00 -0.90079789296E+01 -0.15695074128E+02  0.18118994117E+02  0.51100000000E-03 0.  1.
        -11    1    3    3    0    0 -0.26370768197E+02  0.42120300223E+01 -0.12166013175E+02  0.29345706484E+02  0.51100000000E-03 0. -1.
         12    1    3    3    0    0 -0.60205043436E+00  0.18169294810E+00 -0.29989256783E+01  0.30641527828E+01  0.00000000000E+00 0. -1.
</event>
<event>
 7    1  0.6889665E-012  0.5052887E+02  0.7816164E-02  0.1300439E+00
        -11   -1    0    0    0    0  0.00000000000E+00  0.00000000000E+00  0.45593999997E+02  0.45594000000E+02  0.51100000000E-03 0. -1.
         11   -1    0    0    0    0 -0.00000000000E+00 -0.00000000000E+00 -0.45593999997E+02  0.45594000000E+02  0.51100000000E-03 0.  1.
    9900012    2    1    2    0    0 -0.20512053363E+02 -0.29606559581E+01 -0.34980782926E+02  0.50528868295E+02  0.30000025670E+02 0.  0.
         12    1    1    2    0    0  0.20512053363E+02  0.29606559581E+01  0.34980782926E+02  0.40659131705E+02  0.00000000000E+00 0. -1.
         11    1    3    3    0    0  0.24188476598E+00 -0.31142950312E+01  0.83872937159E+00  0.32343173934E+01  0.51100000000E-03 0. -1.
        -11    1    3    3    0    0 -0.71483252208E+01  0.94991456085E+01 -0.62527117915E+01  0.13432376028E+02  0.51100000000E-03 0.  1.
        -12    1    3    3    0    0 -0.13605612908E+02 -0.93455065354E+01 -0.29566800506E+02  0.33862174874E+02  0.00000000000E+00 0.  1.
</event>
<event>
 7    1  0.6889665E-012  0.5052889E+02  0.7816164E-02  0.1300439E+00
        -11   -1    0    0    0    0  0.00000000000E+00  0.00000000000E+00  0.45593999997E+02  0.45594000000E+02  0.51100000000E-03 0. -1.
         11   -1    0    0    0    0 -0.00000000000E+00 -0.00000000000E+00 -0.45593999997E+02  0.45594000000E+02  0.51100000000E-03 0.  1.
    9900012    2    1    2    0    0 -0.11384071268E+02  0.26575182294E+02 -0.28588915329E+02  0.50528886971E+02  0.30000082438E+02 0.  0.
         12    1    1    2    0    0  0.11384071268E+02 -0.26575182294E+02  0.28588915329E+02  0.40659113029E+02  0.00000000000E+00 0. -1.
         11    1    3    3    0    0  0.48398458770E+01  0.26063438656E+00 -0.26156865864E+01  0.55076179039E+01  0.51100000000E-03 0. -1.
        -11    1    3    3    0    0 -0.18144603451E+02  0.26419683253E+02 -0.27756176208E+02  0.42398486005E+02  0.51100000000E-03 0.  1.
        -12    1    3    3    0    0  0.19206863060E+01 -0.10513534510E+00  0.17829474657E+01  0.26227830624E+01  0.00000000000E+00 0.  1.
</event>
<event>
 7    1  0.6889665E-012  0.5052886E+02  0.7816164E-02  0.1300439E+00
        -11   -1    0    0    0    0  0.00000000000E+00  0.00000000000E+00  0.45593999997E+02  0.45594000000E+02  0.51100000000E-03 0. -1.
         11   -1    0    0    0    0 -0.00000000000E+00 -0.00000000000E+00 -0.45593999997E+02  0.45594000000E+02  0.51100000000E-03 0.  1.
    9900012    2    1    2    0    0  0.75098108312E+01 -0.10319442616E+02 -0.38604110999E+02  0.50528861536E+02  0.30000005125E+02 0.  0.
         12    1    1    2    0    0 -0.75098108312E+01  0.10319442616E+02  0.38604110999E+02  0.40659138464E+02  0.00000000000E+00 0. -1.
         11    1    3    3    0    0 -0.32333964303E+01  0.33134301431E+01  0.38920677158E+00  0.46459825613E+01  0.51100000000E-03 0. -1.
        -11    1    3    3    0    0 -0.21195306850E+00 -0.13170485159E+02 -0.19884526446E+02  0.23851645555E+02  0.51100000000E-03 0.  1.
         12    1    3    3    0    0  0.10955160330E+02 -0.46238760064E+00 -0.19108791324E+02  0.22031233420E+02  0.00000000000E+00 0. -1.
</event>
<event>
 7    1  0.6889665E-012  0.5052885E+02  0.7816164E-02  0.1300439E+00
        -11   -1    0    0    0    0  0.00000000000E+00  0.00000000000E+00  0.45593999997E+02  0.45594000000E+02  0.51100000000E-03 0.  1.
         11   -1    0    0    0    0 -0.00000000000E+00 -0.00000000000E+00 -0.45593999997E+02  0.45594000000E+02  0.51100000000E-03 0. -1.
    9900012    2    1    2    0    0  0.16246212353E+01 -0.25686350948E+02  0.31475993057E+02  0.50528853943E+02  0.29999982045E+02 0.  0.
        -12    1    1    2    0    0 -0.16246212353E+01  0.25686350948E+02 -0.31475993057E+02  0.40659146057E+02  0.00000000000E+00 0.  1.
         11    1    3    3    0    0 -0.64569576319E+01 -0.12275248904E+02 -0.17178597592E+00  0.13870960608E+02  0.51100000000E-03 0. -1.
        -11    1    3    3    0    0  0.46721243968E+01 -0.23794153511E+01  0.36952891942E+01  0.64144778651E+01  0.51100000000E-03 0.  1.
         12    1    3    3    0    0  0.34094544703E+01 -0.11031686693E+02  0.27952489838E+02  0.30243415469E+02  0.00000000000E+00 0. -1.
</event>
<event>
 7    1  0.6889665E-012  0.5052887E+02  0.7816164E-02  0.1300439E+00
        -11   -1    0    0    0    0  0.00000000000E+00  0.00000000000E+00  0.45593999997E+02  0.45594000000E+02  0.51100000000E-03 0. -1.
         11   -1    0    0    0    0 -0.00000000000E+00 -0.00000000000E+00 -0.45593999997E+02  0.45594000000E+02  0.51100000000E-03 0.  1.
    9900012    2    1    2    0    0 -0.51285403094E+01  0.29692548540E+02  0.27298637157E+02  0.50528868736E+02  0.30000027009E+02 0.  0.
        -12    1    1    2    0    0  0.51285403094E+01 -0.29692548540E+02 -0.27298637157E+02  0.40659131264E+02  0.00000000000E+00 0.  1.
         11    1    3    3    0    0 -0.60222281166E+01  0.22888024600E+02  0.82513714086E+01  0.25064198211E+02  0.51100000000E-03 0. -1.
        -11    1    3    3    0    0 -0.54381377105E+01 -0.13685233755E+01  0.11058384756E+02  0.12398954458E+02  0.51100000000E-03 0.  1.
        -12    1    3    3    0    0  0.63318255177E+01  0.81730473156E+01  0.79888809926E+01  0.13065716066E+02  0.00000000000E+00 0.  1.
</event>
<event>
 7    1  0.6889665E-012  0.5052887E+02  0.7816164E-02  0.1300439E+00
        -11   -1    0    0    0    0  0.00000000000E+00  0.00000000000E+00  0.45593999997E+02  0.45594000000E+02  0.51100000000E-03 0. -1.
         11   -1    0    0    0    0 -0.00000000000E+00 -0.00000000000E+00 -0.45593999997E+02  0.45594000000E+02  0.51100000000E-03 0.  1.
    9900012    2    1    2    0    0 -0.24747702740E+02 -0.17627946214E+02 -0.27017984545E+02  0.50528871043E+02  0.30000034023E+02 0.  0.
         12    1    1    2    0    0  0.24747702740E+02  0.17627946214E+02  0.27017984545E+02  0.40659128957E+02  0.00000000000E+00 0. -1.
         11    1    3    3    0    0 -0.65259537193E+01 -0.19711076120E+02 -0.13838659999E+02  0.24952416809E+02  0.51100000000E-03 0. -1.
        -11    1    3    3    0    0 -0.10815321401E+02  0.22661669498E+01 -0.14312209818E+02  0.18081649255E+02  0.51100000000E-03 0.  1.
         12    1    3    3    0    0 -0.74064276200E+01 -0.18303704411E+00  0.11328852714E+01  0.74948049800E+01  0.00000000000E+00 0. -1.
</event>
<event>
 7    1  0.6889665E-012  0.5052886E+02  0.7816164E-02  0.1300439E+00
        -11   -1    0    0    0    0  0.00000000000E+00  0.00000000000E+00  0.45593999997E+02  0.45594000000E+02  0.51100000000E-03 0. -1.
         11   -1    0    0    0    0 -0.00000000000E+00 -0.00000000000E+00 -0.45593999997E+02  0.45594000000E+02  0.51100000000E-03 0.  1.
    9900012    2    1    2    0    0  0.17940657810E+02 -0.72310355674E+01  0.35763256050E+02  0.50528861281E+02  0.30000004350E+02 0.  0.
        -12    1    1    2    0    0 -0.17940657810E+02  0.72310355674E+01 -0.35763256050E+02  0.40659138719E+02  0.00000000000E+00 0.  1.
         11    1    3    3    0    0 -0.61239225603E+01 -0.32309420014E+00  0.43194303364E+00  0.61476330756E+01  0.51100000000E-03 0. -1.
        -11    1    3    3    0    0  0.11524427573E+02  0.16990664528E+01  0.15324475697E+02  0.19249384752E+02  0.51100000000E-03 0.  1.
         12    1    3    3    0    0  0.12540152798E+02 -0.86070078201E+01  0.20006837320E+02  0.25131843453E+02  0.00000000000E+00 0. -1.
</event>
<event>
 7    1  0.6889665E-012  0.5052884E+02  0.7816164E-02  0.1300439E+00
        -11   -1    0    0    0    0  0.00000000000E+00  0.00000000000E+00  0.45593999997E+02  0.45594000000E+02  0.51100000000E-03 0. -1.
         11   -1    0    0    0    0 -0.00000000000E+00 -0.00000000000E+00 -0.45593999997E+02  0.45594000000E+02  0.51100000000E-03 0.  1.
    9900012    2    1    2    0    0  0.39814972576E+02  0.82137595330E+01 -0.68486461070E+00  0.50528844495E+02  0.29999953326E+02 0.  0.
        -12    1    1    2    0    0 -0.39814972576E+02 -0.82137595330E+01  0.68486461070E+00  0.40659155505E+02  0.00000000000E+00 0.  1.
         11    1    3    3    0    0  0.19563717464E+02  0.16827874546E+02  0.17638378101E+01  0.25865566432E+02  0.51100000000E-03 0. -1.
        -11    1    3    3    0    0  0.14339684353E+02 -0.75788063353E+01  0.30732653101E+01  0.16507871236E+02  0.51100000000E-03 0.  1.
        -12    1    3    3    0    0  0.59115707586E+01 -0.10353086778E+01 -0.55219677308E+01  0.81554068269E+01  0.00000000000E+00 0.  1.
</event>
<event>
 7    1  0.6889665E-012  0.5052885E+02  0.7816164E-02  0.1300439E+00
        -11   -1    0    0    0    0  0.00000000000E+00  0.00000000000E+00  0.45593999997E+02  0.45594000000E+02  0.51100000000E-03 0. -1.
         11   -1    0    0    0    0 -0.00000000000E+00 -0.00000000000E+00 -0.45593999997E+02  0.45594000000E+02  0.51100000000E-03 0.  1.
    9900012    2    1    2    0    0 -0.34272184022E+01  0.84273010424E+01  0.39628284000E+02  0.50528854391E+02  0.29999983408E+02 0.  0.
        -12    1    1    2    0    0  0.34272184022E+01 -0.84273010424E+01 -0.39628284000E+02  0.40659145609E+02  0.00000000000E+00 0.  1.
         11    1    3    3    0    0  0.67349539113E+01  0.81824810178E+00  0.20903548905E+02  0.21976976389E+02  0.51100000000E-03 0. -1.
        -11    1    3    3    0    0 -0.13963155531E+02  0.64739918849E+01  0.19143149293E+02  0.24563030115E+02  0.51100000000E-03 0.  1.
        -12    1    3    3    0    0  0.38009832178E+01  0.11350610557E+01 -0.41841419807E+00  0.39888478867E+01  0.00000000000E+00 0.  1.
</event>
<event>
 7    1  0.6889665E-012  0.5052885E+02  0.7816164E-02  0.1300439E+00
        -11   -1    0    0    0    0  0.00000000000E+00  0.00000000000E+00  0.45593999997E+02  0.45594000000E+02  0.51100000000E-03 0. -1.
         11   -1    0    0    0    0 -0.00000000000E+00 -0.00000000000E+00 -0.45593999997E+02  0.45594000000E+02  0.51100000000E-03 0.  1.
    9900012    2    1    2    0    0  0.33927325775E+02 -0.54093164346E+01 -0.21744939115E+02  0.50528849546E+02  0.29999968681E+02 0.  0.
         12    1    1    2    0    0 -0.33927325775E+02  0.54093164346E+01  0.21744939115E+02  0.40659150454E+02  0.00000000000E+00 0. -1.
         11    1    3    3    0    0  0.42130781786E+01  0.56423000851E+01 -0.16387953097E+02  0.17836776193E+02  0.51100000000E-03 0.  1.
        -11    1    3    3    0    0  0.43724220853E+01 -0.33733307013E+01  0.58721919734E+00  0.55535809672E+01  0.51100000000E-03 0. -1.
         12    1    3    3    0    0  0.25341825511E+02 -0.76782858185E+01 -0.59442052144E+01  0.27138492386E+02  0.00000000000E+00 0. -1.
</event>
<event>
 7    1  0.6889665E-012  0.5052886E+02  0.7816164E-02  0.1300439E+00
        -11   -1    0    0    0    0  0.00000000000E+00  0.00000000000E+00  0.45593999997E+02  0.45594000000E+02  0.51100000000E-03 0. -1.
         11   -1    0    0    0    0 -0.00000000000E+00 -0.00000000000E+00 -0.45593999997E+02  0.45594000000E+02  0.51100000000E-03 0.  1.
    9900012    2    1    2    0    0 -0.31955614323E+02 -0.17805367053E+02 -0.17747494475E+02  0.50528856590E+02  0.29999990091E+02 0.  0.
         12    1    1    2    0    0  0.31955614323E+02  0.17805367053E+02  0.17747494475E+02  0.40659143410E+02  0.00000000000E+00 0. -1.
         11    1    3    3    0    0 -0.43068493208E+01  0.37908504416E+01  0.42972625903E+01  0.71684003915E+01  0.51100000000E-03 0. -1.
        -11    1    3    3    0    0 -0.12909586700E+02 -0.17789020819E+02 -0.11192932229E+02  0.24665531062E+02  0.51100000000E-03 0.  1.
        -12    1    3    3    0    0 -0.14739178303E+02 -0.38071966764E+01 -0.10851824837E+02  0.18694925136E+02  0.00000000000E+00 0.  1.
</event>
<event>
 7    1  0.6889665E-012  0.5052885E+02  0.7816164E-02  0.1300439E+00
        -11   -1    0    0    0    0  0.00000000000E+00  0.00000000000E+00  0.45593999997E+02  0.45594000000E+02  0.51100000000E-03 0.  1.
         11   -1    0    0    0    0 -0.00000000000E+00 -0.00000000000E+00 -0.45593999997E+02  0.45594000000E+02  0.51100000000E-03 0. -1.
    9900012    2    1    2    0    0  0.30866362348E+02 -0.25776533948E+02  0.60003675227E+01  0.50528850509E+02  0.29999971606E+02 0.  0.
         12    1    1    2    0    0 -0.30866362348E+02  0.25776533948E+02 -0.60003675227E+01  0.40659149491E+02  0.00000000000E+00 0. -1.
         11    1    3    3    0    0  0.31307360014E+02 -0.11437707456E+02 -0.10513340721E+01  0.33347822215E+02  0.51100000000E-03 0. -1.
        -11    1    3    3    0    0  0.17598391546E+01 -0.12537631240E+02  0.47496509268E+01  0.13522145360E+02  0.51100000000E-03 0.  1.
         12    1    3    3    0    0 -0.22008368205E+01 -0.18011952518E+01  0.23020506680E+01  0.36588829338E+01  0.00000000000E+00 0. -1.
</event>
<event>
 7    1  0.6889665E-012  0.5052886E+02  0.7816164E-02  0.1300439E+00
        -11   -1    0    0    0    0  0.00000000000E+00  0.00000000000E+00  0.45593999997E+02  0.45594000000E+02  0.51100000000E-03 0. -1.
         11   -1    0    0    0    0 -0.00000000000E+00 -0.00000000000E+00 -0.45593999997E+02  0.45594000000E+02  0.51100000000E-03 0.  1.
    9900012    2    1    2    0    0 -0.12811468778E+02 -0.32360672942E+01  0.38452042533E+02  0.50528862789E+02  0.30000008934E+02 0.  0.
        -12    1    1    2    0    0  0.12811468778E+02  0.32360672942E+01 -0.38452042533E+02  0.40659137211E+02  0.00000000000E+00 0.  1.
         11    1    3    3    0    0  0.53930725165E+00  0.69064419266E+01  0.29116213809E+02  0.29928977584E+02  0.51100000000E-03 0. -1.
        -11    1    3    3    0    0 -0.10816353364E+02 -0.63175834398E+01  0.31824891138E+01  0.12924147858E+02  0.51100000000E-03 0.  1.
         12    1    3    3    0    0 -0.25344226657E+01 -0.38249257810E+01  0.61533396102E+01  0.76757373481E+01  0.00000000000E+00 0. -1.
</event>
<event>
 7    1  0.6889665E-012  0.5052886E+02  0.7816164E-02  0.1300439E+00
        -11   -1    0    0    0    0  0.00000000000E+00  0.00000000000E+00  0.45593999997E+02  0.45594000000E+02  0.51100000000E-03 0. -1.
         11   -1    0    0    0    0 -0.00000000000E+00 -0.00000000000E+00 -0.45593999997E+02  0.45594000000E+02  0.51100000000E-03 0.  1.
    9900012    2    1    2    0    0 -0.18869118818E+02 -0.15937470394E+02  0.32297349734E+02  0.50528863175E+02  0.30000010108E+02 0.  0.
        -12    1    1    2    0    0  0.18869118818E+02  0.15937470394E+02 -0.32297349734E+02  0.40659136825E+02  0.00000000000E+00 0.  1.
         11    1    3    3    0    0 -0.14178867314E+01  0.20918019824E+01  0.11555218151E+02  0.11828317931E+02  0.51100000000E-03 0. -1.
        -11    1    3    3    0    0 -0.37332122031E+01 -0.18097753702E+02  0.86057498408E+01  0.20384417897E+02  0.51100000000E-03 0.  1.
        -12    1    3    3    0    0 -0.13718019883E+02  0.68481325617E-01  0.12136381742E+02  0.18316127347E+02  0.00000000000E+00 0.  1.
</event>
<event>
 7    1  0.6889665E-012  0.5052886E+02  0.7816164E-02  0.1300439E+00
        -11   -1    0    0    0    0  0.00000000000E+00  0.00000000000E+00  0.45593999997E+02  0.45594000000E+02  0.51100000000E-03 0. -1.
         11   -1    0    0    0    0 -0.00000000000E+00 -0.00000000000E+00 -0.45593999997E+02  0.45594000000E+02  0.51100000000E-03 0.  1.
    9900012    2    1    2    0    0  0.38441449243E+02 -0.42760686524E+01  0.12535372466E+02  0.50528863931E+02  0.30000012405E+02 0.  0.
        -12    1    1    2    0    0 -0.38441449243E+02  0.42760686524E+01 -0.12535372466E+02  0.40659136069E+02  0.00000000000E+00 0.  1.
         11    1    3    3    0    0  0.83421943340E+01 -0.39815876394E+01  0.92666157305E+01  0.13088751422E+02  0.51100000000E-03 0. -1.
        -11    1    3    3    0    0 -0.28534841713E+01 -0.50205136246E+00 -0.26885601895E+01  0.39525667155E+01  0.51100000000E-03 0.  1.
        -12    1    3    3    0    0  0.32952739080E+02  0.20757034948E+00  0.59573169253E+01  0.33487545793E+02  0.00000000000E+00 0.  1.
</event>
<event>
 7    1  0.6889665E-012  0.5052886E+02  0.7816164E-02  0.1300439E+00
        -11   -1    0    0    0    0  0.00000000000E+00  0.00000000000E+00  0.45593999997E+02  0.45594000000E+02  0.51100000000E-03 0. -1.
         11   -1    0    0    0    0 -0.00000000000E+00 -0.00000000000E+00 -0.45593999997E+02  0.45594000000E+02  0.51100000000E-03 0.  1.
    9900012    2    1    2    0    0  0.19780708181E+02  0.36964344505E+01  0.35330231523E+02  0.50528864455E+02  0.30000013998E+02 0.  0.
        -12    1    1    2    0    0 -0.19780708181E+02 -0.36964344505E+01 -0.35330231523E+02  0.40659135545E+02  0.00000000000E+00 0.  1.
         11    1    3    3    0    0 -0.45267844136E+00  0.71361457838E+01  0.19987080788E+02  0.21227644549E+02  0.51100000000E-03 0. -1.
        -11    1    3    3    0    0  0.80094276342E+01 -0.38461144437E+01 -0.94183832994E+00  0.89347964186E+01  0.51100000000E-03 0.  1.
        -12    1    3    3    0    0  0.12223958988E+02  0.40640311039E+00  0.16284989065E+02  0.20366423488E+02  0.00000000000E+00 0.  1.
</event>
<event>
 7    1  0.6889665E-012  0.5052885E+02  0.7816164E-02  0.1300439E+00
        -11   -1    0    0    0    0  0.00000000000E+00  0.00000000000E+00  0.45593999997E+02  0.45594000000E+02  0.51100000000E-03 0.  1.
         11   -1    0    0    0    0 -0.00000000000E+00 -0.00000000000E+00 -0.45593999997E+02  0.45594000000E+02  0.51100000000E-03 0. -1.
    9900012    2    1    2    0    0 -0.17870998978E+02  0.36470240702E+02 -0.19274455158E+01  0.50528854564E+02  0.29999983933E+02 0.  0.
         12    1    1    2    0    0  0.17870998978E+02 -0.36470240702E+02  0.19274455158E+01  0.40659145436E+02  0.00000000000E+00 0. -1.
         11    1    3    3    0    0  0.40276853111E+01  0.99109668478E+01  0.88629221228E+01  0.13892476440E+02  0.51100000000E-03 0. -1.
        -11    1    3    3    0    0 -0.70980725570E+01  0.50935676887E+01 -0.44423701498E+01  0.98011080309E+01  0.51100000000E-03 0.  1.
         12    1    3    3    0    0 -0.14800611732E+02  0.21465706166E+02 -0.63479974888E+01  0.26835270093E+02  0.00000000000E+00 0. -1.
</event>
<event>
 7    1  0.6889665E-012  0.5052886E+02  0.7816164E-02  0.1300439E+00
        -11   -1    0    0    0    0  0.00000000000E+00  0.00000000000E+00  0.45593999997E+02  0.45594000000E+02  0.51100000000E-03 0. -1.
         11   -1    0    0    0    0 -0.00000000000E+00 -0.00000000000E+00 -0.45593999997E+02  0.45594000000E+02  0.51100000000E-03 0.  1.
    9900012    2    1    2    0    0 -0.81569639123E+01 -0.15274614315E+02 -0.36787435886E+02  0.50528863981E+02  0.30000012558E+02 0.  0.
         12    1    1    2    0    0  0.81569639123E+01  0.15274614315E+02  0.36787435886E+02  0.40659136019E+02  0.00000000000E+00 0. -1.
         11    1    3    3    0    0  0.69466110942E+01  0.44814370347E+01 -0.12559384659E+02  0.15035851385E+02  0.51100000000E-03 0. -1.
        -11    1    3    3    0    0 -0.28563712271E+01 -0.62318791636E+01 -0.10982990967E+02  0.12946863147E+02  0.51100000000E-03 0.  1.
         12    1    3    3    0    0 -0.12247203779E+02 -0.13524172186E+02 -0.13245060260E+02  0.22546149450E+02  0.00000000000E+00 0. -1.
</event>
<event>
 7    1  0.6889665E-012  0.5052885E+02  0.7816164E-02  0.1300439E+00
        -11   -1    0    0    0    0  0.00000000000E+00  0.00000000000E+00  0.45593999997E+02  0.45594000000E+02  0.51100000000E-03 0. -1.
         11   -1    0    0    0    0 -0.00000000000E+00 -0.00000000000E+00 -0.45593999997E+02  0.45594000000E+02  0.51100000000E-03 0.  1.
    9900012    2    1    2    0    0  0.69723459314E+01  0.14494399461E+02  0.37342538042E+02  0.50528851325E+02  0.29999974089E+02 0.  0.
        -12    1    1    2    0    0 -0.69723459314E+01 -0.14494399461E+02 -0.37342538042E+02  0.40659148675E+02  0.00000000000E+00 0.  1.
         11    1    3    3    0    0  0.12067303583E+02  0.19889819996E+01  0.31780935302E+02  0.34052954558E+02  0.51100000000E-03 0. -1.
        -11    1    3    3    0    0  0.12857162144E+00 -0.71738529599E+00 -0.63534521702E+00  0.96686924176E+00  0.51100000000E-03 0.  1.
         12    1    3    3    0    0 -0.52235292731E+01  0.13222802757E+02  0.61969479571E+01  0.15509027526E+02  0.00000000000E+00 0. -1.
</event>
<event>
 7    1  0.6889665E-012  0.5052884E+02  0.7816164E-02  0.1300439E+00
        -11   -1    0    0    0    0  0.00000000000E+00  0.00000000000E+00  0.45593999997E+02  0.45594000000E+02  0.51100000000E-03 0. -1.
         11   -1    0    0    0    0 -0.00000000000E+00 -0.00000000000E+00 -0.45593999997E+02  0.45594000000E+02  0.51100000000E-03 0.  1.
    9900012    2    1    2    0    0 -0.74937759602E+01  0.13586553094E+02 -0.37582121792E+02  0.50528843817E+02  0.29999951266E+02 0.  0.
         12    1    1    2    0    0  0.74937759602E+01 -0.13586553094E+02  0.37582121792E+02  0.40659156183E+02  0.00000000000E+00 0. -1.
         11    1    3    3    0    0 -0.92187906498E+01  0.23455003682E+01 -0.44801845168E+00  0.95230349058E+01  0.51100000000E-03 0. -1.
        -11    1    3    3    0    0  0.41596914465E+01  0.96290098442E+01 -0.36553491908E+02  0.38028655439E+02  0.51100000000E-03 0.  1.
        -12    1    3    3    0    0 -0.24346767569E+01  0.16120428821E+01 -0.58061143195E+00  0.29771534726E+01  0.00000000000E+00 0.  1.
</event>
<event>
 7    1  0.6889665E-012  0.5052883E+02  0.7816164E-02  0.1300439E+00
        -11   -1    0    0    0    0  0.00000000000E+00  0.00000000000E+00  0.45593999997E+02  0.45594000000E+02  0.51100000000E-03 0.  1.
         11   -1    0    0    0    0 -0.00000000000E+00 -0.00000000000E+00 -0.45593999997E+02  0.45594000000E+02  0.51100000000E-03 0. -1.
    9900012    2    1    2    0    0  0.11880347201E+02 -0.24902378819E+02  0.29864638300E+02  0.50528834474E+02  0.29999922868E+02 0.  0.
        -12    1    1    2    0    0 -0.11880347201E+02  0.24902378819E+02 -0.29864638300E+02  0.40659165526E+02  0.00000000000E+00 0.  1.
         11    1    3    3    0    0  0.93164162865E+01 -0.28081564073E+02  0.29981226179E+02  0.42121773190E+02  0.51100000000E-03 0. -1.
        -11    1    3    3    0    0 -0.23554411776E+01  0.52717692362E+00 -0.12292357851E+01  0.27086970164E+01  0.51100000000E-03 0.  1.
         12    1    3    3    0    0  0.49193720926E+01  0.26520083302E+01  0.11126479061E+01  0.56983642681E+01  0.00000000000E+00 0. -1.
</event>
<event>
 7    1  0.6889665E-012  0.5052900E+02  0.7816164E-02  0.1300438E+00
        -11   -1    0    0    0    0  0.00000000000E+00  0.00000000000E+00  0.45593999997E+02  0.45594000000E+02  0.51100000000E-03 0. -1.
         11   -1    0    0    0    0 -0.00000000000E+00 -0.00000000000E+00 -0.45593999997E+02  0.45594000000E+02  0.51100000000E-03 0.  1.
    9900012    2    1    2    0    0 -0.35525173597E+02  0.18725746244E+02 -0.63610283708E+01  0.50529000831E+02  0.30000428524E+02 0.  0.
         12    1    1    2    0    0  0.35525173597E+02 -0.18725746244E+02  0.63610283708E+01  0.40658999169E+02  0.00000000000E+00 0. -1.
         11    1    3    3    0    0 -0.23466012324E+01  0.20843205236E+01  0.82325475772E+01  0.88105487491E+01  0.51100000000E-03 0. -1.
        -11    1    3    3    0    0 -0.16746189871E+02  0.53786741882E+01 -0.12725236006E+02  0.21709367630E+02  0.51100000000E-03 0.  1.
         12    1    3    3    0    0 -0.16432382493E+02  0.11262751533E+02 -0.18683399421E+01  0.20009084452E+02  0.00000000000E+00 0. -1.
</event>
<event>
 7    1  0.6889665E-012  0.5052884E+02  0.7816164E-02  0.1300439E+00
        -11   -1    0    0    0    0  0.00000000000E+00  0.00000000000E+00  0.45593999997E+02  0.45594000000E+02  0.51100000000E-03 0. -1.
         11   -1    0    0    0    0 -0.00000000000E+00 -0.00000000000E+00 -0.45593999997E+02  0.45594000000E+02  0.51100000000E-03 0.  1.
    9900012    2    1    2    0    0 -0.14715676234E+02  0.35496211148E+01  0.37736136833E+02  0.50528844079E+02  0.29999952063E+02 0.  0.
        -12    1    1    2    0    0  0.14715676234E+02 -0.35496211148E+01 -0.37736136833E+02  0.40659155921E+02  0.00000000000E+00 0.  1.
         11    1    3    3    0    0 -0.13001297152E+02  0.63208740978E+01  0.14546590708E+02  0.20508302672E+02  0.51100000000E-03 0. -1.
        -11    1    3    3    0    0 -0.47874612097E+01 -0.10000772018E+02  0.11877523601E+02  0.16248408936E+02  0.51100000000E-03 0.  1.
         12    1    3    3    0    0  0.30730821272E+01  0.72295190348E+01  0.11312022524E+02  0.13772132471E+02  0.00000000000E+00 0. -1.
</event>
<event>
 7    1  0.6889665E-012  0.5052877E+02  0.7816164E-02  0.1300439E+00
        -11   -1    0    0    0    0  0.00000000000E+00  0.00000000000E+00  0.45593999997E+02  0.45594000000E+02  0.51100000000E-03 0. -1.
         11   -1    0    0    0    0 -0.00000000000E+00 -0.00000000000E+00 -0.45593999997E+02  0.45594000000E+02  0.51100000000E-03 0.  1.
    9900012    2    1    2    0    0 -0.17055217123E+01 -0.25337122867E+02  0.31753654707E+02  0.50528767509E+02  0.29999719319E+02 0.  0.
        -12    1    1    2    0    0  0.17055217123E+01  0.25337122867E+02 -0.31753654707E+02  0.40659232491E+02  0.00000000000E+00 0.  1.
         11    1    3    3    0    0  0.11755471242E+02 -0.57879909990E+01  0.98250667681E+01  0.16377541976E+02  0.51100000000E-03 0. -1.
        -11    1    3    3    0    0 -0.11264769665E+02 -0.11516013354E+02  0.81556521069E+01  0.18056252677E+02  0.51100000000E-03 0.  1.
         12    1    3    3    0    0 -0.21962232888E+01 -0.80331185148E+01  0.13772935832E+02  0.16094972856E+02  0.00000000000E+00 0. -1.
</event>
<event>
 7    1  0.6889665E-012  0.5052884E+02  0.7816164E-02  0.1300439E+00
        -11   -1    0    0    0    0  0.00000000000E+00  0.00000000000E+00  0.45593999997E+02  0.45594000000E+02  0.51100000000E-03 0. -1.
         11   -1    0    0    0    0 -0.00000000000E+00 -0.00000000000E+00 -0.45593999997E+02  0.45594000000E+02  0.51100000000E-03 0.  1.
    9900012    2    1    2    0    0 -0.27023896184E+02  0.23980913922E+02 -0.18649175828E+02  0.50528844124E+02  0.29999952198E+02 0.  0.
         12    1    1    2    0    0  0.27023896184E+02 -0.23980913922E+02  0.18649175828E+02  0.40659155876E+02  0.00000000000E+00 0. -1.
         11    1    3    3    0    0 -0.22886092536E+02  0.16884939342E+02 -0.47838401008E+01  0.28840241582E+02  0.51100000000E-03 0.  1.
        -11    1    3    3    0    0  0.74156437273E+00 -0.37923973988E+01 -0.71105021090E+00  0.39290951138E+01  0.51100000000E-03 0. -1.
        -12    1    3    3    0    0 -0.48793680210E+01  0.10888371978E+02 -0.13154285517E+02  0.17759507428E+02  0.00000000000E+00 0.  1.
</event>
<event>
 7    1  0.6889665E-012  0.5052886E+02  0.7816164E-02  0.1300439E+00
        -11   -1    0    0    0    0  0.00000000000E+00  0.00000000000E+00  0.45593999997E+02  0.45594000000E+02  0.51100000000E-03 0. -1.
         11   -1    0    0    0    0 -0.00000000000E+00 -0.00000000000E+00 -0.45593999997E+02  0.45594000000E+02  0.51100000000E-03 0.  1.
    9900012    2    1    2    0    0  0.15953860156E+01 -0.35681224491E+02  0.19428598191E+02  0.50528862462E+02  0.30000007939E+02 0.  0.
        -12    1    1    2    0    0 -0.15953860156E+01  0.35681224491E+02 -0.19428598191E+02  0.40659137538E+02  0.00000000000E+00 0.  1.
         11    1    3    3    0    0 -0.22414527903E+01 -0.11320169922E+02  0.13326678789E+02  0.17628690408E+02  0.51100000000E-03 0. -1.
        -11    1    3    3    0    0  0.94076534058E+01 -0.25580809386E+01  0.28908707777E+01  0.10168817768E+02  0.51100000000E-03 0.  1.
        -12    1    3    3    0    0 -0.55708145999E+01 -0.21802973630E+02  0.32110486239E+01  0.22731354286E+02  0.00000000000E+00 0.  1.
</event>
<event>
 7    1  0.6889665E-012  0.5052886E+02  0.7816164E-02  0.1300439E+00
        -11   -1    0    0    0    0  0.00000000000E+00  0.00000000000E+00  0.45593999997E+02  0.45594000000E+02  0.51100000000E-03 0. -1.
         11   -1    0    0    0    0 -0.00000000000E+00 -0.00000000000E+00 -0.45593999997E+02  0.45594000000E+02  0.51100000000E-03 0.  1.
    9900012    2    1    2    0    0 -0.28213101773E+02 -0.15647991480E+02 -0.24745237342E+02  0.50528861788E+02  0.30000005891E+02 0.  0.
         12    1    1    2    0    0  0.28213101773E+02  0.15647991480E+02  0.24745237342E+02  0.40659138212E+02  0.00000000000E+00 0. -1.
         11    1    3    3    0    0  0.84086716040E+00 -0.12320020941E+02 -0.14017512239E+02  0.18681023077E+02  0.51100000000E-03 0. -1.
        -11    1    3    3    0    0 -0.25702290118E+02 -0.13838972560E+01 -0.10938631688E+02  0.27967419480E+02  0.51100000000E-03 0.  1.
         12    1    3    3    0    0 -0.33516788162E+01 -0.19440732835E+01  0.21090658576E+00  0.38804192308E+01  0.00000000000E+00 0. -1.
</event>
<event>
 7    1  0.6889665E-012  0.5052886E+02  0.7816164E-02  0.1300439E+00
        -11   -1    0    0    0    0  0.00000000000E+00  0.00000000000E+00  0.45593999997E+02  0.45594000000E+02  0.51100000000E-03 0. -1.
         11   -1    0    0    0    0 -0.00000000000E+00 -0.00000000000E+00 -0.45593999997E+02  0.45594000000E+02  0.51100000000E-03 0.  1.
    9900012    2    1    2    0    0 -0.34644791460E+02  0.56760419924E+01 -0.20510646011E+02  0.50528860464E+02  0.30000001867E+02 0.  0.
         12    1    1    2    0    0  0.34644791460E+02 -0.56760419924E+01  0.20510646011E+02  0.40659139536E+02  0.00000000000E+00 0. -1.
         11    1    3    3    0    0 -0.21659412379E+02 -0.70327584119E+01 -0.24546906939E+00  0.22773890551E+02  0.51100000000E-03 0. -1.
        -11    1    3    3    0    0 -0.94008289034E+01  0.10660644414E+02 -0.12356972776E+02  0.18834003819E+02  0.51100000000E-03 0.  1.
         12    1    3    3    0    0 -0.35845501771E+01  0.20481559907E+01 -0.79082041656E+01  0.89209660945E+01  0.00000000000E+00 0. -1.
</event>
<event>
 7    1  0.6889665E-012  0.5052892E+02  0.7816164E-02  0.1300439E+00
        -11   -1    0    0    0    0  0.00000000000E+00  0.00000000000E+00  0.45593999997E+02  0.45594000000E+02  0.51100000000E-03 0. -1.
         11   -1    0    0    0    0 -0.00000000000E+00 -0.00000000000E+00 -0.45593999997E+02  0.45594000000E+02  0.51100000000E-03 0.  1.
    9900012    2    1    2    0    0  0.37275716997E+01  0.57103451035E+01  0.40083133826E+02  0.50528924146E+02  0.30000195434E+02 0.  0.
        -12    1    1    2    0    0 -0.37275716997E+01 -0.57103451035E+01 -0.40083133826E+02  0.40659075854E+02  0.00000000000E+00 0.  1.
         11    1    3    3    0    0  0.93432246336E+01 -0.80810536802E+01  0.17238341976E+02  0.21207538978E+02  0.51100000000E-03 0. -1.
        -11    1    3    3    0    0  0.45543445154E+00  0.10833958647E+02  0.97252007401E+01  0.14565768438E+02  0.51100000000E-03 0.  1.
         12    1    3    3    0    0 -0.60710873855E+01  0.29574401369E+01  0.13119591110E+02  0.14755616730E+02  0.00000000000E+00 0. -1.
</event>
<event>
 7    1  0.6889665E-012  0.5052886E+02  0.7816164E-02  0.1300439E+00
        -11   -1    0    0    0    0  0.00000000000E+00  0.00000000000E+00  0.45593999997E+02  0.45594000000E+02  0.51100000000E-03 0. -1.
         11   -1    0    0    0    0 -0.00000000000E+00 -0.00000000000E+00 -0.45593999997E+02  0.45594000000E+02  0.51100000000E-03 0.  1.
    9900012    2    1    2    0    0 -0.29733448892E+02 -0.65159803303E+01 -0.26956065736E+02  0.50528862495E+02  0.30000008040E+02 0.  0.
         12    1    1    2    0    0  0.29733448892E+02  0.65159803303E+01  0.26956065736E+02  0.40659137505E+02  0.00000000000E+00 0. -1.
         11    1    3    3    0    0  0.28512683275E+01 -0.39538050612E+01 -0.11351371393E+01  0.50050816300E+01  0.51100000000E-03 0. -1.
        -11    1    3    3    0    0 -0.25877784034E+02 -0.80213155092E+01 -0.24952511276E+02  0.36832445320E+02  0.51100000000E-03 0.  1.
         12    1    3    3    0    0 -0.67069331849E+01  0.54591402402E+01 -0.86841732106E+00  0.86913355448E+01  0.00000000000E+00 0. -1.
</event>
<event>
 7    1  0.6889665E-012  0.5052887E+02  0.7816164E-02  0.1300439E+00
        -11   -1    0    0    0    0  0.00000000000E+00  0.00000000000E+00  0.45593999997E+02  0.45594000000E+02  0.51100000000E-03 0. -1.
         11   -1    0    0    0    0 -0.00000000000E+00 -0.00000000000E+00 -0.45593999997E+02  0.45594000000E+02  0.51100000000E-03 0.  1.
    9900012    2    1    2    0    0 -0.94380212890E+01  0.15364121355E+02  0.36442181626E+02  0.50528867293E+02  0.30000022623E+02 0.  0.
        -12    1    1    2    0    0  0.94380212890E+01 -0.15364121355E+02 -0.36442181626E+02  0.40659132707E+02  0.00000000000E+00 0.  1.
         11    1    3    3    0    0 -0.13969687929E+02  0.19256273185E+02  0.19220977125E+02  0.30584345664E+02  0.51100000000E-03 0. -1.
        -11    1    3    3    0    0  0.61332468744E+01 -0.30243507213E+01  0.79071591043E+01  0.10454022186E+02  0.51100000000E-03 0.  1.
        -12    1    3    3    0    0 -0.16015802344E+01 -0.86780110930E+00  0.93140453968E+01  0.94904994424E+01  0.00000000000E+00 0.  1.
</event>
<event>
 7    1  0.6889665E-012  0.5052886E+02  0.7816164E-02  0.1300439E+00
        -11   -1    0    0    0    0  0.00000000000E+00  0.00000000000E+00  0.45593999997E+02  0.45594000000E+02  0.51100000000E-03 0. -1.
         11   -1    0    0    0    0 -0.00000000000E+00 -0.00000000000E+00 -0.45593999997E+02  0.45594000000E+02  0.51100000000E-03 0.  1.
    9900012    2    1    2    0    0  0.58097695182E+01 -0.27867203233E+02 -0.29031550476E+02  0.50528863746E+02  0.30000011843E+02 0.  0.
         12    1    1    2    0    0 -0.58097695182E+01  0.27867203233E+02  0.29031550476E+02  0.40659136254E+02  0.00000000000E+00 0. -1.
         11    1    3    3    0    0 -0.16638790653E+01 -0.48875958647E+01 -0.16965204719E+02  0.17733450265E+02  0.51100000000E-03 0. -1.
        -11    1    3    3    0    0  0.66720517615E+00 -0.22894019186E+02 -0.59977037921E+01  0.23676015887E+02  0.51100000000E-03 0.  1.
         12    1    3    3    0    0  0.68064434074E+01 -0.85588182581E-01 -0.60686419646E+01  0.91193975947E+01  0.00000000000E+00 0. -1.
</event>
<event>
 7    1  0.6889665E-012  0.5052886E+02  0.7816164E-02  0.1300439E+00
        -11   -1    0    0    0    0  0.00000000000E+00  0.00000000000E+00  0.45593999997E+02  0.45594000000E+02  0.51100000000E-03 0. -1.
         11   -1    0    0    0    0 -0.00000000000E+00 -0.00000000000E+00 -0.45593999997E+02  0.45594000000E+02  0.51100000000E-03 0.  1.
    9900012    2    1    2    0    0  0.34208934272E+02  0.18121714952E+02 -0.12430520283E+02  0.50528861159E+02  0.30000003979E+02 0.  0.
         12    1    1    2    0    0 -0.34208934272E+02 -0.18121714952E+02  0.12430520283E+02  0.40659138841E+02  0.00000000000E+00 0. -1.
         11    1    3    3    0    0 -0.37261477541E+01 -0.20429545841E+01  0.80753806087E+00  0.43255009536E+01  0.51100000000E-03 0. -1.
        -11    1    3    3    0    0  0.30822487503E+02  0.18189499956E+02 -0.68452044568E+01  0.36438173237E+02  0.51100000000E-03 0.  1.
         12    1    3    3    0    0  0.71125945227E+01  0.19751695798E+01 -0.63928538870E+01  0.97651869687E+01  0.00000000000E+00 0. -1.
</event>
<event>
 7    1  0.6889665E-012  0.5052887E+02  0.7816164E-02  0.1300439E+00
        -11   -1    0    0    0    0  0.00000000000E+00  0.00000000000E+00  0.45593999997E+02  0.45594000000E+02  0.51100000000E-03 0. -1.
         11   -1    0    0    0    0 -0.00000000000E+00 -0.00000000000E+00 -0.45593999997E+02  0.45594000000E+02  0.51100000000E-03 0.  1.
    9900012    2    1    2    0    0 -0.36096477377E+02 -0.18713256870E+02 -0.15290649640E+00  0.50528867666E+02  0.30000023758E+02 0.  0.
         12    1    1    2    0    0  0.36096477377E+02  0.18713256870E+02  0.15290649640E+00  0.40659132334E+02  0.00000000000E+00 0. -1.
         11    1    3    3    0    0 -0.15785857963E+01 -0.12967408676E+02 -0.37675798251E+01  0.13595597776E+02  0.51100000000E-03 0. -1.
        -11    1    3    3    0    0 -0.23673503966E+02  0.13073131204E+01  0.97003083079E+00  0.23729408288E+02  0.51100000000E-03 0.  1.
         12    1    3    3    0    0 -0.10844387615E+02 -0.70531613150E+01  0.26446424979E+01  0.13203861602E+02  0.00000000000E+00 0. -1.
</event>
<event>
 7    1  0.6889665E-012  0.5052886E+02  0.7816164E-02  0.1300439E+00
        -11   -1    0    0    0    0  0.00000000000E+00  0.00000000000E+00  0.45593999997E+02  0.45594000000E+02  0.51100000000E-03 0. -1.
         11   -1    0    0    0    0 -0.00000000000E+00 -0.00000000000E+00 -0.45593999997E+02  0.45594000000E+02  0.51100000000E-03 0.  1.
    9900012    2    1    2    0    0 -0.17801958809E+02  0.12463255176E+02  0.34364557846E+02  0.50528864459E+02  0.30000014009E+02 0.  0.
        -12    1    1    2    0    0  0.17801958809E+02 -0.12463255176E+02 -0.34364557846E+02  0.40659135541E+02  0.00000000000E+00 0.  1.
         11    1    3    3    0    0 -0.19110184008E+02  0.15879278117E+01  0.26289589473E+02  0.32540177665E+02  0.51100000000E-03 0. -1.
        -11    1    3    3    0    0 -0.53742743945E+00  0.12860105675E+02  0.47989402126E+01  0.13736847296E+02  0.51100000000E-03 0.  1.
         12    1    3    3    0    0  0.18456526388E+01 -0.19847783106E+01  0.32760281607E+01  0.42518394978E+01  0.00000000000E+00 0. -1.
</event>
<event>
 7    1  0.6889665E-012  0.5052889E+02  0.7816164E-02  0.1300439E+00
        -11   -1    0    0    0    0  0.00000000000E+00  0.00000000000E+00  0.45593999997E+02  0.45594000000E+02  0.51100000000E-03 0. -1.
         11   -1    0    0    0    0 -0.00000000000E+00 -0.00000000000E+00 -0.45593999997E+02  0.45594000000E+02  0.51100000000E-03 0.  1.
    9900012    2    1    2    0    0  0.35467210379E+02 -0.11166817938E+02 -0.16448170779E+02  0.50528890849E+02  0.30000094225E+02 0.  0.
         12    1    1    2    0    0 -0.35467210379E+02  0.11166817938E+02  0.16448170779E+02  0.40659109151E+02  0.00000000000E+00 0. -1.
         11    1    3    3    0    0  0.53671443456E+01  0.83131288605E+01 -0.44938695670E+01  0.10867806302E+02  0.51100000000E-03 0. -1.
        -11    1    3    3    0    0  0.27248632703E+02 -0.14457373839E+02 -0.13516675788E+02  0.33677947787E+02  0.51100000000E-03 0.  1.
         12    1    3    3    0    0  0.28514333307E+01 -0.50225729598E+01  0.15623745757E+01  0.59831367602E+01  0.00000000000E+00 0. -1.
</event>
<event>
 7    1  0.6889665E-012  0.5052891E+02  0.7816164E-02  0.1300439E+00
        -11   -1    0    0    0    0  0.00000000000E+00  0.00000000000E+00  0.45593999997E+02  0.45594000000E+02  0.51100000000E-03 0. -1.
         11   -1    0    0    0    0 -0.00000000000E+00 -0.00000000000E+00 -0.45593999997E+02  0.45594000000E+02  0.51100000000E-03 0.  1.
    9900012    2    1    2    0    0 -0.68162371578E+01 -0.33394786902E+02 -0.22169544811E+02  0.50528910016E+02  0.30000152484E+02 0.  0.
         12    1    1    2    0    0  0.68162371578E+01  0.33394786902E+02  0.22169544811E+02  0.40659089984E+02  0.00000000000E+00 0. -1.
         11    1    3    3    0    0 -0.12854602470E+02 -0.76226741961E+01 -0.18142106284E+02  0.23504935381E+02  0.51100000000E-03 0. -1.
        -11    1    3    3    0    0  0.15967260645E+01 -0.14637518591E+02 -0.18516168775E+01  0.14840315696E+02  0.51100000000E-03 0.  1.
         12    1    3    3    0    0  0.44416392477E+01 -0.11134594115E+02 -0.21758216492E+01  0.12183658940E+02  0.00000000000E+00 0. -1.
</event>
<event>
 7    1  0.6889665E-012  0.5052887E+02  0.7816164E-02  0.1300439E+00
        -11   -1    0    0    0    0  0.00000000000E+00  0.00000000000E+00  0.45593999997E+02  0.45594000000E+02  0.51100000000E-03 0. -1.
         11   -1    0    0    0    0 -0.00000000000E+00 -0.00000000000E+00 -0.45593999997E+02  0.45594000000E+02  0.51100000000E-03 0.  1.
    9900012    2    1    2    0    0 -0.24974667177E+02 -0.16479124469E+01  0.32042393666E+02  0.50528873007E+02  0.30000039991E+02 0.  0.
        -12    1    1    2    0    0  0.24974667177E+02  0.16479124469E+01 -0.32042393666E+02  0.40659126993E+02  0.00000000000E+00 0.  1.
         11    1    3    3    0    0 -0.10427202030E+02 -0.10447390842E+02  0.50867337944E+01  0.15612475093E+02  0.51100000000E-03 0. -1.
        -11    1    3    3    0    0 -0.65916154391E+01  0.53926384015E+01  0.24473371089E+02  0.25912850783E+02  0.51100000000E-03 0.  1.
         12    1    3    3    0    0 -0.79558497078E+01  0.34068399938E+01  0.24822887832E+01  0.90035471299E+01  0.00000000000E+00 0. -1.
</event>
<event>
 7    1  0.6889665E-012  0.5052886E+02  0.7816164E-02  0.1300439E+00
        -11   -1    0    0    0    0  0.00000000000E+00  0.00000000000E+00  0.45593999997E+02  0.45594000000E+02  0.51100000000E-03 0. -1.
         11   -1    0    0    0    0 -0.00000000000E+00 -0.00000000000E+00 -0.45593999997E+02  0.45594000000E+02  0.51100000000E-03 0.  1.
    9900012    2    1    2    0    0  0.23982355930E+02 -0.17127549951E+02 -0.28011773399E+02  0.50528858196E+02  0.29999994974E+02 0.  0.
         12    1    1    2    0    0 -0.23982355930E+02  0.17127549951E+02  0.28011773399E+02  0.40659141804E+02  0.00000000000E+00 0. -1.
         11    1    3    3    0    0 -0.14421462423E+01 -0.10795358059E+02 -0.11295580245E+02  0.15691069904E+02  0.51100000000E-03 0.  1.
        -11    1    3    3    0    0  0.14522261362E+02  0.18242623398E+01 -0.19722987034E+01  0.14768682087E+02  0.51100000000E-03 0. -1.
        -12    1    3    3    0    0  0.10902240811E+02 -0.81564542314E+01 -0.14743894451E+02  0.20069106206E+02  0.00000000000E+00 0.  1.
</event>
<event>
 7    1  0.6889665E-012  0.5052885E+02  0.7816164E-02  0.1300439E+00
        -11   -1    0    0    0    0  0.00000000000E+00  0.00000000000E+00  0.45593999997E+02  0.45594000000E+02  0.51100000000E-03 0. -1.
         11   -1    0    0    0    0 -0.00000000000E+00 -0.00000000000E+00 -0.45593999997E+02  0.45594000000E+02  0.51100000000E-03 0.  1.
    9900012    2    1    2    0    0 -0.36800712655E+02 -0.77361806262E+01 -0.15460441936E+02  0.50528853336E+02  0.29999980201E+02 0.  0.
         12    1    1    2    0    0  0.36800712655E+02  0.77361806262E+01  0.15460441936E+02  0.40659146664E+02  0.00000000000E+00 0. -1.
         11    1    3    3    0    0  0.17296640542E+01 -0.22270569737E+01 -0.36194570016E+01  0.45882447354E+01  0.51100000000E-03 0. -1.
        -11    1    3    3    0    0 -0.32132834453E+02 -0.42382779458E+01  0.12404373410E-01  0.32411143208E+02  0.51100000000E-03 0.  1.
        -12    1    3    3    0    0 -0.63975422558E+01 -0.12708457067E+01 -0.11853389308E+02  0.13529465393E+02  0.00000000000E+00 0.  1.
</event>
<event>
 7    1  0.6889665E-012  0.5052886E+02  0.7816164E-02  0.1300439E+00
        -11   -1    0    0    0    0  0.00000000000E+00  0.00000000000E+00  0.45593999997E+02  0.45594000000E+02  0.51100000000E-03 0. -1.
         11   -1    0    0    0    0 -0.00000000000E+00 -0.00000000000E+00 -0.45593999997E+02  0.45594000000E+02  0.51100000000E-03 0.  1.
    9900012    2    1    2    0    0  0.23622896650E+02  0.29173707089E+02  0.15621109835E+02  0.50528861987E+02  0.30000006497E+02 0.  0.
        -12    1    1    2    0    0 -0.23622896650E+02 -0.29173707089E+02 -0.15621109835E+02  0.40659138013E+02  0.00000000000E+00 0.  1.
         11    1    3    3    0    0 -0.42681776306E+01  0.77281333497E+01  0.83263561438E+01  0.12135468357E+02  0.51100000000E-03 0. -1.
        -11    1    3    3    0    0  0.22677431496E+02  0.14499044400E+02  0.10833556627E+02  0.29014722767E+02  0.51100000000E-03 0.  1.
         12    1    3    3    0    0  0.52136427839E+01  0.69465293397E+01 -0.35388029356E+01  0.93786708634E+01  0.00000000000E+00 0. -1.
</event>
<event>
 7    1  0.6889665E-012  0.5052886E+02  0.7816164E-02  0.1300439E+00
        -11   -1    0    0    0    0  0.00000000000E+00  0.00000000000E+00  0.45593999997E+02  0.45594000000E+02  0.51100000000E-03 0. -1.
         11   -1    0    0    0    0 -0.00000000000E+00 -0.00000000000E+00 -0.45593999997E+02  0.45594000000E+02  0.51100000000E-03 0.  1.
    9900012    2    1    2    0    0 -0.16381866848E+02  0.31293520267E+02  0.20137418048E+02  0.50528861080E+02  0.30000003737E+02 0.  0.
        -12    1    1    2    0    0  0.16381866848E+02 -0.31293520267E+02 -0.20137418048E+02  0.40659138920E+02  0.00000000000E+00 0.  1.
         11    1    3    3    0    0 -0.23218410556E+01 -0.27330640669E+01  0.22462921030E+01  0.42315970453E+01  0.51100000000E-03 0. -1.
        -11    1    3    3    0    0 -0.89987237708E+01  0.31474650648E+02  0.62185182414E+01  0.33321173934E+02  0.51100000000E-03 0.  1.
        -12    1    3    3    0    0 -0.50613020214E+01  0.25519336852E+01  0.11672607704E+02  0.12976090101E+02  0.00000000000E+00 0.  1.
</event>
<event>
 7    1  0.6889665E-012  0.5052886E+02  0.7816164E-02  0.1300439E+00
        -11   -1    0    0    0    0  0.00000000000E+00  0.00000000000E+00  0.45593999997E+02  0.45594000000E+02  0.51100000000E-03 0. -1.
         11   -1    0    0    0    0 -0.00000000000E+00 -0.00000000000E+00 -0.45593999997E+02  0.45594000000E+02  0.51100000000E-03 0.  1.
    9900012    2    1    2    0    0 -0.19325047180E+02 -0.33130657080E+02  0.13493245394E+02  0.50528861318E+02  0.30000004463E+02 0.  0.
        -12    1    1    2    0    0  0.19325047180E+02  0.33130657080E+02 -0.13493245394E+02  0.40659138682E+02  0.00000000000E+00 0.  1.
         11    1    3    3    0    0  0.34104502943E+01 -0.80312418586E+01  0.11557158188E+02  0.14481019393E+02  0.51100000000E-03 0.  1.
        -11    1    3    3    0    0 -0.17296379567E+02 -0.18443280529E+02 -0.40032182680E+01  0.25599708974E+02  0.51100000000E-03 0. -1.
         12    1    3    3    0    0 -0.54391179076E+01 -0.66561346928E+01  0.59393054737E+01  0.10448132951E+02  0.00000000000E+00 0. -1.
</event>
<event>
 7    1  0.6889665E-012  0.5052885E+02  0.7816164E-02  0.1300439E+00
        -11   -1    0    0    0    0  0.00000000000E+00  0.00000000000E+00  0.45593999997E+02  0.45594000000E+02  0.51100000000E-03 0. -1.
         11   -1    0    0    0    0 -0.00000000000E+00 -0.00000000000E+00 -0.45593999997E+02  0.45594000000E+02  0.51100000000E-03 0.  1.
    9900012    2    1    2    0    0 -0.19738838336E+02  0.76259618968E+00  0.35538190175E+02  0.50528852779E+02  0.29999978508E+02 0.  0.
        -12    1    1    2    0    0  0.19738838336E+02 -0.76259618968E+00 -0.35538190175E+02  0.40659147221E+02  0.00000000000E+00 0.  1.
         11    1    3    3    0    0  0.68579661708E+00 -0.14276120416E+01  0.25300068859E+02  0.25349593244E+02  0.51100000000E-03 0. -1.
        -11    1    3    3    0    0 -0.12914151289E+02 -0.18889543122E+01  0.18109867909E+01  0.13176612817E+02  0.51100000000E-03 0.  1.
         12    1    3    3    0    0 -0.75104836640E+01  0.40791625435E+01  0.84271345256E+01  0.12002646718E+02  0.00000000000E+00 0. -1.
</event>
<event>
 7    1  0.6889665E-012  0.5052889E+02  0.7816164E-02  0.1300439E+00
        -11   -1    0    0    0    0  0.00000000000E+00  0.00000000000E+00  0.45593999997E+02  0.45594000000E+02  0.51100000000E-03 0. -1.
         11   -1    0    0    0    0 -0.00000000000E+00 -0.00000000000E+00 -0.45593999997E+02  0.45594000000E+02  0.51100000000E-03 0.  1.
    9900012    2    1    2    0    0  0.17962128392E+02 -0.62540925569E+01  0.35936215786E+02  0.50528888659E+02  0.30000087567E+02 0.  0.
        -12    1    1    2    0    0 -0.17962128392E+02  0.62540925569E+01 -0.35936215786E+02  0.40659111341E+02  0.00000000000E+00 0.  1.
         11    1    3    3    0    0  0.29199059260E+00  0.68441145295E+01  0.12703952153E+02  0.14433210411E+02  0.51100000000E-03 0. -1.
        -11    1    3    3    0    0  0.11886941143E+02 -0.15179574120E+02  0.22906964846E+02  0.29940739452E+02  0.51100000000E-03 0.  1.
        -12    1    3    3    0    0  0.57831966562E+01  0.20813670332E+01  0.32529878694E+00  0.61549387967E+01  0.00000000000E+00 0.  1.
</event>
<event>
 7    1  0.6889665E-012  0.5052886E+02  0.7816164E-02  0.1300439E+00
        -11   -1    0    0    0    0  0.00000000000E+00  0.00000000000E+00  0.45593999997E+02  0.45594000000E+02  0.51100000000E-03 0. -1.
         11   -1    0    0    0    0 -0.00000000000E+00 -0.00000000000E+00 -0.45593999997E+02  0.45594000000E+02  0.51100000000E-03 0.  1.
    9900012    2    1    2    0    0  0.19861546824E+01 -0.52469763955E+01 -0.40270215224E+02  0.50528858274E+02  0.29999995211E+02 0.  0.
         12    1    1    2    0    0 -0.19861546824E+01  0.52469763955E+01  0.40270215224E+02  0.40659141726E+02  0.00000000000E+00 0. -1.
         11    1    3    3    0    0  0.11861961118E+02 -0.11007143630E+02 -0.17311497788E+02  0.23697073414E+02  0.51100000000E-03 0. -1.
        -11    1    3    3    0    0 -0.53201099507E+01 -0.78227668630E+00 -0.13047211151E+02  0.14111883141E+02  0.51100000000E-03 0.  1.
         12    1    3    3    0    0 -0.45556964852E+01  0.65424439210E+01 -0.99115062845E+01  0.12719901719E+02  0.00000000000E+00 0. -1.
</event>
<event>
 7    1  0.6889665E-012  0.5052887E+02  0.7816164E-02  0.1300439E+00
        -11   -1    0    0    0    0  0.00000000000E+00  0.00000000000E+00  0.45593999997E+02  0.45594000000E+02  0.51100000000E-03 0. -1.
         11   -1    0    0    0    0 -0.00000000000E+00 -0.00000000000E+00 -0.45593999997E+02  0.45594000000E+02  0.51100000000E-03 0.  1.
    9900012    2    1    2    0    0  0.80881351720E+00  0.19438559919E+02  0.35702281277E+02  0.50528872127E+02  0.30000037317E+02 0.  0.
        -12    1    1    2    0    0 -0.80881351720E+00 -0.19438559919E+02 -0.35702281277E+02  0.40659127873E+02  0.00000000000E+00 0.  1.
         11    1    3    3    0    0  0.11506183290E+02  0.83000018500E+01  0.11204453572E+02  0.18078220729E+02  0.51100000000E-03 0. -1.
        -11    1    3    3    0    0 -0.39005685475E+01  0.13158338298E+02  0.19194059142E+02  0.23595936268E+02  0.51100000000E-03 0.  1.
         12    1    3    3    0    0 -0.67968012252E+01 -0.20197802293E+01  0.53037685627E+01  0.88547151302E+01  0.00000000000E+00 0. -1.
</event>
<event>
 7    1  0.6889665E-012  0.5052886E+02  0.7816164E-02  0.1300439E+00
        -11   -1    0    0    0    0  0.00000000000E+00  0.00000000000E+00  0.45593999997E+02  0.45594000000E+02  0.51100000000E-03 0. -1.
         11   -1    0    0    0    0 -0.00000000000E+00 -0.00000000000E+00 -0.45593999997E+02  0.45594000000E+02  0.51100000000E-03 0.  1.
    9900012    2    1    2    0    0  0.95902602480E+01 -0.94612804069E+01 -0.38362434494E+02  0.50528864509E+02  0.30000014161E+02 0.  0.
         12    1    1    2    0    0 -0.95902602480E+01  0.94612804069E+01  0.38362434494E+02  0.40659135491E+02  0.00000000000E+00 0. -1.
         11    1    3    3    0    0 -0.78763345000E+01 -0.57151965660E+01 -0.10427925052E+02  0.14263300393E+02  0.51100000000E-03 0. -1.
        -11    1    3    3    0    0  0.94118348959E+01  0.54491840361E+01 -0.14031118066E+02  0.17752422854E+02  0.51100000000E-03 0.  1.
         12    1    3    3    0    0  0.80547598521E+01 -0.91952678770E+01 -0.13903391376E+02  0.18513141262E+02  0.00000000000E+00 0. -1.
</event>
<event>
 7    1  0.6889665E-012  0.5052885E+02  0.7816164E-02  0.1300439E+00
        -11   -1    0    0    0    0  0.00000000000E+00  0.00000000000E+00  0.45593999997E+02  0.45594000000E+02  0.51100000000E-03 0. -1.
         11   -1    0    0    0    0 -0.00000000000E+00 -0.00000000000E+00 -0.45593999997E+02  0.45594000000E+02  0.51100000000E-03 0.  1.
    9900012    2    1    2    0    0  0.41921086969E+01 -0.38235261008E+02  0.13177921503E+02  0.50528848818E+02  0.29999966468E+02 0.  0.
        -12    1    1    2    0    0 -0.41921086969E+01  0.38235261008E+02 -0.13177921503E+02  0.40659151182E+02  0.00000000000E+00 0.  1.
         11    1    3    3    0    0  0.91728964664E+01 -0.35603686665E+02  0.99928118644E+01  0.38100142033E+02  0.51100000000E-03 0. -1.
        -11    1    3    3    0    0  0.12252516314E+01  0.19364645251E+01  0.40713564066E+01  0.46719460257E+01  0.51100000000E-03 0.  1.
         12    1    3    3    0    0 -0.62060394010E+01 -0.45680388681E+01 -0.88624676829E+00  0.77567607595E+01  0.00000000000E+00 0. -1.
</event>
<event>
 7    1  0.6889665E-012  0.5052886E+02  0.7816164E-02  0.1300439E+00
        -11   -1    0    0    0    0  0.00000000000E+00  0.00000000000E+00  0.45593999997E+02  0.45594000000E+02  0.51100000000E-03 0. -1.
         11   -1    0    0    0    0 -0.00000000000E+00 -0.00000000000E+00 -0.45593999997E+02  0.45594000000E+02  0.51100000000E-03 0.  1.
    9900012    2    1    2    0    0 -0.20476073665E+00  0.89502930693E+01  0.39661264804E+02  0.50528860820E+02  0.30000002949E+02 0.  0.
        -12    1    1    2    0    0  0.20476073665E+00 -0.89502930693E+01 -0.39661264804E+02  0.40659139180E+02  0.00000000000E+00 0.  1.
         11    1    3    3    0    0  0.47145035755E+01  0.95129073003E+01  0.19479163901E+02  0.22184674346E+02  0.51100000000E-03 0. -1.
        -11    1    3    3    0    0  0.64840220436E+00 -0.79402569146E+00 -0.36902929013E+01  0.38300344875E+01  0.51100000000E-03 0.  1.
        -12    1    3    3    0    0 -0.55676665165E+01  0.23141146055E+00  0.23872393804E+02  0.24514151987E+02  0.00000000000E+00 0.  1.
</event>
<event>
 7    1  0.6889665E-012  0.5052886E+02  0.7816164E-02  0.1300439E+00
        -11   -1    0    0    0    0  0.00000000000E+00  0.00000000000E+00  0.45593999997E+02  0.45594000000E+02  0.51100000000E-03 0.  1.
         11   -1    0    0    0    0 -0.00000000000E+00 -0.00000000000E+00 -0.45593999997E+02  0.45594000000E+02  0.51100000000E-03 0. -1.
    9900012    2    1    2    0    0  0.32213681663E+02  0.24698813599E+02  0.23265215698E+01  0.50528863486E+02  0.30000011051E+02 0.  0.
         12    1    1    2    0    0 -0.32213681663E+02 -0.24698813599E+02 -0.23265215698E+01  0.40659136514E+02  0.00000000000E+00 0. -1.
         11    1    3    3    0    0  0.27081372761E+01 -0.46667363243E+01  0.24327859331E+00  0.54010758337E+01  0.51100000000E-03 0. -1.
        -11    1    3    3    0    0  0.15664543232E+02  0.21701470320E+02 -0.58993201504E+01  0.27406818627E+02  0.51100000000E-03 0.  1.
        -12    1    3    3    0    0  0.13841001155E+02  0.76640796030E+01  0.79825631270E+01  0.17720969025E+02  0.00000000000E+00 0.  1.
</event>
<event>
 7    1  0.6889665E-012  0.5052885E+02  0.7816164E-02  0.1300439E+00
        -11   -1    0    0    0    0  0.00000000000E+00  0.00000000000E+00  0.45593999997E+02  0.45594000000E+02  0.51100000000E-03 0. -1.
         11   -1    0    0    0    0 -0.00000000000E+00 -0.00000000000E+00 -0.45593999997E+02  0.45594000000E+02  0.51100000000E-03 0.  1.
    9900012    2    1    2    0    0  0.11845535515E+01  0.20917107041E+02 -0.34845911461E+02  0.50528854908E+02  0.29999984979E+02 0.  0.
         12    1    1    2    0    0 -0.11845535515E+01 -0.20917107041E+02  0.34845911461E+02  0.40659145092E+02  0.00000000000E+00 0. -1.
         11    1    3    3    0    0  0.10409456971E+01  0.15355294084E+02 -0.47974752512E+01  0.16120930289E+02  0.51100000000E-03 0. -1.
        -11    1    3    3    0    0 -0.11752312764E+01  0.92151545197E+00 -0.29516897580E+02  0.29554654495E+02  0.51100000000E-03 0.  1.
        -12    1    3    3    0    0  0.13188391309E+01  0.46402975049E+01 -0.53153862945E+00  0.48532701245E+01  0.00000000000E+00 0.  1.
</event>
<event>
 7    1  0.6889665E-012  0.5052886E+02  0.7816164E-02  0.1300439E+00
        -11   -1    0    0    0    0  0.00000000000E+00  0.00000000000E+00  0.45593999997E+02  0.45594000000E+02  0.51100000000E-03 0. -1.
         11   -1    0    0    0    0 -0.00000000000E+00 -0.00000000000E+00 -0.45593999997E+02  0.45594000000E+02  0.51100000000E-03 0.  1.
    9900012    2    1    2    0    0  0.62426755399E+01  0.36570466941E+02 -0.16637178351E+02  0.50528858916E+02  0.29999997162E+02 0.  0.
         12    1    1    2    0    0 -0.62426755399E+01 -0.36570466941E+02  0.16637178351E+02  0.40659141084E+02  0.00000000000E+00 0. -1.
         11    1    3    3    0    0  0.13043326076E+02  0.66098358727E+01 -0.94240233884E+01  0.17396278409E+02  0.51100000000E-03 0. -1.
        -11    1    3    3    0    0 -0.70642133502E+01  0.95629352493E+01 -0.35409743432E+01  0.12405294853E+02  0.51100000000E-03 0.  1.
         12    1    3    3    0    0  0.26356281363E+00  0.20397695819E+02 -0.36721806190E+01  0.20727285654E+02  0.00000000000E+00 0. -1.
</event>
<event>
 7    1  0.6889665E-012  0.5052886E+02  0.7816164E-02  0.1300439E+00
        -11   -1    0    0    0    0  0.00000000000E+00  0.00000000000E+00  0.45593999997E+02  0.45594000000E+02  0.51100000000E-03 0. -1.
         11   -1    0    0    0    0 -0.00000000000E+00 -0.00000000000E+00 -0.45593999997E+02  0.45594000000E+02  0.51100000000E-03 0.  1.
    9900012    2    1    2    0    0 -0.26830917322E+02 -0.12785644677E+02 -0.27745176837E+02  0.50528859922E+02  0.30000000220E+02 0.  0.
         12    1    1    2    0    0  0.26830917322E+02  0.12785644677E+02  0.27745176837E+02  0.40659140078E+02  0.00000000000E+00 0. -1.
         11    1    3    3    0    0  0.55430306014E-01 -0.43036992173E+01 -0.72492104795E+01  0.84306555089E+01  0.51100000000E-03 0. -1.
        -11    1    3    3    0    0 -0.30044487099E+02 -0.83074497142E+01 -0.22418970004E+02  0.38396551174E+02  0.51100000000E-03 0.  1.
         12    1    3    3    0    0  0.31581394708E+01 -0.17449574522E+00  0.19230036464E+01  0.37016532395E+01  0.00000000000E+00 0. -1.
</event>
<event>
 7    1  0.8334279E-012  0.5052884E+02  0.7816164E-02  0.1300439E+00
        -11   -1    0    0    0    0  0.00000000000E+00  0.00000000000E+00  0.45593999997E+02  0.45594000000E+02  0.51100000000E-03 0. -1.
         11   -1    0    0    0    0 -0.00000000000E+00 -0.00000000000E+00 -0.45593999997E+02  0.45594000000E+02  0.51100000000E-03 0.  1.
    9900012    2    1    2    0    0  0.64235834611E+01  0.15860368670E+02 -0.36882966107E+02  0.50528844725E+02  0.29999954027E+02 0.  0.
         12    1    1    2    0    0 -0.64235834611E+01 -0.15860368670E+02  0.36882966107E+02  0.40659155275E+02  0.00000000000E+00 0. -1.
         11    1    3    3    0    0 -0.86792924887E+00 -0.23860283628E+01 -0.17788206367E+02  0.17968492383E+02  0.51100000000E-03 0.  1.
        -11    1    3    3    0    0  0.12827010089E+02  0.10234586330E+02 -0.13998348339E+02  0.21569253619E+02  0.51100000000E-03 0. -1.
        -12    1    3    3    0    0 -0.55354973794E+01  0.80118107026E+01 -0.50964114004E+01  0.10991098723E+02  0.00000000000E+00 0.  1.
</event>
<event>
 7    1  0.6889665E-012  0.5052886E+02  0.7816164E-02  0.1300439E+00
        -11   -1    0    0    0    0  0.00000000000E+00  0.00000000000E+00  0.45593999997E+02  0.45594000000E+02  0.51100000000E-03 0. -1.
         11   -1    0    0    0    0 -0.00000000000E+00 -0.00000000000E+00 -0.45593999997E+02  0.45594000000E+02  0.51100000000E-03 0.  1.
    9900012    2    1    2    0    0  0.85025028773E+01 -0.17722806122E+02 -0.35591783412E+02  0.50528862547E+02  0.30000008197E+02 0.  0.
         12    1    1    2    0    0 -0.85025028773E+01  0.17722806122E+02  0.35591783412E+02  0.40659137453E+02  0.00000000000E+00 0. -1.
         11    1    3    3    0    0  0.40600261381E+01 -0.60843748400E+01  0.42985664944E+01  0.84841678204E+01  0.51100000000E-03 0. -1.
        -11    1    3    3    0    0  0.41072220252E+01 -0.58307755812E+01 -0.26547261580E+02  0.27488621543E+02  0.51100000000E-03 0.  1.
         12    1    3    3    0    0  0.33525471392E+00 -0.58076557008E+01 -0.13343088326E+02  0.14556073184E+02  0.00000000000E+00 0. -1.
</event>
<event>
 7    1  0.6889665E-012  0.5052884E+02  0.7816164E-02  0.1300439E+00
        -11   -1    0    0    0    0  0.00000000000E+00  0.00000000000E+00  0.45593999997E+02  0.45594000000E+02  0.51100000000E-03 0.  1.
         11   -1    0    0    0    0 -0.00000000000E+00 -0.00000000000E+00 -0.45593999997E+02  0.45594000000E+02  0.51100000000E-03 0. -1.
    9900012    2    1    2    0    0 -0.62467946720E+01  0.32178526248E+02  0.24055922074E+02  0.50528838892E+02  0.29999936295E+02 0.  0.
        -12    1    1    2    0    0  0.62467946720E+01 -0.32178526248E+02 -0.24055922074E+02  0.40659161108E+02  0.00000000000E+00 0.  1.
         11    1    3    3    0    0 -0.50213995126E+01  0.16800069913E+02  0.15059221727E+02  0.23113566610E+02  0.51100000000E-03 0. -1.
        -11    1    3    3    0    0  0.37246379001E+01  0.71602253868E+01 -0.56883033804E+01  0.98741354399E+01  0.51100000000E-03 0.  1.
        -12    1    3    3    0    0 -0.49500330595E+01  0.82182309490E+01  0.14685003727E+02  0.17541136842E+02  0.00000000000E+00 0.  1.
</event>
<event>
 7    1  0.6889665E-012  0.5052886E+02  0.7816164E-02  0.1300439E+00
        -11   -1    0    0    0    0  0.00000000000E+00  0.00000000000E+00  0.45593999997E+02  0.45594000000E+02  0.51100000000E-03 0. -1.
         11   -1    0    0    0    0 -0.00000000000E+00 -0.00000000000E+00 -0.45593999997E+02  0.45594000000E+02  0.51100000000E-03 0.  1.
    9900012    2    1    2    0    0 -0.15957396715E+02 -0.17784711825E+02  0.32897276787E+02  0.50528864439E+02  0.30000013948E+02 0.  0.
        -12    1    1    2    0    0  0.15957396715E+02  0.17784711825E+02 -0.32897276787E+02  0.40659135561E+02  0.00000000000E+00 0.  1.
         11    1    3    3    0    0 -0.21129840743E+02 -0.13001702965E+02  0.28072360337E+02  0.37464274516E+02  0.51100000000E-03 0. -1.
        -11    1    3    3    0    0  0.77194593311E+01 -0.13317688283E+01  0.27739852227E+01  0.83101537202E+01  0.51100000000E-03 0.  1.
        -12    1    3    3    0    0 -0.25470153026E+01 -0.34512400317E+01  0.20509312270E+01  0.47544362028E+01  0.00000000000E+00 0.  1.
</event>
<event>
 7    1  0.6889665E-012  0.5052889E+02  0.7816164E-02  0.1300439E+00
        -11   -1    0    0    0    0  0.00000000000E+00  0.00000000000E+00  0.45593999997E+02  0.45594000000E+02  0.51100000000E-03 0. -1.
         11   -1    0    0    0    0 -0.00000000000E+00 -0.00000000000E+00 -0.45593999997E+02  0.45594000000E+02  0.51100000000E-03 0.  1.
    9900012    2    1    2    0    0  0.17839324227E+02  0.55116214592E+01  0.36118464848E+02  0.50528893235E+02  0.30000101477E+02 0.  0.
        -12    1    1    2    0    0 -0.17839324227E+02 -0.55116214592E+01 -0.36118464848E+02  0.40659106765E+02  0.00000000000E+00 0.  1.
         11    1    3    3    0    0  0.18244874532E+02  0.13514647096E+02  0.13414375708E+02  0.26371700907E+02  0.51100000000E-03 0. -1.
        -11    1    3    3    0    0 -0.20869065472E+00 -0.63839275884E+01  0.15378297833E+02  0.16652030739E+02  0.51100000000E-03 0.  1.
         12    1    3    3    0    0 -0.19685964956E+00 -0.16190980485E+01  0.73257913065E+01  0.75051615891E+01  0.00000000000E+00 0. -1.
</event>
<event>
 7    1  0.6889665E-012  0.5052886E+02  0.7816164E-02  0.1300439E+00
        -11   -1    0    0    0    0  0.00000000000E+00  0.00000000000E+00  0.45593999997E+02  0.45594000000E+02  0.51100000000E-03 0. -1.
         11   -1    0    0    0    0 -0.00000000000E+00 -0.00000000000E+00 -0.45593999997E+02  0.45594000000E+02  0.51100000000E-03 0.  1.
    9900012    2    1    2    0    0  0.39168969236E+01  0.24394386891E+01  0.40396445812E+02  0.50528858631E+02  0.29999996294E+02 0.  0.
        -12    1    1    2    0    0 -0.39168969236E+01 -0.24394386891E+01 -0.40396445812E+02  0.40659141369E+02  0.00000000000E+00 0.  1.
         11    1    3    3    0    0 -0.10436061153E-01  0.84514636798E+01 -0.31502050196E+00  0.84573391454E+01  0.51100000000E-03 0. -1.
        -11    1    3    3    0    0  0.23263215746E+01 -0.70785183973E+01  0.21312795019E+02  0.22577697547E+02  0.51100000000E-03 0.  1.
         12    1    3    3    0    0  0.16010114101E+01  0.10664934066E+01  0.19398671295E+02  0.19493821938E+02  0.00000000000E+00 0. -1.
</event>
<event>
 7    1  0.6889665E-012  0.5052886E+02  0.7816164E-02  0.1300439E+00
        -11   -1    0    0    0    0  0.00000000000E+00  0.00000000000E+00  0.45593999997E+02  0.45594000000E+02  0.51100000000E-03 0. -1.
         11   -1    0    0    0    0 -0.00000000000E+00 -0.00000000000E+00 -0.45593999997E+02  0.45594000000E+02  0.51100000000E-03 0.  1.
    9900012    2    1    2    0    0  0.39893648379E+00  0.95262772214E+01 -0.39525396141E+02  0.50528855296E+02  0.29999986157E+02 0.  0.
         12    1    1    2    0    0 -0.39893648379E+00 -0.95262772214E+01  0.39525396141E+02  0.40659144704E+02  0.00000000000E+00 0. -1.
         11    1    3    3    0    0 -0.39437950262E+01 -0.41004492364E+01 -0.30642742847E+02  0.31166406476E+02  0.51100000000E-03 0. -1.
        -11    1    3    3    0    0  0.62851542000E+01  0.47554091154E+01 -0.25223796325E+01  0.82752328332E+01  0.51100000000E-03 0.  1.
         12    1    3    3    0    0 -0.19424226901E+01  0.88713173424E+01 -0.63602736609E+01  0.11087215987E+02  0.00000000000E+00 0. -1.
</event>
<event>
 7    1  0.6889665E-012  0.5052877E+02  0.7816164E-02  0.1300439E+00
        -11   -1    0    0    0    0  0.00000000000E+00  0.00000000000E+00  0.45593999997E+02  0.45594000000E+02  0.51100000000E-03 0.  1.
         11   -1    0    0    0    0 -0.00000000000E+00 -0.00000000000E+00 -0.45593999997E+02  0.45594000000E+02  0.51100000000E-03 0. -1.
    9900012    2    1    2    0    0  0.31876703197E+02  0.20137832150E+02 -0.15215666840E+02  0.50528769710E+02  0.29999726009E+02 0.  0.
        -12    1    1    2    0    0 -0.31876703197E+02 -0.20137832150E+02  0.15215666840E+02  0.40659230290E+02  0.00000000000E+00 0.  1.
         11    1    3    3    0    0  0.24452787360E+02  0.17850881373E+02 -0.68722080482E+01  0.31045450861E+02  0.51100000000E-03 0. -1.
        -11    1    3    3    0    0 -0.54842389553E+00  0.77096642930E+01 -0.53032060448E+01  0.93735631910E+01  0.51100000000E-03 0.  1.
        -12    1    3    3    0    0  0.79723397323E+01 -0.54227135160E+01 -0.30402527472E+01  0.10109755657E+02  0.00000000000E+00 0.  1.
</event>
<event>
 7    1  0.6889665E-012  0.5052885E+02  0.7816164E-02  0.1300439E+00
        -11   -1    0    0    0    0  0.00000000000E+00  0.00000000000E+00  0.45593999997E+02  0.45594000000E+02  0.51100000000E-03 0. -1.
         11   -1    0    0    0    0 -0.00000000000E+00 -0.00000000000E+00 -0.45593999997E+02  0.45594000000E+02  0.51100000000E-03 0.  1.
    9900012    2    1    2    0    0  0.32369500712E+02 -0.14322510728E+02 -0.20006183207E+02  0.50528852734E+02  0.29999978370E+02 0.  0.
         12    1    1    2    0    0 -0.32369500712E+02  0.14322510728E+02  0.20006183207E+02  0.40659147266E+02  0.00000000000E+00 0. -1.
         11    1    3    3    0    0  0.29453484629E+02 -0.12067931347E+02 -0.71910396017E+01  0.32632097306E+02  0.51100000000E-03 0. -1.
        -11    1    3    3    0    0  0.67331708045E+00 -0.42210375251E+01 -0.14037070037E+02  0.14673440263E+02  0.51100000000E-03 0.  1.
         12    1    3    3    0    0  0.22426990025E+01  0.19664581441E+01  0.12219264311E+01  0.32233151648E+01  0.00000000000E+00 0. -1.
</event>
<event>
 7    1  0.6889665E-012  0.5052887E+02  0.7816164E-02  0.1300439E+00
        -11   -1    0    0    0    0  0.00000000000E+00  0.00000000000E+00  0.45593999997E+02  0.45594000000E+02  0.51100000000E-03 0. -1.
         11   -1    0    0    0    0 -0.00000000000E+00 -0.00000000000E+00 -0.45593999997E+02  0.45594000000E+02  0.51100000000E-03 0.  1.
    9900012    2    1    2    0    0  0.39642675438E+02  0.19114512002E+01  0.88300499631E+01  0.50528866414E+02  0.30000019953E+02 0.  0.
        -12    1    1    2    0    0 -0.39642675438E+02 -0.19114512002E+01 -0.88300499631E+01  0.40659133586E+02  0.00000000000E+00 0.  1.
         11    1    3    3    0    0  0.12455566443E+02 -0.11821000510E+01  0.17120156313E+02  0.21204675154E+02  0.51100000000E-03 0. -1.
        -11    1    3    3    0    0  0.15576276105E+02  0.43381776214E+01 -0.68429518018E+01  0.17557509846E+02  0.51100000000E-03 0.  1.
         12    1    3    3    0    0  0.11610832890E+02 -0.12446263701E+01 -0.14471545484E+01  0.11766681414E+02  0.00000000000E+00 0. -1.
</event>
<event>
 7    1  0.6889665E-012  0.5052886E+02  0.7816164E-02  0.1300439E+00
        -11   -1    0    0    0    0  0.00000000000E+00  0.00000000000E+00  0.45593999997E+02  0.45594000000E+02  0.51100000000E-03 0. -1.
         11   -1    0    0    0    0 -0.00000000000E+00 -0.00000000000E+00 -0.45593999997E+02  0.45594000000E+02  0.51100000000E-03 0.  1.
    9900012    2    1    2    0    0  0.17075923682E+02 -0.18417629329E+01  0.36853578602E+02  0.50528861837E+02  0.30000006041E+02 0.  0.
        -12    1    1    2    0    0 -0.17075923682E+02  0.18417629329E+01 -0.36853578602E+02  0.40659138163E+02  0.00000000000E+00 0.  1.
         11    1    3    3    0    0 -0.30186937409E+01  0.83394843499E+01  0.16797077185E+02  0.18994770684E+02  0.51100000000E-03 0. -1.
        -11    1    3    3    0    0  0.98481035098E+01 -0.24218746952E+01  0.38457058102E+01  0.10846200866E+02  0.51100000000E-03 0.  1.
        -12    1    3    3    0    0  0.10246513914E+02 -0.77593725876E+01  0.16210795607E+02  0.20687890288E+02  0.00000000000E+00 0.  1.
</event>
<event>
 7    1  0.6889665E-012  0.5052885E+02  0.7816164E-02  0.1300439E+00
        -11   -1    0    0    0    0  0.00000000000E+00  0.00000000000E+00  0.45593999997E+02  0.45594000000E+02  0.51100000000E-03 0. -1.
         11   -1    0    0    0    0 -0.00000000000E+00 -0.00000000000E+00 -0.45593999997E+02  0.45594000000E+02  0.51100000000E-03 0.  1.
    9900012    2    1    2    0    0 -0.28617348338E+02 -0.26061889638E+02  0.12449563781E+02  0.50528851512E+02  0.29999974655E+02 0.  0.
        -12    1    1    2    0    0  0.28617348338E+02  0.26061889638E+02 -0.12449563781E+02  0.40659148488E+02  0.00000000000E+00 0.  1.
         11    1    3    3    0    0 -0.11618830292E+01  0.19040273147E+01  0.80497751130E+00  0.23713458718E+01  0.51100000000E-03 0.  1.
        -11    1    3    3    0    0 -0.10749749511E+02 -0.23311070282E+02 -0.24819049858E+01  0.25789977993E+02  0.51100000000E-03 0. -1.
        -12    1    3    3    0    0 -0.16705715798E+02 -0.46548466710E+01  0.14126491256E+02  0.22367527647E+02  0.00000000000E+00 0.  1.
</event>
<event>
 7    1  0.6889665E-012  0.5052886E+02  0.7816164E-02  0.1300439E+00
        -11   -1    0    0    0    0  0.00000000000E+00  0.00000000000E+00  0.45593999997E+02  0.45594000000E+02  0.51100000000E-03 0.  1.
         11   -1    0    0    0    0 -0.00000000000E+00 -0.00000000000E+00 -0.45593999997E+02  0.45594000000E+02  0.51100000000E-03 0. -1.
    9900012    2    1    2    0    0  0.31143255962E+02 -0.23547513517E+02 -0.11348021872E+02  0.50528863448E+02  0.30000010937E+02 0.  0.
         12    1    1    2    0    0 -0.31143255962E+02  0.23547513517E+02  0.11348021872E+02  0.40659136552E+02  0.00000000000E+00 0. -1.
         11    1    3    3    0    0  0.14749021579E+00 -0.19380382817E+01 -0.97847511432E+01  0.99759260693E+01  0.51100000000E-03 0. -1.
        -11    1    3    3    0    0  0.15263425191E+02 -0.11852805502E+02  0.64608850191E+01  0.20376559629E+02  0.51100000000E-03 0.  1.
         12    1    3    3    0    0  0.15732340556E+02 -0.97566697335E+01 -0.80241557478E+01  0.20176377750E+02  0.00000000000E+00 0. -1.
</event>
<event>
 7    1  0.6889665E-012  0.5052886E+02  0.7816164E-02  0.1300439E+00
        -11   -1    0    0    0    0  0.00000000000E+00  0.00000000000E+00  0.45593999997E+02  0.45594000000E+02  0.51100000000E-03 0. -1.
         11   -1    0    0    0    0 -0.00000000000E+00 -0.00000000000E+00 -0.45593999997E+02  0.45594000000E+02  0.51100000000E-03 0.  1.
    9900012    2    1    2    0    0 -0.25843322269E+02 -0.27360522115E+02  0.15384748976E+02  0.50528856165E+02  0.29999988799E+02 0.  0.
        -12    1    1    2    0    0  0.25843322269E+02  0.27360522115E+02 -0.15384748976E+02  0.40659143835E+02  0.00000000000E+00 0.  1.
         11    1    3    3    0    0 -0.13327790796E+02 -0.14217409530E+01  0.55444171554E+01  0.14504892854E+02  0.51100000000E-03 0. -1.
        -11    1    3    3    0    0 -0.47944705125E+01 -0.18325205777E+02 -0.30427709428E+01  0.19184852607E+02  0.51100000000E-03 0.  1.
        -12    1    3    3    0    0 -0.77210609602E+01 -0.76135753854E+01  0.12883102763E+02  0.16839110704E+02  0.00000000000E+00 0.  1.
</event>
<event>
 7    1  0.6889665E-012  0.5052887E+02  0.7816164E-02  0.1300439E+00
        -11   -1    0    0    0    0  0.00000000000E+00  0.00000000000E+00  0.45593999997E+02  0.45594000000E+02  0.51100000000E-03 0. -1.
         11   -1    0    0    0    0 -0.00000000000E+00 -0.00000000000E+00 -0.45593999997E+02  0.45594000000E+02  0.51100000000E-03 0.  1.
    9900012    2    1    2    0    0  0.91540005920E+01  0.14152033329E+02  0.37001208105E+02  0.50528866027E+02  0.30000018775E+02 0.  0.
        -12    1    1    2    0    0 -0.91540005920E+01 -0.14152033329E+02 -0.37001208105E+02  0.40659133973E+02  0.00000000000E+00 0.  1.
         11    1    3    3    0    0  0.49838196048E+00 -0.78720776767E+01  0.12454405517E+02  0.14742123612E+02  0.51100000000E-03 0. -1.
        -11    1    3    3    0    0  0.30849208126E+01  0.19268618550E+02  0.20841513195E+02  0.28551095771E+02  0.51100000000E-03 0.  1.
        -12    1    3    3    0    0  0.55706978190E+01  0.27554924562E+01  0.37052893931E+01  0.72356466437E+01  0.00000000000E+00 0.  1.
</event>
<event>
 7    1  0.6889665E-012  0.5052887E+02  0.7816164E-02  0.1300439E+00
        -11   -1    0    0    0    0  0.00000000000E+00  0.00000000000E+00  0.45593999997E+02  0.45594000000E+02  0.51100000000E-03 0. -1.
         11   -1    0    0    0    0 -0.00000000000E+00 -0.00000000000E+00 -0.45593999997E+02  0.45594000000E+02  0.51100000000E-03 0.  1.
    9900012    2    1    2    0    0 -0.18445737202E+01 -0.31130489818E+02 -0.26089365349E+02  0.50528870240E+02  0.30000031582E+02 0.  0.
         12    1    1    2    0    0  0.18445737202E+01  0.31130489818E+02  0.26089365349E+02  0.40659129760E+02  0.00000000000E+00 0. -1.
         11    1    3    3    0    0  0.20944038455E+01 -0.90091457656E+01  0.60261419216E+01  0.11039276318E+02  0.51100000000E-03 0. -1.
        -11    1    3    3    0    0 -0.36786275372E+01 -0.12122332804E+02 -0.14694756584E+02  0.19401523767E+02  0.51100000000E-03 0.  1.
         12    1    3    3    0    0 -0.26035002846E+00 -0.99990112486E+01 -0.17420750686E+02  0.20088070155E+02  0.00000000000E+00 0. -1.
</event>
<event>
 7    1  0.6889665E-012  0.5052885E+02  0.7816164E-02  0.1300439E+00
        -11   -1    0    0    0    0  0.00000000000E+00  0.00000000000E+00  0.45593999997E+02  0.45594000000E+02  0.51100000000E-03 0. -1.
         11   -1    0    0    0    0 -0.00000000000E+00 -0.00000000000E+00 -0.45593999997E+02  0.45594000000E+02  0.51100000000E-03 0.  1.
    9900012    2    1    2    0    0  0.19412647745E+02 -0.13697676905E+01 -0.35699287730E+02  0.50528852193E+02  0.29999976725E+02 0.  0.
         12    1    1    2    0    0 -0.19412647745E+02  0.13697676905E+01  0.35699287730E+02  0.40659147807E+02  0.00000000000E+00 0. -1.
         11    1    3    3    0    0  0.15553279297E+02  0.90019007443E+01 -0.29570733770E+02  0.34602991343E+02  0.51100000000E-03 0. -1.
        -11    1    3    3    0    0  0.65007725620E+01 -0.91666585857E+01 -0.65263988397E+01  0.12995443648E+02  0.51100000000E-03 0.  1.
         12    1    3    3    0    0 -0.26414041141E+01 -0.12050098492E+01  0.39784487969E+00  0.29304172022E+01  0.00000000000E+00 0. -1.
</event>
<event>
 7    1  0.6889665E-012  0.5052886E+02  0.7816164E-02  0.1300439E+00
        -11   -1    0    0    0    0  0.00000000000E+00  0.00000000000E+00  0.45593999997E+02  0.45594000000E+02  0.51100000000E-03 0. -1.
         11   -1    0    0    0    0 -0.00000000000E+00 -0.00000000000E+00 -0.45593999997E+02  0.45594000000E+02  0.51100000000E-03 0.  1.
    9900012    2    1    2    0    0  0.23849734947E+02  0.50276443818E+01 -0.32543484697E+02  0.50528862512E+02  0.30000008092E+02 0.  0.
         12    1    1    2    0    0 -0.23849734947E+02 -0.50276443818E+01  0.32543484697E+02  0.40659137488E+02  0.00000000000E+00 0. -1.
         11    1    3    3    0    0  0.39973207185E+01 -0.34735975043E+01  0.22522574683E+01  0.57547473023E+01  0.51100000000E-03 0. -1.
        -11    1    3    3    0    0  0.22419745545E+02  0.94260747936E+01 -0.34224956709E+02  0.41986230342E+02  0.51100000000E-03 0.  1.
        -12    1    3    3    0    0 -0.25673313174E+01 -0.92483290754E+00 -0.57078545605E+00  0.27878848679E+01  0.00000000000E+00 0.  1.
</event>
<event>
 7    1  0.6889665E-012  0.5052886E+02  0.7816164E-02  0.1300439E+00
        -11   -1    0    0    0    0  0.00000000000E+00  0.00000000000E+00  0.45593999997E+02  0.45594000000E+02  0.51100000000E-03 0. -1.
         11   -1    0    0    0    0 -0.00000000000E+00 -0.00000000000E+00 -0.45593999997E+02  0.45594000000E+02  0.51100000000E-03 0.  1.
    9900012    2    1    2    0    0  0.20423589419E+02 -0.10946988777E+02  0.33409670254E+02  0.50528860382E+02  0.30000001617E+02 0.  0.
        -12    1    1    2    0    0 -0.20423589419E+02  0.10946988777E+02 -0.33409670254E+02  0.40659139618E+02  0.00000000000E+00 0.  1.
         11    1    3    3    0    0  0.13031755443E+02 -0.16970324441E+02  0.31264201897E+02  0.37884942683E+02  0.51100000000E-03 0. -1.
        -11    1    3    3    0    0  0.72074727192E+01  0.13611598520E+01  0.29561840160E+01  0.79081883727E+01  0.51100000000E-03 0.  1.
         12    1    3    3    0    0  0.18436125638E+00  0.46621758122E+01 -0.81071565934E+00  0.47357293268E+01  0.00000000000E+00 0. -1.
</event>
<event>
 7    1  0.6889665E-012  0.5052886E+02  0.7816164E-02  0.1300439E+00
        -11   -1    0    0    0    0  0.00000000000E+00  0.00000000000E+00  0.45593999997E+02  0.45594000000E+02  0.51100000000E-03 0. -1.
         11   -1    0    0    0    0 -0.00000000000E+00 -0.00000000000E+00 -0.45593999997E+02  0.45594000000E+02  0.51100000000E-03 0.  1.
    9900012    2    1    2    0    0 -0.31797498274E+01 -0.19808424104E+02 -0.35364976058E+02  0.50528855813E+02  0.29999987728E+02 0.  0.
         12    1    1    2    0    0  0.31797498274E+01  0.19808424104E+02  0.35364976058E+02  0.40659144187E+02  0.00000000000E+00 0. -1.
         11    1    3    3    0    0  0.17671428060E+01  0.50369464406E+01  0.95645436252E+00  0.54229538400E+01  0.51100000000E-03 0. -1.
        -11    1    3    3    0    0  0.23209340325E+01 -0.56816165118E+01 -0.10191395348E+02  0.11896723935E+02  0.51100000000E-03 0.  1.
         12    1    3    3    0    0 -0.72678266659E+01 -0.19163754032E+02 -0.26130035073E+02  0.33209178038E+02  0.00000000000E+00 0. -1.
</event>
<event>
 7    1  0.6889665E-012  0.5052885E+02  0.7816164E-02  0.1300439E+00
        -11   -1    0    0    0    0  0.00000000000E+00  0.00000000000E+00  0.45593999997E+02  0.45594000000E+02  0.51100000000E-03 0.  1.
         11   -1    0    0    0    0 -0.00000000000E+00 -0.00000000000E+00 -0.45593999997E+02  0.45594000000E+02  0.51100000000E-03 0. -1.
    9900012    2    1    2    0    0  0.17670054057E+02 -0.33905806251E+02 -0.13832278200E+02  0.50528850622E+02  0.29999971952E+02 0.  0.
         12    1    1    2    0    0 -0.17670054057E+02  0.33905806251E+02  0.13832278200E+02  0.40659149378E+02  0.00000000000E+00 0. -1.
         11    1    3    3    0    0 -0.66420065475E+01 -0.11859043367E+02 -0.35360398066E+01  0.14044811794E+02  0.51100000000E-03 0. -1.
        -11    1    3    3    0    0  0.19784581647E+02 -0.22949607648E+02 -0.97749105667E+01  0.31838075303E+02  0.51100000000E-03 0.  1.
         12    1    3    3    0    0  0.45274789576E+01  0.90284476354E+00 -0.52132782663E+00  0.46459635256E+01  0.00000000000E+00 0. -1.
</event>
<event>
 7    1  0.6889665E-012  0.5052886E+02  0.7816164E-02  0.1300439E+00
        -11   -1    0    0    0    0  0.00000000000E+00  0.00000000000E+00  0.45593999997E+02  0.45594000000E+02  0.51100000000E-03 0. -1.
         11   -1    0    0    0    0 -0.00000000000E+00 -0.00000000000E+00 -0.45593999997E+02  0.45594000000E+02  0.51100000000E-03 0.  1.
    9900012    2    1    2    0    0 -0.14411921574E+02 -0.81440477175E+00 -0.38010508498E+02  0.50528862099E+02  0.30000006836E+02 0.  0.
         12    1    1    2    0    0  0.14411921574E+02  0.81440477175E+00  0.38010508498E+02  0.40659137901E+02  0.00000000000E+00 0. -1.
         11    1    3    3    0    0  0.65792648112E+01  0.14955520050E-02 -0.11305808140E+01  0.66756977861E+01  0.51100000000E-03 0. -1.
        -11    1    3    3    0    0 -0.14275913750E+02 -0.57492620303E+01 -0.23527745703E+02  0.28114240972E+02  0.51100000000E-03 0.  1.
         12    1    3    3    0    0 -0.67152726359E+01  0.49333617065E+01 -0.13352181981E+02  0.15738923341E+02  0.00000000000E+00 0. -1.
</event>
<event>
 7    1  0.6889665E-012  0.5052886E+02  0.7816164E-02  0.1300439E+00
        -11   -1    0    0    0    0  0.00000000000E+00  0.00000000000E+00  0.45593999997E+02  0.45594000000E+02  0.51100000000E-03 0. -1.
         11   -1    0    0    0    0 -0.00000000000E+00 -0.00000000000E+00 -0.45593999997E+02  0.45594000000E+02  0.51100000000E-03 0.  1.
    9900012    2    1    2    0    0  0.25138046180E+02 -0.61880042217E+01 -0.31352077409E+02  0.50528861791E+02  0.30000005901E+02 0.  0.
         12    1    1    2    0    0 -0.25138046180E+02  0.61880042217E+01  0.31352077409E+02  0.40659138209E+02  0.00000000000E+00 0. -1.
         11    1    3    3    0    0  0.97993560873E+00  0.24762764835E+00  0.27034954544E+01  0.28862572967E+01  0.51100000000E-03 0. -1.
        -11    1    3    3    0    0  0.13433705003E+02  0.44614951879E+01 -0.27656064896E+02  0.31068107364E+02  0.51100000000E-03 0.  1.
        -12    1    3    3    0    0  0.10724405568E+02 -0.10897127058E+02 -0.63995079681E+01  0.16574497130E+02  0.00000000000E+00 0.  1.
</event>
<event>
 7    1  0.6889665E-012  0.5052885E+02  0.7816164E-02  0.1300439E+00
        -11   -1    0    0    0    0  0.00000000000E+00  0.00000000000E+00  0.45593999997E+02  0.45594000000E+02  0.51100000000E-03 0. -1.
         11   -1    0    0    0    0 -0.00000000000E+00 -0.00000000000E+00 -0.45593999997E+02  0.45594000000E+02  0.51100000000E-03 0.  1.
    9900012    2    1    2    0    0 -0.17259876622E+01  0.85262907641E+01 -0.39717628024E+02  0.50528847974E+02  0.29999963903E+02 0.  0.
         12    1    1    2    0    0  0.17259876622E+01 -0.85262907641E+01  0.39717628024E+02  0.40659152026E+02  0.00000000000E+00 0. -1.
         11    1    3    3    0    0 -0.61640690178E+01  0.90352059929E+01 -0.61752083413E+01  0.12560409727E+02  0.51100000000E-03 0. -1.
        -11    1    3    3    0    0  0.61257160284E+01 -0.49089074740E+01 -0.56279212660E+01  0.96589475351E+01  0.51100000000E-03 0.  1.
         12    1    3    3    0    0 -0.16876346729E+01  0.43999922452E+01 -0.27914498416E+02  0.28309490712E+02  0.00000000000E+00 0. -1.
</event>
<event>
 7    1  0.6889665E-012  0.5052886E+02  0.7816164E-02  0.1300439E+00
        -11   -1    0    0    0    0  0.00000000000E+00  0.00000000000E+00  0.45593999997E+02  0.45594000000E+02  0.51100000000E-03 0. -1.
         11   -1    0    0    0    0 -0.00000000000E+00 -0.00000000000E+00 -0.45593999997E+02  0.45594000000E+02  0.51100000000E-03 0.  1.
    9900012    2    1    2    0    0 -0.19950608889E+02 -0.18040297501E+02  0.30490760676E+02  0.50528860615E+02  0.30000002325E+02 0.  0.
        -12    1    1    2    0    0  0.19950608889E+02  0.18040297501E+02 -0.30490760676E+02  0.40659139385E+02  0.00000000000E+00 0.  1.
         11    1    3    3    0    0 -0.68758452050E+01 -0.46301542955E+01  0.18751078678E+02  0.20501671345E+02  0.51100000000E-03 0. -1.
        -11    1    3    3    0    0  0.14346827205E+01 -0.48592765267E+01 -0.43926326547E+01  0.67056770555E+01  0.51100000000E-03 0.  1.
        -12    1    3    3    0    0 -0.14509446405E+02 -0.85508666787E+01  0.16132314652E+02  0.23321512214E+02  0.00000000000E+00 0.  1.
</event>
<event>
 7    1  0.6889665E-012  0.5052888E+02  0.7816164E-02  0.1300439E+00
        -11   -1    0    0    0    0  0.00000000000E+00  0.00000000000E+00  0.45593999997E+02  0.45594000000E+02  0.51100000000E-03 0. -1.
         11   -1    0    0    0    0 -0.00000000000E+00 -0.00000000000E+00 -0.45593999997E+02  0.45594000000E+02  0.51100000000E-03 0.  1.
    9900012    2    1    2    0    0 -0.29639499294E+02  0.10216658250E+02 -0.25889844804E+02  0.50528879398E+02  0.30000059418E+02 0.  0.
         12    1    1    2    0    0  0.29639499294E+02 -0.10216658250E+02  0.25889844804E+02  0.40659120602E+02  0.00000000000E+00 0. -1.
         11    1    3    3    0    0 -0.10329033315E+01  0.10581114930E+02 -0.16790308911E+01  0.10763179245E+02  0.51100000000E-03 0. -1.
        -11    1    3    3    0    0 -0.26716022952E+02  0.83341963300E+00 -0.25697886762E+02  0.37078590250E+02  0.51100000000E-03 0.  1.
        -12    1    3    3    0    0 -0.18905730103E+01 -0.11978763137E+01  0.14870728494E+01  0.26871099028E+01  0.00000000000E+00 0.  1.
</event>
<event>
 7    1  0.6889665E-012  0.5052883E+02  0.7816164E-02  0.1300439E+00
        -11   -1    0    0    0    0  0.00000000000E+00  0.00000000000E+00  0.45593999997E+02  0.45594000000E+02  0.51100000000E-03 0.  1.
         11   -1    0    0    0    0 -0.00000000000E+00 -0.00000000000E+00 -0.45593999997E+02  0.45594000000E+02  0.51100000000E-03 0. -1.
    9900012    2    1    2    0    0  0.29385757994E+02  0.14375733919E+02  0.24145052378E+02  0.50528830642E+02  0.29999911218E+02 0.  0.
        -12    1    1    2    0    0 -0.29385757994E+02 -0.14375733919E+02 -0.24145052378E+02  0.40659169358E+02  0.00000000000E+00 0.  1.
         11    1    3    3    0    0  0.12746860915E+02 -0.15292603373E+01 -0.33202458683E+01  0.13260661117E+02  0.51100000000E-03 0. -1.
        -11    1    3    3    0    0  0.12498139897E+02  0.60842106706E+01  0.11341511329E+02  0.17940206238E+02  0.51100000000E-03 0.  1.
         12    1    3    3    0    0  0.41407571822E+01  0.98207835859E+01  0.16123786917E+02  0.19327963287E+02  0.00000000000E+00 0. -1.
</event>
<event>
 7    1  0.6889665E-012  0.5052887E+02  0.7816164E-02  0.1300439E+00
        -11   -1    0    0    0    0  0.00000000000E+00  0.00000000000E+00  0.45593999997E+02  0.45594000000E+02  0.51100000000E-03 0. -1.
         11   -1    0    0    0    0 -0.00000000000E+00 -0.00000000000E+00 -0.45593999997E+02  0.45594000000E+02  0.51100000000E-03 0.  1.
    9900012    2    1    2    0    0 -0.25002488651E+02  0.35409214571E+01 -0.31866951604E+02  0.50528866118E+02  0.30000019052E+02 0.  0.
         12    1    1    2    0    0  0.25002488651E+02 -0.35409214571E+01  0.31866951604E+02  0.40659133882E+02  0.00000000000E+00 0. -1.
         11    1    3    3    0    0 -0.15910870373E+02 -0.31113962373E+01 -0.13623890605E+02  0.21176566720E+02  0.51100000000E-03 0. -1.
        -11    1    3    3    0    0  0.48416950628E+01 -0.13820893854E+01 -0.47112619748E-02  0.50350972788E+01  0.51100000000E-03 0.  1.
        -12    1    3    3    0    0 -0.13933313341E+02  0.80344070798E+01 -0.18238349736E+02  0.24317202119E+02  0.00000000000E+00 0.  1.
</event>
<event>
 7    1  0.6889665E-012  0.5052881E+02  0.7816164E-02  0.1300439E+00
        -11   -1    0    0    0    0  0.00000000000E+00  0.00000000000E+00  0.45593999997E+02  0.45594000000E+02  0.51100000000E-03 0. -1.
         11   -1    0    0    0    0 -0.00000000000E+00 -0.00000000000E+00 -0.45593999997E+02  0.45594000000E+02  0.51100000000E-03 0.  1.
    9900012    2    1    2    0    0 -0.57914775825E+00 -0.21417635713E+01 -0.40598612435E+02  0.50528807989E+02  0.29999842364E+02 0.  0.
         12    1    1    2    0    0  0.57914775825E+00  0.21417635713E+01  0.40598612435E+02  0.40659192011E+02  0.00000000000E+00 0. -1.
         11    1    3    3    0    0 -0.11479551309E+02 -0.18014342498E+00 -0.31113209575E+02  0.33163901463E+02  0.51100000000E-03 0. -1.
        -11    1    3    3    0    0  0.22600095070E+01  0.32155384972E+01 -0.68549718535E+00  0.39896412685E+01  0.51100000000E-03 0.  1.
         12    1    3    3    0    0  0.86403940434E+01 -0.51771586436E+01 -0.87999056744E+01  0.13375265258E+02  0.00000000000E+00 0. -1.
</event>
<event>
 7    1  0.9140035E-012  0.5052887E+02  0.7816164E-02  0.1300439E+00
        -11   -1    0    0    0    0  0.00000000000E+00  0.00000000000E+00  0.45593999997E+02  0.45594000000E+02  0.51100000000E-03 0. -1.
         11   -1    0    0    0    0 -0.00000000000E+00 -0.00000000000E+00 -0.45593999997E+02  0.45594000000E+02  0.51100000000E-03 0.  1.
    9900012    2    1    2    0    0 -0.32729428437E+01 -0.44169347883E+01  0.40285768362E+02  0.50528873099E+02  0.30000040273E+02 0.  0.
        -12    1    1    2    0    0  0.32729428437E+01  0.44169347883E+01 -0.40285768362E+02  0.40659126901E+02  0.00000000000E+00 0.  1.
         11    1    3    3    0    0  0.48243814641E+01 -0.19623385375E+00  0.36221807007E+02  0.36542201184E+02  0.51100000000E-03 0. -1.
        -11    1    3    3    0    0 -0.72991895904E+00 -0.67476459033E+00 -0.30131581468E+01  0.31728868902E+01  0.51100000000E-03 0.  1.
         12    1    3    3    0    0 -0.73674053488E+01 -0.35459363442E+01  0.70771195020E+01  0.10813785025E+02  0.00000000000E+00 0. -1.
</event>
<event>
 7    1  0.6889665E-012  0.5052885E+02  0.7816164E-02  0.1300439E+00
        -11   -1    0    0    0    0  0.00000000000E+00  0.00000000000E+00  0.45593999997E+02  0.45594000000E+02  0.51100000000E-03 0. -1.
         11   -1    0    0    0    0 -0.00000000000E+00 -0.00000000000E+00 -0.45593999997E+02  0.45594000000E+02  0.51100000000E-03 0.  1.
    9900012    2    1    2    0    0  0.34778969934E+01 -0.40497630494E+02  0.10062378487E+01  0.50528851488E+02  0.29999974583E+02 0.  0.
         12    1    1    2    0    0 -0.34778969934E+01  0.40497630494E+02 -0.10062378487E+01  0.40659148512E+02  0.00000000000E+00 0. -1.
         11    1    3    3    0    0 -0.54056907030E+01 -0.14676688767E+02  0.56291333869E+01  0.16622690158E+02  0.51100000000E-03 0. -1.
        -11    1    3    3    0    0  0.14789987302E+02 -0.15297636012E+02 -0.97995410804E+00  0.21300744172E+02  0.51100000000E-03 0.  1.
        -12    1    3    3    0    0 -0.59063996058E+01 -0.10523305714E+02 -0.36429414302E+01  0.12605417158E+02  0.00000000000E+00 0.  1.
</event>
<event>
 7    1  0.6889665E-012  0.5052887E+02  0.7816164E-02  0.1300439E+00
        -11   -1    0    0    0    0  0.00000000000E+00  0.00000000000E+00  0.45593999997E+02  0.45594000000E+02  0.51100000000E-03 0. -1.
         11   -1    0    0    0    0 -0.00000000000E+00 -0.00000000000E+00 -0.45593999997E+02  0.45594000000E+02  0.51100000000E-03 0.  1.
    9900012    2    1    2    0    0 -0.15277643024E+02  0.23856081959E+01  0.37604089166E+02  0.50528867879E+02  0.30000024405E+02 0.  0.
        -12    1    1    2    0    0  0.15277643024E+02 -0.23856081959E+01 -0.37604089166E+02  0.40659132121E+02  0.00000000000E+00 0.  1.
         11    1    3    3    0    0 -0.14411523040E+01 -0.37222944504E+01  0.33840628460E+02  0.34075218719E+02  0.51100000000E-03 0. -1.
        -11    1    3    3    0    0 -0.71365470775E+01  0.79191697186E+00  0.32610680087E+01  0.78861905568E+01  0.51100000000E-03 0.  1.
         12    1    3    3    0    0 -0.66999436422E+01  0.53159856745E+01  0.50239269785E+00  0.85674586035E+01  0.00000000000E+00 0. -1.
</event>
<event>
 7    1  0.6889665E-012  0.5052886E+02  0.7816164E-02  0.1300439E+00
        -11   -1    0    0    0    0  0.00000000000E+00  0.00000000000E+00  0.45593999997E+02  0.45594000000E+02  0.51100000000E-03 0.  1.
         11   -1    0    0    0    0 -0.00000000000E+00 -0.00000000000E+00 -0.45593999997E+02  0.45594000000E+02  0.51100000000E-03 0. -1.
    9900012    2    1    2    0    0 -0.29861309559E+02 -0.21057173288E+02  0.17834331021E+02  0.50528859350E+02  0.29999998479E+02 0.  0.
        -12    1    1    2    0    0  0.29861309559E+02  0.21057173288E+02 -0.17834331021E+02  0.40659140650E+02  0.00000000000E+00 0.  1.
         11    1    3    3    0    0 -0.88180946710E+01 -0.19106735419E+01 -0.67656756772E+00  0.90480501184E+01  0.51100000000E-03 0. -1.
        -11    1    3    3    0    0 -0.18238918120E+02 -0.10324629015E+02  0.23064543892E+02  0.31164551716E+02  0.51100000000E-03 0.  1.
        -12    1    3    3    0    0 -0.28042967681E+01 -0.88218707318E+01 -0.45536453033E+01  0.10316257515E+02  0.00000000000E+00 0.  1.
</event>
<event>
 7    1  0.8527370E-012  0.5052886E+02  0.7816164E-02  0.1300439E+00
        -11   -1    0    0    0    0  0.00000000000E+00  0.00000000000E+00  0.45593999997E+02  0.45594000000E+02  0.51100000000E-03 0. -1.
         11   -1    0    0    0    0 -0.00000000000E+00 -0.00000000000E+00 -0.45593999997E+02  0.45594000000E+02  0.51100000000E-03 0.  1.
    9900012    2    1    2    0    0  0.80410197321E+01 -0.19976274100E+02 -0.34488490186E+02  0.50528862275E+02  0.30000007371E+02 0.  0.
         12    1    1    2    0    0 -0.80410197321E+01  0.19976274100E+02  0.34488490186E+02  0.40659137725E+02  0.00000000000E+00 0. -1.
         11    1    3    3    0    0 -0.21899653557E+01 -0.37889767519E+00  0.40102395612E+01  0.45849245693E+01  0.51100000000E-03 0. -1.
        -11    1    3    3    0    0  0.17216141266E+01 -0.15262014826E+02 -0.21121295837E+02  0.26115171641E+02  0.51100000000E-03 0.  1.
         12    1    3    3    0    0  0.85093709612E+01 -0.43353615986E+01 -0.17377433910E+02  0.19828766064E+02  0.00000000000E+00 0. -1.
</event>
<event>
 7    1  0.6889665E-012  0.5052886E+02  0.7816164E-02  0.1300439E+00
        -11   -1    0    0    0    0  0.00000000000E+00  0.00000000000E+00  0.45593999997E+02  0.45594000000E+02  0.51100000000E-03 0. -1.
         11   -1    0    0    0    0 -0.00000000000E+00 -0.00000000000E+00 -0.45593999997E+02  0.45594000000E+02  0.51100000000E-03 0.  1.
    9900012    2    1    2    0    0 -0.11808829701E+02  0.43133602892E+01 -0.38666675470E+02  0.50528864153E+02  0.30000013081E+02 0.  0.
         12    1    1    2    0    0  0.11808829701E+02 -0.43133602892E+01  0.38666675470E+02  0.40659135847E+02  0.00000000000E+00 0. -1.
         11    1    3    3    0    0 -0.14247229740E+01  0.14428317771E+01 -0.12155780195E+01  0.23641550863E+01  0.51100000000E-03 0. -1.
        -11    1    3    3    0    0 -0.78958985934E+01 -0.34077361881E+01  0.14156408777E+01  0.87156135688E+01  0.51100000000E-03 0.  1.
        -12    1    3    3    0    0 -0.24882081338E+01  0.62782647002E+01 -0.38866738328E+02  0.39449095498E+02  0.00000000000E+00 0.  1.
</event>
<event>
 7    1  0.6889665E-012  0.5052886E+02  0.7816164E-02  0.1300439E+00
        -11   -1    0    0    0    0  0.00000000000E+00  0.00000000000E+00  0.45593999997E+02  0.45594000000E+02  0.51100000000E-03 0. -1.
         11   -1    0    0    0    0 -0.00000000000E+00 -0.00000000000E+00 -0.45593999997E+02  0.45594000000E+02  0.51100000000E-03 0.  1.
    9900012    2    1    2    0    0 -0.73732330128E+01 -0.13624440116E+02  0.37592232754E+02  0.50528857154E+02  0.29999991806E+02 0.  0.
        -12    1    1    2    0    0  0.73732330128E+01  0.13624440116E+02 -0.37592232754E+02  0.40659142846E+02  0.00000000000E+00 0.  1.
         11    1    3    3    0    0  0.20736738358E+01 -0.34724734745E+01 -0.29793427288E+01  0.50234130395E+01  0.51100000000E-03 0.  1.
        -11    1    3    3    0    0 -0.33073341991E+01  0.26643843063E+01  0.20358074262E+02  0.20796360046E+02  0.51100000000E-03 0. -1.
         12    1    3    3    0    0 -0.61395726495E+01 -0.12816350948E+02  0.20213501220E+02  0.24709084069E+02  0.00000000000E+00 0. -1.
</event>
<event>
 7    1  0.6889665E-012  0.5052886E+02  0.7816164E-02  0.1300439E+00
        -11   -1    0    0    0    0  0.00000000000E+00  0.00000000000E+00  0.45593999997E+02  0.45594000000E+02  0.51100000000E-03 0. -1.
         11   -1    0    0    0    0 -0.00000000000E+00 -0.00000000000E+00 -0.45593999997E+02  0.45594000000E+02  0.51100000000E-03 0.  1.
    9900012    2    1    2    0    0 -0.11283039960E+02 -0.18714925819E+01  0.39017381919E+02  0.50528861212E+02  0.30000004139E+02 0.  0.
        -12    1    1    2    0    0  0.11283039960E+02  0.18714925819E+01 -0.39017381919E+02  0.40659138788E+02  0.00000000000E+00 0.  1.
         11    1    3    3    0    0 -0.12026754207E+02 -0.79241308322E+01  0.96353264886E+01  0.17328421250E+02  0.51100000000E-03 0. -1.
        -11    1    3    3    0    0 -0.62424848899E+00  0.10337822572E+02  0.24291928935E+02  0.26407538192E+02  0.51100000000E-03 0.  1.
         12    1    3    3    0    0  0.13679627360E+01 -0.42851843221E+01  0.50901264954E+01  0.67929017703E+01  0.00000000000E+00 0. -1.
</event>
<event>
 7    1  0.6889665E-012  0.5052887E+02  0.7816164E-02  0.1300439E+00
        -11   -1    0    0    0    0  0.00000000000E+00  0.00000000000E+00  0.45593999997E+02  0.45594000000E+02  0.51100000000E-03 0. -1.
         11   -1    0    0    0    0 -0.00000000000E+00 -0.00000000000E+00 -0.45593999997E+02  0.45594000000E+02  0.51100000000E-03 0.  1.
    9900012    2    1    2    0    0  0.35794820401E+02  0.94057315674E+01  0.16835314547E+02  0.50528871016E+02  0.30000033941E+02 0.  0.
        -12    1    1    2    0    0 -0.35794820401E+02 -0.94057315674E+01 -0.16835314547E+02  0.40659128984E+02  0.00000000000E+00 0.  1.
         11    1    3    3    0    0  0.19351882019E+02 -0.34549557876E-01 -0.49955173306E+01  0.19986288425E+02  0.51100000000E-03 0. -1.
        -11    1    3    3    0    0 -0.85705618482E+00 -0.27880229249E+00  0.31977485307E+01  0.33223292957E+01  0.51100000000E-03 0.  1.
         12    1    3    3    0    0  0.17299994566E+02  0.97190834178E+01  0.18633083346E+02  0.27220253296E+02  0.00000000000E+00 0. -1.
</event>
<event>
 7    1  0.6889665E-012  0.5052887E+02  0.7816164E-02  0.1300439E+00
        -11   -1    0    0    0    0  0.00000000000E+00  0.00000000000E+00  0.45593999997E+02  0.45594000000E+02  0.51100000000E-03 0. -1.
         11   -1    0    0    0    0 -0.00000000000E+00 -0.00000000000E+00 -0.45593999997E+02  0.45594000000E+02  0.51100000000E-03 0.  1.
    9900012    2    1    2    0    0 -0.15845847884E+02 -0.23095222671E+02  0.29473458692E+02  0.50528868520E+02  0.30000026355E+02 0.  0.
        -12    1    1    2    0    0  0.15845847884E+02  0.23095222671E+02 -0.29473458692E+02  0.40659131480E+02  0.00000000000E+00 0.  1.
         11    1    3    3    0    0 -0.62548217638E+01 -0.55858726651E+01  0.10525371291E+02  0.13457645032E+02  0.51100000000E-03 0. -1.
        -11    1    3    3    0    0  0.17458415308E+01 -0.16344613670E+02  0.18754100074E+01  0.16544229255E+02  0.51100000000E-03 0.  1.
        -12    1    3    3    0    0 -0.11336867651E+02 -0.11647363351E+01  0.17072677394E+02  0.20526994234E+02  0.00000000000E+00 0.  1.
</event>
<event>
 7    1  0.6889665E-012  0.5052886E+02  0.7816164E-02  0.1300439E+00
        -11   -1    0    0    0    0  0.00000000000E+00  0.00000000000E+00  0.45593999997E+02  0.45594000000E+02  0.51100000000E-03 0. -1.
         11   -1    0    0    0    0 -0.00000000000E+00 -0.00000000000E+00 -0.45593999997E+02  0.45594000000E+02  0.51100000000E-03 0.  1.
    9900012    2    1    2    0    0 -0.31639579388E+02  0.94089723418E+01 -0.23739710198E+02  0.50528860995E+02  0.30000003480E+02 0.  0.
         12    1    1    2    0    0  0.31639579388E+02 -0.94089723418E+01  0.23739710198E+02  0.40659139005E+02  0.00000000000E+00 0. -1.
         11    1    3    3    0    0 -0.13499226038E+02 -0.93209261637E+01 -0.10568274106E+02  0.19514025367E+02  0.51100000000E-03 0. -1.
        -11    1    3    3    0    0 -0.18071944798E+02  0.13251996105E+02 -0.90907355181E+01  0.24183714811E+02  0.51100000000E-03 0.  1.
         12    1    3    3    0    0 -0.68408551794E-01  0.54779024010E+01 -0.40807005740E+01  0.68311208172E+01  0.00000000000E+00 0. -1.
</event>
<event>
 7    1  0.6889665E-012  0.5052886E+02  0.7816164E-02  0.1300439E+00
        -11   -1    0    0    0    0  0.00000000000E+00  0.00000000000E+00  0.45593999997E+02  0.45594000000E+02  0.51100000000E-03 0. -1.
         11   -1    0    0    0    0 -0.00000000000E+00 -0.00000000000E+00 -0.45593999997E+02  0.45594000000E+02  0.51100000000E-03 0.  1.
    9900012    2    1    2    0    0  0.15133194571E+02 -0.10714382478E+02  0.36184998484E+02  0.50528859759E+02  0.29999999724E+02 0.  0.
        -12    1    1    2    0    0 -0.15133194571E+02  0.10714382478E+02 -0.36184998484E+02  0.40659140241E+02  0.00000000000E+00 0.  1.
         11    1    3    3    0    0 -0.84179902434E+01  0.12094154651E+01  0.66111788755E+01  0.10771858330E+02  0.51100000000E-03 0. -1.
        -11    1    3    3    0    0  0.21530404079E+02 -0.11781219884E+02  0.27184784106E+02  0.36624690154E+02  0.51100000000E-03 0.  1.
         12    1    3    3    0    0  0.20207807352E+01 -0.14257805940E+00  0.23890355033E+01  0.31323112742E+01  0.00000000000E+00 0. -1.
</event>
<event>
 7    1  0.6889665E-012  0.5052886E+02  0.7816164E-02  0.1300439E+00
        -11   -1    0    0    0    0  0.00000000000E+00  0.00000000000E+00  0.45593999997E+02  0.45594000000E+02  0.51100000000E-03 0. -1.
         11   -1    0    0    0    0 -0.00000000000E+00 -0.00000000000E+00 -0.45593999997E+02  0.45594000000E+02  0.51100000000E-03 0.  1.
    9900012    2    1    2    0    0  0.22318997125E+02 -0.11700324954E+02 -0.31908159955E+02  0.50528857013E+02  0.29999991378E+02 0.  0.
         12    1    1    2    0    0 -0.22318997125E+02  0.11700324954E+02  0.31908159955E+02  0.40659142987E+02  0.00000000000E+00 0. -1.
         11    1    3    3    0    0 -0.11355674411E+01 -0.31446951718E+01 -0.76457264957E+01  0.83448040746E+01  0.51100000000E-03 0. -1.
        -11    1    3    3    0    0  0.26555811833E+02 -0.28650306897E+01 -0.23648027643E+02  0.35674202929E+02  0.51100000000E-03 0.  1.
        -12    1    3    3    0    0 -0.31012472667E+01 -0.56905990922E+01 -0.61440581584E+00  0.65098500093E+01  0.00000000000E+00 0.  1.
</event>
<event>
 7    1  0.6889665E-012  0.5052883E+02  0.7816164E-02  0.1300439E+00
        -11   -1    0    0    0    0  0.00000000000E+00  0.00000000000E+00  0.45593999997E+02  0.45594000000E+02  0.51100000000E-03 0. -1.
         11   -1    0    0    0    0 -0.00000000000E+00 -0.00000000000E+00 -0.45593999997E+02  0.45594000000E+02  0.51100000000E-03 0.  1.
    9900012    2    1    2    0    0  0.13212951312E+02  0.40326106766E+01  0.38240345293E+02  0.50528830808E+02  0.29999911723E+02 0.  0.
        -12    1    1    2    0    0 -0.13212951312E+02 -0.40326106766E+01 -0.38240345293E+02  0.40659169192E+02  0.00000000000E+00 0.  1.
         11    1    3    3    0    0 -0.32260168144E+01  0.55733782484E+01  0.21143790344E+01  0.67779295178E+01  0.51100000000E-03 0.  1.
        -11    1    3    3    0    0  0.60702479389E+01 -0.60033816651E+01  0.34995606142E+01  0.92268860517E+01  0.51100000000E-03 0. -1.
        -12    1    3    3    0    0  0.10368720187E+02  0.44626140934E+01  0.32626405645E+02  0.34524015238E+02  0.00000000000E+00 0.  1.
</event>
<event>
 7    1  0.6889665E-012  0.5052886E+02  0.7816164E-02  0.1300439E+00
        -11   -1    0    0    0    0  0.00000000000E+00  0.00000000000E+00  0.45593999997E+02  0.45594000000E+02  0.51100000000E-03 0. -1.
         11   -1    0    0    0    0 -0.00000000000E+00 -0.00000000000E+00 -0.45593999997E+02  0.45594000000E+02  0.51100000000E-03 0.  1.
    9900012    2    1    2    0    0  0.10391636738E+02  0.35766709756E+02  0.16307127240E+02  0.50528855399E+02  0.29999986470E+02 0.  0.
        -12    1    1    2    0    0 -0.10391636738E+02 -0.35766709756E+02 -0.16307127240E+02  0.40659144601E+02  0.00000000000E+00 0.  1.
         11    1    3    3    0    0  0.82612077520E+01  0.95840179118E+01  0.79933824219E+01  0.14966466372E+02  0.51100000000E-03 0. -1.
        -11    1    3    3    0    0 -0.19118527476E+01  0.81971775159E+01 -0.75006496981E+01  0.11274247040E+02  0.51100000000E-03 0.  1.
        -12    1    3    3    0    0  0.40422817335E+01  0.17985514329E+02  0.15814394516E+02  0.24288141987E+02  0.00000000000E+00 0.  1.
</event>
<event>
 7    1  0.6889665E-012  0.5052886E+02  0.7816164E-02  0.1300439E+00
        -11   -1    0    0    0    0  0.00000000000E+00  0.00000000000E+00  0.45593999997E+02  0.45594000000E+02  0.51100000000E-03 0. -1.
         11   -1    0    0    0    0 -0.00000000000E+00 -0.00000000000E+00 -0.45593999997E+02  0.45594000000E+02  0.51100000000E-03 0.  1.
    9900012    2    1    2    0    0 -0.32940635909E+02  0.14278328642E+02  0.19084273086E+02  0.50528860288E+02  0.30000001330E+02 0.  0.
        -12    1    1    2    0    0  0.32940635909E+02 -0.14278328642E+02 -0.19084273086E+02  0.40659139712E+02  0.00000000000E+00 0.  1.
         11    1    3    3    0    0 -0.32853695608E+02  0.10029558210E+01  0.15696988198E+02  0.36424808499E+02  0.51100000000E-03 0. -1.
        -11    1    3    3    0    0 -0.16148700293E+01  0.45784108780E+01  0.99837724024E+00  0.49564512259E+01  0.51100000000E-03 0.  1.
         12    1    3    3    0    0  0.15279297276E+01  0.86969619435E+01  0.23889076479E+01  0.91476005624E+01  0.00000000000E+00 0. -1.
</event>
<event>
 7    1  0.6889665E-012  0.5052887E+02  0.7816164E-02  0.1300439E+00
        -11   -1    0    0    0    0  0.00000000000E+00  0.00000000000E+00  0.45593999997E+02  0.45594000000E+02  0.51100000000E-03 0. -1.
         11   -1    0    0    0    0 -0.00000000000E+00 -0.00000000000E+00 -0.45593999997E+02  0.45594000000E+02  0.51100000000E-03 0.  1.
    9900012    2    1    2    0    0 -0.25740505892E+02  0.11752437407E+02 -0.29197119364E+02  0.50528865630E+02  0.30000017568E+02 0.  0.
         12    1    1    2    0    0  0.25740505892E+02 -0.11752437407E+02  0.29197119364E+02  0.40659134370E+02  0.00000000000E+00 0. -1.
         11    1    3    3    0    0 -0.59938364219E+01 -0.68138188853E+01 -0.15725212553E+02  0.18155894716E+02  0.51100000000E-03 0. -1.
        -11    1    3    3    0    0 -0.20140034433E+02  0.13282301395E+02 -0.10678696542E+02  0.26383234779E+02  0.51100000000E-03 0.  1.
         12    1    3    3    0    0  0.39336496247E+00  0.52839548971E+01 -0.27932102689E+01  0.59897361340E+01  0.00000000000E+00 0. -1.
</event>
<event>
 7    1  0.6889665E-012  0.5052879E+02  0.7816164E-02  0.1300439E+00
        -11   -1    0    0    0    0  0.00000000000E+00  0.00000000000E+00  0.45593999997E+02  0.45594000000E+02  0.51100000000E-03 0. -1.
         11   -1    0    0    0    0 -0.00000000000E+00 -0.00000000000E+00 -0.45593999997E+02  0.45594000000E+02  0.51100000000E-03 0.  1.
    9900012    2    1    2    0    0 -0.27033076693E+01 -0.18099135102E+02 -0.36308196722E+02  0.50528785632E+02  0.29999774407E+02 0.  0.
         12    1    1    2    0    0  0.27033076693E+01  0.18099135102E+02  0.36308196722E+02  0.40659214368E+02  0.00000000000E+00 0. -1.
         11    1    3    3    0    0  0.29675407885E+01  0.20400484745E+01 -0.21249241598E+01  0.41813154695E+01  0.51100000000E-03 0. -1.
        -11    1    3    3    0    0 -0.11381280131E+01 -0.22501170503E+02 -0.16460646769E+02  0.27902525006E+02  0.51100000000E-03 0.  1.
        -12    1    3    3    0    0 -0.45327204447E+01  0.23619869260E+01 -0.17722625793E+02  0.18444945157E+02  0.00000000000E+00 0.  1.
</event>
<event>
 7    1  0.6889665E-012  0.5052887E+02  0.7816164E-02  0.1300439E+00
        -11   -1    0    0    0    0  0.00000000000E+00  0.00000000000E+00  0.45593999997E+02  0.45594000000E+02  0.51100000000E-03 0. -1.
         11   -1    0    0    0    0 -0.00000000000E+00 -0.00000000000E+00 -0.45593999997E+02  0.45594000000E+02  0.51100000000E-03 0.  1.
    9900012    2    1    2    0    0  0.21399025478E+02 -0.32390615714E+02  0.12086974114E+02  0.50528865467E+02  0.30000017075E+02 0.  0.
        -12    1    1    2    0    0 -0.21399025478E+02  0.32390615714E+02 -0.12086974114E+02  0.40659134533E+02  0.00000000000E+00 0.  1.
         11    1    3    3    0    0  0.62768380431E+01 -0.82786025355E+01  0.34445231126E+01  0.10945259042E+02  0.51100000000E-03 0. -1.
        -11    1    3    3    0    0  0.33879522555E+01 -0.11247518497E+02 -0.89981027205E+01  0.14796984343E+02  0.51100000000E-03 0.  1.
        -12    1    3    3    0    0  0.11734235180E+02 -0.12864494681E+02  0.17640553722E+02  0.24786622082E+02  0.00000000000E+00 0.  1.
</event>
<event>
 7    1  0.6889665E-012  0.5052887E+02  0.7816164E-02  0.1300439E+00
        -11   -1    0    0    0    0  0.00000000000E+00  0.00000000000E+00  0.45593999997E+02  0.45594000000E+02  0.51100000000E-03 0.  1.
         11   -1    0    0    0    0 -0.00000000000E+00 -0.00000000000E+00 -0.45593999997E+02  0.45594000000E+02  0.51100000000E-03 0. -1.
    9900012    2    1    2    0    0  0.37754635654E+02  0.14031951503E+02  0.55548937531E+01  0.50528867927E+02  0.30000024550E+02 0.  0.
         12    1    1    2    0    0 -0.37754635654E+02 -0.14031951503E+02 -0.55548937531E+01  0.40659132073E+02  0.00000000000E+00 0. -1.
         11    1    3    3    0    0  0.14700482245E+02  0.20122380791E+02 -0.31229854089E+01  0.25115083617E+02  0.51100000000E-03 0. -1.
        -11    1    3    3    0    0  0.18686797154E+02 -0.45899906739E+01  0.74622800916E+01  0.20638556798E+02  0.51100000000E-03 0.  1.
         12    1    3    3    0    0  0.43673562552E+01 -0.15004386147E+01  0.12155990705E+01  0.47752275125E+01  0.00000000000E+00 0. -1.
</event>
<event>
 7    1  0.7621165E-012  0.5052886E+02  0.7816164E-02  0.1300439E+00
        -11   -1    0    0    0    0  0.00000000000E+00  0.00000000000E+00  0.45593999997E+02  0.45594000000E+02  0.51100000000E-03 0. -1.
         11   -1    0    0    0    0 -0.00000000000E+00 -0.00000000000E+00 -0.45593999997E+02  0.45594000000E+02  0.51100000000E-03 0.  1.
    9900012    2    1    2    0    0  0.11606745008E+02 -0.57971309505E+01  0.38533652342E+02  0.50528860563E+02  0.30000002168E+02 0.  0.
        -12    1    1    2    0    0 -0.11606745008E+02  0.57971309505E+01 -0.38533652342E+02  0.40659139437E+02  0.00000000000E+00 0.  1.
         11    1    3    3    0    0  0.15170655670E+02 -0.89264614261E+01  0.21889959466E+02  0.28089158634E+02  0.51100000000E-03 0. -1.
        -11    1    3    3    0    0 -0.23223800167E+01 -0.27997457625E+01 -0.10103413919E+01  0.37752900903E+01  0.51100000000E-03 0.  1.
         12    1    3    3    0    0 -0.12415306462E+01  0.59290762381E+01  0.17654034267E+02  0.18664411839E+02  0.00000000000E+00 0. -1.
</event>
<event>
 7    1  0.6889665E-012  0.5052884E+02  0.7816164E-02  0.1300439E+00
        -11   -1    0    0    0    0  0.00000000000E+00  0.00000000000E+00  0.45593999997E+02  0.45594000000E+02  0.51100000000E-03 0. -1.
         11   -1    0    0    0    0 -0.00000000000E+00 -0.00000000000E+00 -0.45593999997E+02  0.45594000000E+02  0.51100000000E-03 0.  1.
    9900012    2    1    2    0    0 -0.14464830216E+02 -0.21996206339E+02  0.30985525784E+02  0.50528840951E+02  0.29999942553E+02 0.  0.
        -12    1    1    2    0    0  0.14464830216E+02  0.21996206339E+02 -0.30985525784E+02  0.40659159049E+02  0.00000000000E+00 0.  1.
         11    1    3    3    0    0  0.31160444170E+01  0.42596162864E+01  0.29651282567E+01  0.60535980669E+01  0.51100000000E-03 0.  1.
        -11    1    3    3    0    0 -0.18172384727E+02 -0.22518280819E+02  0.18796497437E+02  0.34505316313E+02  0.51100000000E-03 0. -1.
        -12    1    3    3    0    0  0.59151009413E+00 -0.37375418071E+01  0.92239000899E+01  0.99699265704E+01  0.00000000000E+00 0.  1.
</event>
<event>
 7    1  0.6889665E-012  0.5052887E+02  0.7816164E-02  0.1300439E+00
        -11   -1    0    0    0    0  0.00000000000E+00  0.00000000000E+00  0.45593999997E+02  0.45594000000E+02  0.51100000000E-03 0. -1.
         11   -1    0    0    0    0 -0.00000000000E+00 -0.00000000000E+00 -0.45593999997E+02  0.45594000000E+02  0.51100000000E-03 0.  1.
    9900012    2    1    2    0    0  0.24515488721E+02  0.25566221464E+01  0.32336042147E+02  0.50528866638E+02  0.30000020633E+02 0.  0.
        -12    1    1    2    0    0 -0.24515488721E+02 -0.25566221464E+01 -0.32336042147E+02  0.40659133362E+02  0.00000000000E+00 0.  1.
         11    1    3    3    0    0  0.28823003456E+01  0.63066970236E+01  0.24317268058E+02  0.25286589503E+02  0.51100000000E-03 0. -1.
        -11    1    3    3    0    0  0.11522163697E+02  0.15631482234E+01  0.64241388133E+00  0.11645444795E+02  0.51100000000E-03 0.  1.
         12    1    3    3    0    0  0.10111024678E+02 -0.53132231006E+01  0.73763602075E+01  0.13596832340E+02  0.00000000000E+00 0. -1.
</event>
<event>
 7    1  0.6889665E-012  0.5052881E+02  0.7816164E-02  0.1300439E+00
        -11   -1    0    0    0    0  0.00000000000E+00  0.00000000000E+00  0.45593999997E+02  0.45594000000E+02  0.51100000000E-03 0. -1.
         11   -1    0    0    0    0 -0.00000000000E+00 -0.00000000000E+00 -0.45593999997E+02  0.45594000000E+02  0.51100000000E-03 0.  1.
    9900012    2    1    2    0    0  0.30058730166E+02 -0.32208643516E+01  0.27189499257E+02  0.50528805514E+02  0.29999834840E+02 0.  0.
        -12    1    1    2    0    0 -0.30058730166E+02  0.32208643516E+01 -0.27189499257E+02  0.40659194486E+02  0.00000000000E+00 0.  1.
         11    1    3    3    0    0  0.20095145376E+02 -0.44470012905E+01  0.13663295428E+02  0.24703771582E+02  0.51100000000E-03 0. -1.
        -11    1    3    3    0    0 -0.37182046807E+01 -0.20175788469E+01  0.10668393162E+02  0.11476510070E+02  0.51100000000E-03 0.  1.
        -12    1    3    3    0    0  0.13681789471E+02  0.32437157857E+01  0.28578106673E+01  0.14348523862E+02  0.00000000000E+00 0.  1.
</event>
<event>
 7    1  0.6889665E-012  0.5052888E+02  0.7816164E-02  0.1300439E+00
        -11   -1    0    0    0    0  0.00000000000E+00  0.00000000000E+00  0.45593999997E+02  0.45594000000E+02  0.51100000000E-03 0. -1.
         11   -1    0    0    0    0 -0.00000000000E+00 -0.00000000000E+00 -0.45593999997E+02  0.45594000000E+02  0.51100000000E-03 0.  1.
    9900012    2    1    2    0    0  0.34807933810E+02  0.20963255686E+02 -0.14538524286E+01  0.50528880089E+02  0.30000061518E+02 0.  0.
        -12    1    1    2    0    0 -0.34807933810E+02 -0.20963255686E+02  0.14538524286E+01  0.40659119911E+02  0.00000000000E+00 0.  1.
         11    1    3    3    0    0  0.13784144661E+01 -0.33974173722E+01  0.64290930806E+01  0.74010613658E+01  0.51100000000E-03 0. -1.
        -11    1    3    3    0    0  0.50402698874E+01  0.68824744692E+01 -0.44268924219E+01  0.96109391910E+01  0.51100000000E-03 0.  1.
         12    1    3    3    0    0  0.28389249457E+02  0.17478198589E+02 -0.34560530872E+01  0.33516879532E+02  0.00000000000E+00 0. -1.
</event>
<event>
 7    1  0.6889665E-012  0.5052888E+02  0.7816164E-02  0.1300439E+00
        -11   -1    0    0    0    0  0.00000000000E+00  0.00000000000E+00  0.45593999997E+02  0.45594000000E+02  0.51100000000E-03 0.  1.
         11   -1    0    0    0    0 -0.00000000000E+00 -0.00000000000E+00 -0.45593999997E+02  0.45594000000E+02  0.51100000000E-03 0. -1.
    9900012    2    1    2    0    0  0.34913611345E+02  0.10726360249E+02  0.17864752265E+02  0.50528875134E+02  0.30000046458E+02 0.  0.
        -12    1    1    2    0    0 -0.34913611345E+02 -0.10726360249E+02 -0.17864752265E+02  0.40659124866E+02  0.00000000000E+00 0.  1.
         11    1    3    3    0    0  0.32195138411E+02  0.19606563533E+02  0.12555652327E+02  0.39731457014E+02  0.51100000000E-03 0. -1.
        -11    1    3    3    0    0  0.75213726129E+00 -0.49400456639E+01  0.29174122078E+01  0.57862816966E+01  0.51100000000E-03 0.  1.
         12    1    3    3    0    0  0.19663356733E+01 -0.39401576207E+01  0.23916877302E+01  0.50111364235E+01  0.00000000000E+00 0. -1.
</event>
<event>
 7    1  0.6889665E-012  0.5052893E+02  0.7816164E-02  0.1300439E+00
        -11   -1    0    0    0    0  0.00000000000E+00  0.00000000000E+00  0.45593999997E+02  0.45594000000E+02  0.51100000000E-03 0. -1.
         11   -1    0    0    0    0 -0.00000000000E+00 -0.00000000000E+00 -0.45593999997E+02  0.45594000000E+02  0.51100000000E-03 0.  1.
    9900012    2    1    2    0    0 -0.17953663761E+02  0.11489586289E+02  0.34623915155E+02  0.50528927997E+02  0.30000207138E+02 0.  0.
        -12    1    1    2    0    0  0.17953663761E+02 -0.11489586289E+02 -0.34623915155E+02  0.40659072003E+02  0.00000000000E+00 0.  1.
         11    1    3    3    0    0  0.15329596309E+01  0.29508741261E+01  0.44712646834E+01  0.55722375639E+01  0.51100000000E-03 0.  1.
        -11    1    3    3    0    0 -0.11691150061E+02 -0.10648161290E+01 -0.65588603174E+00  0.11757848863E+02  0.51100000000E-03 0. -1.
        -12    1    3    3    0    0 -0.77954733308E+01  0.96035282914E+01  0.30808536503E+02  0.33198841569E+02  0.00000000000E+00 0.  1.
</event>
<event>
 7    1  0.6889665E-012  0.5052883E+02  0.7816164E-02  0.1300439E+00
        -11   -1    0    0    0    0  0.00000000000E+00  0.00000000000E+00  0.45593999997E+02  0.45594000000E+02  0.51100000000E-03 0.  1.
         11   -1    0    0    0    0 -0.00000000000E+00 -0.00000000000E+00 -0.45593999997E+02  0.45594000000E+02  0.51100000000E-03 0. -1.
    9900012    2    1    2    0    0 -0.29713259168E+02  0.69231168690E+01  0.26876767077E+02  0.50528832202E+02  0.29999915960E+02 0.  0.
        -12    1    1    2    0    0  0.29713259168E+02 -0.69231168690E+01 -0.26876767077E+02  0.40659167798E+02  0.00000000000E+00 0.  1.
         11    1    3    3    0    0 -0.70629677767E+01 -0.48135224006E+01  0.93558579785E+01  0.12672315909E+02  0.51100000000E-03 0. -1.
        -11    1    3    3    0    0 -0.94966488310E+01  0.91019915748E+01 -0.28556042356E+01  0.13460574485E+02  0.51100000000E-03 0.  1.
        -12    1    3    3    0    0 -0.13153642560E+02  0.26346476948E+01  0.20376513334E+02  0.24395941808E+02  0.00000000000E+00 0.  1.
</event>
<event>
 7    1  0.6889665E-012  0.5052894E+02  0.7816164E-02  0.1300439E+00
        -11   -1    0    0    0    0  0.00000000000E+00  0.00000000000E+00  0.45593999997E+02  0.45594000000E+02  0.51100000000E-03 0. -1.
         11   -1    0    0    0    0 -0.00000000000E+00 -0.00000000000E+00 -0.45593999997E+02  0.45594000000E+02  0.51100000000E-03 0.  1.
    9900012    2    1    2    0    0  0.13334240332E+02  0.24434400003E+02 -0.29636419750E+02  0.50528938964E+02  0.30000240475E+02 0.  0.
         12    1    1    2    0    0 -0.13334240332E+02 -0.24434400003E+02  0.29636419750E+02  0.40659061036E+02  0.00000000000E+00 0. -1.
         11    1    3    3    0    0  0.19414673584E+01  0.72882655217E+01  0.30664372212E+01  0.81419375649E+01  0.51100000000E-03 0. -1.
        -11    1    3    3    0    0  0.40890252497E+01  0.38329262063E+01 -0.24490235971E+02  0.25123357836E+02  0.51100000000E-03 0.  1.
        -12    1    3    3    0    0  0.73037477234E+01  0.13313208275E+02 -0.82126210002E+01  0.17263643563E+02  0.00000000000E+00 0.  1.
</event>
<event>
 7    1  0.6889665E-012  0.5052886E+02  0.7816164E-02  0.1300439E+00
        -11   -1    0    0    0    0  0.00000000000E+00  0.00000000000E+00  0.45593999997E+02  0.45594000000E+02  0.51100000000E-03 0. -1.
         11   -1    0    0    0    0 -0.00000000000E+00 -0.00000000000E+00 -0.45593999997E+02  0.45594000000E+02  0.51100000000E-03 0.  1.
    9900012    2    1    2    0    0 -0.19322439526E+02 -0.15832331340E+02 -0.32080310753E+02  0.50528859295E+02  0.29999998313E+02 0.  0.
         12    1    1    2    0    0  0.19322439526E+02  0.15832331340E+02  0.32080310753E+02  0.40659140705E+02  0.00000000000E+00 0. -1.
         11    1    3    3    0    0 -0.15476492901E+02 -0.20285851409E+02 -0.23034631937E+02  0.34374872634E+02  0.51100000000E-03 0. -1.
        -11    1    3    3    0    0  0.31766580700E+01  0.48523738192E+01 -0.64051853367E+01  0.86407804991E+01  0.51100000000E-03 0.  1.
        -12    1    3    3    0    0 -0.70226046947E+01 -0.39885375017E+00 -0.26404934794E+01  0.75132061617E+01  0.00000000000E+00 0.  1.
</event>
<event>
 7    1  0.6889665E-012  0.5052885E+02  0.7816164E-02  0.1300439E+00
        -11   -1    0    0    0    0  0.00000000000E+00  0.00000000000E+00  0.45593999997E+02  0.45594000000E+02  0.51100000000E-03 0. -1.
         11   -1    0    0    0    0 -0.00000000000E+00 -0.00000000000E+00 -0.45593999997E+02  0.45594000000E+02  0.51100000000E-03 0.  1.
    9900012    2    1    2    0    0 -0.13576076315E+02  0.35480608973E+02 -0.14490801623E+02  0.50528846137E+02  0.29999958319E+02 0.  0.
         12    1    1    2    0    0  0.13576076315E+02 -0.35480608973E+02  0.14490801623E+02  0.40659153863E+02  0.00000000000E+00 0. -1.
         11    1    3    3    0    0 -0.64755674169E+01  0.90994392651E+00  0.51520970280E+01  0.83249669890E+01  0.51100000000E-03 0. -1.
        -11    1    3    3    0    0 -0.73593535262E+01  0.15608332317E+02 -0.14539871539E+02  0.22565194142E+02  0.51100000000E-03 0.  1.
         12    1    3    3    0    0  0.25884462838E+00  0.18962332729E+02 -0.51030271118E+01  0.19638685006E+02  0.00000000000E+00 0. -1.
</event>
<event>
 7    1  0.6889665E-012  0.5052886E+02  0.7816164E-02  0.1300439E+00
        -11   -1    0    0    0    0  0.00000000000E+00  0.00000000000E+00  0.45593999997E+02  0.45594000000E+02  0.51100000000E-03 0. -1.
         11   -1    0    0    0    0 -0.00000000000E+00 -0.00000000000E+00 -0.45593999997E+02  0.45594000000E+02  0.51100000000E-03 0.  1.
    9900012    2    1    2    0    0  0.40219978535E+02 -0.46552716324E+01 -0.37211774418E+01  0.50528863402E+02  0.30000010797E+02 0.  0.
         12    1    1    2    0    0 -0.40219978535E+02  0.46552716324E+01  0.37211774418E+01  0.40659136598E+02  0.00000000000E+00 0. -1.
         11    1    3    3    0    0  0.36753987334E+02 -0.98403878898E+01 -0.10532848434E+01  0.38063082219E+02  0.51100000000E-03 0. -1.
        -11    1    3    3    0    0 -0.32021128127E+01  0.92624613889E+00  0.13446320996E+01  0.35943697806E+01  0.51100000000E-03 0.  1.
        -12    1    3    3    0    0  0.66681040138E+01  0.42588701185E+01 -0.40125246980E+01  0.88714114028E+01  0.00000000000E+00 0.  1.
</event>
<event>
 7    1  0.6889665E-012  0.5052888E+02  0.7816164E-02  0.1300439E+00
        -11   -1    0    0    0    0  0.00000000000E+00  0.00000000000E+00  0.45593999997E+02  0.45594000000E+02  0.51100000000E-03 0. -1.
         11   -1    0    0    0    0 -0.00000000000E+00 -0.00000000000E+00 -0.45593999997E+02  0.45594000000E+02  0.51100000000E-03 0.  1.
    9900012    2    1    2    0    0 -0.11672879459E+02  0.20054602049E+02  0.33387430906E+02  0.50528883917E+02  0.30000073153E+02 0.  0.
        -12    1    1    2    0    0  0.11672879459E+02 -0.20054602049E+02 -0.33387430906E+02  0.40659116083E+02  0.00000000000E+00 0.  1.
         11    1    3    3    0    0 -0.51185295904E+01  0.10503972160E+02  0.10820220398E+02  0.15925135667E+02  0.51100000000E-03 0. -1.
        -11    1    3    3    0    0 -0.94027484285E+00 -0.78536448699E+01  0.76506350627E+01  0.11004366027E+02  0.51100000000E-03 0.  1.
        -12    1    3    3    0    0 -0.56140750257E+01  0.17404274759E+02  0.14916575446E+02  0.23599382223E+02  0.00000000000E+00 0.  1.
</event>
<event>
 7    1  0.6889665E-012  0.5052886E+02  0.7816164E-02  0.1300439E+00
        -11   -1    0    0    0    0  0.00000000000E+00  0.00000000000E+00  0.45593999997E+02  0.45594000000E+02  0.51100000000E-03 0. -1.
         11   -1    0    0    0    0 -0.00000000000E+00 -0.00000000000E+00 -0.45593999997E+02  0.45594000000E+02  0.51100000000E-03 0.  1.
    9900012    2    1    2    0    0 -0.36192318290E+02 -0.14352086610E+02 -0.11717470347E+02  0.50528863209E+02  0.30000010211E+02 0.  0.
         12    1    1    2    0    0  0.36192318290E+02  0.14352086610E+02  0.11717470347E+02  0.40659136791E+02  0.00000000000E+00 0. -1.
         11    1    3    3    0    0 -0.14541070011E+02  0.80406071289E+01 -0.79415789278E+01  0.18416371960E+02  0.51100000000E-03 0. -1.
        -11    1    3    3    0    0 -0.20012203155E+02 -0.17878531556E+02 -0.17257032329E+01  0.26890671573E+02  0.51100000000E-03 0.  1.
        -12    1    3    3    0    0 -0.16390451244E+01 -0.45141621826E+01 -0.20501881866E+01  0.52218196762E+01  0.00000000000E+00 0.  1.
</event>
<event>
 7    1  0.8889540E-012  0.5052885E+02  0.7816164E-02  0.1300439E+00
        -11   -1    0    0    0    0  0.00000000000E+00  0.00000000000E+00  0.45593999997E+02  0.45594000000E+02  0.51100000000E-03 0. -1.
         11   -1    0    0    0    0 -0.00000000000E+00 -0.00000000000E+00 -0.45593999997E+02  0.45594000000E+02  0.51100000000E-03 0.  1.
    9900012    2    1    2    0    0  0.26308289396E+02  0.20837074482E+01 -0.30930543652E+02  0.50528850251E+02  0.29999970823E+02 0.  0.
         12    1    1    2    0    0 -0.26308289396E+02 -0.20837074482E+01  0.30930543652E+02  0.40659149749E+02  0.00000000000E+00 0. -1.
         11    1    3    3    0    0 -0.30777945796E+01 -0.12502894450E+01  0.14912970200E+01  0.36414296964E+01  0.51100000000E-03 0. -1.
        -11    1    3    3    0    0  0.27569864946E+02 -0.16903218648E+00 -0.20576930902E+02  0.34402559652E+02  0.51100000000E-03 0.  1.
        -12    1    3    3    0    0  0.18162190298E+01  0.35030290797E+01 -0.11844909770E+02  0.12484860902E+02  0.00000000000E+00 0.  1.
</event>
<event>
 7    1  0.9304190E-012  0.5052890E+02  0.7816164E-02  0.1300439E+00
        -11   -1    0    0    0    0  0.00000000000E+00  0.00000000000E+00  0.45593999997E+02  0.45594000000E+02  0.51100000000E-03 0. -1.
         11   -1    0    0    0    0 -0.00000000000E+00 -0.00000000000E+00 -0.45593999997E+02  0.45594000000E+02  0.51100000000E-03 0.  1.
    9900012    2    1    2    0    0  0.24146326613E+02  0.21840574759E+01  0.32639655464E+02  0.50528901329E+02  0.30000126078E+02 0.  0.
        -12    1    1    2    0    0 -0.24146326613E+02 -0.21840574759E+01 -0.32639655464E+02  0.40659098671E+02  0.00000000000E+00 0.  1.
         11    1    3    3    0    0  0.24904969301E+02  0.46690145333E+01  0.21691368452E+02  0.33355249335E+02  0.51100000000E-03 0. -1.
        -11    1    3    3    0    0 -0.20627612624E+01 -0.38466025217E+01 -0.14756392729E+01  0.46074772393E+01  0.51100000000E-03 0.  1.
         12    1    3    3    0    0  0.13041185739E+01  0.13616454643E+01  0.12423926285E+02  0.12566174754E+02  0.00000000000E+00 0. -1.
</event>
<event>
 7    1  0.6889665E-012  0.5052886E+02  0.7816164E-02  0.1300439E+00
        -11   -1    0    0    0    0  0.00000000000E+00  0.00000000000E+00  0.45593999997E+02  0.45594000000E+02  0.51100000000E-03 0. -1.
         11   -1    0    0    0    0 -0.00000000000E+00 -0.00000000000E+00 -0.45593999997E+02  0.45594000000E+02  0.51100000000E-03 0.  1.
    9900012    2    1    2    0    0 -0.37237057202E+02 -0.29479995008E+01  0.16058538817E+02  0.50528858358E+02  0.29999995466E+02 0.  0.
        -12    1    1    2    0    0  0.37237057202E+02  0.29479995008E+01 -0.16058538817E+02  0.40659141642E+02  0.00000000000E+00 0.  1.
         11    1    3    3    0    0 -0.16777907524E+02  0.47702289451E+00  0.16294028249E+02  0.23392757182E+02  0.51100000000E-03 0. -1.
        -11    1    3    3    0    0 -0.88570395971E+01 -0.95087434253E+01 -0.38374879921E+01  0.13549526424E+02  0.51100000000E-03 0.  1.
        -12    1    3    3    0    0 -0.11602110081E+02  0.60837210300E+01  0.36019985596E+01  0.13586574753E+02  0.00000000000E+00 0.  1.
</event>
<event>
 7    1  0.6889665E-012  0.5052883E+02  0.7816164E-02  0.1300439E+00
        -11   -1    0    0    0    0  0.00000000000E+00  0.00000000000E+00  0.45593999997E+02  0.45594000000E+02  0.51100000000E-03 0. -1.
         11   -1    0    0    0    0 -0.00000000000E+00 -0.00000000000E+00 -0.45593999997E+02  0.45594000000E+02  0.51100000000E-03 0.  1.
    9900012    2    1    2    0    0  0.13365425506E+01  0.34528276537E+02  0.21428484124E+02  0.50528829344E+02  0.29999907273E+02 0.  0.
        -12    1    1    2    0    0 -0.13365425506E+01 -0.34528276537E+02 -0.21428484124E+02  0.40659170656E+02  0.00000000000E+00 0.  1.
         11    1    3    3    0    0 -0.99905442294E+01  0.22304036056E+02  0.72721309814E+01  0.25498331076E+02  0.51100000000E-03 0. -1.
        -11    1    3    3    0    0  0.29638751595E+01 -0.70224187536E+00 -0.12106888965E+01  0.32777229105E+01  0.51100000000E-03 0.  1.
         12    1    3    3    0    0  0.83632116205E+01  0.12926482357E+02  0.15367042039E+02  0.21752775358E+02  0.00000000000E+00 0. -1.
</event>
<event>
 7    1  0.6889665E-012  0.5052886E+02  0.7816164E-02  0.1300439E+00
        -11   -1    0    0    0    0  0.00000000000E+00  0.00000000000E+00  0.45593999997E+02  0.45594000000E+02  0.51100000000E-03 0.  1.
         11   -1    0    0    0    0 -0.00000000000E+00 -0.00000000000E+00 -0.45593999997E+02  0.45594000000E+02  0.51100000000E-03 0. -1.
    9900012    2    1    2    0    0 -0.13911440544E+02 -0.31234297429E+02 -0.22001281962E+02  0.50528856848E+02  0.29999990877E+02 0.  0.
         12    1    1    2    0    0  0.13911440544E+02  0.31234297429E+02  0.22001281962E+02  0.40659143152E+02  0.00000000000E+00 0. -1.
         11    1    3    3    0    0  0.59149095457E+01 -0.17949225111E+02 -0.93273448848E+01  0.21075108538E+02  0.51100000000E-03 0. -1.
        -11    1    3    3    0    0 -0.70483247753E+01 -0.34366465067E+01  0.14943173757E+01  0.79826315230E+01  0.51100000000E-03 0.  1.
         12    1    3    3    0    0 -0.12778025314E+02 -0.98484258110E+01 -0.14168254452E+02  0.21471116788E+02  0.00000000000E+00 0. -1.
</event>
<event>
 7    1  0.6889665E-012  0.5052886E+02  0.7816164E-02  0.1300439E+00
        -11   -1    0    0    0    0  0.00000000000E+00  0.00000000000E+00  0.45593999997E+02  0.45594000000E+02  0.51100000000E-03 0.  1.
         11   -1    0    0    0    0 -0.00000000000E+00 -0.00000000000E+00 -0.45593999997E+02  0.45594000000E+02  0.51100000000E-03 0. -1.
    9900012    2    1    2    0    0  0.17105353736E+02  0.27088269292E+02  0.25035933366E+02  0.50528863030E+02  0.30000009666E+02 0.  0.
         12    1    1    2    0    0 -0.17105353736E+02 -0.27088269292E+02 -0.25035933366E+02  0.40659136970E+02  0.00000000000E+00 0. -1.
         11    1    3    3    0    0  0.14286375754E+02  0.22526226267E+02  0.52790156982E+01  0.27191899695E+02  0.51100000000E-03 0. -1.
        -11    1    3    3    0    0  0.54456438725E+01  0.52989328058E+00  0.16847319428E+02  0.17713497572E+02  0.51100000000E-03 0.  1.
        -12    1    3    3    0    0 -0.26266658913E+01  0.40321497442E+01  0.29095982393E+01  0.56234657621E+01  0.00000000000E+00 0.  1.
</event>
<event>
 7    1  0.6889665E-012  0.5052886E+02  0.7816164E-02  0.1300439E+00
        -11   -1    0    0    0    0  0.00000000000E+00  0.00000000000E+00  0.45593999997E+02  0.45594000000E+02  0.51100000000E-03 0. -1.
         11   -1    0    0    0    0 -0.00000000000E+00 -0.00000000000E+00 -0.45593999997E+02  0.45594000000E+02  0.51100000000E-03 0.  1.
    9900012    2    1    2    0    0 -0.82369473970E+01  0.18214699849E+02  0.35405410485E+02  0.50528859766E+02  0.29999999743E+02 0.  0.
        -12    1    1    2    0    0  0.82369473970E+01 -0.18214699849E+02 -0.35405410485E+02  0.40659140234E+02  0.00000000000E+00 0.  1.
         11    1    3    3    0    0  0.11655128992E+01 -0.47978346945E+01 -0.20429673537E+01  0.53433466988E+01  0.51100000000E-03 0.  1.
        -11    1    3    3    0    0 -0.39283129963E+01  0.14984736247E+02  0.24710147798E+02  0.29164453841E+02  0.51100000000E-03 0. -1.
        -12    1    3    3    0    0 -0.54741472999E+01  0.80277982962E+01  0.12738230041E+02  0.16021059226E+02  0.00000000000E+00 0.  1.
</event>
<event>
 7    1  0.6889665E-012  0.5052886E+02  0.7816164E-02  0.1300439E+00
        -11   -1    0    0    0    0  0.00000000000E+00  0.00000000000E+00  0.45593999997E+02  0.45594000000E+02  0.51100000000E-03 0. -1.
         11   -1    0    0    0    0 -0.00000000000E+00 -0.00000000000E+00 -0.45593999997E+02  0.45594000000E+02  0.51100000000E-03 0.  1.
    9900012    2    1    2    0    0 -0.32284592252E+02  0.15692571890E+02  0.19094865929E+02  0.50528860630E+02  0.30000002372E+02 0.  0.
        -12    1    1    2    0    0  0.32284592252E+02 -0.15692571890E+02 -0.19094865929E+02  0.40659139370E+02  0.00000000000E+00 0.  1.
         11    1    3    3    0    0 -0.23147996753E+02  0.20387797963E+01  0.70009040289E+01  0.24269302302E+02  0.51100000000E-03 0. -1.
        -11    1    3    3    0    0 -0.52389725553E-02  0.56670042941E+01 -0.33789382871E+01  0.65978927943E+01  0.51100000000E-03 0.  1.
         12    1    3    3    0    0 -0.91313565270E+01  0.79867877998E+01  0.15472900187E+02  0.19661665534E+02  0.00000000000E+00 0. -1.
</event>
<event>
 7    1  0.6889665E-012  0.5052886E+02  0.7816164E-02  0.1300439E+00
        -11   -1    0    0    0    0  0.00000000000E+00  0.00000000000E+00  0.45593999997E+02  0.45594000000E+02  0.51100000000E-03 0. -1.
         11   -1    0    0    0    0 -0.00000000000E+00 -0.00000000000E+00 -0.45593999997E+02  0.45594000000E+02  0.51100000000E-03 0.  1.
    9900012    2    1    2    0    0 -0.23564395519E+02 -0.27633906005E+02  0.18282559098E+02  0.50528862473E+02  0.30000007974E+02 0.  0.
        -12    1    1    2    0    0  0.23564395519E+02  0.27633906005E+02 -0.18282559098E+02  0.40659137527E+02  0.00000000000E+00 0.  1.
         11    1    3    3    0    0 -0.75657374573E+01 -0.11663576285E+02  0.18128684145E+02  0.22845756370E+02  0.51100000000E-03 0. -1.
        -11    1    3    3    0    0 -0.98958452836E+01 -0.15167366919E+02 -0.59025487419E+01  0.19047751968E+02  0.51100000000E-03 0.  1.
        -12    1    3    3    0    0 -0.61028127777E+01 -0.80296280013E+00  0.60564236954E+01  0.86353541349E+01  0.00000000000E+00 0.  1.
</event>
<event>
 7    1  0.6889665E-012  0.5052886E+02  0.7816164E-02  0.1300439E+00
        -11   -1    0    0    0    0  0.00000000000E+00  0.00000000000E+00  0.45593999997E+02  0.45594000000E+02  0.51100000000E-03 0. -1.
         11   -1    0    0    0    0 -0.00000000000E+00 -0.00000000000E+00 -0.45593999997E+02  0.45594000000E+02  0.51100000000E-03 0.  1.
    9900012    2    1    2    0    0  0.20268327622E+02  0.27114306626E+02 -0.22520541048E+02  0.50528862066E+02  0.30000006737E+02 0.  0.
         12    1    1    2    0    0 -0.20268327622E+02 -0.27114306626E+02  0.22520541048E+02  0.40659137934E+02  0.00000000000E+00 0. -1.
         11    1    3    3    0    0  0.23225944560E+02  0.24119462698E+02 -0.21954695491E+02  0.40040000448E+02  0.51100000000E-03 0. -1.
        -11    1    3    3    0    0 -0.98264305983E+00  0.30398372588E+01  0.42307104991E+01  0.53014252358E+01  0.51100000000E-03 0.  1.
         12    1    3    3    0    0 -0.19749738780E+01 -0.44993330531E-01 -0.47965560561E+01  0.51874363820E+01  0.00000000000E+00 0. -1.
</event>
<event>
 7    1  0.6889665E-012  0.5052886E+02  0.7816164E-02  0.1300439E+00
        -11   -1    0    0    0    0  0.00000000000E+00  0.00000000000E+00  0.45593999997E+02  0.45594000000E+02  0.51100000000E-03 0.  1.
         11   -1    0    0    0    0 -0.00000000000E+00 -0.00000000000E+00 -0.45593999997E+02  0.45594000000E+02  0.51100000000E-03 0. -1.
    9900012    2    1    2    0    0  0.30090756785E+02  0.19550359069E+02  0.19117940675E+02  0.50528857863E+02  0.29999993962E+02 0.  0.
        -12    1    1    2    0    0 -0.30090756785E+02 -0.19550359069E+02 -0.19117940675E+02  0.40659142137E+02  0.00000000000E+00 0.  1.
         11    1    3    3    0    0  0.12601629291E+02  0.79996033931E+01  0.23628918561E+02  0.27948533197E+02  0.51100000000E-03 0.  1.
        -11    1    3    3    0    0  0.16851239880E+02  0.91109628283E+01 -0.54054408389E+01  0.19904590427E+02  0.51100000000E-03 0. -1.
        -12    1    3    3    0    0  0.63788761448E+00  0.24397928475E+01  0.89446295315E+00  0.26757342398E+01  0.00000000000E+00 0.  1.
</event>
<event>
 7    1  0.6889665E-012  0.5052885E+02  0.7816164E-02  0.1300439E+00
        -11   -1    0    0    0    0  0.00000000000E+00  0.00000000000E+00  0.45593999997E+02  0.45594000000E+02  0.51100000000E-03 0. -1.
         11   -1    0    0    0    0 -0.00000000000E+00 -0.00000000000E+00 -0.45593999997E+02  0.45594000000E+02  0.51100000000E-03 0.  1.
    9900012    2    1    2    0    0 -0.33271677622E+02 -0.96494051079E+01  0.21284985562E+02  0.50528853906E+02  0.29999981932E+02 0.  0.
        -12    1    1    2    0    0  0.33271677622E+02  0.96494051079E+01 -0.21284985562E+02  0.40659146094E+02  0.00000000000E+00 0.  1.
         11    1    3    3    0    0 -0.17349939941E+01 -0.58857776096E+01  0.13574934794E+02  0.14897363429E+02  0.51100000000E-03 0. -1.
        -11    1    3    3    0    0 -0.13810338241E+02  0.51705050523E+01  0.14515825618E+01  0.14817781785E+02  0.51100000000E-03 0.  1.
         12    1    3    3    0    0 -0.17726345387E+02 -0.89341325506E+01  0.62584682067E+01  0.20813708692E+02  0.00000000000E+00 0. -1.
</event>
<event>
 7    1  0.6889665E-012  0.5052889E+02  0.7816164E-02  0.1300439E+00
        -11   -1    0    0    0    0  0.00000000000E+00  0.00000000000E+00  0.45593999997E+02  0.45594000000E+02  0.51100000000E-03 0. -1.
         11   -1    0    0    0    0 -0.00000000000E+00 -0.00000000000E+00 -0.45593999997E+02  0.45594000000E+02  0.51100000000E-03 0.  1.
    9900012    2    1    2    0    0 -0.34405916185E+01  0.12712272297E+02 -0.38467175519E+02  0.50528891180E+02  0.30000095231E+02 0.  0.
         12    1    1    2    0    0  0.34405916185E+01 -0.12712272297E+02  0.38467175519E+02  0.40659108820E+02  0.00000000000E+00 0. -1.
         11    1    3    3    0    0 -0.85727913815E+01 -0.34340535907E+01 -0.24430759696E+02  0.26117953514E+02  0.51100000000E-03 0. -1.
        -11    1    3    3    0    0 -0.18255732709E+01  0.70760512909E+01 -0.15281596512E+01  0.74658215770E+01  0.51100000000E-03 0.  1.
         12    1    3    3    0    0  0.69577730339E+01  0.90702745969E+01 -0.12508256171E+02  0.16945116090E+02  0.00000000000E+00 0. -1.
</event>
<event>
 7    1  0.6889665E-012  0.5052886E+02  0.7816164E-02  0.1300439E+00
        -11   -1    0    0    0    0  0.00000000000E+00  0.00000000000E+00  0.45593999997E+02  0.45594000000E+02  0.51100000000E-03 0. -1.
         11   -1    0    0    0    0 -0.00000000000E+00 -0.00000000000E+00 -0.45593999997E+02  0.45594000000E+02  0.51100000000E-03 0.  1.
    9900012    2    1    2    0    0 -0.15473870940E+02 -0.23105968426E+02  0.29662084636E+02  0.50528859285E+02  0.29999998282E+02 0.  0.
        -12    1    1    2    0    0  0.15473870940E+02  0.23105968426E+02 -0.29662084636E+02  0.40659140715E+02  0.00000000000E+00 0.  1.
         11    1    3    3    0    0 -0.16446309227E+02 -0.17558981863E+02  0.20408145266E+02  0.31548238061E+02  0.51100000000E-03 0. -1.
        -11    1    3    3    0    0  0.55829606737E+01  0.27976964246E+01  0.65964936909E+01  0.90835171846E+01  0.51100000000E-03 0.  1.
        -12    1    3    3    0    0 -0.46105223863E+01 -0.83446829875E+01  0.26574456787E+01  0.98971040397E+01  0.00000000000E+00 0.  1.
</event>
<event>
 7    1  0.6889665E-012  0.5052886E+02  0.7816164E-02  0.1300439E+00
        -11   -1    0    0    0    0  0.00000000000E+00  0.00000000000E+00  0.45593999997E+02  0.45594000000E+02  0.51100000000E-03 0. -1.
         11   -1    0    0    0    0 -0.00000000000E+00 -0.00000000000E+00 -0.45593999997E+02  0.45594000000E+02  0.51100000000E-03 0.  1.
    9900012    2    1    2    0    0 -0.21930419990E+02  0.35551969408E+01  0.34052645084E+02  0.50528863469E+02  0.30000011001E+02 0.  0.
        -12    1    1    2    0    0  0.21930419990E+02 -0.35551969408E+01 -0.34052645084E+02  0.40659136531E+02  0.00000000000E+00 0.  1.
         11    1    3    3    0    0 -0.58887415850E+01  0.17156627882E+01  0.14496525296E+02  0.15740712252E+02  0.51100000000E-03 0. -1.
        -11    1    3    3    0    0 -0.10082256935E+02  0.59178759518E+01 -0.21725915988E+01  0.11890892111E+02  0.51100000000E-03 0.  1.
        -12    1    3    3    0    0 -0.59594214696E+01 -0.40783417992E+01  0.21728711386E+02  0.22897259107E+02  0.00000000000E+00 0.  1.
</event>
<event>
 7    1  0.6889665E-012  0.5052890E+02  0.7816164E-02  0.1300439E+00
        -11   -1    0    0    0    0  0.00000000000E+00  0.00000000000E+00  0.45593999997E+02  0.45594000000E+02  0.51100000000E-03 0. -1.
         11   -1    0    0    0    0 -0.00000000000E+00 -0.00000000000E+00 -0.45593999997E+02  0.45594000000E+02  0.51100000000E-03 0.  1.
    9900012    2    1    2    0    0  0.13549838099E+02  0.55147807164E+01  0.37936155378E+02  0.50528895193E+02  0.30000107428E+02 0.  0.
        -12    1    1    2    0    0 -0.13549838099E+02 -0.55147807164E+01 -0.37936155378E+02  0.40659104807E+02  0.00000000000E+00 0.  1.
         11    1    3    3    0    0  0.19132194168E+02  0.50712525589E+01  0.39436026934E+02  0.44124354690E+02  0.51100000000E-03 0. -1.
        -11    1    3    3    0    0 -0.24916312782E+01 -0.85415737842E+00  0.20850389070E+00  0.26422122147E+01  0.51100000000E-03 0.  1.
         12    1    3    3    0    0 -0.30907247910E+01  0.12976855360E+01 -0.17083754464E+01  0.37623282884E+01  0.00000000000E+00 0. -1.
</event>
<event>
 7    1  0.6889665E-012  0.5052886E+02  0.7816164E-02  0.1300439E+00
        -11   -1    0    0    0    0  0.00000000000E+00  0.00000000000E+00  0.45593999997E+02  0.45594000000E+02  0.51100000000E-03 0.  1.
         11   -1    0    0    0    0 -0.00000000000E+00 -0.00000000000E+00 -0.45593999997E+02  0.45594000000E+02  0.51100000000E-03 0. -1.
    9900012    2    1    2    0    0  0.33782118786E+02  0.10496077106E+02 -0.20044111642E+02  0.50528860857E+02  0.30000003062E+02 0.  0.
         12    1    1    2    0    0 -0.33782118786E+02 -0.10496077106E+02  0.20044111642E+02  0.40659139143E+02  0.00000000000E+00 0. -1.
         11    1    3    3    0    0  0.17035151891E+02  0.43440991887E+01 -0.93358243608E+01  0.19905406664E+02  0.51100000000E-03 0. -1.
        -11    1    3    3    0    0 -0.53438659897E+01 -0.65181620013E+00 -0.34571470158E+01  0.63979398110E+01  0.51100000000E-03 0.  1.
        -12    1    3    3    0    0  0.22090832885E+02  0.68037941171E+01 -0.72511402656E+01  0.24225514382E+02  0.00000000000E+00 0.  1.
</event>
<event>
 7    1  0.6889665E-012  0.5052887E+02  0.7816164E-02  0.1300439E+00
        -11   -1    0    0    0    0  0.00000000000E+00  0.00000000000E+00  0.45593999997E+02  0.45594000000E+02  0.51100000000E-03 0. -1.
         11   -1    0    0    0    0 -0.00000000000E+00 -0.00000000000E+00 -0.45593999997E+02  0.45594000000E+02  0.51100000000E-03 0.  1.
    9900012    2    1    2    0    0 -0.15229506714E+02 -0.19305989297E+02  0.32380642906E+02  0.50528866556E+02  0.30000020382E+02 0.  0.
        -12    1    1    2    0    0  0.15229506714E+02  0.19305989297E+02 -0.32380642906E+02  0.40659133444E+02  0.00000000000E+00 0.  1.
         11    1    3    3    0    0 -0.10385250566E+02 -0.28872765754E+00  0.12858597070E+01  0.10468535161E+02  0.51100000000E-03 0. -1.
        -11    1    3    3    0    0 -0.11324320978E+01 -0.20315728505E+02  0.29455444536E+02  0.35799922349E+02  0.51100000000E-03 0.  1.
         12    1    3    3    0    0 -0.37118240500E+01  0.12984668658E+01  0.16393386630E+01  0.42604090451E+01  0.00000000000E+00 0. -1.
</event>
<event>
 7    1  0.6889665E-012  0.5052887E+02  0.7816164E-02  0.1300439E+00
        -11   -1    0    0    0    0  0.00000000000E+00  0.00000000000E+00  0.45593999997E+02  0.45594000000E+02  0.51100000000E-03 0.  1.
         11   -1    0    0    0    0 -0.00000000000E+00 -0.00000000000E+00 -0.45593999997E+02  0.45594000000E+02  0.51100000000E-03 0. -1.
    9900012    2    1    2    0    0  0.18381044678E+02  0.32866135928E+02  0.15333598483E+02  0.50528868962E+02  0.30000027698E+02 0.  0.
        -12    1    1    2    0    0 -0.18381044678E+02 -0.32866135928E+02 -0.15333598483E+02  0.40659131038E+02  0.00000000000E+00 0.  1.
         11    1    3    3    0    0  0.90789176081E+01  0.77084809525E+01 -0.90865062593E+00  0.11944583281E+02  0.51100000000E-03 0. -1.
        -11    1    3    3    0    0  0.11862966667E+01  0.26085574230E+02  0.15536888900E+02  0.30385183883E+02  0.51100000000E-03 0.  1.
        -12    1    3    3    0    0  0.81158304031E+01 -0.92791925398E+00  0.70536020929E+00  0.81991017982E+01  0.00000000000E+00 0.  1.
</event>
<event>
 7    1  0.6889665E-012  0.5052886E+02  0.7816164E-02  0.1300439E+00
        -11   -1    0    0    0    0  0.00000000000E+00  0.00000000000E+00  0.45593999997E+02  0.45594000000E+02  0.51100000000E-03 0. -1.
         11   -1    0    0    0    0 -0.00000000000E+00 -0.00000000000E+00 -0.45593999997E+02  0.45594000000E+02  0.51100000000E-03 0.  1.
    9900012    2    1    2    0    0  0.77366556604E+01  0.24506875649E+02 -0.31507504739E+02  0.50528860194E+02  0.30000001046E+02 0.  0.
         12    1    1    2    0    0 -0.77366556604E+01 -0.24506875649E+02  0.31507504739E+02  0.40659139806E+02  0.00000000000E+00 0. -1.
         11    1    3    3    0    0  0.94865402579E+01  0.14147191194E+02 -0.14550269332E+01  0.17095454611E+02  0.51100000000E-03 0. -1.
        -11    1    3    3    0    0 -0.52583495480E+00  0.43556784805E-01 -0.15736432051E+02  0.15745275278E+02  0.51100000000E-03 0.  1.
        -12    1    3    3    0    0 -0.12240496427E+01  0.10316127670E+02 -0.14316045755E+02  0.17688130305E+02  0.00000000000E+00 0.  1.
</event>
<event>
 7    1  0.6889665E-012  0.5052889E+02  0.7816164E-02  0.1300439E+00
        -11   -1    0    0    0    0  0.00000000000E+00  0.00000000000E+00  0.45593999997E+02  0.45594000000E+02  0.51100000000E-03 0.  1.
         11   -1    0    0    0    0 -0.00000000000E+00 -0.00000000000E+00 -0.45593999997E+02  0.45594000000E+02  0.51100000000E-03 0. -1.
    9900012    2    1    2    0    0 -0.28723118209E+02  0.32121842741E+01  0.28597681819E+02  0.50528892129E+02  0.30000098116E+02 0.  0.
        -12    1    1    2    0    0  0.28723118209E+02 -0.32121842741E+01 -0.28597681819E+02  0.40659107871E+02  0.00000000000E+00 0.  1.
         11    1    3    3    0    0 -0.27057489649E+02  0.70146056833E+01  0.18159715067E+02  0.33332982024E+02  0.51100000000E-03 0. -1.
        -11    1    3    3    0    0  0.33367653932E+01  0.22775481334E+01  0.79857547486E+01  0.89494976370E+01  0.51100000000E-03 0.  1.
        -12    1    3    3    0    0 -0.50023939525E+01 -0.60799695426E+01  0.24522120031E+01  0.82464124687E+01  0.00000000000E+00 0.  1.
</event>
<event>
 7    1  0.6889665E-012  0.5052886E+02  0.7816164E-02  0.1300439E+00
        -11   -1    0    0    0    0  0.00000000000E+00  0.00000000000E+00  0.45593999997E+02  0.45594000000E+02  0.51100000000E-03 0. -1.
         11   -1    0    0    0    0 -0.00000000000E+00 -0.00000000000E+00 -0.45593999997E+02  0.45594000000E+02  0.51100000000E-03 0.  1.
    9900012    2    1    2    0    0 -0.25571230474E+02 -0.26828308862E+02  0.16718845803E+02  0.50528858478E+02  0.29999995828E+02 0.  0.
        -12    1    1    2    0    0  0.25571230474E+02  0.26828308862E+02 -0.16718845803E+02  0.40659141522E+02  0.00000000000E+00 0.  1.
         11    1    3    3    0    0 -0.23459125143E+02 -0.13395423479E+02  0.11201988779E+02  0.29244699956E+02  0.51100000000E-03 0. -1.
        -11    1    3    3    0    0  0.48112696688E+01 -0.10958997053E+02 -0.20105371987E+00  0.11970311404E+02  0.51100000000E-03 0.  1.
         12    1    3    3    0    0 -0.69233749998E+01 -0.24738883298E+01  0.57179107446E+01  0.93138471181E+01  0.00000000000E+00 0. -1.
</event>
<event>
 7    1  0.6889665E-012  0.5052885E+02  0.7816164E-02  0.1300439E+00
        -11   -1    0    0    0    0  0.00000000000E+00  0.00000000000E+00  0.45593999997E+02  0.45594000000E+02  0.51100000000E-03 0.  1.
         11   -1    0    0    0    0 -0.00000000000E+00 -0.00000000000E+00 -0.45593999997E+02  0.45594000000E+02  0.51100000000E-03 0. -1.
    9900012    2    1    2    0    0  0.29715127454E+02  0.58530264353E+01 -0.27127838133E+02  0.50528851954E+02  0.29999976000E+02 0.  0.
         12    1    1    2    0    0 -0.29715127454E+02 -0.58530264353E+01  0.27127838133E+02  0.40659148046E+02  0.00000000000E+00 0. -1.
         11    1    3    3    0    0 -0.22856890478E+01  0.95220902629E+00 -0.12634527496E+02  0.12874873272E+02  0.51100000000E-03 0. -1.
        -11    1    3    3    0    0  0.16899809208E+02 -0.37987472919E+01 -0.69464018629E+01  0.18662436373E+02  0.51100000000E-03 0.  1.
         12    1    3    3    0    0  0.15101007294E+02  0.86995647009E+01 -0.75469087742E+01  0.18991542310E+02  0.00000000000E+00 0. -1.
</event>
<event>
 7    1  0.6889665E-012  0.5052887E+02  0.7816164E-02  0.1300439E+00
        -11   -1    0    0    0    0  0.00000000000E+00  0.00000000000E+00  0.45593999997E+02  0.45594000000E+02  0.51100000000E-03 0. -1.
         11   -1    0    0    0    0 -0.00000000000E+00 -0.00000000000E+00 -0.45593999997E+02  0.45594000000E+02  0.51100000000E-03 0.  1.
    9900012    2    1    2    0    0 -0.23986797809E+02 -0.16118579259E+02 -0.28600519890E+02  0.50528870589E+02  0.30000032644E+02 0.  0.
         12    1    1    2    0    0  0.23986797809E+02  0.16118579259E+02  0.28600519890E+02  0.40659129411E+02  0.00000000000E+00 0. -1.
         11    1    3    3    0    0 -0.14089925094E+02 -0.59193473408E+01  0.25299465383E-01  0.15282843401E+02  0.51100000000E-03 0. -1.
        -11    1    3    3    0    0  0.17184979142E+01  0.99634041353E+00 -0.11685112056E+02  0.11852753829E+02  0.51100000000E-03 0.  1.
        -12    1    3    3    0    0 -0.11615370629E+02 -0.11195572332E+02 -0.16940707299E+02  0.23393273360E+02  0.00000000000E+00 0.  1.
</event>
<event>
 7    1  0.6889665E-012  0.5052887E+02  0.7816164E-02  0.1300439E+00
        -11   -1    0    0    0    0  0.00000000000E+00  0.00000000000E+00  0.45593999997E+02  0.45594000000E+02  0.51100000000E-03 0. -1.
         11   -1    0    0    0    0 -0.00000000000E+00 -0.00000000000E+00 -0.45593999997E+02  0.45594000000E+02  0.51100000000E-03 0.  1.
    9900012    2    1    2    0    0 -0.18786510312E+01  0.24879044999E+02 -0.32104034735E+02  0.50528865036E+02  0.30000015764E+02 0.  0.
         12    1    1    2    0    0  0.18786510312E+01 -0.24879044999E+02  0.32104034735E+02  0.40659134964E+02  0.00000000000E+00 0. -1.
         11    1    3    3    0    0 -0.60571060434E+01  0.20775723176E+02 -0.17736193250E+02  0.27980202972E+02  0.51100000000E-03 0. -1.
        -11    1    3    3    0    0  0.78272097051E+01 -0.36143227995E+01 -0.54292447457E+01  0.10188485650E+02  0.51100000000E-03 0.  1.
        -12    1    3    3    0    0 -0.36487546929E+01  0.77176446227E+01 -0.89385967393E+01  0.12360176415E+02  0.00000000000E+00 0.  1.
</event>
<event>
 7    1  0.6889665E-012  0.5052886E+02  0.7816164E-02  0.1300439E+00
        -11   -1    0    0    0    0  0.00000000000E+00  0.00000000000E+00  0.45593999997E+02  0.45594000000E+02  0.51100000000E-03 0. -1.
         11   -1    0    0    0    0 -0.00000000000E+00 -0.00000000000E+00 -0.45593999997E+02  0.45594000000E+02  0.51100000000E-03 0.  1.
    9900012    2    1    2    0    0  0.17913492379E+02 -0.21793123559E+02 -0.29280231593E+02  0.50528863194E+02  0.30000010165E+02 0.  0.
         12    1    1    2    0    0 -0.17913492379E+02  0.21793123559E+02  0.29280231593E+02  0.40659136806E+02  0.00000000000E+00 0. -1.
         11    1    3    3    0    0 -0.18542585640E+01  0.21771225193E+00  0.46531784391E+00  0.19241087297E+01  0.51100000000E-03 0.  1.
        -11    1    3    3    0    0  0.15897624641E+02 -0.93300390016E+01 -0.30152156484E+02  0.35340297649E+02  0.51100000000E-03 0. -1.
        -12    1    3    3    0    0  0.38701263017E+01 -0.12680796810E+02  0.40660704746E+00  0.13264456815E+02  0.00000000000E+00 0.  1.
</event>
<event>
 7    1  0.6889665E-012  0.5052886E+02  0.7816164E-02  0.1300439E+00
        -11   -1    0    0    0    0  0.00000000000E+00  0.00000000000E+00  0.45593999997E+02  0.45594000000E+02  0.51100000000E-03 0. -1.
         11   -1    0    0    0    0 -0.00000000000E+00 -0.00000000000E+00 -0.45593999997E+02  0.45594000000E+02  0.51100000000E-03 0.  1.
    9900012    2    1    2    0    0 -0.28229468511E+02 -0.62484114904E+01  0.28587066782E+02  0.50528856800E+02  0.29999990728E+02 0.  0.
        -12    1    1    2    0    0  0.28229468511E+02  0.62484114904E+01 -0.28587066782E+02  0.40659143200E+02  0.00000000000E+00 0.  1.
         11    1    3    3    0    0 -0.23498775310E+02  0.22080724294E+01  0.24008708845E+02  0.33667285688E+02  0.51100000000E-03 0. -1.
        -11    1    3    3    0    0 -0.67322744523E+01 -0.74354265998E+01 -0.17178331035E+01  0.10176445296E+02  0.51100000000E-03 0.  1.
        -12    1    3    3    0    0  0.20015812514E+01 -0.10210573200E+01  0.62961910405E+01  0.66851258160E+01  0.00000000000E+00 0.  1.
</event>
<event>
 7    1  0.6889665E-012  0.5052886E+02  0.7816164E-02  0.1300439E+00
        -11   -1    0    0    0    0  0.00000000000E+00  0.00000000000E+00  0.45593999997E+02  0.45594000000E+02  0.51100000000E-03 0. -1.
         11   -1    0    0    0    0 -0.00000000000E+00 -0.00000000000E+00 -0.45593999997E+02  0.45594000000E+02  0.51100000000E-03 0.  1.
    9900012    2    1    2    0    0 -0.28218525123E+02  0.27288068397E+02  0.10594431455E+02  0.50528858165E+02  0.29999994877E+02 0.  0.
        -12    1    1    2    0    0  0.28218525123E+02 -0.27288068397E+02 -0.10594431455E+02  0.40659141835E+02  0.00000000000E+00 0.  1.
         11    1    3    3    0    0 -0.22942753487E+02  0.25814558185E+02  0.18057541132E+02  0.38972248380E+02  0.51100000000E-03 0. -1.
        -11    1    3    3    0    0 -0.54665629242E+01  0.23602254049E+01 -0.24113344414E+01  0.64240569904E+01  0.51100000000E-03 0.  1.
         12    1    3    3    0    0  0.19079128796E+00 -0.88671519260E+00 -0.50517752359E+01  0.51325527939E+01  0.00000000000E+00 0. -1.
</event>
<event>
 7    1  0.6889665E-012  0.5052880E+02  0.7816164E-02  0.1300439E+00
        -11   -1    0    0    0    0  0.00000000000E+00  0.00000000000E+00  0.45593999997E+02  0.45594000000E+02  0.51100000000E-03 0. -1.
         11   -1    0    0    0    0 -0.00000000000E+00 -0.00000000000E+00 -0.45593999997E+02  0.45594000000E+02  0.51100000000E-03 0.  1.
    9900012    2    1    2    0    0  0.54875987480E+01 -0.24033967924E+01  0.40215424332E+02  0.50528801651E+02  0.29999823099E+02 0.  0.
        -12    1    1    2    0    0 -0.54875987480E+01  0.24033967924E+01 -0.40215424332E+02  0.40659198349E+02  0.00000000000E+00 0.  1.
         11    1    3    3    0    0  0.31945067181E+01  0.45225542436E+01  0.10403636958E+02  0.11785331233E+02  0.51100000000E-03 0. -1.
        -11    1    3    3    0    0 -0.74693760856E+01 -0.31009712786E+01  0.26562606299E+02  0.27766520409E+02  0.51100000000E-03 0.  1.
        -12    1    3    3    0    0  0.97624681155E+01 -0.38249797574E+01  0.32491810750E+01  0.10976950009E+02  0.00000000000E+00 0.  1.
</event>
<event>
 7    1  0.6889665E-012  0.5052886E+02  0.7816164E-02  0.1300439E+00
        -11   -1    0    0    0    0  0.00000000000E+00  0.00000000000E+00  0.45593999997E+02  0.45594000000E+02  0.51100000000E-03 0. -1.
         11   -1    0    0    0    0 -0.00000000000E+00 -0.00000000000E+00 -0.45593999997E+02  0.45594000000E+02  0.51100000000E-03 0.  1.
    9900012    2    1    2    0    0  0.12058689537E+02 -0.32567840093E+02  0.21144491689E+02  0.50528859202E+02  0.29999998031E+02 0.  0.
        -12    1    1    2    0    0 -0.12058689537E+02  0.32567840093E+02 -0.21144491689E+02  0.40659140798E+02  0.00000000000E+00 0.  1.
         11    1    3    3    0    0  0.81809816798E+01  0.38010810175E+01  0.35623451064E+01  0.96988133844E+01  0.51100000000E-03 0. -1.
        -11    1    3    3    0    0  0.20844222611E+01 -0.12404200905E+02  0.38624703576E+01  0.13157799732E+02  0.51100000000E-03 0.  1.
         12    1    3    3    0    0  0.17932855959E+01 -0.23964720205E+02  0.13719676225E+02  0.27672246086E+02  0.00000000000E+00 0. -1.
</event>
<event>
 7    1  0.6889665E-012  0.5052886E+02  0.7816164E-02  0.1300439E+00
        -11   -1    0    0    0    0  0.00000000000E+00  0.00000000000E+00  0.45593999997E+02  0.45594000000E+02  0.51100000000E-03 0. -1.
         11   -1    0    0    0    0 -0.00000000000E+00 -0.00000000000E+00 -0.45593999997E+02  0.45594000000E+02  0.51100000000E-03 0.  1.
    9900012    2    1    2    0    0  0.14680425996E+02 -0.12342878598E+01  0.37896267854E+02  0.50528862144E+02  0.30000006973E+02 0.  0.
        -12    1    1    2    0    0 -0.14680425996E+02  0.12342878598E+01 -0.37896267854E+02  0.40659137856E+02  0.00000000000E+00 0.  1.
         11    1    3    3    0    0  0.13398175396E+02  0.85713571229E+01  0.86840005810E+01  0.18121565418E+02  0.51100000000E-03 0. -1.
        -11    1    3    3    0    0  0.43418830280E+00 -0.79301887589E-01 -0.76335419035E+00  0.88176989782E+00  0.51100000000E-03 0.  1.
         12    1    3    3    0    0  0.84806229779E+00 -0.97263430952E+01  0.29975621463E+02  0.31525526828E+02  0.00000000000E+00 0. -1.
</event>
<event>
 7    1  0.6889665E-012  0.5052886E+02  0.7816164E-02  0.1300439E+00
        -11   -1    0    0    0    0  0.00000000000E+00  0.00000000000E+00  0.45593999997E+02  0.45594000000E+02  0.51100000000E-03 0. -1.
         11   -1    0    0    0    0 -0.00000000000E+00 -0.00000000000E+00 -0.45593999997E+02  0.45594000000E+02  0.51100000000E-03 0.  1.
    9900012    2    1    2    0    0 -0.23950156545E+02  0.17769455747E+02  0.27636974125E+02  0.50528857180E+02  0.29999991884E+02 0.  0.
        -12    1    1    2    0    0  0.23950156545E+02 -0.17769455747E+02 -0.27636974125E+02  0.40659142820E+02  0.00000000000E+00 0.  1.
         11    1    3    3    0    0 -0.79933899217E+01 -0.38214205125E+00  0.20260162785E+02  0.21783353996E+02  0.51100000000E-03 0. -1.
        -11    1    3    3    0    0 -0.16836217796E+02  0.11463978583E+02  0.81858210065E+01  0.21951963475E+02  0.51100000000E-03 0.  1.
         12    1    3    3    0    0  0.87945117254E+00  0.66876192153E+01 -0.80900966604E+00  0.67935397087E+01  0.00000000000E+00 0. -1.
</event>
<event>
 7    1  0.6889665E-012  0.5052887E+02  0.7816164E-02  0.1300439E+00
        -11   -1    0    0    0    0  0.00000000000E+00  0.00000000000E+00  0.45593999997E+02  0.45594000000E+02  0.51100000000E-03 0. -1.
         11   -1    0    0    0    0 -0.00000000000E+00 -0.00000000000E+00 -0.45593999997E+02  0.45594000000E+02  0.51100000000E-03 0.  1.
    9900012    2    1    2    0    0 -0.18487333448E+02 -0.11961573431E+02  0.34180465676E+02  0.50528868544E+02  0.30000026426E+02 0.  0.
        -12    1    1    2    0    0  0.18487333448E+02  0.11961573431E+02 -0.34180465676E+02  0.40659131456E+02  0.00000000000E+00 0.  1.
         11    1    3    3    0    0 -0.17808293219E+02 -0.55874789765E+01  0.89844753985E+01  0.20714150408E+02  0.51100000000E-03 0. -1.
        -11    1    3    3    0    0  0.61823190627E+01 -0.55285521010E+01  0.91873975745E+01  0.12377165741E+02  0.51100000000E-03 0.  1.
        -12    1    3    3    0    0 -0.68613592912E+01 -0.84554235371E+00  0.16008592703E+02  0.17437552395E+02  0.00000000000E+00 0.  1.
</event>
<event>
 7    1  0.6889665E-012  0.5052887E+02  0.7816164E-02  0.1300439E+00
        -11   -1    0    0    0    0  0.00000000000E+00  0.00000000000E+00  0.45593999997E+02  0.45594000000E+02  0.51100000000E-03 0. -1.
         11   -1    0    0    0    0 -0.00000000000E+00 -0.00000000000E+00 -0.45593999997E+02  0.45594000000E+02  0.51100000000E-03 0.  1.
    9900012    2    1    2    0    0  0.49775125639E+00  0.21220849540E+02  0.34678422225E+02  0.50528865976E+02  0.30000018621E+02 0.  0.
        -12    1    1    2    0    0 -0.49775125639E+00 -0.21220849540E+02 -0.34678422225E+02  0.40659134024E+02  0.00000000000E+00 0.  1.
         11    1    3    3    0    0  0.54317253631E+01  0.70029819646E+01  0.13785008840E+02  0.16388162368E+02  0.51100000000E-03 0. -1.
        -11    1    3    3    0    0 -0.10392825406E+02  0.15471808445E+01  0.19197952305E+01  0.10681301535E+02  0.51100000000E-03 0.  1.
        -12    1    3    3    0    0  0.54588512996E+01  0.12670686731E+02  0.18973618155E+02  0.23459402074E+02  0.00000000000E+00 0.  1.
</event>
<event>
 7    1  0.6889665E-012  0.5052883E+02  0.7816164E-02  0.1300439E+00
        -11   -1    0    0    0    0  0.00000000000E+00  0.00000000000E+00  0.45593999997E+02  0.45594000000E+02  0.51100000000E-03 0. -1.
         11   -1    0    0    0    0 -0.00000000000E+00 -0.00000000000E+00 -0.45593999997E+02  0.45594000000E+02  0.51100000000E-03 0.  1.
    9900012    2    1    2    0    0  0.26086271100E+02  0.21230517455E+02  0.22845995770E+02  0.50528832104E+02  0.29999915664E+02 0.  0.
        -12    1    1    2    0    0 -0.26086271100E+02 -0.21230517455E+02 -0.22845995770E+02  0.40659167896E+02  0.00000000000E+00 0.  1.
         11    1    3    3    0    0  0.64801538779E+01  0.65881609445E+01  0.71290412212E+01  0.11671310462E+02  0.51100000000E-03 0. -1.
        -11    1    3    3    0    0  0.15153626967E+02 -0.34004017759E+01  0.17882325090E+01  0.15633071300E+02  0.51100000000E-03 0.  1.
        -12    1    3    3    0    0  0.44524902544E+01  0.18042758286E+02  0.13928722039E+02  0.23224450342E+02  0.00000000000E+00 0.  1.
</event>
<event>
 7    1  0.6889665E-012  0.5052888E+02  0.7816164E-02  0.1300439E+00
        -11   -1    0    0    0    0  0.00000000000E+00  0.00000000000E+00  0.45593999997E+02  0.45594000000E+02  0.51100000000E-03 0. -1.
         11   -1    0    0    0    0 -0.00000000000E+00 -0.00000000000E+00 -0.45593999997E+02  0.45594000000E+02  0.51100000000E-03 0.  1.
    9900012    2    1    2    0    0 -0.12145429695E+02  0.25587180894E+01  0.38718288960E+02  0.50528875554E+02  0.30000047734E+02 0.  0.
        -12    1    1    2    0    0  0.12145429695E+02 -0.25587180894E+01 -0.38718288960E+02  0.40659124446E+02  0.00000000000E+00 0.  1.
         11    1    3    3    0    0 -0.30348514279E+01  0.12997479809E+01  0.57993144181E+01  0.66732088222E+01  0.51100000000E-03 0.  1.
        -11    1    3    3    0    0 -0.17028118602E+02  0.62302003786E+01  0.14563589154E+02  0.23256619471E+02  0.51100000000E-03 0. -1.
        -12    1    3    3    0    0  0.79175403350E+01 -0.49712302701E+01  0.18355385387E+02  0.20599047261E+02  0.00000000000E+00 0.  1.
</event>
<event>
 7    1  0.6889665E-012  0.5052886E+02  0.7816164E-02  0.1300439E+00
        -11   -1    0    0    0    0  0.00000000000E+00  0.00000000000E+00  0.45593999997E+02  0.45594000000E+02  0.51100000000E-03 0. -1.
         11   -1    0    0    0    0 -0.00000000000E+00 -0.00000000000E+00 -0.45593999997E+02  0.45594000000E+02  0.51100000000E-03 0.  1.
    9900012    2    1    2    0    0 -0.29868992162E+02 -0.11257224201E+02 -0.25184985565E+02  0.50528864651E+02  0.30000014592E+02 0.  0.
         12    1    1    2    0    0  0.29868992162E+02  0.11257224201E+02  0.25184985565E+02  0.40659135349E+02  0.00000000000E+00 0. -1.
         11    1    3    3    0    0 -0.16097191805E+01  0.32333488303E+01  0.42854364631E+01  0.56045255320E+01  0.51100000000E-03 0. -1.
        -11    1    3    3    0    0 -0.20157286176E+02 -0.68934135155E+01 -0.12675804008E+02  0.24789339309E+02  0.51100000000E-03 0.  1.
        -12    1    3    3    0    0 -0.81019868051E+01 -0.75971595154E+01 -0.16794618020E+02  0.20134999810E+02  0.00000000000E+00 0.  1.
</event>
<event>
 7    1  0.6889665E-012  0.5052886E+02  0.7816164E-02  0.1300439E+00
        -11   -1    0    0    0    0  0.00000000000E+00  0.00000000000E+00  0.45593999997E+02  0.45594000000E+02  0.51100000000E-03 0. -1.
         11   -1    0    0    0    0 -0.00000000000E+00 -0.00000000000E+00 -0.45593999997E+02  0.45594000000E+02  0.51100000000E-03 0.  1.
    9900012    2    1    2    0    0  0.62926354348E+01 -0.26042628727E+02  0.30583485847E+02  0.50528863532E+02  0.30000011193E+02 0.  0.
        -12    1    1    2    0    0 -0.62926354348E+01  0.26042628727E+02 -0.30583485847E+02  0.40659136468E+02  0.00000000000E+00 0.  1.
         11    1    3    3    0    0  0.56282680510E+01 -0.46099732642E+01  0.85674450037E+00  0.73255215617E+01  0.51100000000E-03 0. -1.
        -11    1    3    3    0    0 -0.66074164727E+01 -0.22973301301E+02  0.23190885572E+02  0.33305370423E+02  0.51100000000E-03 0.  1.
        -12    1    3    3    0    0  0.72717838564E+01  0.15406458384E+01  0.65358557749E+01  0.98979715480E+01  0.00000000000E+00 0.  1.
</event>
<event>
 7    1  0.6889665E-012  0.5052886E+02  0.7816164E-02  0.1300439E+00
        -11   -1    0    0    0    0  0.00000000000E+00  0.00000000000E+00  0.45593999997E+02  0.45594000000E+02  0.51100000000E-03 0. -1.
         11   -1    0    0    0    0 -0.00000000000E+00 -0.00000000000E+00 -0.45593999997E+02  0.45594000000E+02  0.51100000000E-03 0.  1.
    9900012    2    1    2    0    0 -0.96613955703E+01  0.19824427374E+02  0.34158676565E+02  0.50528859948E+02  0.30000000298E+02 0.  0.
        -12    1    1    2    0    0  0.96613955703E+01 -0.19824427374E+02 -0.34158676565E+02  0.40659140052E+02  0.00000000000E+00 0.  1.
         11    1    3    3    0    0 -0.91823588748E+01  0.23751916959E+01  0.30122175256E+02  0.31580099628E+02  0.51100000000E-03 0. -1.
        -11    1    3    3    0    0  0.19529836790E+01  0.54387583836E+01  0.33404068433E+01  0.66747701193E+01  0.51100000000E-03 0.  1.
         12    1    3    3    0    0 -0.24320203745E+01  0.12010477295E+02  0.69609446606E+00  0.12273990201E+02  0.00000000000E+00 0. -1.
</event>
<event>
 7    1  0.6889665E-012  0.5052886E+02  0.7816164E-02  0.1300439E+00
        -11   -1    0    0    0    0  0.00000000000E+00  0.00000000000E+00  0.45593999997E+02  0.45594000000E+02  0.51100000000E-03 0. -1.
         11   -1    0    0    0    0 -0.00000000000E+00 -0.00000000000E+00 -0.45593999997E+02  0.45594000000E+02  0.51100000000E-03 0.  1.
    9900012    2    1    2    0    0 -0.45277175645E+00 -0.39945037624E+01 -0.40459915203E+02  0.50528858336E+02  0.29999995398E+02 0.  0.
         12    1    1    2    0    0  0.45277175645E+00  0.39945037624E+01  0.40459915203E+02  0.40659141664E+02  0.00000000000E+00 0. -1.
         11    1    3    3    0    0 -0.10453343241E+02  0.79495120821E+01 -0.21995487328E+02  0.25617739758E+02  0.51100000000E-03 0. -1.
        -11    1    3    3    0    0  0.10752059756E+02 -0.10454724509E+02 -0.17186509951E+02  0.22809738668E+02  0.51100000000E-03 0.  1.
        -12    1    3    3    0    0 -0.75148827163E+00 -0.14892913353E+01 -0.12779179254E+01  0.21013799104E+01  0.00000000000E+00 0.  1.
</event>
<event>
 7    1  0.7437697E-012  0.5052886E+02  0.7816164E-02  0.1300439E+00
        -11   -1    0    0    0    0  0.00000000000E+00  0.00000000000E+00  0.45593999997E+02  0.45594000000E+02  0.51100000000E-03 0. -1.
         11   -1    0    0    0    0 -0.00000000000E+00 -0.00000000000E+00 -0.45593999997E+02  0.45594000000E+02  0.51100000000E-03 0.  1.
    9900012    2    1    2    0    0 -0.51894740993E+01 -0.20744004763E+02 -0.34582093321E+02  0.50528861377E+02  0.30000004643E+02 0.  0.
         12    1    1    2    0    0  0.51894740993E+01  0.20744004763E+02  0.34582093321E+02  0.40659138623E+02  0.00000000000E+00 0. -1.
         11    1    3    3    0    0  0.12593474078E+01  0.38620855019E+01 -0.40744894886E+01  0.57535315391E+01  0.51100000000E-03 0. -1.
        -11    1    3    3    0    0 -0.11370696536E+02 -0.19397256884E+02 -0.30135738413E+02  0.37599322391E+02  0.51100000000E-03 0.  1.
        -12    1    3    3    0    0  0.49218750289E+01 -0.52088333806E+01 -0.37186541988E+00  0.71760074469E+01  0.00000000000E+00 0.  1.
</event>
<event>
 7    1  0.6889665E-012  0.5052887E+02  0.7816164E-02  0.1300439E+00
        -11   -1    0    0    0    0  0.00000000000E+00  0.00000000000E+00  0.45593999997E+02  0.45594000000E+02  0.51100000000E-03 0.  1.
         11   -1    0    0    0    0 -0.00000000000E+00 -0.00000000000E+00 -0.45593999997E+02  0.45594000000E+02  0.51100000000E-03 0. -1.
    9900012    2    1    2    0    0 -0.54665657458E+01  0.39825605683E+02  0.60994180603E+01  0.50528866835E+02  0.30000021231E+02 0.  0.
        -12    1    1    2    0    0  0.54665657458E+01 -0.39825605683E+02 -0.60994180603E+01  0.40659133165E+02  0.00000000000E+00 0.  1.
         11    1    3    3    0    0  0.70020076366E+01  0.26638756347E+02 -0.47098156733E+01  0.27943403776E+02  0.51100000000E-03 0. -1.
        -11    1    3    3    0    0 -0.54475540037E+01  0.99945496644E+01  0.93619852662E+01  0.14738169357E+02  0.51100000000E-03 0.  1.
        -12    1    3    3    0    0 -0.70210193788E+01  0.31922996720E+01  0.14472484674E+01  0.78472937016E+01  0.00000000000E+00 0.  1.
</event>
<event>
 7    1  0.6889665E-012  0.5052886E+02  0.7816164E-02  0.1300439E+00
        -11   -1    0    0    0    0  0.00000000000E+00  0.00000000000E+00  0.45593999997E+02  0.45594000000E+02  0.51100000000E-03 0. -1.
         11   -1    0    0    0    0 -0.00000000000E+00 -0.00000000000E+00 -0.45593999997E+02  0.45594000000E+02  0.51100000000E-03 0.  1.
    9900012    2    1    2    0    0 -0.29927180650E+02  0.21355031460E+01  0.27440286783E+02  0.50528857681E+02  0.29999993408E+02 0.  0.
        -12    1    1    2    0    0  0.29927180650E+02 -0.21355031460E+01 -0.27440286783E+02  0.40659142319E+02  0.00000000000E+00 0.  1.
         11    1    3    3    0    0 -0.12274593777E+02  0.15153326539E+02  0.13015550796E+02  0.23445543721E+02  0.51100000000E-03 0.  1.
        -11    1    3    3    0    0 -0.11514915848E+02 -0.12122476070E+02  0.10510381601E+02  0.19748818565E+02  0.51100000000E-03 0. -1.
        -12    1    3    3    0    0 -0.61376710254E+01 -0.89534732362E+00  0.39143543860E+01  0.73344953954E+01  0.00000000000E+00 0.  1.
</event>
<event>
 7    1  0.6889665E-012  0.5052885E+02  0.7816164E-02  0.1300439E+00
        -11   -1    0    0    0    0  0.00000000000E+00  0.00000000000E+00  0.45593999997E+02  0.45594000000E+02  0.51100000000E-03 0. -1.
         11   -1    0    0    0    0 -0.00000000000E+00 -0.00000000000E+00 -0.45593999997E+02  0.45594000000E+02  0.51100000000E-03 0.  1.
    9900012    2    1    2    0    0 -0.35855046508E+01 -0.56855525461E+00  0.40496754804E+02  0.50528852834E+02  0.29999978673E+02 0.  0.
        -12    1    1    2    0    0  0.35855046508E+01  0.56855525461E+00 -0.40496754804E+02  0.40659147166E+02  0.00000000000E+00 0.  1.
         11    1    3    3    0    0  0.46326718638E+01 -0.23758964138E+01  0.28865756058E+02  0.29331525794E+02  0.51100000000E-03 0. -1.
        -11    1    3    3    0    0 -0.40337777527E+01  0.75450324093E+00 -0.35431259482E+01  0.54216584036E+01  0.51100000000E-03 0.  1.
        -12    1    3    3    0    0 -0.41843987618E+01  0.10528379182E+01  0.15174124694E+02  0.15775668636E+02  0.00000000000E+00 0.  1.
</event>
<event>
 7    1  0.6889665E-012  0.5052892E+02  0.7816164E-02  0.1300439E+00
        -11   -1    0    0    0    0  0.00000000000E+00  0.00000000000E+00  0.45593999997E+02  0.45594000000E+02  0.51100000000E-03 0. -1.
         11   -1    0    0    0    0 -0.00000000000E+00 -0.00000000000E+00 -0.45593999997E+02  0.45594000000E+02  0.51100000000E-03 0.  1.
    9900012    2    1    2    0    0  0.25750578603E+02 -0.62467438597E+01 -0.30839041056E+02  0.50528922778E+02  0.30000191277E+02 0.  0.
         12    1    1    2    0    0 -0.25750578603E+02  0.62467438597E+01  0.30839041056E+02  0.40659077222E+02  0.00000000000E+00 0. -1.
         11    1    3    3    0    0  0.27662188600E+01 -0.30409504471E+01 -0.15495348583E+02  0.16031380925E+02  0.51100000000E-03 0. -1.
        -11    1    3    3    0    0  0.14576912181E+02  0.61888193535E+01 -0.17102648306E+01  0.15928366513E+02  0.51100000000E-03 0.  1.
        -12    1    3    3    0    0  0.84074475623E+01 -0.93946127661E+01 -0.13633427643E+02  0.18569175341E+02  0.00000000000E+00 0.  1.
</event>
<event>
 7    1  0.6889665E-012  0.5052886E+02  0.7816164E-02  0.1300439E+00
        -11   -1    0    0    0    0  0.00000000000E+00  0.00000000000E+00  0.45593999997E+02  0.45594000000E+02  0.51100000000E-03 0.  1.
         11   -1    0    0    0    0 -0.00000000000E+00 -0.00000000000E+00 -0.45593999997E+02  0.45594000000E+02  0.51100000000E-03 0. -1.
    9900012    2    1    2    0    0 -0.18414290674E+02 -0.34512567923E+02  0.11088834725E+02  0.50528859561E+02  0.29999999122E+02 0.  0.
        -12    1    1    2    0    0  0.18414290674E+02  0.34512567923E+02 -0.11088834725E+02  0.40659140439E+02  0.00000000000E+00 0.  1.
         11    1    3    3    0    0 -0.58377914683E+01 -0.68933862388E+00 -0.66200953224E+01  0.88532852267E+01  0.51100000000E-03 0. -1.
        -11    1    3    3    0    0 -0.11476138634E+02 -0.27483052441E+02  0.95336807782E+01  0.31271568539E+02  0.51100000000E-03 0.  1.
         12    1    3    3    0    0 -0.11003605720E+01 -0.63401768579E+01  0.81752492697E+01  0.10404005796E+02  0.00000000000E+00 0. -1.
</event>
<event>
 7    1  0.6889665E-012  0.5052885E+02  0.7816164E-02  0.1300439E+00
        -11   -1    0    0    0    0  0.00000000000E+00  0.00000000000E+00  0.45593999997E+02  0.45594000000E+02  0.51100000000E-03 0.  1.
         11   -1    0    0    0    0 -0.00000000000E+00 -0.00000000000E+00 -0.45593999997E+02  0.45594000000E+02  0.51100000000E-03 0. -1.
    9900012    2    1    2    0    0  0.24643841058E+02  0.32295958657E+02 -0.16787845937E+01  0.50528853853E+02  0.29999981771E+02 0.  0.
        -12    1    1    2    0    0 -0.24643841058E+02 -0.32295958657E+02  0.16787845937E+01  0.40659146147E+02  0.00000000000E+00 0.  1.
         11    1    3    3    0    0  0.10112651456E+02  0.14455665045E+02 -0.15371916113E+02  0.23399311456E+02  0.51100000000E-03 0. -1.
        -11    1    3    3    0    0  0.13345778306E+02  0.13948382853E+02  0.10637436504E+02  0.22041375603E+02  0.51100000000E-03 0.  1.
         12    1    3    3    0    0  0.11854112966E+01  0.38919107594E+01  0.30556950153E+01  0.50881667944E+01  0.00000000000E+00 0. -1.
</event>
<event>
 7    1  0.6889665E-012  0.5052886E+02  0.7816164E-02  0.1300439E+00
        -11   -1    0    0    0    0  0.00000000000E+00  0.00000000000E+00  0.45593999997E+02  0.45594000000E+02  0.51100000000E-03 0.  1.
         11   -1    0    0    0    0 -0.00000000000E+00 -0.00000000000E+00 -0.45593999997E+02  0.45594000000E+02  0.51100000000E-03 0. -1.
    9900012    2    1    2    0    0 -0.39302583220E+02 -0.72783691319E+01 -0.74496863379E+01  0.50528861648E+02  0.30000005466E+02 0.  0.
        -12    1    1    2    0    0  0.39302583220E+02  0.72783691319E+01  0.74496863379E+01  0.40659138352E+02  0.00000000000E+00 0.  1.
         11    1    3    3    0    0 -0.20546687333E+02 -0.65008278758E+01 -0.12686191940E+02  0.25007330718E+02  0.51100000000E-03 0. -1.
        -11    1    3    3    0    0 -0.30073698297E+01  0.36832723926E+01  0.76188496054E+01  0.89809597695E+01  0.51100000000E-03 0.  1.
        -12    1    3    3    0    0 -0.15748526057E+02 -0.44608136487E+01 -0.23823440030E+01  0.16540571161E+02  0.00000000000E+00 0.  1.
</event>
<event>
 7    1  0.6889665E-012  0.5052886E+02  0.7816164E-02  0.1300439E+00
        -11   -1    0    0    0    0  0.00000000000E+00  0.00000000000E+00  0.45593999997E+02  0.45594000000E+02  0.51100000000E-03 0. -1.
         11   -1    0    0    0    0 -0.00000000000E+00 -0.00000000000E+00 -0.45593999997E+02  0.45594000000E+02  0.51100000000E-03 0.  1.
    9900012    2    1    2    0    0 -0.14763090525E+02 -0.10844033755E+00 -0.37884100850E+02  0.50528859596E+02  0.29999999227E+02 0.  0.
         12    1    1    2    0    0  0.14763090525E+02  0.10844033755E+00  0.37884100850E+02  0.40659140404E+02  0.00000000000E+00 0. -1.
         11    1    3    3    0    0  0.22539920712E+01 -0.61916976686E+01 -0.64497448445E+01  0.92204560135E+01  0.51100000000E-03 0. -1.
        -11    1    3    3    0    0 -0.18738858737E+02  0.10552386283E+02 -0.28456106636E+02  0.35668581247E+02  0.51100000000E-03 0.  1.
        -12    1    3    3    0    0  0.17217761401E+01 -0.44691289522E+01 -0.29782493701E+01  0.56398223357E+01  0.00000000000E+00 0.  1.
</event>
<event>
 7    1  0.6889665E-012  0.5052886E+02  0.7816164E-02  0.1300439E+00
        -11   -1    0    0    0    0  0.00000000000E+00  0.00000000000E+00  0.45593999997E+02  0.45594000000E+02  0.51100000000E-03 0. -1.
         11   -1    0    0    0    0 -0.00000000000E+00 -0.00000000000E+00 -0.45593999997E+02  0.45594000000E+02  0.51100000000E-03 0.  1.
    9900012    2    1    2    0    0 -0.11189380343E+02  0.18564882161E+02  0.34399252034E+02  0.50528860528E+02  0.30000002060E+02 0.  0.
        -12    1    1    2    0    0  0.11189380343E+02 -0.18564882161E+02 -0.34399252034E+02  0.40659139472E+02  0.00000000000E+00 0.  1.
         11    1    3    3    0    0 -0.66351460928E+01  0.30315117668E+01  0.70625524433E+01  0.10153564622E+02  0.51100000000E-03 0. -1.
        -11    1    3    3    0    0 -0.71599692762E+00  0.46079067788E+01 -0.45107542624E+01  0.64878625725E+01  0.51100000000E-03 0.  1.
        -12    1    3    3    0    0 -0.38382373228E+01  0.10925463615E+02  0.31847453853E+02  0.33887433333E+02  0.00000000000E+00 0.  1.
</event>
<event>
 7    1  0.6889665E-012  0.5052886E+02  0.7816164E-02  0.1300439E+00
        -11   -1    0    0    0    0  0.00000000000E+00  0.00000000000E+00  0.45593999997E+02  0.45594000000E+02  0.51100000000E-03 0.  1.
         11   -1    0    0    0    0 -0.00000000000E+00 -0.00000000000E+00 -0.45593999997E+02  0.45594000000E+02  0.51100000000E-03 0. -1.
    9900012    2    1    2    0    0  0.35676657682E+02  0.18912159788E+02  0.47615308183E+01  0.50528857523E+02  0.29999992928E+02 0.  0.
        -12    1    1    2    0    0 -0.35676657682E+02 -0.18912159788E+02 -0.47615308183E+01  0.40659142477E+02  0.00000000000E+00 0.  1.
         11    1    3    3    0    0  0.21454732062E+02  0.20852456483E+02 -0.43962633006E+01  0.30240000008E+02  0.51100000000E-03 0. -1.
        -11    1    3    3    0    0  0.14658245283E+02 -0.35526206639E+00  0.10607301059E+02  0.18097104794E+02  0.51100000000E-03 0.  1.
         12    1    3    3    0    0 -0.43631966304E+00 -0.15850346286E+01 -0.14495069400E+01  0.21917527212E+01  0.00000000000E+00 0. -1.
</event>
<event>
 7    1  0.6889665E-012  0.5052886E+02  0.7816164E-02  0.1300439E+00
        -11   -1    0    0    0    0  0.00000000000E+00  0.00000000000E+00  0.45593999997E+02  0.45594000000E+02  0.51100000000E-03 0. -1.
         11   -1    0    0    0    0 -0.00000000000E+00 -0.00000000000E+00 -0.45593999997E+02  0.45594000000E+02  0.51100000000E-03 0.  1.
    9900012    2    1    2    0    0 -0.17850884257E+02 -0.84999086278E-01 -0.36530868233E+02  0.50528860468E+02  0.30000001879E+02 0.  0.
         12    1    1    2    0    0  0.17850884257E+02  0.84999086278E-01  0.36530868233E+02  0.40659139532E+02  0.00000000000E+00 0. -1.
         11    1    3    3    0    0  0.83023434704E+00 -0.79497152606E+01  0.20995555591E+00  0.79957078106E+01  0.51100000000E-03 0. -1.
        -11    1    3    3    0    0 -0.75105406502E+01 -0.39232628001E+00 -0.12111979794E+02  0.14257005140E+02  0.51100000000E-03 0.  1.
         12    1    3    3    0    0 -0.11170577954E+02  0.82570424543E+01 -0.24628843995E+02  0.28276147518E+02  0.00000000000E+00 0. -1.
</event>
<event>
 7    1  0.6889665E-012  0.5052887E+02  0.7816164E-02  0.1300439E+00
        -11   -1    0    0    0    0  0.00000000000E+00  0.00000000000E+00  0.45593999997E+02  0.45594000000E+02  0.51100000000E-03 0. -1.
         11   -1    0    0    0    0 -0.00000000000E+00 -0.00000000000E+00 -0.45593999997E+02  0.45594000000E+02  0.51100000000E-03 0.  1.
    9900012    2    1    2    0    0 -0.35669942031E+02  0.26458378323E+01 -0.19334410011E+02  0.50528872700E+02  0.30000039060E+02 0.  0.
         12    1    1    2    0    0  0.35669942031E+02 -0.26458378323E+01  0.19334410011E+02  0.40659127300E+02  0.00000000000E+00 0. -1.
         11    1    3    3    0    0 -0.34334503524E+02  0.69953498761E+01 -0.11775705383E+02  0.36965663657E+02  0.51100000000E-03 0.  1.
        -11    1    3    3    0    0  0.27350835918E+01  0.19103632747E+01 -0.66750619217E+00  0.34023131651E+01  0.51100000000E-03 0. -1.
        -12    1    3    3    0    0 -0.40705220989E+01 -0.62598753185E+01 -0.68911984354E+01  0.10160895878E+02  0.00000000000E+00 0.  1.
</event>
<event>
 7    1  0.6889665E-012  0.5052885E+02  0.7816164E-02  0.1300439E+00
        -11   -1    0    0    0    0  0.00000000000E+00  0.00000000000E+00  0.45593999997E+02  0.45594000000E+02  0.51100000000E-03 0. -1.
         11   -1    0    0    0    0 -0.00000000000E+00 -0.00000000000E+00 -0.45593999997E+02  0.45594000000E+02  0.51100000000E-03 0.  1.
    9900012    2    1    2    0    0 -0.25967224283E+02 -0.15822346987E+02 -0.26991161712E+02  0.50528853283E+02  0.29999980040E+02 0.  0.
         12    1    1    2    0    0  0.25967224283E+02  0.15822346987E+02  0.26991161712E+02  0.40659146717E+02  0.00000000000E+00 0. -1.
         11    1    3    3    0    0  0.21933653438E+01  0.54025897915E+01 -0.11125058908E+01  0.59360338278E+01  0.51100000000E-03 0. -1.
        -11    1    3    3    0    0 -0.14807890074E+02 -0.83950150805E+01 -0.16998117394E+02  0.24055890793E+02  0.51100000000E-03 0.  1.
         12    1    3    3    0    0 -0.13352699553E+02 -0.12829921698E+02 -0.88805384279E+01  0.20536928663E+02  0.00000000000E+00 0. -1.
</event>
<event>
 7    1  0.6889665E-012  0.5052886E+02  0.7816164E-02  0.1300439E+00
        -11   -1    0    0    0    0  0.00000000000E+00  0.00000000000E+00  0.45593999997E+02  0.45594000000E+02  0.51100000000E-03 0. -1.
         11   -1    0    0    0    0 -0.00000000000E+00 -0.00000000000E+00 -0.45593999997E+02  0.45594000000E+02  0.51100000000E-03 0.  1.
    9900012    2    1    2    0    0 -0.15778607864E+02  0.32284326112E+01 -0.37333336892E+02  0.50528864658E+02  0.30000014614E+02 0.  0.
         12    1    1    2    0    0  0.15778607864E+02 -0.32284326112E+01  0.37333336892E+02  0.40659135342E+02  0.00000000000E+00 0. -1.
         11    1    3    3    0    0 -0.76189549452E+01 -0.12718731377E+02 -0.11753017421E+02  0.18919514293E+02  0.51100000000E-03 0. -1.
        -11    1    3    3    0    0 -0.37607641390E+01  0.11014833032E+02 -0.13380056897E+02  0.17734029899E+02  0.51100000000E-03 0.  1.
         12    1    3    3    0    0 -0.43988887803E+01  0.49323309563E+01 -0.12200262574E+02  0.13875320466E+02  0.00000000000E+00 0. -1.
</event>
<event>
 7    1  0.6889665E-012  0.5052884E+02  0.7816164E-02  0.1300439E+00
        -11   -1    0    0    0    0  0.00000000000E+00  0.00000000000E+00  0.45593999997E+02  0.45594000000E+02  0.51100000000E-03 0. -1.
         11   -1    0    0    0    0 -0.00000000000E+00 -0.00000000000E+00 -0.45593999997E+02  0.45594000000E+02  0.51100000000E-03 0.  1.
    9900012    2    1    2    0    0 -0.68448227667E+01  0.23195949323E+02  0.32684299609E+02  0.50528842303E+02  0.29999946664E+02 0.  0.
        -12    1    1    2    0    0  0.68448227667E+01 -0.23195949323E+02 -0.32684299609E+02  0.40659157697E+02  0.00000000000E+00 0.  1.
         11    1    3    3    0    0  0.96736263445E+01  0.20978795793E+01  0.11629973869E+02  0.15272080338E+02  0.51100000000E-03 0. -1.
        -11    1    3    3    0    0 -0.14171948192E+02  0.12483487872E+02  0.11191588930E+02  0.21952978113E+02  0.51100000000E-03 0.  1.
        -12    1    3    3    0    0 -0.23465009191E+01  0.86145818721E+01  0.98627368099E+01  0.13303783852E+02  0.00000000000E+00 0.  1.
</event>
<event>
 7    1  0.6889665E-012  0.5052885E+02  0.7816164E-02  0.1300439E+00
        -11   -1    0    0    0    0  0.00000000000E+00  0.00000000000E+00  0.45593999997E+02  0.45594000000E+02  0.51100000000E-03 0. -1.
         11   -1    0    0    0    0 -0.00000000000E+00 -0.00000000000E+00 -0.45593999997E+02  0.45594000000E+02  0.51100000000E-03 0.  1.
    9900012    2    1    2    0    0  0.27193117563E+02 -0.26449404323E+02 -0.14633163914E+02  0.50528854437E+02  0.29999983545E+02 0.  0.
         12    1    1    2    0    0 -0.27193117563E+02  0.26449404323E+02  0.14633163914E+02  0.40659145563E+02  0.00000000000E+00 0. -1.
         11    1    3    3    0    0 -0.97580230454E+00  0.46969555074E+01 -0.14025104782E+01  0.49980613320E+01  0.51100000000E-03 0. -1.
        -11    1    3    3    0    0  0.20418503828E+01 -0.51764834417E+00 -0.35450273562E+01  0.41236309257E+01  0.51100000000E-03 0.  1.
         12    1    3    3    0    0  0.26127069484E+02 -0.30628711486E+02 -0.96856260794E+01  0.41407162179E+02  0.00000000000E+00 0. -1.
</event>
<event>
 7    1  0.6889665E-012  0.5052887E+02  0.7816164E-02  0.1300439E+00
        -11   -1    0    0    0    0  0.00000000000E+00  0.00000000000E+00  0.45593999997E+02  0.45594000000E+02  0.51100000000E-03 0.  1.
         11   -1    0    0    0    0 -0.00000000000E+00 -0.00000000000E+00 -0.45593999997E+02  0.45594000000E+02  0.51100000000E-03 0. -1.
    9900012    2    1    2    0    0 -0.32707663888E+02 -0.11182706806E+02 -0.21408433842E+02  0.50528865133E+02  0.30000016059E+02 0.  0.
        -12    1    1    2    0    0  0.32707663888E+02  0.11182706806E+02  0.21408433842E+02  0.40659134867E+02  0.00000000000E+00 0.  1.
         11    1    3    3    0    0 -0.64748123166E+01  0.63290082767E+00 -0.77884185992E+01  0.10148064965E+02  0.51100000000E-03 0. -1.
        -11    1    3    3    0    0 -0.15719791718E+02 -0.11040887608E+02  0.42118875232E+01  0.19666037923E+02  0.51100000000E-03 0.  1.
        -12    1    3    3    0    0 -0.10513059854E+02 -0.77472002492E+00 -0.17831902766E+02  0.20714762245E+02  0.00000000000E+00 0.  1.
</event>
<event>
 7    1  0.6889665E-012  0.5052884E+02  0.7816164E-02  0.1300439E+00
        -11   -1    0    0    0    0  0.00000000000E+00  0.00000000000E+00  0.45593999997E+02  0.45594000000E+02  0.51100000000E-03 0. -1.
         11   -1    0    0    0    0 -0.00000000000E+00 -0.00000000000E+00 -0.45593999997E+02  0.45594000000E+02  0.51100000000E-03 0.  1.
    9900012    2    1    2    0    0 -0.40163697143E+02 -0.62810525320E+01  0.77031572628E+00  0.50528836513E+02  0.29999929066E+02 0.  0.
        -12    1    1    2    0    0  0.40163697143E+02  0.62810525320E+01 -0.77031572628E+00  0.40659163487E+02  0.00000000000E+00 0.  1.
         11    1    3    3    0    0 -0.28292790811E+02  0.69175026384E+01 -0.15225624361E+01  0.29165939917E+02  0.51100000000E-03 0. -1.
        -11    1    3    3    0    0 -0.20227803933E+01 -0.95549378547E+01 -0.20841677755E+01  0.99866027009E+01  0.51100000000E-03 0.  1.
        -12    1    3    3    0    0 -0.98481259386E+01 -0.36436173157E+01  0.43770459378E+01  0.11376293895E+02  0.00000000000E+00 0.  1.
</event>
<event>
 7    1  0.6889665E-012  0.5052886E+02  0.7816164E-02  0.1300439E+00
        -11   -1    0    0    0    0  0.00000000000E+00  0.00000000000E+00  0.45593999997E+02  0.45594000000E+02  0.51100000000E-03 0. -1.
         11   -1    0    0    0    0 -0.00000000000E+00 -0.00000000000E+00 -0.45593999997E+02  0.45594000000E+02  0.51100000000E-03 0.  1.
    9900012    2    1    2    0    0 -0.19681900083E+02  0.49549891951E+01  0.35231192093E+02  0.50528855825E+02  0.29999987765E+02 0.  0.
        -12    1    1    2    0    0  0.19681900083E+02 -0.49549891951E+01 -0.35231192093E+02  0.40659144175E+02  0.00000000000E+00 0.  1.
         11    1    3    3    0    0 -0.17022946128E+02  0.12337327905E+02  0.27848283696E+02  0.34892939971E+02  0.51100000000E-03 0. -1.
        -11    1    3    3    0    0 -0.35983695774E+01 -0.92622305671E+01  0.23918725504E+01  0.10220481068E+02  0.51100000000E-03 0.  1.
        -12    1    3    3    0    0  0.93941562266E+00  0.18798918573E+01  0.49910358462E+01  0.54154347864E+01  0.00000000000E+00 0.  1.
</event>
<event>
 7    1  0.6889665E-012  0.5052886E+02  0.7816164E-02  0.1300439E+00
        -11   -1    0    0    0    0  0.00000000000E+00  0.00000000000E+00  0.45593999997E+02  0.45594000000E+02  0.51100000000E-03 0.  1.
         11   -1    0    0    0    0 -0.00000000000E+00 -0.00000000000E+00 -0.45593999997E+02  0.45594000000E+02  0.51100000000E-03 0. -1.
    9900012    2    1    2    0    0 -0.16466371788E+02  0.28210281921E+02 -0.24211657033E+02  0.50528859057E+02  0.29999997591E+02 0.  0.
         12    1    1    2    0    0  0.16466371788E+02 -0.28210281921E+02  0.24211657033E+02  0.40659140943E+02  0.00000000000E+00 0. -1.
         11    1    3    3    0    0 -0.76012311192E+01  0.15590886036E+02 -0.25484756099E+02  0.30827378020E+02  0.51100000000E-03 0. -1.
        -11    1    3    3    0    0 -0.84953284223E+01  0.14467231910E+02 -0.92937897092E+00  0.16802831597E+02  0.51100000000E-03 0.  1.
         12    1    3    3    0    0 -0.36981224625E+00 -0.18478360252E+01  0.22024780372E+01  0.28986494403E+01  0.00000000000E+00 0. -1.
</event>
<event>
 7    1  0.6889665E-012  0.5052885E+02  0.7816164E-02  0.1300439E+00
        -11   -1    0    0    0    0  0.00000000000E+00  0.00000000000E+00  0.45593999997E+02  0.45594000000E+02  0.51100000000E-03 0. -1.
         11   -1    0    0    0    0 -0.00000000000E+00 -0.00000000000E+00 -0.45593999997E+02  0.45594000000E+02  0.51100000000E-03 0.  1.
    9900012    2    1    2    0    0  0.24605848521E+02 -0.63785774646E+01 -0.31733769950E+02  0.50528853586E+02  0.29999980959E+02 0.  0.
         12    1    1    2    0    0 -0.24605848521E+02  0.63785774646E+01  0.31733769950E+02  0.40659146414E+02  0.00000000000E+00 0. -1.
         11    1    3    3    0    0 -0.37646618708E+01 -0.17448904427E+01 -0.89701016460E+00  0.42452266317E+01  0.51100000000E-03 0. -1.
        -11    1    3    3    0    0  0.21943677193E+02  0.10089615771E+01 -0.30675516026E+02  0.37729699918E+02  0.51100000000E-03 0.  1.
        -12    1    3    3    0    0  0.64268331995E+01 -0.56426485989E+01 -0.16124375935E+00  0.85539270359E+01  0.00000000000E+00 0.  1.
</event>
<event>
 7    1  0.6889665E-012  0.5052886E+02  0.7816164E-02  0.1300439E+00
        -11   -1    0    0    0    0  0.00000000000E+00  0.00000000000E+00  0.45593999997E+02  0.45594000000E+02  0.51100000000E-03 0. -1.
         11   -1    0    0    0    0 -0.00000000000E+00 -0.00000000000E+00 -0.45593999997E+02  0.45594000000E+02  0.51100000000E-03 0.  1.
    9900012    2    1    2    0    0 -0.22360473413E+02  0.33728567843E+02 -0.39444130647E+01  0.50528862596E+02  0.30000008347E+02 0.  0.
         12    1    1    2    0    0  0.22360473413E+02 -0.33728567843E+02  0.39444130647E+01  0.40659137404E+02  0.00000000000E+00 0. -1.
         11    1    3    3    0    0  0.22403319702E+01  0.13667957293E+02 -0.32514831350E+01  0.14226886052E+02  0.51100000000E-03 0. -1.
        -11    1    3    3    0    0 -0.22880883350E+02  0.83645724953E+01  0.86931007759E+00  0.24377378780E+02  0.51100000000E-03 0.  1.
        -12    1    3    3    0    0 -0.17199220326E+01  0.11696038055E+02 -0.15622400073E+01  0.11924597763E+02  0.00000000000E+00 0.  1.
</event>
<event>
 7    1  0.6889665E-012  0.5052886E+02  0.7816164E-02  0.1300439E+00
        -11   -1    0    0    0    0  0.00000000000E+00  0.00000000000E+00  0.45593999997E+02  0.45594000000E+02  0.51100000000E-03 0. -1.
         11   -1    0    0    0    0 -0.00000000000E+00 -0.00000000000E+00 -0.45593999997E+02  0.45594000000E+02  0.51100000000E-03 0.  1.
    9900012    2    1    2    0    0  0.67405193659E+01  0.10120375997E+02 -0.38798314514E+02  0.50528858092E+02  0.29999994655E+02 0.  0.
         12    1    1    2    0    0 -0.67405193659E+01 -0.10120375997E+02  0.38798314514E+02  0.40659141908E+02  0.00000000000E+00 0. -1.
         11    1    3    3    0    0 -0.63865219996E+00  0.29863848912E+01  0.37326850816E+01  0.48227906372E+01  0.51100000000E-03 0. -1.
        -11    1    3    3    0    0  0.56400981470E+01  0.57820000341E+01 -0.42737065490E+02  0.43493666187E+02  0.51100000000E-03 0.  1.
        -12    1    3    3    0    0  0.17390734189E+01  0.13519910713E+01  0.20606589432E+00  0.22124012670E+01  0.00000000000E+00 0.  1.
</event>
<event>
 7    1  0.6889665E-012  0.5052886E+02  0.7816164E-02  0.1300439E+00
        -11   -1    0    0    0    0  0.00000000000E+00  0.00000000000E+00  0.45593999997E+02  0.45594000000E+02  0.51100000000E-03 0.  1.
         11   -1    0    0    0    0 -0.00000000000E+00 -0.00000000000E+00 -0.45593999997E+02  0.45594000000E+02  0.51100000000E-03 0. -1.
    9900012    2    1    2    0    0  0.29729653877E+02  0.18742781587E+02 -0.20445576813E+02  0.50528858439E+02  0.29999995710E+02 0.  0.
         12    1    1    2    0    0 -0.29729653877E+02 -0.18742781587E+02  0.20445576813E+02  0.40659141561E+02  0.00000000000E+00 0. -1.
         11    1    3    3    0    0 -0.48583372423E+00  0.32355836575E+01  0.65444808446E+00  0.33366657862E+01  0.51100000000E-03 0. -1.
        -11    1    3    3    0    0  0.30345555589E+02  0.20112886343E+02 -0.21944181455E+02  0.42507976205E+02  0.51100000000E-03 0.  1.
        -12    1    3    3    0    0 -0.13006798750E+00 -0.46056884127E+01  0.84415655758E+00  0.46842164478E+01  0.00000000000E+00 0.  1.
</event>
<event>
 7    1  0.6889665E-012  0.5052885E+02  0.7816164E-02  0.1300439E+00
        -11   -1    0    0    0    0  0.00000000000E+00  0.00000000000E+00  0.45593999997E+02  0.45594000000E+02  0.51100000000E-03 0. -1.
         11   -1    0    0    0    0 -0.00000000000E+00 -0.00000000000E+00 -0.45593999997E+02  0.45594000000E+02  0.51100000000E-03 0.  1.
    9900012    2    1    2    0    0  0.38475830315E+00  0.20445455414E+02  0.35142588950E+02  0.50528852885E+02  0.29999978829E+02 0.  0.
        -12    1    1    2    0    0 -0.38475830315E+00 -0.20445455414E+02 -0.35142588950E+02  0.40659147115E+02  0.00000000000E+00 0.  1.
         11    1    3    3    0    0 -0.66707425303E+01 -0.25865268662E+01  0.84971326307E+01  0.11108113717E+02  0.51100000000E-03 0. -1.
        -11    1    3    3    0    0  0.15079791805E+01  0.19092323661E+02  0.26396133072E+02  0.32612063188E+02  0.51100000000E-03 0.  1.
        -12    1    3    3    0    0  0.55475216529E+01  0.39396586193E+01  0.24932324766E+00  0.68086759805E+01  0.00000000000E+00 0.  1.
</event>
<event>
 7    1  0.7427931E-012  0.5052886E+02  0.7816164E-02  0.1300439E+00
        -11   -1    0    0    0    0  0.00000000000E+00  0.00000000000E+00  0.45593999997E+02  0.45594000000E+02  0.51100000000E-03 0. -1.
         11   -1    0    0    0    0 -0.00000000000E+00 -0.00000000000E+00 -0.45593999997E+02  0.45594000000E+02  0.51100000000E-03 0.  1.
    9900012    2    1    2    0    0 -0.84777032071E+01  0.17684001693E+02 -0.35616992685E+02  0.50528861600E+02  0.30000005319E+02 0.  0.
         12    1    1    2    0    0  0.84777032071E+01 -0.17684001693E+02  0.35616992685E+02  0.40659138400E+02  0.00000000000E+00 0. -1.
         11    1    3    3    0    0 -0.35570497856E+01  0.49672071151E+01  0.19477250952E+01  0.64124397080E+01  0.51100000000E-03 0. -1.
        -11    1    3    3    0    0 -0.49861429452E+01  0.17577241533E+02 -0.29884961490E+02  0.35027588625E+02  0.51100000000E-03 0.  1.
        -12    1    3    3    0    0  0.65489523712E-01 -0.48604469549E+01 -0.76797562901E+01  0.90888332670E+01  0.00000000000E+00 0.  1.
</event>
<event>
 7    1  0.6889665E-012  0.5052885E+02  0.7816164E-02  0.1300439E+00
        -11   -1    0    0    0    0  0.00000000000E+00  0.00000000000E+00  0.45593999997E+02  0.45594000000E+02  0.51100000000E-03 0. -1.
         11   -1    0    0    0    0 -0.00000000000E+00 -0.00000000000E+00 -0.45593999997E+02  0.45594000000E+02  0.51100000000E-03 0.  1.
    9900012    2    1    2    0    0  0.25555550899E+02  0.11391456186E+02  0.29501105318E+02  0.50528847638E+02  0.29999962881E+02 0.  0.
        -12    1    1    2    0    0 -0.25555550899E+02 -0.11391456186E+02 -0.29501105318E+02  0.40659152362E+02  0.00000000000E+00 0.  1.
         11    1    3    3    0    0  0.24107817408E+02  0.69205975562E+01  0.24135112680E+02  0.34807832380E+02  0.51100000000E-03 0. -1.
        -11    1    3    3    0    0  0.17620093741E+01  0.71640054309E+01 -0.21880128249E+01  0.76951316578E+01  0.51100000000E-03 0.  1.
        -12    1    3    3    0    0 -0.31427588314E+00 -0.26931468009E+01  0.75540054635E+01  0.80258836003E+01  0.00000000000E+00 0.  1.
</event>
<event>
 7    1  0.6889665E-012  0.5052886E+02  0.7816164E-02  0.1300439E+00
        -11   -1    0    0    0    0  0.00000000000E+00  0.00000000000E+00  0.45593999997E+02  0.45594000000E+02  0.51100000000E-03 0. -1.
         11   -1    0    0    0    0 -0.00000000000E+00 -0.00000000000E+00 -0.45593999997E+02  0.45594000000E+02  0.51100000000E-03 0.  1.
    9900012    2    1    2    0    0  0.20223253405E+02  0.21271121478E+02  0.28137605886E+02  0.50528862624E+02  0.30000008431E+02 0.  0.
        -12    1    1    2    0    0 -0.20223253405E+02 -0.21271121478E+02 -0.28137605886E+02  0.40659137376E+02  0.00000000000E+00 0.  1.
         11    1    3    3    0    0  0.34736544136E+01  0.17563677378E+02  0.17024265496E+02  0.24705761554E+02  0.51100000000E-03 0. -1.
        -11    1    3    3    0    0  0.15570599432E+02  0.68137819378E+01  0.32739357303E+01  0.17308663911E+02  0.51100000000E-03 0.  1.
        -12    1    3    3    0    0  0.11789995592E+01 -0.31063378372E+01  0.78394046595E+01  0.85144371590E+01  0.00000000000E+00 0.  1.
</event>
<event>
 7    1  0.6889665E-012  0.5052885E+02  0.7816164E-02  0.1300439E+00
        -11   -1    0    0    0    0  0.00000000000E+00  0.00000000000E+00  0.45593999997E+02  0.45594000000E+02  0.51100000000E-03 0. -1.
         11   -1    0    0    0    0 -0.00000000000E+00 -0.00000000000E+00 -0.45593999997E+02  0.45594000000E+02  0.51100000000E-03 0.  1.
    9900012    2    1    2    0    0  0.46166393081E+01 -0.18136438087E+02  0.36096018975E+02  0.50528851819E+02  0.29999975589E+02 0.  0.
        -12    1    1    2    0    0 -0.46166393081E+01  0.18136438087E+02 -0.36096018975E+02  0.40659148181E+02  0.00000000000E+00 0.  1.
         11    1    3    3    0    0  0.16490277756E+02 -0.81012745727E+01  0.26520962452E+02  0.32263312908E+02  0.51100000000E-03 0. -1.
        -11    1    3    3    0    0 -0.50989991579E+01 -0.45804388045E+01  0.40486038058E+01  0.79606158739E+01  0.51100000000E-03 0.  1.
         12    1    3    3    0    0 -0.67746392896E+01 -0.54547247103E+01  0.55264527168E+01  0.10304923037E+02  0.00000000000E+00 0. -1.
</event>
<event>
 7    1  0.6889665E-012  0.5052886E+02  0.7816164E-02  0.1300439E+00
        -11   -1    0    0    0    0  0.00000000000E+00  0.00000000000E+00  0.45593999997E+02  0.45594000000E+02  0.51100000000E-03 0. -1.
         11   -1    0    0    0    0 -0.00000000000E+00 -0.00000000000E+00 -0.45593999997E+02  0.45594000000E+02  0.51100000000E-03 0.  1.
    9900012    2    1    2    0    0 -0.18661821847E+02  0.21053710305E+02 -0.29353767914E+02  0.50528855850E+02  0.29999987841E+02 0.  0.
         12    1    1    2    0    0  0.18661821847E+02 -0.21053710305E+02  0.29353767914E+02  0.40659144150E+02  0.00000000000E+00 0. -1.
         11    1    3    3    0    0 -0.29767970650E+00 -0.32265176907E+01  0.29483903734E+01  0.43808715653E+01  0.51100000000E-03 0. -1.
        -11    1    3    3    0    0 -0.13891890576E+02  0.18680173452E+02 -0.31152368450E+02  0.38889633121E+02  0.51100000000E-03 0.  1.
         12    1    3    3    0    0 -0.44722515644E+01  0.56000545436E+01 -0.11497898381E+01  0.72583511639E+01  0.00000000000E+00 0. -1.
</event>
<event>
 7    1  0.6889665E-012  0.5052885E+02  0.7816164E-02  0.1300439E+00
        -11   -1    0    0    0    0  0.00000000000E+00  0.00000000000E+00  0.45593999997E+02  0.45594000000E+02  0.51100000000E-03 0. -1.
         11   -1    0    0    0    0 -0.00000000000E+00 -0.00000000000E+00 -0.45593999997E+02  0.45594000000E+02  0.51100000000E-03 0.  1.
    9900012    2    1    2    0    0 -0.21150252760E+02 -0.28971347342E+01 -0.34604039144E+02  0.50528854576E+02  0.29999983970E+02 0.  0.
         12    1    1    2    0    0  0.21150252760E+02  0.28971347342E+01  0.34604039144E+02  0.40659145424E+02  0.00000000000E+00 0. -1.
         11    1    3    3    0    0 -0.10202287061E+00 -0.28785051222E+01 -0.12681461300E+02  0.13004447753E+02  0.51100000000E-03 0. -1.
        -11    1    3    3    0    0 -0.20811427554E+02 -0.47514806541E+01 -0.79652837455E+01  0.22784596346E+02  0.51100000000E-03 0.  1.
        -12    1    3    3    0    0 -0.23680233540E+00  0.47328510422E+01 -0.13957294099E+02  0.14739810477E+02  0.00000000000E+00 0.  1.
</event>
<event>
 7    1  0.6889665E-012  0.5052886E+02  0.7816164E-02  0.1300439E+00
        -11   -1    0    0    0    0  0.00000000000E+00  0.00000000000E+00  0.45593999997E+02  0.45594000000E+02  0.51100000000E-03 0. -1.
         11   -1    0    0    0    0 -0.00000000000E+00 -0.00000000000E+00 -0.45593999997E+02  0.45594000000E+02  0.51100000000E-03 0.  1.
    9900012    2    1    2    0    0 -0.23586470272E+02  0.32883350661E+02  0.39407293299E+01  0.50528859843E+02  0.29999999980E+02 0.  0.
        -12    1    1    2    0    0  0.23586470272E+02 -0.32883350661E+02 -0.39407293299E+01  0.40659140157E+02  0.00000000000E+00 0.  1.
         11    1    3    3    0    0 -0.33214581587E+01  0.19170278816E+02  0.38338243940E+01  0.19830024809E+02  0.51100000000E-03 0. -1.
        -11    1    3    3    0    0 -0.23735057654E+02  0.13265176697E+02  0.33644091771E+00  0.27192481817E+02  0.51100000000E-03 0.  1.
        -12    1    3    3    0    0  0.34700455400E+01  0.44789514792E+00 -0.22953598181E+00  0.35063532167E+01  0.00000000000E+00 0.  1.
</event>
<event>
 7    1  0.6889665E-012  0.5052887E+02  0.7816164E-02  0.1300439E+00
        -11   -1    0    0    0    0  0.00000000000E+00  0.00000000000E+00  0.45593999997E+02  0.45594000000E+02  0.51100000000E-03 0. -1.
         11   -1    0    0    0    0 -0.00000000000E+00 -0.00000000000E+00 -0.45593999997E+02  0.45594000000E+02  0.51100000000E-03 0.  1.
    9900012    2    1    2    0    0 -0.99078543644E+01  0.17269509288E+02 -0.35450861658E+02  0.50528866690E+02  0.30000020792E+02 0.  0.
         12    1    1    2    0    0  0.99078543644E+01 -0.17269509288E+02  0.35450861658E+02  0.40659133310E+02  0.00000000000E+00 0. -1.
         11    1    3    3    0    0 -0.77502394466E+00 -0.12673185612E+01  0.37587127871E+01  0.40416185529E+01  0.51100000000E-03 0. -1.
        -11    1    3    3    0    0 -0.81667056941E+01  0.20795239236E+02 -0.36770254359E+02  0.43025442039E+02  0.51100000000E-03 0.  1.
         12    1    3    3    0    0 -0.96612472567E+00 -0.22584113868E+01 -0.24393200868E+01  0.34618060985E+01  0.00000000000E+00 0. -1.
</event>
<event>
 7    1  0.6906796E-012  0.5052884E+02  0.7816164E-02  0.1300439E+00
        -11   -1    0    0    0    0  0.00000000000E+00  0.00000000000E+00  0.45593999997E+02  0.45594000000E+02  0.51100000000E-03 0. -1.
         11   -1    0    0    0    0 -0.00000000000E+00 -0.00000000000E+00 -0.45593999997E+02  0.45594000000E+02  0.51100000000E-03 0.  1.
    9900012    2    1    2    0    0 -0.12959287126E+01  0.69386360494E+01 -0.40041766068E+02  0.50528841975E+02  0.29999945666E+02 0.  0.
         12    1    1    2    0    0  0.12959287126E+01 -0.69386360494E+01  0.40041766068E+02  0.40659158025E+02  0.00000000000E+00 0. -1.
         11    1    3    3    0    0 -0.28799785328E+00  0.36757595022E+01  0.32289247129E+01  0.49010310899E+01  0.51100000000E-03 0. -1.
        -11    1    3    3    0    0  0.54554327278E+01  0.15254322690E+01 -0.32175158822E+02  0.32670009724E+02  0.51100000000E-03 0.  1.
         12    1    3    3    0    0 -0.64633635872E+01  0.17374442783E+01 -0.11095531959E+02  0.12957801161E+02  0.00000000000E+00 0. -1.
</event>
<event>
 7    1  0.6889665E-012  0.5052885E+02  0.7816164E-02  0.1300439E+00
        -11   -1    0    0    0    0  0.00000000000E+00  0.00000000000E+00  0.45593999997E+02  0.45594000000E+02  0.51100000000E-03 0.  1.
         11   -1    0    0    0    0 -0.00000000000E+00 -0.00000000000E+00 -0.45593999997E+02  0.45594000000E+02  0.51100000000E-03 0. -1.
    9900012    2    1    2    0    0 -0.23470212121E+02  0.27897047140E+02  0.18001953263E+02  0.50528850754E+02  0.29999972352E+02 0.  0.
        -12    1    1    2    0    0  0.23470212121E+02 -0.27897047140E+02 -0.18001953263E+02  0.40659149246E+02  0.00000000000E+00 0.  1.
         11    1    3    3    0    0 -0.23166460449E+02  0.10110314338E+02  0.48108926242E+01  0.25730294088E+02  0.51100000000E-03 0. -1.
        -11    1    3    3    0    0  0.25405756369E+01  0.14735797093E+02  0.52850704629E+01  0.15859703988E+02  0.51100000000E-03 0.  1.
        -12    1    3    3    0    0 -0.28443273087E+01  0.30509357086E+01  0.79059901759E+01  0.89388526780E+01  0.00000000000E+00 0.  1.
</event>
<event>
 7    1  0.6889665E-012  0.5052886E+02  0.7816164E-02  0.1300439E+00
        -11   -1    0    0    0    0  0.00000000000E+00  0.00000000000E+00  0.45593999997E+02  0.45594000000E+02  0.51100000000E-03 0. -1.
         11   -1    0    0    0    0 -0.00000000000E+00 -0.00000000000E+00 -0.45593999997E+02  0.45594000000E+02  0.51100000000E-03 0.  1.
    9900012    2    1    2    0    0  0.25611602753E+02 -0.21504155489E+00  0.31577927297E+02  0.50528856737E+02  0.29999990538E+02 0.  0.
        -12    1    1    2    0    0 -0.25611602753E+02  0.21504155489E+00 -0.31577927297E+02  0.40659143263E+02  0.00000000000E+00 0.  1.
         11    1    3    3    0    0  0.49610125255E+01  0.90905171821E+01  0.71930139242E+00  0.10381066548E+02  0.51100000000E-03 0.  1.
        -11    1    3    3    0    0  0.15559623179E+02 -0.30885705906E+01  0.26806291307E+02  0.31148328939E+02  0.51100000000E-03 0. -1.
         12    1    3    3    0    0  0.50909670490E+01 -0.62169881464E+01  0.40523345977E+01  0.89994612504E+01  0.00000000000E+00 0. -1.
</event>
<event>
 7    1  0.6889665E-012  0.5052886E+02  0.7816164E-02  0.1300439E+00
        -11   -1    0    0    0    0  0.00000000000E+00  0.00000000000E+00  0.45593999997E+02  0.45594000000E+02  0.51100000000E-03 0.  1.
         11   -1    0    0    0    0 -0.00000000000E+00 -0.00000000000E+00 -0.45593999997E+02  0.45594000000E+02  0.51100000000E-03 0. -1.
    9900012    2    1    2    0    0  0.40363534466E+02  0.47605739632E+01  0.11348211129E+01  0.50528858371E+02  0.29999995506E+02 0.  0.
         12    1    1    2    0    0 -0.40363534466E+02 -0.47605739632E+01 -0.11348211129E+01  0.40659141629E+02  0.00000000000E+00 0. -1.
         11    1    3    3    0    0  0.29874779649E+02 -0.44720098618E+01 -0.39120946300E+01  0.30459905054E+02  0.51100000000E-03 0. -1.
        -11    1    3    3    0    0  0.57437842800E+01  0.14252351577E+01  0.84528507065E+01  0.10318577346E+02  0.51100000000E-03 0.  1.
         12    1    3    3    0    0  0.47449705367E+01  0.78073486673E+01 -0.34059349636E+01  0.97503759714E+01  0.00000000000E+00 0. -1.
</event>
<event>
 7    1  0.6889665E-012  0.5052884E+02  0.7816164E-02  0.1300439E+00
        -11   -1    0    0    0    0  0.00000000000E+00  0.00000000000E+00  0.45593999997E+02  0.45594000000E+02  0.51100000000E-03 0. -1.
         11   -1    0    0    0    0 -0.00000000000E+00 -0.00000000000E+00 -0.45593999997E+02  0.45594000000E+02  0.51100000000E-03 0.  1.
    9900012    2    1    2    0    0 -0.82888102127E+01 -0.36304452622E+01 -0.39639408644E+02  0.50528840820E+02  0.29999942158E+02 0.  0.
         12    1    1    2    0    0  0.82888102127E+01  0.36304452622E+01  0.39639408644E+02  0.40659159180E+02  0.00000000000E+00 0. -1.
         11    1    3    3    0    0  0.87286712443E+01 -0.10913804434E+01 -0.26415397172E+01  0.91846908114E+01  0.51100000000E-03 0. -1.
        -11    1    3    3    0    0 -0.10732285633E+02  0.16957282493E+01 -0.22405744345E+02  0.24901301756E+02  0.51100000000E-03 0.  1.
        -12    1    3    3    0    0 -0.62851958242E+01 -0.42347930681E+01 -0.14592124582E+02  0.16442848253E+02  0.00000000000E+00 0.  1.
</event>
<event>
 7    1  0.6889665E-012  0.5052886E+02  0.7816164E-02  0.1300439E+00
        -11   -1    0    0    0    0  0.00000000000E+00  0.00000000000E+00  0.45593999997E+02  0.45594000000E+02  0.51100000000E-03 0. -1.
         11   -1    0    0    0    0 -0.00000000000E+00 -0.00000000000E+00 -0.45593999997E+02  0.45594000000E+02  0.51100000000E-03 0.  1.
    9900012    2    1    2    0    0 -0.20237796194E+02 -0.89909187218E+01  0.34099270558E+02  0.50528864903E+02  0.30000015360E+02 0.  0.
        -12    1    1    2    0    0  0.20237796194E+02  0.89909187218E+01 -0.34099270558E+02  0.40659135097E+02  0.00000000000E+00 0.  1.
         11    1    3    3    0    0 -0.21005268662E+02 -0.22401070407E+01  0.21565726034E+02  0.30188075970E+02  0.51100000000E-03 0. -1.
        -11    1    3    3    0    0  0.72347196794E+01 -0.11537365474E+01  0.44464045586E+01  0.85698769315E+01  0.51100000000E-03 0.  1.
        -12    1    3    3    0    0 -0.64672472118E+01 -0.55970751337E+01  0.80871399646E+01  0.11770912002E+02  0.00000000000E+00 0.  1.
</event>
<event>
 7    1  0.6889665E-012  0.5052887E+02  0.7816164E-02  0.1300439E+00
        -11   -1    0    0    0    0  0.00000000000E+00  0.00000000000E+00  0.45593999997E+02  0.45594000000E+02  0.51100000000E-03 0. -1.
         11   -1    0    0    0    0 -0.00000000000E+00 -0.00000000000E+00 -0.45593999997E+02  0.45594000000E+02  0.51100000000E-03 0.  1.
    9900012    2    1    2    0    0  0.14905143508E+02  0.96478499148E+01 -0.36577601275E+02  0.50528865405E+02  0.30000016887E+02 0.  0.
         12    1    1    2    0    0 -0.14905143508E+02 -0.96478499148E+01  0.36577601275E+02  0.40659134595E+02  0.00000000000E+00 0. -1.
         11    1    3    3    0    0  0.15404939766E+02 -0.28845858305E+00 -0.12536347074E+02  0.19863418029E+02  0.51100000000E-03 0. -1.
        -11    1    3    3    0    0  0.22692613756E+01  0.13504886003E+02 -0.13651765947E+02  0.19336551060E+02  0.51100000000E-03 0.  1.
        -12    1    3    3    0    0 -0.27690576341E+01 -0.35685775054E+01 -0.10389488253E+02  0.11328896317E+02  0.00000000000E+00 0.  1.
</event>
<event>
 7    1  0.6889665E-012  0.5052886E+02  0.7816164E-02  0.1300439E+00
        -11   -1    0    0    0    0  0.00000000000E+00  0.00000000000E+00  0.45593999997E+02  0.45594000000E+02  0.51100000000E-03 0.  1.
         11   -1    0    0    0    0 -0.00000000000E+00 -0.00000000000E+00 -0.45593999997E+02  0.45594000000E+02  0.51100000000E-03 0. -1.
    9900012    2    1    2    0    0  0.61103489398E+01 -0.38908745459E+02  0.10096484535E+02  0.50528857887E+02  0.29999994034E+02 0.  0.
         12    1    1    2    0    0 -0.61103489398E+01  0.38908745459E+02 -0.10096484535E+02  0.40659142113E+02  0.00000000000E+00 0. -1.
         11    1    3    3    0    0 -0.46650315594E-02  0.28220430581E+01  0.15952057801E+01  0.32417017948E+01  0.51100000000E-03 0. -1.
        -11    1    3    3    0    0  0.10811335119E+02 -0.34794718920E+02  0.11778917947E+02  0.38292301316E+02  0.51100000000E-03 0.  1.
        -12    1    3    3    0    0 -0.46963211475E+01 -0.69360695973E+01 -0.32776391929E+01  0.89948547769E+01  0.00000000000E+00 0.  1.
</event>
<event>
 7    1  0.6889665E-012  0.5052885E+02  0.7816164E-02  0.1300439E+00
        -11   -1    0    0    0    0  0.00000000000E+00  0.00000000000E+00  0.45593999997E+02  0.45594000000E+02  0.51100000000E-03 0. -1.
         11   -1    0    0    0    0 -0.00000000000E+00 -0.00000000000E+00 -0.45593999997E+02  0.45594000000E+02  0.51100000000E-03 0.  1.
    9900012    2    1    2    0    0  0.22137554358E+02  0.13472315640E+02 -0.31330363401E+02  0.50528852536E+02  0.29999977768E+02 0.  0.
         12    1    1    2    0    0 -0.22137554358E+02 -0.13472315640E+02  0.31330363401E+02  0.40659147464E+02  0.00000000000E+00 0. -1.
         11    1    3    3    0    0  0.12300951235E+02 -0.22540243289E+01 -0.67376434425E+00  0.12523896583E+02  0.51100000000E-03 0. -1.
        -11    1    3    3    0    0  0.11541529122E+02  0.16542335198E+02 -0.29658245487E+02  0.35867356662E+02  0.51100000000E-03 0.  1.
         12    1    3    3    0    0 -0.17049259998E+01 -0.81599522928E+00 -0.99835357028E+00  0.21375992913E+01  0.00000000000E+00 0. -1.
</event>
<event>
 7    1  0.6889665E-012  0.5052887E+02  0.7816164E-02  0.1300439E+00
        -11   -1    0    0    0    0  0.00000000000E+00  0.00000000000E+00  0.45593999997E+02  0.45594000000E+02  0.51100000000E-03 0. -1.
         11   -1    0    0    0    0 -0.00000000000E+00 -0.00000000000E+00 -0.45593999997E+02  0.45594000000E+02  0.51100000000E-03 0.  1.
    9900012    2    1    2    0    0  0.29269153222E+02  0.12097421200E+02  0.25497726498E+02  0.50528868349E+02  0.30000025834E+02 0.  0.
        -12    1    1    2    0    0 -0.29269153222E+02 -0.12097421200E+02 -0.25497726498E+02  0.40659131651E+02  0.00000000000E+00 0.  1.
         11    1    3    3    0    0  0.18911035956E+02  0.48284447714E+01  0.30089913116E+01  0.19748295846E+02  0.51100000000E-03 0. -1.
        -11    1    3    3    0    0 -0.36474518567E+01  0.58435248507E+01  0.84070290165E+01  0.10868708519E+02  0.51100000000E-03 0.  1.
         12    1    3    3    0    0  0.14005569123E+02  0.14254515781E+01  0.14081706170E+02  0.19911863984E+02  0.00000000000E+00 0. -1.
</event>
<event>
 7    1  0.6889665E-012  0.5052886E+02  0.7816164E-02  0.1300439E+00
        -11   -1    0    0    0    0  0.00000000000E+00  0.00000000000E+00  0.45593999997E+02  0.45594000000E+02  0.51100000000E-03 0. -1.
         11   -1    0    0    0    0 -0.00000000000E+00 -0.00000000000E+00 -0.45593999997E+02  0.45594000000E+02  0.51100000000E-03 0.  1.
    9900012    2    1    2    0    0  0.83417293840E+01  0.28552861169E+02  0.27718495147E+02  0.50528864455E+02  0.30000013999E+02 0.  0.
        -12    1    1    2    0    0 -0.83417293840E+01 -0.28552861169E+02 -0.27718495147E+02  0.40659135545E+02  0.00000000000E+00 0.  1.
         11    1    3    3    0    0  0.13742793961E+01 -0.21030405904E+01  0.12486524161E+01  0.28054512473E+01  0.51100000000E-03 0. -1.
        -11    1    3    3    0    0  0.12802273549E+01  0.28452321157E+02  0.29420465782E+02  0.40947983692E+02  0.51100000000E-03 0.  1.
        -12    1    3    3    0    0  0.56872226329E+01  0.22035806017E+01 -0.29506230512E+01  0.67754295167E+01  0.00000000000E+00 0.  1.
</event>
<event>
 7    1  0.6889665E-012  0.5052886E+02  0.7816164E-02  0.1300439E+00
        -11   -1    0    0    0    0  0.00000000000E+00  0.00000000000E+00  0.45593999997E+02  0.45594000000E+02  0.51100000000E-03 0. -1.
         11   -1    0    0    0    0 -0.00000000000E+00 -0.00000000000E+00 -0.45593999997E+02  0.45594000000E+02  0.51100000000E-03 0.  1.
    9900012    2    1    2    0    0 -0.51045183074E+00  0.15613214262E+01 -0.40625939762E+02  0.50528864898E+02  0.30000015344E+02 0.  0.
         12    1    1    2    0    0  0.51045183074E+00 -0.15613214262E+01  0.40625939762E+02  0.40659135102E+02  0.00000000000E+00 0. -1.
         11    1    3    3    0    0 -0.19535031749E+01  0.45611287959E+01 -0.77686506069E+01  0.92180259850E+01  0.51100000000E-03 0. -1.
        -11    1    3    3    0    0 -0.72533733857E+00 -0.11346868769E+02 -0.55077489221E+01  0.12633797670E+02  0.51100000000E-03 0.  1.
        -12    1    3    3    0    0  0.21683886827E+01  0.83470613993E+01 -0.27349540233E+02  0.28677041243E+02  0.00000000000E+00 0.  1.
</event>
<event>
 7    1  0.6889665E-012  0.5052886E+02  0.7816164E-02  0.1300439E+00
        -11   -1    0    0    0    0  0.00000000000E+00  0.00000000000E+00  0.45593999997E+02  0.45594000000E+02  0.51100000000E-03 0. -1.
         11   -1    0    0    0    0 -0.00000000000E+00 -0.00000000000E+00 -0.45593999997E+02  0.45594000000E+02  0.51100000000E-03 0.  1.
    9900012    2    1    2    0    0 -0.32797862934E+02 -0.35761018428E+01  0.23762934766E+02  0.50528863436E+02  0.30000010899E+02 0.  0.
        -12    1    1    2    0    0  0.32797862934E+02  0.35761018428E+01 -0.23762934766E+02  0.40659136564E+02  0.00000000000E+00 0.  1.
         11    1    3    3    0    0 -0.73568805406E+01 -0.19046948589E+00  0.91219557437E+01  0.11720496865E+02  0.51100000000E-03 0. -1.
        -11    1    3    3    0    0 -0.95476787994E+00 -0.65353456220E+01 -0.41344490220E+01  0.77920467837E+01  0.51100000000E-03 0.  1.
        -12    1    3    3    0    0 -0.24486214514E+02  0.31497132651E+01  0.18775428044E+02  0.31016319787E+02  0.00000000000E+00 0.  1.
</event>
<event>
 7    1  0.6889665E-012  0.5052886E+02  0.7816164E-02  0.1300439E+00
        -11   -1    0    0    0    0  0.00000000000E+00  0.00000000000E+00  0.45593999997E+02  0.45594000000E+02  0.51100000000E-03 0. -1.
         11   -1    0    0    0    0 -0.00000000000E+00 -0.00000000000E+00 -0.45593999997E+02  0.45594000000E+02  0.51100000000E-03 0.  1.
    9900012    2    1    2    0    0  0.47802429892E+01  0.30385037344E+02 -0.26590681164E+02  0.50528861516E+02  0.30000005065E+02 0.  0.
         12    1    1    2    0    0 -0.47802429892E+01 -0.30385037344E+02  0.26590681164E+02  0.40659138484E+02  0.00000000000E+00 0. -1.
         11    1    3    3    0    0  0.62868842374E+01  0.11299028802E+02 -0.15581214116E+01  0.13023851499E+02  0.51100000000E-03 0. -1.
        -11    1    3    3    0    0 -0.61294850233E+01  0.21714184076E+02 -0.21095846127E+02  0.30888688881E+02  0.51100000000E-03 0.  1.
        -12    1    3    3    0    0  0.46228437751E+01 -0.26281755334E+01 -0.39367136260E+01  0.66163211361E+01  0.00000000000E+00 0.  1.
</event>
<event>
 7    1  0.7876426E-012  0.5052886E+02  0.7816164E-02  0.1300439E+00
        -11   -1    0    0    0    0  0.00000000000E+00  0.00000000000E+00  0.45593999997E+02  0.45594000000E+02  0.51100000000E-03 0. -1.
         11   -1    0    0    0    0 -0.00000000000E+00 -0.00000000000E+00 -0.45593999997E+02  0.45594000000E+02  0.51100000000E-03 0.  1.
    9900012    2    1    2    0    0 -0.21975971752E+02 -0.11837669593E+01 -0.34188024133E+02  0.50528860403E+02  0.30000001681E+02 0.  0.
         12    1    1    2    0    0  0.21975971752E+02  0.11837669593E+01  0.34188024133E+02  0.40659139597E+02  0.00000000000E+00 0. -1.
         11    1    3    3    0    0  0.59024856405E+01  0.26799983531E+01 -0.32226566889E+01  0.72392847923E+01  0.51100000000E-03 0. -1.
        -11    1    3    3    0    0 -0.16649864175E+02 -0.77295018887E+01 -0.19551005641E+02  0.26817997657E+02  0.51100000000E-03 0.  1.
         12    1    3    3    0    0 -0.11228593217E+02  0.38657365764E+01 -0.11414361804E+02  0.16471577954E+02  0.00000000000E+00 0. -1.
</event>
<event>
 7    1  0.6889665E-012  0.5052887E+02  0.7816164E-02  0.1300439E+00
        -11   -1    0    0    0    0  0.00000000000E+00  0.00000000000E+00  0.45593999997E+02  0.45594000000E+02  0.51100000000E-03 0. -1.
         11   -1    0    0    0    0 -0.00000000000E+00 -0.00000000000E+00 -0.45593999997E+02  0.45594000000E+02  0.51100000000E-03 0.  1.
    9900012    2    1    2    0    0 -0.41946685358E+01  0.34202988738E+02  0.21580674056E+02  0.50528866027E+02  0.30000018774E+02 0.  0.
        -12    1    1    2    0    0  0.41946685358E+01 -0.34202988738E+02 -0.21580674056E+02  0.40659133973E+02  0.00000000000E+00 0.  1.
         11    1    3    3    0    0 -0.12815757656E+01 -0.29867944941E+01 -0.50278228105E+00  0.32887943195E+01  0.51100000000E-03 0. -1.
        -11    1    3    3    0    0 -0.10885608330E+02  0.22675272308E+02  0.12205539321E+02  0.27957818823E+02  0.51100000000E-03 0.  1.
         12    1    3    3    0    0  0.79725155593E+01  0.14514510924E+02  0.98779170165E+01  0.19282252884E+02  0.00000000000E+00 0. -1.
</event>
<event>
 7    1  0.6904194E-012  0.5052886E+02  0.7816164E-02  0.1300439E+00
        -11   -1    0    0    0    0  0.00000000000E+00  0.00000000000E+00  0.45593999997E+02  0.45594000000E+02  0.51100000000E-03 0. -1.
         11   -1    0    0    0    0 -0.00000000000E+00 -0.00000000000E+00 -0.45593999997E+02  0.45594000000E+02  0.51100000000E-03 0.  1.
    9900012    2    1    2    0    0 -0.66335899176E+01  0.49376265108E+01 -0.39809304228E+02  0.50528863586E+02  0.30000011357E+02 0.  0.
         12    1    1    2    0    0  0.66335899176E+01 -0.49376265108E+01  0.39809304228E+02  0.40659136414E+02  0.00000000000E+00 0. -1.
         11    1    3    3    0    0 -0.10473184835E+02 -0.28981392066E+01 -0.27480867048E+01  0.11208871141E+02  0.51100000000E-03 0. -1.
        -11    1    3    3    0    0 -0.24975892193E+01  0.48267499300E+01 -0.22637751327E+02  0.23280963300E+02  0.51100000000E-03 0.  1.
         12    1    3    3    0    0  0.63371841368E+01  0.30090157874E+01 -0.14423466197E+02  0.16039029145E+02  0.00000000000E+00 0. -1.
</event>
<event>
 7    1  0.6889665E-012  0.5052887E+02  0.7816164E-02  0.1300439E+00
        -11   -1    0    0    0    0  0.00000000000E+00  0.00000000000E+00  0.45593999997E+02  0.45594000000E+02  0.51100000000E-03 0. -1.
         11   -1    0    0    0    0 -0.00000000000E+00 -0.00000000000E+00 -0.45593999997E+02  0.45594000000E+02  0.51100000000E-03 0.  1.
    9900012    2    1    2    0    0 -0.16308788951E+02  0.78216126683E+01  0.36414429580E+02  0.50528869373E+02  0.30000028945E+02 0.  0.
        -12    1    1    2    0    0  0.16308788951E+02 -0.78216126683E+01 -0.36414429580E+02  0.40659130627E+02  0.00000000000E+00 0.  1.
         11    1    3    3    0    0  0.16158711038E+00  0.11382350099E+02  0.28619939637E+02  0.30800729687E+02  0.51100000000E-03 0. -1.
        -11    1    3    3    0    0 -0.83068768366E+01 -0.44836906797E+01  0.19319091692E+01  0.96353494067E+01  0.51100000000E-03 0.  1.
        -12    1    3    3    0    0 -0.81634992246E+01  0.92295324934E+00  0.58625807736E+01  0.10092790279E+02  0.00000000000E+00 0.  1.
</event>
<event>
 7    1  0.6889665E-012  0.5052886E+02  0.7816164E-02  0.1300439E+00
        -11   -1    0    0    0    0  0.00000000000E+00  0.00000000000E+00  0.45593999997E+02  0.45594000000E+02  0.51100000000E-03 0.  1.
         11   -1    0    0    0    0 -0.00000000000E+00 -0.00000000000E+00 -0.45593999997E+02  0.45594000000E+02  0.51100000000E-03 0. -1.
    9900012    2    1    2    0    0  0.34817659274E+02  0.54940969052E+00 -0.20990339487E+02  0.50528860805E+02  0.30000002902E+02 0.  0.
         12    1    1    2    0    0 -0.34817659274E+02 -0.54940969052E+00  0.20990339487E+02  0.40659139195E+02  0.00000000000E+00 0. -1.
         11    1    3    3    0    0  0.73227200464E+00  0.35777228969E+01 -0.93483785251E+01  0.10036359137E+02  0.51100000000E-03 0. -1.
        -11    1    3    3    0    0  0.24900745123E+02  0.49449621797E+01 -0.29814172634E+01  0.25561467246E+02  0.51100000000E-03 0.  1.
         12    1    3    3    0    0  0.91846421465E+01 -0.79732753861E+01 -0.86605436987E+01  0.14931034422E+02  0.00000000000E+00 0. -1.
</event>
<event>
 7    1  0.6889665E-012  0.5052889E+02  0.7816164E-02  0.1300439E+00
        -11   -1    0    0    0    0  0.00000000000E+00  0.00000000000E+00  0.45593999997E+02  0.45594000000E+02  0.51100000000E-03 0. -1.
         11   -1    0    0    0    0 -0.00000000000E+00 -0.00000000000E+00 -0.45593999997E+02  0.45594000000E+02  0.51100000000E-03 0.  1.
    9900012    2    1    2    0    0 -0.21953712285E+02  0.11690427017E+02 -0.32164137838E+02  0.50528888723E+02  0.30000087763E+02 0.  0.
         12    1    1    2    0    0  0.21953712285E+02 -0.11690427017E+02  0.32164137838E+02  0.40659111277E+02  0.00000000000E+00 0. -1.
         11    1    3    3    0    0 -0.16115062342E+02  0.66212548772E+01 -0.45799311417E+01  0.18014217162E+02  0.51100000000E-03 0. -1.
        -11    1    3    3    0    0 -0.72804143315E+01  0.81293429821E+01 -0.26946348236E+02  0.29072260553E+02  0.51100000000E-03 0.  1.
        -12    1    3    3    0    0  0.14417643885E+01 -0.30601708421E+01 -0.63785846080E+00  0.34424110084E+01  0.00000000000E+00 0.  1.
</event>
<event>
 7    1  0.6889665E-012  0.5052884E+02  0.7816164E-02  0.1300439E+00
        -11   -1    0    0    0    0  0.00000000000E+00  0.00000000000E+00  0.45593999997E+02  0.45594000000E+02  0.51100000000E-03 0. -1.
         11   -1    0    0    0    0 -0.00000000000E+00 -0.00000000000E+00 -0.45593999997E+02  0.45594000000E+02  0.51100000000E-03 0.  1.
    9900012    2    1    2    0    0  0.22102510044E+02 -0.11029386789E+02  0.32295489255E+02  0.50528844212E+02  0.29999952467E+02 0.  0.
        -12    1    1    2    0    0 -0.22102510044E+02  0.11029386789E+02 -0.32295489255E+02  0.40659155788E+02  0.00000000000E+00 0.  1.
         11    1    3    3    0    0  0.49271666915E+01 -0.95503858242E+01  0.21062796313E+02  0.23645892450E+02  0.51100000000E-03 0. -1.
        -11    1    3    3    0    0  0.19198835743E+02 -0.50311648942E+01  0.71240150157E+01  0.21086951042E+02  0.51100000000E-03 0.  1.
        -12    1    3    3    0    0 -0.20234923900E+01  0.35521639297E+01  0.41086779261E+01  0.57960007191E+01  0.00000000000E+00 0.  1.
</event>
<event>
 7    1  0.6889665E-012  0.5052886E+02  0.7816164E-02  0.1300439E+00
        -11   -1    0    0    0    0  0.00000000000E+00  0.00000000000E+00  0.45593999997E+02  0.45594000000E+02  0.51100000000E-03 0.  1.
         11   -1    0    0    0    0 -0.00000000000E+00 -0.00000000000E+00 -0.45593999997E+02  0.45594000000E+02  0.51100000000E-03 0. -1.
    9900012    2    1    2    0    0 -0.40353919056E+02 -0.28392654966E+01  0.40823128871E+01  0.50528862155E+02  0.30000007008E+02 0.  0.
        -12    1    1    2    0    0  0.40353919056E+02  0.28392654966E+01 -0.40823128871E+01  0.40659137845E+02  0.00000000000E+00 0.  1.
         11    1    3    3    0    0 -0.81428351241E+01 -0.47952882324E+01 -0.16326249257E+01  0.95898914227E+01  0.51100000000E-03 0. -1.
        -11    1    3    3    0    0 -0.30055362249E+02  0.10268739801E+02  0.61043261785E+01  0.32342458401E+02  0.51100000000E-03 0.  1.
        -12    1    3    3    0    0 -0.21557216828E+01 -0.83127170651E+01 -0.38938836576E+00  0.85965123322E+01  0.00000000000E+00 0.  1.
</event>
<event>
 7    1  0.6889665E-012  0.5052888E+02  0.7816164E-02  0.1300439E+00
        -11   -1    0    0    0    0  0.00000000000E+00  0.00000000000E+00  0.45593999997E+02  0.45594000000E+02  0.51100000000E-03 0. -1.
         11   -1    0    0    0    0 -0.00000000000E+00 -0.00000000000E+00 -0.45593999997E+02  0.45594000000E+02  0.51100000000E-03 0.  1.
    9900012    2    1    2    0    0 -0.90362407820E+01  0.38155797982E+02 -0.10753868239E+02  0.50528877417E+02  0.30000053396E+02 0.  0.
         12    1    1    2    0    0  0.90362407820E+01 -0.38155797982E+02  0.10753868239E+02  0.40659122583E+02  0.00000000000E+00 0. -1.
         11    1    3    3    0    0  0.39469666248E+01 -0.20296210112E+01 -0.50441823397E+01  0.67187560399E+01  0.51100000000E-03 0. -1.
        -11    1    3    3    0    0 -0.49625192328E+00  0.85598461172E+01  0.23012591017E+01  0.88776700342E+01  0.51100000000E-03 0.  1.
         12    1    3    3    0    0 -0.12486955484E+02  0.31625572876E+02 -0.80109450009E+01  0.34932451343E+02  0.00000000000E+00 0. -1.
</event>
<event>
 7    1  0.6889665E-012  0.5052888E+02  0.7816164E-02  0.1300439E+00
        -11   -1    0    0    0    0  0.00000000000E+00  0.00000000000E+00  0.45593999997E+02  0.45594000000E+02  0.51100000000E-03 0. -1.
         11   -1    0    0    0    0 -0.00000000000E+00 -0.00000000000E+00 -0.45593999997E+02  0.45594000000E+02  0.51100000000E-03 0.  1.
    9900012    2    1    2    0    0 -0.15754714453E+02 -0.19094154148E+02  0.32254705998E+02  0.50528882829E+02  0.30000069847E+02 0.  0.
        -12    1    1    2    0    0  0.15754714453E+02  0.19094154148E+02 -0.32254705998E+02  0.40659117171E+02  0.00000000000E+00 0.  1.
         11    1    3    3    0    0 -0.10038829736E+02 -0.71457930341E+01  0.17264517563E+00  0.12323565522E+02  0.51100000000E-03 0. -1.
        -11    1    3    3    0    0  0.19778376638E+01 -0.16481192702E+01  0.21217131399E+02  0.21372758456E+02  0.51100000000E-03 0.  1.
        -12    1    3    3    0    0 -0.76937223813E+01 -0.10300241844E+02  0.10864929423E+02  0.16832558851E+02  0.00000000000E+00 0.  1.
</event>
<event>
 7    1  0.6889665E-012  0.5052889E+02  0.7816164E-02  0.1300439E+00
        -11   -1    0    0    0    0  0.00000000000E+00  0.00000000000E+00  0.45593999997E+02  0.45594000000E+02  0.51100000000E-03 0. -1.
         11   -1    0    0    0    0 -0.00000000000E+00 -0.00000000000E+00 -0.45593999997E+02  0.45594000000E+02  0.51100000000E-03 0.  1.
    9900012    2    1    2    0    0  0.28930959000E+02  0.26776408449E+02 -0.99592679623E+01  0.50528887166E+02  0.30000083030E+02 0.  0.
        -12    1    1    2    0    0 -0.28930959000E+02 -0.26776408449E+02  0.99592679623E+01  0.40659112834E+02  0.00000000000E+00 0.  1.
         11    1    3    3    0    0  0.15194861872E+02  0.89620487549E+01 -0.49871413619E+01  0.18332313668E+02  0.51100000000E-03 0. -1.
        -11    1    3    3    0    0  0.48947558945E+00  0.80875767456E+01  0.79038465353E+01  0.11318978500E+02  0.51100000000E-03 0.  1.
        -12    1    3    3    0    0  0.13246621538E+02  0.97267829485E+01 -0.12875973136E+02  0.20877594998E+02  0.00000000000E+00 0.  1.
</event>
<event>
 7    1  0.6889665E-012  0.5052886E+02  0.7816164E-02  0.1300439E+00
        -11   -1    0    0    0    0  0.00000000000E+00  0.00000000000E+00  0.45593999997E+02  0.45594000000E+02  0.51100000000E-03 0. -1.
         11   -1    0    0    0    0 -0.00000000000E+00 -0.00000000000E+00 -0.45593999997E+02  0.45594000000E+02  0.51100000000E-03 0.  1.
    9900012    2    1    2    0    0  0.27811922113E+02 -0.70503004635E+00 -0.29650730285E+02  0.50528857296E+02  0.29999992238E+02 0.  0.
         12    1    1    2    0    0 -0.27811922113E+02  0.70503004635E+00  0.29650730285E+02  0.40659142704E+02  0.00000000000E+00 0. -1.
         11    1    3    3    0    0  0.10013263202E+02 -0.99143090279E+01 -0.98764173698E+01  0.17207631556E+02  0.51100000000E-03 0. -1.
        -11    1    3    3    0    0  0.13127410816E+02  0.68723859085E+01 -0.22869238301E+02  0.27249966303E+02  0.51100000000E-03 0.  1.
        -12    1    3    3    0    0  0.46712480948E+01  0.23368930730E+01  0.30949253863E+01  0.60712594364E+01  0.00000000000E+00 0.  1.
</event>
<event>
 7    1  0.6889665E-012  0.5052886E+02  0.7816164E-02  0.1300439E+00
        -11   -1    0    0    0    0  0.00000000000E+00  0.00000000000E+00  0.45593999997E+02  0.45594000000E+02  0.51100000000E-03 0. -1.
         11   -1    0    0    0    0 -0.00000000000E+00 -0.00000000000E+00 -0.45593999997E+02  0.45594000000E+02  0.51100000000E-03 0.  1.
    9900012    2    1    2    0    0  0.37391808989E+01 -0.26417916167E+02  0.30680255041E+02  0.50528858128E+02  0.29999994765E+02 0.  0.
        -12    1    1    2    0    0 -0.37391808989E+01  0.26417916167E+02 -0.30680255041E+02  0.40659141872E+02  0.00000000000E+00 0.  1.
         11    1    3    3    0    0 -0.25819030503E+01 -0.86966179802E+01  0.15556559757E+02  0.18008440781E+02  0.51100000000E-03 0. -1.
        -11    1    3    3    0    0  0.79830813534E+01 -0.21674244998E+02  0.84640874212E+01  0.24599659759E+02  0.51100000000E-03 0.  1.
        -12    1    3    3    0    0 -0.16619974042E+01  0.39529468109E+01  0.66596078630E+01  0.79207575869E+01  0.00000000000E+00 0.  1.
</event>
<event>
 7    1  0.6889665E-012  0.5052886E+02  0.7816164E-02  0.1300439E+00
        -11   -1    0    0    0    0  0.00000000000E+00  0.00000000000E+00  0.45593999997E+02  0.45594000000E+02  0.51100000000E-03 0. -1.
         11   -1    0    0    0    0 -0.00000000000E+00 -0.00000000000E+00 -0.45593999997E+02  0.45594000000E+02  0.51100000000E-03 0.  1.
    9900012    2    1    2    0    0 -0.25975790063E+02  0.21787428369E+02  0.22443981525E+02  0.50528855752E+02  0.29999987543E+02 0.  0.
        -12    1    1    2    0    0  0.25975790063E+02 -0.21787428369E+02 -0.22443981525E+02  0.40659144248E+02  0.00000000000E+00 0.  1.
         11    1    3    3    0    0 -0.62106877325E+01 -0.28343448426E+01  0.46628123207E+01  0.82672832174E+01  0.51100000000E-03 0. -1.
        -11    1    3    3    0    0 -0.20246507099E+02  0.24022721044E+02  0.21755219951E+02  0.38213895004E+02  0.51100000000E-03 0.  1.
        -12    1    3    3    0    0  0.48140476836E+00  0.59905216789E+00 -0.39740507465E+01  0.40476775300E+01  0.00000000000E+00 0.  1.
</event>
<event>
 7    1  0.6889665E-012  0.5052886E+02  0.7816164E-02  0.1300439E+00
        -11   -1    0    0    0    0  0.00000000000E+00  0.00000000000E+00  0.45593999997E+02  0.45594000000E+02  0.51100000000E-03 0. -1.
         11   -1    0    0    0    0 -0.00000000000E+00 -0.00000000000E+00 -0.45593999997E+02  0.45594000000E+02  0.51100000000E-03 0.  1.
    9900012    2    1    2    0    0 -0.24093068471E+02 -0.43061586014E+01 -0.32467628797E+02  0.50528857487E+02  0.29999992816E+02 0.  0.
         12    1    1    2    0    0  0.24093068471E+02  0.43061586014E+01  0.32467628797E+02  0.40659142513E+02  0.00000000000E+00 0. -1.
         11    1    3    3    0    0  0.21756260586E+01  0.55179728790E+01 -0.12765406194E+02  0.14076113420E+02  0.51100000000E-03 0. -1.
        -11    1    3    3    0    0 -0.25432772194E+02 -0.86764159493E+01 -0.21318501003E+02  0.34301378697E+02  0.51100000000E-03 0.  1.
        -12    1    3    3    0    0 -0.83592233522E+00 -0.11477155311E+01  0.16162784003E+01  0.21513653706E+01  0.00000000000E+00 0.  1.
</event>
<event>
 7    1  0.7462362E-012  0.5052886E+02  0.7816164E-02  0.1300439E+00
        -11   -1    0    0    0    0  0.00000000000E+00  0.00000000000E+00  0.45593999997E+02  0.45594000000E+02  0.51100000000E-03 0. -1.
         11   -1    0    0    0    0 -0.00000000000E+00 -0.00000000000E+00 -0.45593999997E+02  0.45594000000E+02  0.51100000000E-03 0.  1.
    9900012    2    1    2    0    0  0.26640022788E+02 -0.14747411714E+02 -0.26944171501E+02  0.50528863951E+02  0.30000012465E+02 0.  0.
         12    1    1    2    0    0 -0.26640022788E+02  0.14747411714E+02  0.26944171501E+02  0.40659136049E+02  0.00000000000E+00 0. -1.
         11    1    3    3    0    0  0.12878920107E+02  0.67276489067E+01 -0.61556928264E+01  0.15780380140E+02  0.51100000000E-03 0. -1.
        -11    1    3    3    0    0  0.14811072032E+02 -0.17393076494E+02 -0.20196253816E+02  0.30492222502E+02  0.51100000000E-03 0.  1.
         12    1    3    3    0    0 -0.10499693503E+01 -0.40819841272E+01 -0.59222485871E+00  0.42562613095E+01  0.00000000000E+00 0. -1.
</event>
<event>
 7    1  0.6889665E-012  0.5052886E+02  0.7816164E-02  0.1300439E+00
        -11   -1    0    0    0    0  0.00000000000E+00  0.00000000000E+00  0.45593999997E+02  0.45594000000E+02  0.51100000000E-03 0. -1.
         11   -1    0    0    0    0 -0.00000000000E+00 -0.00000000000E+00 -0.45593999997E+02  0.45594000000E+02  0.51100000000E-03 0.  1.
    9900012    2    1    2    0    0 -0.31856406380E+02 -0.15046116942E+02  0.20296539996E+02  0.50528858368E+02  0.29999995495E+02 0.  0.
        -12    1    1    2    0    0  0.31856406380E+02  0.15046116942E+02 -0.20296539996E+02  0.40659141632E+02  0.00000000000E+00 0.  1.
         11    1    3    3    0    0 -0.23033955994E+02  0.18665363783E+00  0.90295762050E+01  0.24741285638E+02  0.51100000000E-03 0. -1.
        -11    1    3    3    0    0  0.91052695169E+00  0.16169531927E+01  0.50178205240E+01  0.53499644886E+01  0.51100000000E-03 0.  1.
         12    1    3    3    0    0 -0.97329773377E+01 -0.16849723772E+02  0.62491432672E+01  0.20437608241E+02  0.00000000000E+00 0. -1.
</event>
<event>
 7    1  0.6889665E-012  0.5052886E+02  0.7816164E-02  0.1300439E+00
        -11   -1    0    0    0    0  0.00000000000E+00  0.00000000000E+00  0.45593999997E+02  0.45594000000E+02  0.51100000000E-03 0. -1.
         11   -1    0    0    0    0 -0.00000000000E+00 -0.00000000000E+00 -0.45593999997E+02  0.45594000000E+02  0.51100000000E-03 0.  1.
    9900012    2    1    2    0    0  0.43099764586E+01  0.25691422221E+02  0.31217635000E+02  0.50528858251E+02  0.29999995140E+02 0.  0.
        -12    1    1    2    0    0 -0.43099764586E+01 -0.25691422221E+02 -0.31217635000E+02  0.40659141749E+02  0.00000000000E+00 0.  1.
         11    1    3    3    0    0  0.66890379503E+00  0.15535609979E+02  0.22013834440E+02  0.26952022497E+02  0.51100000000E-03 0. -1.
        -11    1    3    3    0    0 -0.19405761765E+01  0.12323290109E+02 -0.14372993627E+00  0.12475975856E+02  0.51100000000E-03 0.  1.
        -12    1    3    3    0    0  0.55816488401E+01 -0.21674778672E+01  0.93475304962E+01  0.11100859897E+02  0.00000000000E+00 0.  1.
</event>
<event>
 7    1  0.6889665E-012  0.5052886E+02  0.7816164E-02  0.1300439E+00
        -11   -1    0    0    0    0  0.00000000000E+00  0.00000000000E+00  0.45593999997E+02  0.45594000000E+02  0.51100000000E-03 0. -1.
         11   -1    0    0    0    0 -0.00000000000E+00 -0.00000000000E+00 -0.45593999997E+02  0.45594000000E+02  0.51100000000E-03 0.  1.
    9900012    2    1    2    0    0  0.28166428710E+02  0.16883795879E+02  0.23974063338E+02  0.50528856102E+02  0.29999988609E+02 0.  0.
        -12    1    1    2    0    0 -0.28166428710E+02 -0.16883795879E+02 -0.23974063338E+02  0.40659143898E+02  0.00000000000E+00 0.  1.
         11    1    3    3    0    0  0.17039591878E+02  0.22187303893E+02  0.90706308042E+01  0.29409190551E+02  0.51100000000E-03 0. -1.
        -11    1    3    3    0    0 -0.11387859401E+01 -0.12013848077E+01  0.43150943130E+00  0.17106605519E+01  0.51100000000E-03 0.  1.
         12    1    3    3    0    0  0.12265622772E+02 -0.41021232063E+01  0.14471923103E+02  0.19409004999E+02  0.00000000000E+00 0. -1.
</event>
<event>
 7    1  0.6889665E-012  0.5052886E+02  0.7816164E-02  0.1300439E+00
        -11   -1    0    0    0    0  0.00000000000E+00  0.00000000000E+00  0.45593999997E+02  0.45594000000E+02  0.51100000000E-03 0. -1.
         11   -1    0    0    0    0 -0.00000000000E+00 -0.00000000000E+00 -0.45593999997E+02  0.45594000000E+02  0.51100000000E-03 0.  1.
    9900012    2    1    2    0    0 -0.78095574290E+01 -0.18030014288E+02  0.35596281967E+02  0.50528857211E+02  0.29999991977E+02 0.  0.
        -12    1    1    2    0    0  0.78095574290E+01  0.18030014288E+02 -0.35596281967E+02  0.40659142789E+02  0.00000000000E+00 0.  1.
         11    1    3    3    0    0  0.16441934034E+00 -0.15300154842E+02  0.17888709587E+02  0.23539917223E+02  0.51100000000E-03 0. -1.
        -11    1    3    3    0    0  0.47682205132E+01  0.26453620611E+01  0.14448677410E+01  0.56410557830E+01  0.51100000000E-03 0.  1.
        -12    1    3    3    0    0 -0.12742197283E+02 -0.53752215076E+01  0.16262704639E+02  0.21347884205E+02  0.00000000000E+00 0.  1.
</event>
<event>
 7    1  0.6889665E-012  0.5052886E+02  0.7816164E-02  0.1300439E+00
        -11   -1    0    0    0    0  0.00000000000E+00  0.00000000000E+00  0.45593999997E+02  0.45594000000E+02  0.51100000000E-03 0. -1.
         11   -1    0    0    0    0 -0.00000000000E+00 -0.00000000000E+00 -0.45593999997E+02  0.45594000000E+02  0.51100000000E-03 0.  1.
    9900012    2    1    2    0    0  0.76101682430E+00  0.37354522399E+02  0.16038266289E+02  0.50528862333E+02  0.30000007548E+02 0.  0.
        -12    1    1    2    0    0 -0.76101682430E+00 -0.37354522399E+02 -0.16038266289E+02  0.40659137667E+02  0.00000000000E+00 0.  1.
         11    1    3    3    0    0 -0.53437731920E+01  0.34050684512E+02  0.95364610224E+01  0.35762398085E+02  0.51100000000E-03 0. -1.
        -11    1    3    3    0    0  0.27537361742E+01  0.68842622788E+00  0.92692481479E+01  0.96941196133E+01  0.51100000000E-03 0.  1.
         12    1    3    3    0    0  0.33510538421E+01  0.26154116588E+01 -0.27674428810E+01  0.50723446351E+01  0.00000000000E+00 0. -1.
</event>
<event>
 7    1  0.6889665E-012  0.5052886E+02  0.7816164E-02  0.1300439E+00
        -11   -1    0    0    0    0  0.00000000000E+00  0.00000000000E+00  0.45593999997E+02  0.45594000000E+02  0.51100000000E-03 0. -1.
         11   -1    0    0    0    0 -0.00000000000E+00 -0.00000000000E+00 -0.45593999997E+02  0.45594000000E+02  0.51100000000E-03 0.  1.
    9900012    2    1    2    0    0  0.14629358905E+00  0.21551938076E+02  0.34476925602E+02  0.50528857908E+02  0.29999994098E+02 0.  0.
        -12    1    1    2    0    0 -0.14629358905E+00 -0.21551938076E+02 -0.34476925602E+02  0.40659142092E+02  0.00000000000E+00 0.  1.
         11    1    3    3    0    0  0.39061348254E+01  0.17487697891E+02  0.16633184823E+02  0.24448728074E+02  0.51100000000E-03 0. -1.
        -11    1    3    3    0    0 -0.10468578236E+02  0.59573390468E+01  0.11022716516E+02  0.16327317552E+02  0.51100000000E-03 0.  1.
        -12    1    3    3    0    0  0.67087369992E+01 -0.18930988616E+01  0.68210242627E+01  0.97528122824E+01  0.00000000000E+00 0.  1.
</event>
<event>
 7    1  0.6889665E-012  0.5052886E+02  0.7816164E-02  0.1300439E+00
        -11   -1    0    0    0    0  0.00000000000E+00  0.00000000000E+00  0.45593999997E+02  0.45594000000E+02  0.51100000000E-03 0.  1.
         11   -1    0    0    0    0 -0.00000000000E+00 -0.00000000000E+00 -0.45593999997E+02  0.45594000000E+02  0.51100000000E-03 0. -1.
    9900012    2    1    2    0    0  0.30562565670E+02  0.26599022180E+02 -0.34039548225E+01  0.50528864376E+02  0.30000013757E+02 0.  0.
         12    1    1    2    0    0 -0.30562565670E+02 -0.26599022180E+02  0.34039548225E+01  0.40659135624E+02  0.00000000000E+00 0. -1.
         11    1    3    3    0    0  0.17181019640E+02 -0.11890119156E+01 -0.78477759816E+01  0.18925875761E+02  0.51100000000E-03 0. -1.
        -11    1    3    3    0    0  0.90419980663E+01  0.12987012191E+02  0.14490877629E+01  0.15890880098E+02  0.51100000000E-03 0.  1.
         12    1    3    3    0    0  0.43395479647E+01  0.14801021904E+02  0.29947333961E+01  0.15712108518E+02  0.00000000000E+00 0. -1.
</event>
<event>
 7    1  0.6889665E-012  0.5052886E+02  0.7816164E-02  0.1300439E+00
        -11   -1    0    0    0    0  0.00000000000E+00  0.00000000000E+00  0.45593999997E+02  0.45594000000E+02  0.51100000000E-03 0. -1.
         11   -1    0    0    0    0 -0.00000000000E+00 -0.00000000000E+00 -0.45593999997E+02  0.45594000000E+02  0.51100000000E-03 0.  1.
    9900012    2    1    2    0    0 -0.41289044703E+01 -0.11374623158E+02  0.38816698864E+02  0.50528855704E+02  0.29999987399E+02 0.  0.
        -12    1    1    2    0    0  0.41289044703E+01  0.11374623158E+02 -0.38816698864E+02  0.40659144296E+02  0.00000000000E+00 0.  1.
         11    1    3    3    0    0 -0.15489857904E+02 -0.92534989546E+01  0.22697833045E+02  0.28995768070E+02  0.51100000000E-03 0. -1.
        -11    1    3    3    0    0 -0.68959439421E+00  0.13732311329E+01  0.80224870028E+00  0.17334668763E+01  0.51100000000E-03 0.  1.
         12    1    3    3    0    0  0.12050547828E+02 -0.34943553368E+01  0.15316617119E+02  0.19799620758E+02  0.00000000000E+00 0. -1.
</event>
<event>
 7    1  0.6889665E-012  0.5052886E+02  0.7816164E-02  0.1300439E+00
        -11   -1    0    0    0    0  0.00000000000E+00  0.00000000000E+00  0.45593999997E+02  0.45594000000E+02  0.51100000000E-03 0. -1.
         11   -1    0    0    0    0 -0.00000000000E+00 -0.00000000000E+00 -0.45593999997E+02  0.45594000000E+02  0.51100000000E-03 0.  1.
    9900012    2    1    2    0    0  0.28021978302E+02  0.26083899218E+02  0.13695433474E+02  0.50528856325E+02  0.29999989285E+02 0.  0.
        -12    1    1    2    0    0 -0.28021978302E+02 -0.26083899218E+02 -0.13695433474E+02  0.40659143675E+02  0.00000000000E+00 0.  1.
         11    1    3    3    0    0  0.16926178589E+02  0.21544250106E+02  0.20577144140E+01  0.27475160111E+02  0.51100000000E-03 0. -1.
        -11    1    3    3    0    0  0.14999123499E+02  0.18133599665E+01  0.82887371041E+01  0.17232676610E+02  0.51100000000E-03 0.  1.
        -12    1    3    3    0    0 -0.39033237863E+01  0.27262891457E+01  0.33489819555E+01  0.58210196035E+01  0.00000000000E+00 0.  1.
</event>
<event>
 7    1  0.6889665E-012  0.5052886E+02  0.7816164E-02  0.1300439E+00
        -11   -1    0    0    0    0  0.00000000000E+00  0.00000000000E+00  0.45593999997E+02  0.45594000000E+02  0.51100000000E-03 0. -1.
         11   -1    0    0    0    0 -0.00000000000E+00 -0.00000000000E+00 -0.45593999997E+02  0.45594000000E+02  0.51100000000E-03 0.  1.
    9900012    2    1    2    0    0  0.89083034177E+01  0.89596001138E+00  0.39661130702E+02  0.50528857083E+02  0.29999991591E+02 0.  0.
        -12    1    1    2    0    0 -0.89083034177E+01 -0.89596001138E+00 -0.39661130702E+02  0.40659142917E+02  0.00000000000E+00 0.  1.
         11    1    3    3    0    0  0.32308534944E+01  0.99895953161E+01  0.73730187039E+01  0.12829334899E+02  0.51100000000E-03 0. -1.
        -11    1    3    3    0    0 -0.26078948905E+01 -0.97866927696E+01  0.11577993052E+02  0.15382795406E+02  0.51100000000E-03 0.  1.
        -12    1    3    3    0    0  0.82853448137E+01  0.69305746486E+00  0.20710118946E+02  0.22316726778E+02  0.00000000000E+00 0.  1.
</event>
<event>
 7    1  0.6889665E-012  0.5052886E+02  0.7816164E-02  0.1300439E+00
        -11   -1    0    0    0    0  0.00000000000E+00  0.00000000000E+00  0.45593999997E+02  0.45594000000E+02  0.51100000000E-03 0. -1.
         11   -1    0    0    0    0 -0.00000000000E+00 -0.00000000000E+00 -0.45593999997E+02  0.45594000000E+02  0.51100000000E-03 0.  1.
    9900012    2    1    2    0    0  0.90211097259E+01  0.17677497997E+02 -0.35486493166E+02  0.50528861380E+02  0.30000004650E+02 0.  0.
         12    1    1    2    0    0 -0.90211097259E+01 -0.17677497997E+02  0.35486493166E+02  0.40659138620E+02  0.00000000000E+00 0. -1.
         11    1    3    3    0    0  0.38649017258E+01 -0.42124858165E+01 -0.11327181307E+01  0.58279973172E+01  0.51100000000E-03 0. -1.
        -11    1    3    3    0    0 -0.30455435369E+01  0.18906415691E+02 -0.27927770776E+02  0.33862785923E+02  0.51100000000E-03 0.  1.
        -12    1    3    3    0    0  0.82017515370E+01  0.29835681219E+01 -0.64260042597E+01  0.10838078140E+02  0.00000000000E+00 0.  1.
</event>
<event>
 7    1  0.6889665E-012  0.5052887E+02  0.7816164E-02  0.1300439E+00
        -11   -1    0    0    0    0  0.00000000000E+00  0.00000000000E+00  0.45593999997E+02  0.45594000000E+02  0.51100000000E-03 0. -1.
         11   -1    0    0    0    0 -0.00000000000E+00 -0.00000000000E+00 -0.45593999997E+02  0.45594000000E+02  0.51100000000E-03 0.  1.
    9900012    2    1    2    0    0  0.33416628056E+02  0.11884223701E+02 -0.19881129728E+02  0.50528866673E+02  0.30000020739E+02 0.  0.
         12    1    1    2    0    0 -0.33416628056E+02 -0.11884223701E+02  0.19881129728E+02  0.40659133327E+02  0.00000000000E+00 0. -1.
         11    1    3    3    0    0 -0.10480459100E+01 -0.57917035919E+00 -0.13968804089E+01  0.18398678410E+01  0.51100000000E-03 0. -1.
        -11    1    3    3    0    0  0.26031589028E+02  0.12157323136E+02 -0.40061420383E+00  0.28733336478E+02  0.51100000000E-03 0.  1.
        -12    1    3    3    0    0  0.84330849383E+01  0.30607092421E+00 -0.18083635116E+02  0.19955662354E+02  0.00000000000E+00 0.  1.
</event>
<event>
 7    1  0.6889665E-012  0.5052886E+02  0.7816164E-02  0.1300439E+00
        -11   -1    0    0    0    0  0.00000000000E+00  0.00000000000E+00  0.45593999997E+02  0.45594000000E+02  0.51100000000E-03 0. -1.
         11   -1    0    0    0    0 -0.00000000000E+00 -0.00000000000E+00 -0.45593999997E+02  0.45594000000E+02  0.51100000000E-03 0.  1.
    9900012    2    1    2    0    0 -0.87038640433E+01 -0.17172676134E+01 -0.39679457041E+02  0.50528861195E+02  0.30000004088E+02 0.  0.
         12    1    1    2    0    0  0.87038640433E+01  0.17172676134E+01  0.39679457041E+02  0.40659138805E+02  0.00000000000E+00 0. -1.
         11    1    3    3    0    0 -0.15397514844E+02 -0.58882831095E+01 -0.11796970925E+02  0.20271257104E+02  0.51100000000E-03 0. -1.
        -11    1    3    3    0    0  0.95793654833E+00  0.39380192549E+01 -0.20547483948E+02  0.20943369713E+02  0.51100000000E-03 0.  1.
         12    1    3    3    0    0  0.57357142520E+01  0.23299624116E+00 -0.73350021682E+01  0.93142343773E+01  0.00000000000E+00 0. -1.
</event>
<event>
 7    1  0.6889665E-012  0.5052884E+02  0.7816164E-02  0.1300439E+00
        -11   -1    0    0    0    0  0.00000000000E+00  0.00000000000E+00  0.45593999997E+02  0.45594000000E+02  0.51100000000E-03 0. -1.
         11   -1    0    0    0    0 -0.00000000000E+00 -0.00000000000E+00 -0.45593999997E+02  0.45594000000E+02  0.51100000000E-03 0.  1.
    9900012    2    1    2    0    0 -0.11826750000E+01 -0.38802314041E+01  0.40456297997E+02  0.50528844038E+02  0.29999951937E+02 0.  0.
        -12    1    1    2    0    0  0.11826750000E+01  0.38802314041E+01 -0.40456297997E+02  0.40659155962E+02  0.00000000000E+00 0.  1.
         11    1    3    3    0    0  0.40257888959E+01  0.21956401006E+01  0.18805019250E+02  0.19356047142E+02  0.51100000000E-03 0. -1.
        -11    1    3    3    0    0 -0.37019008412E+01  0.33670746020E+01 -0.22072723334E+01  0.54693064120E+01  0.51100000000E-03 0.  1.
        -12    1    3    3    0    0 -0.15065630547E+01 -0.94429461068E+01  0.23858551080E+02  0.25703490484E+02  0.00000000000E+00 0.  1.
</event>
<event>
 7    1  0.6902015E-012  0.5052882E+02  0.7816164E-02  0.1300439E+00
        -11   -1    0    0    0    0  0.00000000000E+00  0.00000000000E+00  0.45593999997E+02  0.45594000000E+02  0.51100000000E-03 0. -1.
         11   -1    0    0    0    0 -0.00000000000E+00 -0.00000000000E+00 -0.45593999997E+02  0.45594000000E+02  0.51100000000E-03 0.  1.
    9900012    2    1    2    0    0 -0.21529969947E+02  0.20762944370E+02 -0.27541415640E+02  0.50528818500E+02  0.29999874312E+02 0.  0.
         12    1    1    2    0    0  0.21529969947E+02 -0.20762944370E+02  0.27541415640E+02  0.40659181500E+02  0.00000000000E+00 0. -1.
         11    1    3    3    0    0  0.22179600068E+00 -0.42038224177E+01  0.12822813968E+01  0.44006320259E+01  0.51100000000E-03 0. -1.
        -11    1    3    3    0    0 -0.10221139413E+02  0.99745419288E+01 -0.21574067483E+02  0.25872834511E+02  0.51100000000E-03 0.  1.
         12    1    3    3    0    0 -0.11530626534E+02  0.14992224859E+02 -0.72496295535E+01  0.20255351963E+02  0.00000000000E+00 0. -1.
</event>
<event>
 7    1  0.6889665E-012  0.5052886E+02  0.7816164E-02  0.1300439E+00
        -11   -1    0    0    0    0  0.00000000000E+00  0.00000000000E+00  0.45593999997E+02  0.45594000000E+02  0.51100000000E-03 0. -1.
         11   -1    0    0    0    0 -0.00000000000E+00 -0.00000000000E+00 -0.45593999997E+02  0.45594000000E+02  0.51100000000E-03 0.  1.
    9900012    2    1    2    0    0 -0.32605190287E+02 -0.64123798241E+01  0.23429657365E+02  0.50528857204E+02  0.29999991956E+02 0.  0.
        -12    1    1    2    0    0  0.32605190287E+02  0.64123798241E+01 -0.23429657365E+02  0.40659142796E+02  0.00000000000E+00 0.  1.
         11    1    3    3    0    0 -0.20670382801E+02 -0.13917153483E+02  0.19644665249E+02  0.31731132335E+02  0.51100000000E-03 0. -1.
        -11    1    3    3    0    0 -0.13145207073E+02  0.45426908693E+01  0.88011122969E-01  0.13908280107E+02  0.51100000000E-03 0.  1.
        -12    1    3    3    0    0  0.12103995866E+01  0.29620827899E+01  0.36969809929E+01  0.48894447615E+01  0.00000000000E+00 0.  1.
</event>
<event>
 7    1  0.9723615E-012  0.5052886E+02  0.7816164E-02  0.1300439E+00
        -11   -1    0    0    0    0  0.00000000000E+00  0.00000000000E+00  0.45593999997E+02  0.45594000000E+02  0.51100000000E-03 0. -1.
         11   -1    0    0    0    0 -0.00000000000E+00 -0.00000000000E+00 -0.45593999997E+02  0.45594000000E+02  0.51100000000E-03 0.  1.
    9900012    2    1    2    0    0  0.16032316270E+02 -0.18104624175E+02  0.32685669797E+02  0.50528860910E+02  0.30000003221E+02 0.  0.
        -12    1    1    2    0    0 -0.16032316270E+02  0.18104624175E+02 -0.32685669797E+02  0.40659139090E+02  0.00000000000E+00 0.  1.
         11    1    3    3    0    0  0.19446093888E+02 -0.97721812338E+01  0.28415610172E+02  0.35792359453E+02  0.51100000000E-03 0. -1.
        -11    1    3    3    0    0  0.10594989114E+01 -0.68097662712E+01 -0.17237900252E+01  0.71040063995E+01  0.51100000000E-03 0.  1.
         12    1    3    3    0    0 -0.44732765295E+01 -0.15226766696E+01  0.59938496509E+01  0.76324950565E+01  0.00000000000E+00 0. -1.
</event>
<event>
 7    1  0.6889665E-012  0.5052885E+02  0.7816164E-02  0.1300439E+00
        -11   -1    0    0    0    0  0.00000000000E+00  0.00000000000E+00  0.45593999997E+02  0.45594000000E+02  0.51100000000E-03 0. -1.
         11   -1    0    0    0    0 -0.00000000000E+00 -0.00000000000E+00 -0.45593999997E+02  0.45594000000E+02  0.51100000000E-03 0.  1.
    9900012    2    1    2    0    0 -0.19174818008E+00 -0.28548224262E+02  0.28950450002E+02  0.50528850584E+02  0.29999971835E+02 0.  0.
        -12    1    1    2    0    0  0.19174818008E+00  0.28548224262E+02 -0.28950450002E+02  0.40659149416E+02  0.00000000000E+00 0.  1.
         11    1    3    3    0    0  0.10091997928E+02 -0.20022006963E+02  0.15776986951E+02  0.27416099331E+02  0.51100000000E-03 0. -1.
        -11    1    3    3    0    0 -0.12748106974E+02 -0.97552931674E+01  0.10006245624E+02  0.18915732287E+02  0.51100000000E-03 0.  1.
         12    1    3    3    0    0  0.24643608667E+01  0.12290758683E+01  0.31672174267E+01  0.41970189658E+01  0.00000000000E+00 0. -1.
</event>
<event>
 7    1  0.6889665E-012  0.5052886E+02  0.7816164E-02  0.1300439E+00
        -11   -1    0    0    0    0  0.00000000000E+00  0.00000000000E+00  0.45593999997E+02  0.45594000000E+02  0.51100000000E-03 0. -1.
         11   -1    0    0    0    0 -0.00000000000E+00 -0.00000000000E+00 -0.45593999997E+02  0.45594000000E+02  0.51100000000E-03 0.  1.
    9900012    2    1    2    0    0 -0.30844092870E+02 -0.18793228657E+02 -0.18671428993E+02  0.50528858729E+02  0.29999996591E+02 0.  0.
         12    1    1    2    0    0  0.30844092870E+02  0.18793228657E+02  0.18671428993E+02  0.40659141271E+02  0.00000000000E+00 0. -1.
         11    1    3    3    0    0 -0.43473894383E+01 -0.52520666534E+01 -0.93201700532E+00  0.68813265451E+01  0.51100000000E-03 0. -1.
        -11    1    3    3    0    0 -0.53240125274E+01 -0.11162973905E+02 -0.18586101397E+02  0.22324879869E+02  0.51100000000E-03 0.  1.
        -12    1    3    3    0    0 -0.21172690904E+02 -0.23781880987E+01  0.84668940950E+00  0.21322652314E+02  0.00000000000E+00 0.  1.
</event>
<event>
 7    1  0.6889665E-012  0.5052886E+02  0.7816164E-02  0.1300439E+00
        -11   -1    0    0    0    0  0.00000000000E+00  0.00000000000E+00  0.45593999997E+02  0.45594000000E+02  0.51100000000E-03 0. -1.
         11   -1    0    0    0    0 -0.00000000000E+00 -0.00000000000E+00 -0.45593999997E+02  0.45594000000E+02  0.51100000000E-03 0.  1.
    9900012    2    1    2    0    0  0.19940503873E+02 -0.61704683639E+01 -0.34892226292E+02  0.50528857975E+02  0.29999994302E+02 0.  0.
         12    1    1    2    0    0 -0.19940503873E+02  0.61704683639E+01  0.34892226292E+02  0.40659142025E+02  0.00000000000E+00 0. -1.
         11    1    3    3    0    0 -0.49919157850E+01 -0.70627336236E+01 -0.17244807688E+02  0.19292092211E+02  0.51100000000E-03 0. -1.
        -11    1    3    3    0    0  0.19116872631E+02 -0.21023616483E+01 -0.13267602770E+02  0.23364589173E+02  0.51100000000E-03 0.  1.
        -12    1    3    3    0    0  0.58155470270E+01  0.29946269080E+01 -0.43798158343E+01  0.78721765913E+01  0.00000000000E+00 0.  1.
</event>
<event>
 7    1  0.6889665E-012  0.5052886E+02  0.7816164E-02  0.1300439E+00
        -11   -1    0    0    0    0  0.00000000000E+00  0.00000000000E+00  0.45593999997E+02  0.45594000000E+02  0.51100000000E-03 0. -1.
         11   -1    0    0    0    0 -0.00000000000E+00 -0.00000000000E+00 -0.45593999997E+02  0.45594000000E+02  0.51100000000E-03 0.  1.
    9900012    2    1    2    0    0  0.17808939439E+02 -0.20998037862E+01  0.36491067567E+02  0.50528861887E+02  0.30000006192E+02 0.  0.
        -12    1    1    2    0    0 -0.17808939439E+02  0.20998037862E+01 -0.36491067567E+02  0.40659138113E+02  0.00000000000E+00 0.  1.
         11    1    3    3    0    0  0.30390540557E+01 -0.43947629141E+00  0.39355354162E+01  0.49917359944E+01  0.51100000000E-03 0. -1.
        -11    1    3    3    0    0  0.22490406444E+02  0.19916409598E+01  0.18968779595E+02  0.29488974471E+02  0.51100000000E-03 0.  1.
        -12    1    3    3    0    0 -0.77205210613E+01 -0.36519684547E+01  0.13586752556E+02  0.16048151422E+02  0.00000000000E+00 0.  1.
</event>
<event>
 7    1  0.6889665E-012  0.5052886E+02  0.7816164E-02  0.1300439E+00
        -11   -1    0    0    0    0  0.00000000000E+00  0.00000000000E+00  0.45593999997E+02  0.45594000000E+02  0.51100000000E-03 0.  1.
         11   -1    0    0    0    0 -0.00000000000E+00 -0.00000000000E+00 -0.45593999997E+02  0.45594000000E+02  0.51100000000E-03 0. -1.
    9900012    2    1    2    0    0 -0.19647699532E+02 -0.34924692035E+02  0.68846978234E+01  0.50528864805E+02  0.30000015063E+02 0.  0.
        -12    1    1    2    0    0  0.19647699532E+02  0.34924692035E+02 -0.68846978234E+01  0.40659135195E+02  0.00000000000E+00 0.  1.
         11    1    3    3    0    0 -0.21670901662E+02 -0.22125073456E+02  0.23845563473E+00  0.30971014120E+02  0.51100000000E-03 0. -1.
        -11    1    3    3    0    0  0.42151120514E+01 -0.39365255642E+01  0.84702083912E+01  0.10247332998E+02  0.51100000000E-03 0.  1.
         12    1    3    3    0    0 -0.21919099218E+01 -0.88630930153E+01 -0.18239662025E+01  0.93105176876E+01  0.00000000000E+00 0. -1.
</event>
<event>
 7    1  0.6889665E-012  0.5052886E+02  0.7816164E-02  0.1300439E+00
        -11   -1    0    0    0    0  0.00000000000E+00  0.00000000000E+00  0.45593999997E+02  0.45594000000E+02  0.51100000000E-03 0. -1.
         11   -1    0    0    0    0 -0.00000000000E+00 -0.00000000000E+00 -0.45593999997E+02  0.45594000000E+02  0.51100000000E-03 0.  1.
    9900012    2    1    2    0    0 -0.16372710529E+02  0.59851006970E+01 -0.36732525384E+02  0.50528862017E+02  0.30000006588E+02 0.  0.
         12    1    1    2    0    0  0.16372710529E+02 -0.59851006970E+01  0.36732525384E+02  0.40659137983E+02  0.00000000000E+00 0. -1.
         11    1    3    3    0    0  0.67294598853E+01  0.37749256583E+01 -0.20048788680E+02  0.21482309510E+02  0.51100000000E-03 0. -1.
        -11    1    3    3    0    0 -0.13915461241E+02  0.38656373471E+01 -0.10090405080E+02  0.17618157923E+02  0.51100000000E-03 0.  1.
         12    1    3    3    0    0 -0.91867091735E+01 -0.16554623084E+01 -0.65933316236E+01  0.11428394585E+02  0.00000000000E+00 0. -1.
</event>
<event>
 7    1  0.6889665E-012  0.5052886E+02  0.7816164E-02  0.1300439E+00
        -11   -1    0    0    0    0  0.00000000000E+00  0.00000000000E+00  0.45593999997E+02  0.45594000000E+02  0.51100000000E-03 0. -1.
         11   -1    0    0    0    0 -0.00000000000E+00 -0.00000000000E+00 -0.45593999997E+02  0.45594000000E+02  0.51100000000E-03 0.  1.
    9900012    2    1    2    0    0 -0.23301495178E+01 -0.10632577556E+02  0.39175044234E+02  0.50528863352E+02  0.30000010644E+02 0.  0.
        -12    1    1    2    0    0  0.23301495178E+01  0.10632577556E+02 -0.39175044234E+02  0.40659136648E+02  0.00000000000E+00 0.  1.
         11    1    3    3    0    0  0.88807590783E+01 -0.82616695921E+01  0.26577217672E+02  0.29214235669E+02  0.51100000000E-03 0. -1.
        -11    1    3    3    0    0 -0.12529180932E+02 -0.37266536695E+01  0.13851706533E+02  0.19045684460E+02  0.51100000000E-03 0.  1.
         12    1    3    3    0    0  0.13182723360E+01  0.13557457054E+01 -0.12538799708E+01  0.22689432234E+01  0.00000000000E+00 0. -1.
</event>
<event>
 7    1  0.6889665E-012  0.5052886E+02  0.7816164E-02  0.1300439E+00
        -11   -1    0    0    0    0  0.00000000000E+00  0.00000000000E+00  0.45593999997E+02  0.45594000000E+02  0.51100000000E-03 0. -1.
         11   -1    0    0    0    0 -0.00000000000E+00 -0.00000000000E+00 -0.45593999997E+02  0.45594000000E+02  0.51100000000E-03 0.  1.
    9900012    2    1    2    0    0  0.23456970556E+02 -0.22147064449E+02 -0.24747603316E+02  0.50528858331E+02  0.29999995384E+02 0.  0.
         12    1    1    2    0    0 -0.23456970556E+02  0.22147064449E+02  0.24747603316E+02  0.40659141669E+02  0.00000000000E+00 0. -1.
         11    1    3    3    0    0  0.59893944664E+01 -0.86920359217E-01 -0.19993129717E+02  0.20871167609E+02  0.51100000000E-03 0. -1.
        -11    1    3    3    0    0  0.15220791626E+02 -0.13565389104E+02 -0.44333362185E+01  0.20864964643E+02  0.51100000000E-03 0.  1.
         12    1    3    3    0    0  0.22467844631E+01 -0.84947549856E+01 -0.32113738082E+00  0.87927260793E+01  0.00000000000E+00 0. -1.
</event>
<event>
 7    1  0.6889665E-012  0.5052885E+02  0.7816164E-02  0.1300439E+00
        -11   -1    0    0    0    0  0.00000000000E+00  0.00000000000E+00  0.45593999997E+02  0.45594000000E+02  0.51100000000E-03 0. -1.
         11   -1    0    0    0    0 -0.00000000000E+00 -0.00000000000E+00 -0.45593999997E+02  0.45594000000E+02  0.51100000000E-03 0.  1.
    9900012    2    1    2    0    0  0.98548473364E+01 -0.21313267556E+02 -0.33193269639E+02  0.50528849255E+02  0.29999967796E+02 0.  0.
         12    1    1    2    0    0 -0.98548473364E+01  0.21313267556E+02  0.33193269639E+02  0.40659150745E+02  0.00000000000E+00 0. -1.
         11    1    3    3    0    0  0.23190780021E+01  0.40250801887E+01 -0.28219181708E+01  0.54353119256E+01  0.51100000000E-03 0. -1.
        -11    1    3    3    0    0  0.11444434540E+02 -0.11909887731E+02 -0.25304645855E+02  0.30218299254E+02  0.51100000000E-03 0.  1.
        -12    1    3    3    0    0 -0.39086652060E+01 -0.13428460013E+02 -0.50667056138E+01  0.14875238075E+02  0.00000000000E+00 0.  1.
</event>
<event>
 7    1  0.6889665E-012  0.5052886E+02  0.7816164E-02  0.1300439E+00
        -11   -1    0    0    0    0  0.00000000000E+00  0.00000000000E+00  0.45593999997E+02  0.45594000000E+02  0.51100000000E-03 0. -1.
         11   -1    0    0    0    0 -0.00000000000E+00 -0.00000000000E+00 -0.45593999997E+02  0.45594000000E+02  0.51100000000E-03 0.  1.
    9900012    2    1    2    0    0  0.54065618843E+01  0.33831826140E+02  0.21893892305E+02  0.50528857220E+02  0.29999992006E+02 0.  0.
        -12    1    1    2    0    0 -0.54065618843E+01 -0.33831826140E+02 -0.21893892305E+02  0.40659142780E+02  0.00000000000E+00 0.  1.
         11    1    3    3    0    0  0.10643359658E+02  0.22972214246E+02  0.33861256036E+00  0.25320315774E+02  0.51100000000E-03 0. -1.
        -11    1    3    3    0    0 -0.50592348829E+01  0.92724362925E+01  0.14292024115E+02  0.17771772167E+02  0.51100000000E-03 0.  1.
        -12    1    3    3    0    0 -0.17756289104E+00  0.15871756017E+01  0.72632556294E+01  0.74367692790E+01  0.00000000000E+00 0.  1.
</event>
<event>
 7    1  0.6889665E-012  0.5052886E+02  0.7816164E-02  0.1300439E+00
        -11   -1    0    0    0    0  0.00000000000E+00  0.00000000000E+00  0.45593999997E+02  0.45594000000E+02  0.51100000000E-03 0. -1.
         11   -1    0    0    0    0 -0.00000000000E+00 -0.00000000000E+00 -0.45593999997E+02  0.45594000000E+02  0.51100000000E-03 0.  1.
    9900012    2    1    2    0    0  0.29364403609E+01 -0.14068646208E+02 -0.38034404873E+02  0.50528862747E+02  0.30000008806E+02 0.  0.
         12    1    1    2    0    0 -0.29364403609E+01  0.14068646208E+02  0.38034404873E+02  0.40659137253E+02  0.00000000000E+00 0. -1.
         11    1    3    3    0    0  0.39479999154E+01  0.27734802452E+01 -0.23662683533E+01  0.53738368214E+01  0.51100000000E-03 0. -1.
        -11    1    3    3    0    0 -0.14210747373E+01 -0.21268374375E+02 -0.21376456268E+02  0.30188012270E+02  0.51100000000E-03 0.  1.
        -12    1    3    3    0    0  0.40951518288E+00  0.44262479218E+01 -0.14291680251E+02  0.14967013655E+02  0.00000000000E+00 0.  1.
</event>
<event>
 7    1  0.6889665E-012  0.5052883E+02  0.7816164E-02  0.1300439E+00
        -11   -1    0    0    0    0  0.00000000000E+00  0.00000000000E+00  0.45593999997E+02  0.45594000000E+02  0.51100000000E-03 0. -1.
         11   -1    0    0    0    0 -0.00000000000E+00 -0.00000000000E+00 -0.45593999997E+02  0.45594000000E+02  0.51100000000E-03 0.  1.
    9900012    2    1    2    0    0  0.85526282942E+00 -0.26313722142E+02 -0.30984263412E+02  0.50528830965E+02  0.29999912200E+02 0.  0.
         12    1    1    2    0    0 -0.85526282942E+00  0.26313722142E+02  0.30984263412E+02  0.40659169035E+02  0.00000000000E+00 0. -1.
         11    1    3    3    0    0 -0.11855853102E+01  0.69254876988E+00 -0.20534415056E+02  0.20580268178E+02  0.51100000000E-03 0. -1.
        -11    1    3    3    0    0  0.45492996367E+01 -0.13789395881E+02 -0.42056742636E+01  0.15117250485E+02  0.51100000000E-03 0.  1.
         12    1    3    3    0    0 -0.25084514971E+01 -0.13216875031E+02 -0.62441740924E+01  0.14831312301E+02  0.00000000000E+00 0. -1.
</event>
<event>
 7    1  0.6889665E-012  0.5052887E+02  0.7816164E-02  0.1300439E+00
        -11   -1    0    0    0    0  0.00000000000E+00  0.00000000000E+00  0.45593999997E+02  0.45594000000E+02  0.51100000000E-03 0. -1.
         11   -1    0    0    0    0 -0.00000000000E+00 -0.00000000000E+00 -0.45593999997E+02  0.45594000000E+02  0.51100000000E-03 0.  1.
    9900012    2    1    2    0    0 -0.12414265320E+02 -0.15846772367E+02 -0.35326062421E+02  0.50528869856E+02  0.30000030415E+02 0.  0.
         12    1    1    2    0    0  0.12414265320E+02  0.15846772367E+02  0.35326062421E+02  0.40659130144E+02  0.00000000000E+00 0. -1.
         11    1    3    3    0    0 -0.72752057043E+01  0.69253262221E+01 -0.76638789198E+01  0.12634231345E+02  0.51100000000E-03 0. -1.
        -11    1    3    3    0    0 -0.52925660749E+01 -0.10753616264E+02 -0.67000670496E+01  0.13731074872E+02  0.51100000000E-03 0.  1.
         12    1    3    3    0    0  0.15350645879E+00 -0.12018482325E+02 -0.20962116452E+02  0.24163563639E+02  0.00000000000E+00 0. -1.
</event>
<event>
 7    1  0.6889665E-012  0.5052887E+02  0.7816164E-02  0.1300439E+00
        -11   -1    0    0    0    0  0.00000000000E+00  0.00000000000E+00  0.45593999997E+02  0.45594000000E+02  0.51100000000E-03 0. -1.
         11   -1    0    0    0    0 -0.00000000000E+00 -0.00000000000E+00 -0.45593999997E+02  0.45594000000E+02  0.51100000000E-03 0.  1.
    9900012    2    1    2    0    0  0.10188100716E+02  0.24066769667E+02 -0.31147360802E+02  0.50528869619E+02  0.30000029694E+02 0.  0.
         12    1    1    2    0    0 -0.10188100716E+02 -0.24066769667E+02  0.31147360802E+02  0.40659130381E+02  0.00000000000E+00 0. -1.
         11    1    3    3    0    0  0.12548739949E+02  0.15856589722E+02 -0.35633671708E+01  0.20532897939E+02  0.51100000000E-03 0. -1.
        -11    1    3    3    0    0  0.89249257890E-01  0.10265689017E+01 -0.16672772130E+02  0.16704584398E+02  0.51100000000E-03 0.  1.
         12    1    3    3    0    0 -0.24498884906E+01  0.71836110443E+01 -0.10911221501E+02  0.13291387282E+02  0.00000000000E+00 0. -1.
</event>
<event>
 7    1  0.6889665E-012  0.5052886E+02  0.7816164E-02  0.1300439E+00
        -11   -1    0    0    0    0  0.00000000000E+00  0.00000000000E+00  0.45593999997E+02  0.45594000000E+02  0.51100000000E-03 0. -1.
         11   -1    0    0    0    0 -0.00000000000E+00 -0.00000000000E+00 -0.45593999997E+02  0.45594000000E+02  0.51100000000E-03 0.  1.
    9900012    2    1    2    0    0 -0.22226753276E+02  0.87990619765E+01  0.32889414401E+02  0.50528860407E+02  0.30000001692E+02 0.  0.
        -12    1    1    2    0    0  0.22226753276E+02 -0.87990619765E+01 -0.32889414401E+02  0.40659139593E+02  0.00000000000E+00 0.  1.
         11    1    3    3    0    0 -0.14304601686E+02  0.11454980841E+02  0.35321318672E+02  0.39792383297E+02  0.51100000000E-03 0. -1.
        -11    1    3    3    0    0 -0.19274728171E+01 -0.37925840275E+01 -0.26827356455E+00  0.42627240156E+01  0.51100000000E-03 0.  1.
        -12    1    3    3    0    0 -0.59946787729E+01  0.11366651630E+01 -0.21636307072E+01  0.64737530938E+01  0.00000000000E+00 0.  1.
</event>
<event>
 7    1  0.6889665E-012  0.5052886E+02  0.7816164E-02  0.1300439E+00
        -11   -1    0    0    0    0  0.00000000000E+00  0.00000000000E+00  0.45593999997E+02  0.45594000000E+02  0.51100000000E-03 0. -1.
         11   -1    0    0    0    0 -0.00000000000E+00 -0.00000000000E+00 -0.45593999997E+02  0.45594000000E+02  0.51100000000E-03 0.  1.
    9900012    2    1    2    0    0  0.10705628776E+02  0.72936728244E+01  0.38540332913E+02  0.50528863121E+02  0.30000009942E+02 0.  0.
        -12    1    1    2    0    0 -0.10705628776E+02 -0.72936728244E+01 -0.38540332913E+02  0.40659136879E+02  0.00000000000E+00 0.  1.
         11    1    3    3    0    0  0.46673341825E+01  0.17015262780E+02  0.29409674514E+02  0.34296240773E+02  0.51100000000E-03 0. -1.
        -11    1    3    3    0    0  0.15126504552E+01 -0.66013415845E+01  0.16872902410E+01  0.69794534695E+01  0.51100000000E-03 0.  1.
         12    1    3    3    0    0  0.45256441384E+01 -0.31202483713E+01  0.74433681573E+01  0.92531688783E+01  0.00000000000E+00 0. -1.
</event>
<event>
 7    1  0.6889665E-012  0.5052883E+02  0.7816164E-02  0.1300439E+00
        -11   -1    0    0    0    0  0.00000000000E+00  0.00000000000E+00  0.45593999997E+02  0.45594000000E+02  0.51100000000E-03 0. -1.
         11   -1    0    0    0    0 -0.00000000000E+00 -0.00000000000E+00 -0.45593999997E+02  0.45594000000E+02  0.51100000000E-03 0.  1.
    9900012    2    1    2    0    0  0.97111426715E+01 -0.25426796477E+02  0.30204962357E+02  0.50528831021E+02  0.29999912371E+02 0.  0.
        -12    1    1    2    0    0 -0.97111426715E+01  0.25426796477E+02 -0.30204962357E+02  0.40659168979E+02  0.00000000000E+00 0.  1.
         11    1    3    3    0    0  0.15819609678E+01  0.53769254638E+01  0.61031616889E+01  0.82862844997E+01  0.51100000000E-03 0. -1.
        -11    1    3    3    0    0  0.28242009416E+01 -0.15066260216E+02  0.33977622156E+01  0.15700735530E+02  0.51100000000E-03 0.  1.
         12    1    3    3    0    0  0.53049807621E+01 -0.15737461726E+02  0.20704038453E+02  0.26541810991E+02  0.00000000000E+00 0. -1.
</event>
<event>
 7    1  0.6889665E-012  0.5052885E+02  0.7816164E-02  0.1300439E+00
        -11   -1    0    0    0    0  0.00000000000E+00  0.00000000000E+00  0.45593999997E+02  0.45594000000E+02  0.51100000000E-03 0. -1.
         11   -1    0    0    0    0 -0.00000000000E+00 -0.00000000000E+00 -0.45593999997E+02  0.45594000000E+02  0.51100000000E-03 0.  1.
    9900012    2    1    2    0    0  0.29732717348E+02 -0.25149704962E+02 -0.11688628599E+02  0.50528853685E+02  0.29999981261E+02 0.  0.
         12    1    1    2    0    0 -0.29732717348E+02  0.25149704962E+02  0.11688628599E+02  0.40659146315E+02  0.00000000000E+00 0. -1.
         11    1    3    3    0    0  0.27288956979E+01 -0.15119786034E+02  0.52429801778E+01  0.16234027315E+02  0.51100000000E-03 0. -1.
        -11    1    3    3    0    0  0.21827831506E+02 -0.11133172763E+02 -0.13341714865E+02  0.27899876699E+02  0.51100000000E-03 0.  1.
         12    1    3    3    0    0  0.51759901441E+01  0.11032538360E+01 -0.35898939118E+01  0.63949496712E+01  0.00000000000E+00 0. -1.
</event>
<event>
 7    1  0.6889665E-012  0.5052884E+02  0.7816164E-02  0.1300439E+00
        -11   -1    0    0    0    0  0.00000000000E+00  0.00000000000E+00  0.45593999997E+02  0.45594000000E+02  0.51100000000E-03 0. -1.
         11   -1    0    0    0    0 -0.00000000000E+00 -0.00000000000E+00 -0.45593999997E+02  0.45594000000E+02  0.51100000000E-03 0.  1.
    9900012    2    1    2    0    0 -0.40489343836E+02 -0.26954081684E+01 -0.25523908531E+01  0.50528844960E+02  0.29999954742E+02 0.  0.
         12    1    1    2    0    0  0.40489343836E+02  0.26954081684E+01  0.25523908531E+01  0.40659155040E+02  0.00000000000E+00 0. -1.
         11    1    3    3    0    0 -0.24606109433E+02 -0.15878955746E+01 -0.41192375315E+01  0.24999003018E+02  0.51100000000E-03 0. -1.
        -11    1    3    3    0    0 -0.45334171398E+01 -0.42511397816E+01  0.94840301690E+01  0.11338910394E+02  0.51100000000E-03 0.  1.
        -12    1    3    3    0    0 -0.11349817263E+02  0.31436271878E+01 -0.79171834905E+01  0.14190931549E+02  0.00000000000E+00 0.  1.
</event>
<event>
 7    1  0.6889665E-012  0.5052886E+02  0.7816164E-02  0.1300439E+00
        -11   -1    0    0    0    0  0.00000000000E+00  0.00000000000E+00  0.45593999997E+02  0.45594000000E+02  0.51100000000E-03 0. -1.
         11   -1    0    0    0    0 -0.00000000000E+00 -0.00000000000E+00 -0.45593999997E+02  0.45594000000E+02  0.51100000000E-03 0.  1.
    9900012    2    1    2    0    0 -0.30909461088E+02  0.36963750634E+00  0.26412763073E+02  0.50528862408E+02  0.30000007774E+02 0.  0.
        -12    1    1    2    0    0  0.30909461088E+02 -0.36963750634E+00 -0.26412763073E+02  0.40659137592E+02  0.00000000000E+00 0.  1.
         11    1    3    3    0    0 -0.13381841063E+02 -0.33866025381E+01  0.58691740971E+01  0.14999665057E+02  0.51100000000E-03 0. -1.
        -11    1    3    3    0    0  0.31667986369E+01 -0.45399362494E+01  0.51586894534E+00  0.55592945403E+01  0.51100000000E-03 0.  1.
        -12    1    3    3    0    0 -0.20694418661E+02  0.82961762938E+01  0.20027720030E+02  0.29969902810E+02  0.00000000000E+00 0.  1.
</event>
<event>
 7    1  0.6889665E-012  0.5052886E+02  0.7816164E-02  0.1300439E+00
        -11   -1    0    0    0    0  0.00000000000E+00  0.00000000000E+00  0.45593999997E+02  0.45594000000E+02  0.51100000000E-03 0. -1.
         11   -1    0    0    0    0 -0.00000000000E+00 -0.00000000000E+00 -0.45593999997E+02  0.45594000000E+02  0.51100000000E-03 0.  1.
    9900012    2    1    2    0    0  0.16177990016E+02 -0.88928058818E+01  0.36226460516E+02  0.50528858360E+02  0.29999995471E+02 0.  0.
        -12    1    1    2    0    0 -0.16177990016E+02  0.88928058818E+01 -0.36226460516E+02  0.40659141640E+02  0.00000000000E+00 0.  1.
         11    1    3    3    0    0  0.13054020522E+02 -0.18307801416E+02  0.27711702705E+02  0.35686433159E+02  0.51100000000E-03 0. -1.
        -11    1    3    3    0    0  0.26921563614E+01  0.58019948345E+01  0.91345825748E+01  0.11151298086E+02  0.51100000000E-03 0.  1.
         12    1    3    3    0    0  0.43181313317E+00  0.36130007000E+01 -0.61982476462E+00  0.36911271150E+01  0.00000000000E+00 0. -1.
</event>
<event>
 7    1  0.6982489E-012  0.5052886E+02  0.7816164E-02  0.1300439E+00
        -11   -1    0    0    0    0  0.00000000000E+00  0.00000000000E+00  0.45593999997E+02  0.45594000000E+02  0.51100000000E-03 0. -1.
         11   -1    0    0    0    0 -0.00000000000E+00 -0.00000000000E+00 -0.45593999997E+02  0.45594000000E+02  0.51100000000E-03 0.  1.
    9900012    2    1    2    0    0  0.10821467177E+02  0.13789337395E+02  0.36686727268E+02  0.50528856682E+02  0.29999990372E+02 0.  0.
        -12    1    1    2    0    0 -0.10821467177E+02 -0.13789337395E+02 -0.36686727268E+02  0.40659143318E+02  0.00000000000E+00 0.  1.
         11    1    3    3    0    0  0.18908505696E+02  0.11808757831E+02  0.31712673097E+02  0.38764313285E+02  0.51100000000E-03 0. -1.
        -11    1    3    3    0    0 -0.15125099112E+01 -0.92854249781E+00 -0.13179747136E+01  0.22106413116E+01  0.51100000000E-03 0.  1.
         12    1    3    3    0    0 -0.65745286082E+01  0.29091220619E+01  0.62920288846E+01  0.95539020864E+01  0.00000000000E+00 0. -1.
</event>
<event>
 7    1  0.6889665E-012  0.5052886E+02  0.7816164E-02  0.1300439E+00
        -11   -1    0    0    0    0  0.00000000000E+00  0.00000000000E+00  0.45593999997E+02  0.45594000000E+02  0.51100000000E-03 0. -1.
         11   -1    0    0    0    0 -0.00000000000E+00 -0.00000000000E+00 -0.45593999997E+02  0.45594000000E+02  0.51100000000E-03 0.  1.
    9900012    2    1    2    0    0  0.26309685548E+02 -0.21100978098E+02  0.22709352833E+02  0.50528861588E+02  0.30000005284E+02 0.  0.
        -12    1    1    2    0    0 -0.26309685548E+02  0.21100978098E+02 -0.22709352833E+02  0.40659138412E+02  0.00000000000E+00 0.  1.
         11    1    3    3    0    0  0.92182628409E+00 -0.54233328229E+01  0.11583756699E+02  0.12823639192E+02  0.51100000000E-03 0. -1.
        -11    1    3    3    0    0  0.49255284027E+01  0.47544175787E+01  0.37955192751E+00  0.68563384168E+01  0.51100000000E-03 0.  1.
         12    1    3    3    0    0  0.20462330861E+02 -0.20432062853E+02  0.10746044207E+02  0.30848883980E+02  0.00000000000E+00 0. -1.
</event>
<event>
 7    1  0.6889665E-012  0.5052889E+02  0.7816164E-02  0.1300439E+00
        -11   -1    0    0    0    0  0.00000000000E+00  0.00000000000E+00  0.45593999997E+02  0.45594000000E+02  0.51100000000E-03 0.  1.
         11   -1    0    0    0    0 -0.00000000000E+00 -0.00000000000E+00 -0.45593999997E+02  0.45594000000E+02  0.51100000000E-03 0. -1.
    9900012    2    1    2    0    0 -0.13374313816E+01 -0.40453276908E+02  0.38609274422E+01  0.50528891598E+02  0.30000096501E+02 0.  0.
         12    1    1    2    0    0  0.13374313816E+01  0.40453276908E+02 -0.38609274422E+01  0.40659108402E+02  0.00000000000E+00 0. -1.
         11    1    3    3    0    0  0.67756724231E+01 -0.18453356231E+02 -0.52652128109E+01  0.20350885956E+02  0.51100000000E-03 0. -1.
        -11    1    3    3    0    0 -0.86158713947E+01 -0.81104562207E+01 -0.24574644597E+01  0.12085192255E+02  0.51100000000E-03 0.  1.
         12    1    3    3    0    0  0.50276759001E+00 -0.13889464456E+02  0.11583604713E+02  0.18092813388E+02  0.00000000000E+00 0. -1.
</event>
<event>
 7    1  0.6889665E-012  0.5052886E+02  0.7816164E-02  0.1300439E+00
        -11   -1    0    0    0    0  0.00000000000E+00  0.00000000000E+00  0.45593999997E+02  0.45594000000E+02  0.51100000000E-03 0. -1.
         11   -1    0    0    0    0 -0.00000000000E+00 -0.00000000000E+00 -0.45593999997E+02  0.45594000000E+02  0.51100000000E-03 0.  1.
    9900012    2    1    2    0    0 -0.18390584104E+02 -0.13361925891E+02  0.33710690944E+02  0.50528864113E+02  0.30000012957E+02 0.  0.
        -12    1    1    2    0    0  0.18390584104E+02  0.13361925891E+02 -0.33710690944E+02  0.40659135887E+02  0.00000000000E+00 0.  1.
         11    1    3    3    0    0 -0.18640219746E+02 -0.75082528231E+01  0.43906365465E+01  0.20569621829E+02  0.51100000000E-03 0. -1.
        -11    1    3    3    0    0 -0.75211455553E+00 -0.24737174795E+01  0.14219537880E+02  0.14452688755E+02  0.51100000000E-03 0.  1.
         12    1    3    3    0    0  0.10017501979E+01 -0.33799555884E+01  0.15100516518E+02  0.15506553529E+02  0.00000000000E+00 0. -1.
</event>
<event>
 7    1  0.6889665E-012  0.5052887E+02  0.7816164E-02  0.1300439E+00
        -11   -1    0    0    0    0  0.00000000000E+00  0.00000000000E+00  0.45593999997E+02  0.45594000000E+02  0.51100000000E-03 0. -1.
         11   -1    0    0    0    0 -0.00000000000E+00 -0.00000000000E+00 -0.45593999997E+02  0.45594000000E+02  0.51100000000E-03 0.  1.
    9900012    2    1    2    0    0  0.30626796384E+02 -0.13768357208E+02 -0.22925899064E+02  0.50528866157E+02  0.30000019171E+02 0.  0.
         12    1    1    2    0    0 -0.30626796384E+02  0.13768357208E+02  0.22925899064E+02  0.40659133843E+02  0.00000000000E+00 0. -1.
         11    1    3    3    0    0  0.35559290625E+01  0.71543575561E+01 -0.91460269108E+00  0.80415148997E+01  0.51100000000E-03 0. -1.
        -11    1    3    3    0    0  0.20370187326E+02 -0.20147280216E+02 -0.21307613062E+02  0.35705347029E+02  0.51100000000E-03 0.  1.
        -12    1    3    3    0    0  0.67006799962E+01 -0.77543454825E+00 -0.70368331047E+00  0.67820042282E+01  0.00000000000E+00 0.  1.
</event>
<event>
 7    1  0.6889665E-012  0.5052886E+02  0.7816164E-02  0.1300439E+00
        -11   -1    0    0    0    0  0.00000000000E+00  0.00000000000E+00  0.45593999997E+02  0.45594000000E+02  0.51100000000E-03 0.  1.
         11   -1    0    0    0    0 -0.00000000000E+00 -0.00000000000E+00 -0.45593999997E+02  0.45594000000E+02  0.51100000000E-03 0. -1.
    9900012    2    1    2    0    0  0.29973122877E+02 -0.64341617274E+01  0.26709161630E+02  0.50528857767E+02  0.29999993669E+02 0.  0.
        -12    1    1    2    0    0 -0.29973122877E+02  0.64341617274E+01 -0.26709161630E+02  0.40659142233E+02  0.00000000000E+00 0.  1.
         11    1    3    3    0    0  0.14777555091E+02 -0.11363809539E+01  0.66952562819E+01  0.16263270061E+02  0.51100000000E-03 0. -1.
        -11    1    3    3    0    0 -0.50607515228E+01 -0.28413751579E+01  0.17536673333E+00  0.58064939952E+01  0.51100000000E-03 0.  1.
        -12    1    3    3    0    0  0.20256319309E+02 -0.24564056157E+01  0.19838538614E+02  0.28459093711E+02  0.00000000000E+00 0.  1.
</event>
<event>
 7    1  0.6889665E-012  0.5052886E+02  0.7816164E-02  0.1300439E+00
        -11   -1    0    0    0    0  0.00000000000E+00  0.00000000000E+00  0.45593999997E+02  0.45594000000E+02  0.51100000000E-03 0. -1.
         11   -1    0    0    0    0 -0.00000000000E+00 -0.00000000000E+00 -0.45593999997E+02  0.45594000000E+02  0.51100000000E-03 0.  1.
    9900012    2    1    2    0    0  0.28816646655E+02  0.82355344899E+01 -0.27476213348E+02  0.50528862617E+02  0.30000008412E+02 0.  0.
         12    1    1    2    0    0 -0.28816646655E+02 -0.82355344899E+01  0.27476213348E+02  0.40659137383E+02  0.00000000000E+00 0. -1.
         11    1    3    3    0    0 -0.56099937718E+00 -0.55971977106E+00  0.10580140309E+01  0.13218927619E+01  0.51100000000E-03 0. -1.
        -11    1    3    3    0    0  0.16552149428E+02  0.17460586146E+02 -0.21250997067E+02  0.32100632328E+02  0.51100000000E-03 0.  1.
        -12    1    3    3    0    0  0.12825496604E+02 -0.86653318853E+01 -0.72832303114E+01  0.17106337527E+02  0.00000000000E+00 0.  1.
</event>
<event>
 7    1  0.6889665E-012  0.5052883E+02  0.7816164E-02  0.1300439E+00
        -11   -1    0    0    0    0  0.00000000000E+00  0.00000000000E+00  0.45593999997E+02  0.45594000000E+02  0.51100000000E-03 0. -1.
         11   -1    0    0    0    0 -0.00000000000E+00 -0.00000000000E+00 -0.45593999997E+02  0.45594000000E+02  0.51100000000E-03 0.  1.
    9900012    2    1    2    0    0 -0.30564805330E+02 -0.14467498755E+02 -0.22575471885E+02  0.50528834048E+02  0.29999921572E+02 0.  0.
         12    1    1    2    0    0  0.30564805330E+02  0.14467498755E+02  0.22575471885E+02  0.40659165952E+02  0.00000000000E+00 0. -1.
         11    1    3    3    0    0 -0.16356816073E+01 -0.22704568725E+00 -0.69262294425E+01  0.71203692753E+01  0.51100000000E-03 0. -1.
        -11    1    3    3    0    0 -0.60097539485E+01  0.31013703951E+01  0.46628321026E+01  0.82144777270E+01  0.51100000000E-03 0.  1.
        -12    1    3    3    0    0 -0.22919369775E+02 -0.17341823462E+02 -0.20312074545E+02  0.35193987046E+02  0.00000000000E+00 0.  1.
</event>
<event>
 7    1  0.6889665E-012  0.5052886E+02  0.7816164E-02  0.1300439E+00
        -11   -1    0    0    0    0  0.00000000000E+00  0.00000000000E+00  0.45593999997E+02  0.45594000000E+02  0.51100000000E-03 0. -1.
         11   -1    0    0    0    0 -0.00000000000E+00 -0.00000000000E+00 -0.45593999997E+02  0.45594000000E+02  0.51100000000E-03 0.  1.
    9900012    2    1    2    0    0 -0.95599114378E+01 -0.36238981668E+02  0.15764203278E+02  0.50528858297E+02  0.29999995280E+02 0.  0.
        -12    1    1    2    0    0  0.95599114378E+01  0.36238981668E+02 -0.15764203278E+02  0.40659141703E+02  0.00000000000E+00 0.  1.
         11    1    3    3    0    0 -0.11634276300E+02 -0.34293988834E+02  0.17715161148E+02  0.40314525793E+02  0.51100000000E-03 0. -1.
        -11    1    3    3    0    0  0.58709498821E+01 -0.12781281412E+01 -0.20776658366E+01  0.63575435235E+01  0.51100000000E-03 0.  1.
         12    1    3    3    0    0 -0.37965850199E+01 -0.66686469266E+00  0.12670796635E+00  0.38567889806E+01  0.00000000000E+00 0. -1.
</event>
<event>
 7    1  0.6889665E-012  0.5052886E+02  0.7816164E-02  0.1300439E+00
        -11   -1    0    0    0    0  0.00000000000E+00  0.00000000000E+00  0.45593999997E+02  0.45594000000E+02  0.51100000000E-03 0. -1.
         11   -1    0    0    0    0 -0.00000000000E+00 -0.00000000000E+00 -0.45593999997E+02  0.45594000000E+02  0.51100000000E-03 0.  1.
    9900012    2    1    2    0    0 -0.20091555990E+02 -0.12920026265E+02  0.32902400237E+02  0.50528860288E+02  0.30000001332E+02 0.  0.
        -12    1    1    2    0    0  0.20091555990E+02  0.12920026265E+02 -0.32902400237E+02  0.40659139712E+02  0.00000000000E+00 0.  1.
         11    1    3    3    0    0 -0.22076547494E+02 -0.17984678681E+02  0.26200139840E+02  0.38694572545E+02  0.51100000000E-03 0. -1.
        -11    1    3    3    0    0 -0.12512992999E+01  0.55382378253E+01  0.63908614355E+01  0.85487389887E+01  0.51100000000E-03 0.  1.
        -12    1    3    3    0    0  0.32362908041E+01 -0.47358540905E+00  0.31139896122E+00  0.32855487550E+01  0.00000000000E+00 0.  1.
</event>
<event>
 7    1  0.6889665E-012  0.5052886E+02  0.7816164E-02  0.1300439E+00
        -11   -1    0    0    0    0  0.00000000000E+00  0.00000000000E+00  0.45593999997E+02  0.45594000000E+02  0.51100000000E-03 0. -1.
         11   -1    0    0    0    0 -0.00000000000E+00 -0.00000000000E+00 -0.45593999997E+02  0.45594000000E+02  0.51100000000E-03 0.  1.
    9900012    2    1    2    0    0 -0.30244655192E+02 -0.24674861075E+02 -0.11383227534E+02  0.50528858275E+02  0.29999995212E+02 0.  0.
         12    1    1    2    0    0  0.30244655192E+02  0.24674861075E+02  0.11383227534E+02  0.40659141725E+02  0.00000000000E+00 0. -1.
         11    1    3    3    0    0 -0.53162761831E+01  0.36658751725E+01 -0.53781538551E+01  0.84039260102E+01  0.51100000000E-03 0. -1.
        -11    1    3    3    0    0 -0.10719096162E+02 -0.16263959501E+02  0.54662114468E+01  0.20231037270E+02  0.51100000000E-03 0.  1.
        -12    1    3    3    0    0 -0.14209282847E+02 -0.12076776747E+02 -0.11471285126E+02  0.21893894995E+02  0.00000000000E+00 0.  1.
</event>
<event>
 7    1  0.6889665E-012  0.5052891E+02  0.7816164E-02  0.1300439E+00
        -11   -1    0    0    0    0  0.00000000000E+00  0.00000000000E+00  0.45593999997E+02  0.45594000000E+02  0.51100000000E-03 0. -1.
         11   -1    0    0    0    0 -0.00000000000E+00 -0.00000000000E+00 -0.45593999997E+02  0.45594000000E+02  0.51100000000E-03 0.  1.
    9900012    2    1    2    0    0  0.18956956266E+02 -0.63927062607E+01 -0.35396731391E+02  0.50528911503E+02  0.30000157004E+02 0.  0.
         12    1    1    2    0    0 -0.18956956266E+02  0.63927062607E+01  0.35396731391E+02  0.40659088497E+02  0.00000000000E+00 0. -1.
         11    1    3    3    0    0  0.70369384479E+01 -0.98657091706E+01 -0.10846526161E+02  0.16263389874E+02  0.51100000000E-03 0. -1.
        -11    1    3    3    0    0 -0.12918817134E+01  0.56885006088E+01 -0.18805330033E+02  0.19689297485E+02  0.51100000000E-03 0.  1.
        -12    1    3    3    0    0  0.13211899531E+02 -0.22154976990E+01 -0.57448751977E+01  0.14576224145E+02  0.00000000000E+00 0.  1.
</event>
<event>
 7    1  0.6889665E-012  0.5052886E+02  0.7816164E-02  0.1300439E+00
        -11   -1    0    0    0    0  0.00000000000E+00  0.00000000000E+00  0.45593999997E+02  0.45594000000E+02  0.51100000000E-03 0. -1.
         11   -1    0    0    0    0 -0.00000000000E+00 -0.00000000000E+00 -0.45593999997E+02  0.45594000000E+02  0.51100000000E-03 0.  1.
    9900012    2    1    2    0    0  0.32028986214E+02 -0.15139021688E+02 -0.19952939262E+02  0.50528859321E+02  0.29999998393E+02 0.  0.
         12    1    1    2    0    0 -0.32028986214E+02  0.15139021688E+02  0.19952939262E+02  0.40659140679E+02  0.00000000000E+00 0. -1.
         11    1    3    3    0    0  0.31857653596E+01  0.64437571584E-01  0.93716047759E+00  0.33213736840E+01  0.51100000000E-03 0. -1.
        -11    1    3    3    0    0  0.33526340010E+02 -0.10220426287E+02 -0.14784652024E+02  0.38040222445E+02  0.51100000000E-03 0.  1.
        -12    1    3    3    0    0 -0.46831191556E+01 -0.49830329725E+01 -0.61054477148E+01  0.91672631919E+01  0.00000000000E+00 0.  1.
</event>
<event>
 7    1  0.6889665E-012  0.5052883E+02  0.7816164E-02  0.1300439E+00
        -11   -1    0    0    0    0  0.00000000000E+00  0.00000000000E+00  0.45593999997E+02  0.45594000000E+02  0.51100000000E-03 0. -1.
         11   -1    0    0    0    0 -0.00000000000E+00 -0.00000000000E+00 -0.45593999997E+02  0.45594000000E+02  0.51100000000E-03 0.  1.
    9900012    2    1    2    0    0  0.10203572131E+02 -0.36243213359E+02 -0.15345507494E+02  0.50528831304E+02  0.29999913232E+02 0.  0.
         12    1    1    2    0    0 -0.10203572131E+02  0.36243213359E+02  0.15345507494E+02  0.40659168696E+02  0.00000000000E+00 0. -1.
         11    1    3    3    0    0 -0.94449069010E+01 -0.41317839359E+01 -0.19468293513E+01  0.10491332120E+02  0.51100000000E-03 0. -1.
        -11    1    3    3    0    0  0.72323933549E+01 -0.10159390013E+02 -0.35908368062E+01  0.12977473880E+02  0.51100000000E-03 0.  1.
         12    1    3    3    0    0  0.12416085677E+02 -0.21952039410E+02 -0.98078413365E+01  0.27060025304E+02  0.00000000000E+00 0. -1.
</event>
<event>
 7    1  0.6889665E-012  0.5052887E+02  0.7816164E-02  0.1300439E+00
        -11   -1    0    0    0    0  0.00000000000E+00  0.00000000000E+00  0.45593999997E+02  0.45594000000E+02  0.51100000000E-03 0. -1.
         11   -1    0    0    0    0 -0.00000000000E+00 -0.00000000000E+00 -0.45593999997E+02  0.45594000000E+02  0.51100000000E-03 0.  1.
    9900012    2    1    2    0    0 -0.23558803444E+01 -0.63932293726E+01  0.40084178149E+02  0.50528869514E+02  0.30000029374E+02 0.  0.
        -12    1    1    2    0    0  0.23558803444E+01  0.63932293726E+01 -0.40084178149E+02  0.40659130486E+02  0.00000000000E+00 0.  1.
         11    1    3    3    0    0  0.62079565101E+01 -0.15713479221E+02  0.26807245970E+02  0.31687230709E+02  0.51100000000E-03 0. -1.
        -11    1    3    3    0    0 -0.28943292653E+01  0.20775698656E+01  0.14198087058E+01  0.38352699337E+01  0.51100000000E-03 0.  1.
         12    1    3    3    0    0 -0.56695075892E+01  0.72426799824E+01  0.11857123473E+02  0.15006368871E+02  0.00000000000E+00 0. -1.
</event>
<event>
 7    1  0.6889665E-012  0.5052886E+02  0.7816164E-02  0.1300439E+00
        -11   -1    0    0    0    0  0.00000000000E+00  0.00000000000E+00  0.45593999997E+02  0.45594000000E+02  0.51100000000E-03 0. -1.
         11   -1    0    0    0    0 -0.00000000000E+00 -0.00000000000E+00 -0.45593999997E+02  0.45594000000E+02  0.51100000000E-03 0.  1.
    9900012    2    1    2    0    0 -0.28873578601E+02  0.21244000534E+02  0.19187880420E+02  0.50528857670E+02  0.29999993375E+02 0.  0.
        -12    1    1    2    0    0  0.28873578601E+02 -0.21244000534E+02 -0.19187880420E+02  0.40659142330E+02  0.00000000000E+00 0.  1.
         11    1    3    3    0    0 -0.28110592664E+02  0.19705867608E+02  0.20790825080E+02  0.40134586654E+02  0.51100000000E-03 0. -1.
        -11    1    3    3    0    0  0.45011935921E+01 -0.23941092312E+00  0.30947432075E+00  0.45181673232E+01  0.51100000000E-03 0.  1.
         12    1    3    3    0    0 -0.52641795292E+01  0.17775438498E+01 -0.19124189807E+01  0.58761036930E+01  0.00000000000E+00 0. -1.
</event>
<event>
 7    1  0.6889665E-012  0.5052886E+02  0.7816164E-02  0.1300439E+00
        -11   -1    0    0    0    0  0.00000000000E+00  0.00000000000E+00  0.45593999997E+02  0.45594000000E+02  0.51100000000E-03 0. -1.
         11   -1    0    0    0    0 -0.00000000000E+00 -0.00000000000E+00 -0.45593999997E+02  0.45594000000E+02  0.51100000000E-03 0.  1.
    9900012    2    1    2    0    0 -0.26638181400E+02  0.24114197424E+02 -0.19028357512E+02  0.50528860618E+02  0.30000002333E+02 0.  0.
         12    1    1    2    0    0  0.26638181400E+02 -0.24114197424E+02  0.19028357512E+02  0.40659139382E+02  0.00000000000E+00 0. -1.
         11    1    3    3    0    0 -0.17159203121E+02  0.56286737706E+01 -0.65586319106E+01  0.19212909019E+02  0.51100000000E-03 0. -1.
        -11    1    3    3    0    0 -0.24297271369E+01  0.96601434238E+01 -0.16541664585E+02  0.19309288242E+02  0.51100000000E-03 0.  1.
        -12    1    3    3    0    0 -0.70492511421E+01  0.88253802297E+01  0.40719389835E+01  0.12006663356E+02  0.00000000000E+00 0.  1.
</event>
<event>
 7    1  0.6889665E-012  0.5052886E+02  0.7816164E-02  0.1300439E+00
        -11   -1    0    0    0    0  0.00000000000E+00  0.00000000000E+00  0.45593999997E+02  0.45594000000E+02  0.51100000000E-03 0. -1.
         11   -1    0    0    0    0 -0.00000000000E+00 -0.00000000000E+00 -0.45593999997E+02  0.45594000000E+02  0.51100000000E-03 0.  1.
    9900012    2    1    2    0    0  0.46950634805E+00 -0.38408531498E+02 -0.13331543864E+02  0.50528858472E+02  0.29999995810E+02 0.  0.
         12    1    1    2    0    0 -0.46950634805E+00  0.38408531498E+02  0.13331543864E+02  0.40659141528E+02  0.00000000000E+00 0. -1.
         11    1    3    3    0    0  0.26499798552E+01 -0.15566099407E+02  0.83746648598E+01  0.17873467927E+02  0.51100000000E-03 0. -1.
        -11    1    3    3    0    0  0.14977380567E+01 -0.21706087329E+01 -0.27271018825E+00  0.26512511510E+01  0.51100000000E-03 0.  1.
         12    1    3    3    0    0 -0.36782115639E+01 -0.20671823358E+02 -0.21433498535E+02  0.30004139393E+02  0.00000000000E+00 0. -1.
</event>
<event>
 7    1  0.6889665E-012  0.5052885E+02  0.7816164E-02  0.1300439E+00
        -11   -1    0    0    0    0  0.00000000000E+00  0.00000000000E+00  0.45593999997E+02  0.45594000000E+02  0.51100000000E-03 0. -1.
         11   -1    0    0    0    0 -0.00000000000E+00 -0.00000000000E+00 -0.45593999997E+02  0.45594000000E+02  0.51100000000E-03 0.  1.
    9900012    2    1    2    0    0  0.31025463716E+01  0.25792637441E+02  0.31277479866E+02  0.50528847440E+02  0.29999962278E+02 0.  0.
        -12    1    1    2    0    0 -0.31025463716E+01 -0.25792637441E+02 -0.31277479866E+02  0.40659152560E+02  0.00000000000E+00 0.  1.
         11    1    3    3    0    0 -0.83337534060E+01  0.19887819580E+02  0.11420592904E+02  0.24400958097E+02  0.51100000000E-03 0. -1.
        -11    1    3    3    0    0  0.28876450205E+01  0.18298198278E+01  0.15190486989E+02  0.15570408780E+02  0.51100000000E-03 0.  1.
        -12    1    3    3    0    0  0.85486547571E+01  0.40749980331E+01  0.46663999731E+01  0.10557480563E+02  0.00000000000E+00 0.  1.
</event>
<event>
 7    1  0.6889665E-012  0.5052886E+02  0.7816164E-02  0.1300439E+00
        -11   -1    0    0    0    0  0.00000000000E+00  0.00000000000E+00  0.45593999997E+02  0.45594000000E+02  0.51100000000E-03 0. -1.
         11   -1    0    0    0    0 -0.00000000000E+00 -0.00000000000E+00 -0.45593999997E+02  0.45594000000E+02  0.51100000000E-03 0.  1.
    9900012    2    1    2    0    0 -0.14305149721E+02  0.20249697520E+02 -0.32225431326E+02  0.50528856104E+02  0.29999988614E+02 0.  0.
         12    1    1    2    0    0  0.14305149721E+02 -0.20249697520E+02  0.32225431326E+02  0.40659143896E+02  0.00000000000E+00 0. -1.
         11    1    3    3    0    0 -0.77398464649E+00 -0.62427796349E+01 -0.11920481100E+02  0.13478472455E+02  0.51100000000E-03 0. -1.
        -11    1    3    3    0    0 -0.67166247304E+01  0.18749010707E+02 -0.17097797559E+02  0.26248297695E+02  0.51100000000E-03 0.  1.
         12    1    3    3    0    0 -0.68145403443E+01  0.77434664477E+01 -0.32071526676E+01  0.10802085954E+02  0.00000000000E+00 0. -1.
</event>
<event>
 7    1  0.6889665E-012  0.5052886E+02  0.7816164E-02  0.1300439E+00
        -11   -1    0    0    0    0  0.00000000000E+00  0.00000000000E+00  0.45593999997E+02  0.45594000000E+02  0.51100000000E-03 0. -1.
         11   -1    0    0    0    0 -0.00000000000E+00 -0.00000000000E+00 -0.45593999997E+02  0.45594000000E+02  0.51100000000E-03 0.  1.
    9900012    2    1    2    0    0  0.20145652293E+00  0.16149324841E+02 -0.37313863450E+02  0.50528859784E+02  0.29999999800E+02 0.  0.
         12    1    1    2    0    0 -0.20145652293E+00 -0.16149324841E+02  0.37313863450E+02  0.40659140216E+02  0.00000000000E+00 0. -1.
         11    1    3    3    0    0 -0.55137788772E+01 -0.49591530137E+01 -0.16761550635E+02  0.18328789815E+02  0.51100000000E-03 0. -1.
        -11    1    3    3    0    0 -0.35198922946E+01  0.57355709286E+01 -0.42147497983E+01  0.79404364972E+01  0.51100000000E-03 0.  1.
         12    1    3    3    0    0  0.92351276947E+01  0.15372906926E+02 -0.16337563016E+02  0.24259633472E+02  0.00000000000E+00 0. -1.
</event>
<event>
 7    1  0.6889665E-012  0.5052885E+02  0.7816164E-02  0.1300439E+00
        -11   -1    0    0    0    0  0.00000000000E+00  0.00000000000E+00  0.45593999997E+02  0.45594000000E+02  0.51100000000E-03 0. -1.
         11   -1    0    0    0    0 -0.00000000000E+00 -0.00000000000E+00 -0.45593999997E+02  0.45594000000E+02  0.51100000000E-03 0.  1.
    9900012    2    1    2    0    0 -0.19207182633E+01  0.25145379590E+02  0.31893368402E+02  0.50528853165E+02  0.29999979679E+02 0.  0.
        -12    1    1    2    0    0  0.19207182633E+01 -0.25145379590E+02 -0.31893368402E+02  0.40659146835E+02  0.00000000000E+00 0.  1.
         11    1    3    3    0    0 -0.62914132875E+01  0.85844664470E+01  0.31281363916E+02  0.33042376943E+02  0.51100000000E-03 0. -1.
        -11    1    3    3    0    0  0.13607845996E+01  0.34081260857E+01 -0.12258865590E+01  0.38690898489E+01  0.51100000000E-03 0.  1.
         12    1    3    3    0    0  0.30099104246E+01  0.13152787057E+02  0.18378910449E+01  0.13617386373E+02  0.00000000000E+00 0. -1.
</event>
<event>
 7    1  0.6889665E-012  0.5052885E+02  0.7816164E-02  0.1300439E+00
        -11   -1    0    0    0    0  0.00000000000E+00  0.00000000000E+00  0.45593999997E+02  0.45594000000E+02  0.51100000000E-03 0. -1.
         11   -1    0    0    0    0 -0.00000000000E+00 -0.00000000000E+00 -0.45593999997E+02  0.45594000000E+02  0.51100000000E-03 0.  1.
    9900012    2    1    2    0    0 -0.36265685390E+02 -0.60329407272E+01  0.17365765519E+02  0.50528854378E+02  0.29999983368E+02 0.  0.
        -12    1    1    2    0    0  0.36265685390E+02  0.60329407272E+01 -0.17365765519E+02  0.40659145622E+02  0.00000000000E+00 0.  1.
         11    1    3    3    0    0 -0.21252003252E+02 -0.14978209172E+02  0.60410480952E+01  0.26692483110E+02  0.51100000000E-03 0. -1.
        -11    1    3    3    0    0 -0.59926821268E+01 -0.24209967154E+01  0.35173229474E+01  0.73583303232E+01  0.51100000000E-03 0.  1.
         12    1    3    3    0    0 -0.90210000113E+01  0.11366265160E+02  0.78073944764E+01  0.16478040945E+02  0.00000000000E+00 0. -1.
</event>
<event>
 7    1  0.6889665E-012  0.5052885E+02  0.7816164E-02  0.1300439E+00
        -11   -1    0    0    0    0  0.00000000000E+00  0.00000000000E+00  0.45593999997E+02  0.45594000000E+02  0.51100000000E-03 0. -1.
         11   -1    0    0    0    0 -0.00000000000E+00 -0.00000000000E+00 -0.45593999997E+02  0.45594000000E+02  0.51100000000E-03 0.  1.
    9900012    2    1    2    0    0  0.25201754092E+02  0.30048593204E+02 -0.10729415135E+02  0.50528847131E+02  0.29999961340E+02 0.  0.
         12    1    1    2    0    0 -0.25201754092E+02 -0.30048593204E+02  0.10729415135E+02  0.40659152869E+02  0.00000000000E+00 0. -1.
         11    1    3    3    0    0  0.24506752079E+02  0.13796429725E+02 -0.32004439405E+01  0.28304861991E+02  0.51100000000E-03 0. -1.
        -11    1    3    3    0    0 -0.43839307042E+01  0.86333317576E+01 -0.86695231775E+01  0.12996687964E+02  0.51100000000E-03 0.  1.
         12    1    3    3    0    0  0.50789327172E+01  0.76188317213E+01  0.11405519834E+01  0.92272971758E+01  0.00000000000E+00 0. -1.
</event>
<event>
 7    1  0.6889665E-012  0.5052891E+02  0.7816164E-02  0.1300439E+00
        -11   -1    0    0    0    0  0.00000000000E+00  0.00000000000E+00  0.45593999997E+02  0.45594000000E+02  0.51100000000E-03 0. -1.
         11   -1    0    0    0    0 -0.00000000000E+00 -0.00000000000E+00 -0.45593999997E+02  0.45594000000E+02  0.51100000000E-03 0.  1.
    9900012    2    1    2    0    0  0.27960237966E+02 -0.15231279018E+02  0.25286262297E+02  0.50528907184E+02  0.30000143876E+02 0.  0.
        -12    1    1    2    0    0 -0.27960237966E+02  0.15231279018E+02 -0.25286262297E+02  0.40659092816E+02  0.00000000000E+00 0.  1.
         11    1    3    3    0    0  0.10901580386E+01 -0.67030738664E+01  0.15010154323E+02  0.16474962120E+02  0.51100000000E-03 0. -1.
        -11    1    3    3    0    0  0.11800291232E+02 -0.27726680940E+00 -0.31874521177E+01  0.12226348650E+02  0.51100000000E-03 0.  1.
         12    1    3    3    0    0  0.15069788695E+02 -0.82509383425E+01  0.13463560092E+02  0.21827596414E+02  0.00000000000E+00 0. -1.
</event>
<event>
 7    1  0.6889665E-012  0.5052885E+02  0.7816164E-02  0.1300439E+00
        -11   -1    0    0    0    0  0.00000000000E+00  0.00000000000E+00  0.45593999997E+02  0.45594000000E+02  0.51100000000E-03 0. -1.
         11   -1    0    0    0    0 -0.00000000000E+00 -0.00000000000E+00 -0.45593999997E+02  0.45594000000E+02  0.51100000000E-03 0.  1.
    9900012    2    1    2    0    0  0.25006930897E+02 -0.56893138607E+01  0.31550779598E+02  0.50528848775E+02  0.29999966336E+02 0.  0.
        -12    1    1    2    0    0 -0.25006930897E+02  0.56893138607E+01 -0.31550779598E+02  0.40659151225E+02  0.00000000000E+00 0.  1.
         11    1    3    3    0    0  0.35313991409E+01 -0.98753104415E+00  0.17553145904E+01  0.40653569373E+01  0.51100000000E-03 0. -1.
        -11    1    3    3    0    0  0.22399240597E+02  0.45080521098E+01  0.29352290099E+02  0.37196847278E+02  0.51100000000E-03 0.  1.
        -12    1    3    3    0    0 -0.92370884017E+00 -0.92098349263E+01  0.44317490868E+00  0.92666445595E+01  0.00000000000E+00 0.  1.
</event>
<event>
 7    1  0.6889665E-012  0.5052887E+02  0.7816164E-02  0.1300439E+00
        -11   -1    0    0    0    0  0.00000000000E+00  0.00000000000E+00  0.45593999997E+02  0.45594000000E+02  0.51100000000E-03 0. -1.
         11   -1    0    0    0    0 -0.00000000000E+00 -0.00000000000E+00 -0.45593999997E+02  0.45594000000E+02  0.51100000000E-03 0.  1.
    9900012    2    1    2    0    0 -0.35244384704E+02 -0.80107472983E+01  0.18623266609E+02  0.50528870833E+02  0.30000033384E+02 0.  0.
        -12    1    1    2    0    0  0.35244384704E+02  0.80107472983E+01 -0.18623266609E+02  0.40659129167E+02  0.00000000000E+00 0.  1.
         11    1    3    3    0    0 -0.95972245983E+00 -0.57184851909E+01  0.89386802126E+01  0.10654677108E+02  0.51100000000E-03 0. -1.
        -11    1    3    3    0    0 -0.15372214609E+02  0.75518053068E+01  0.64887313773E+01  0.18314976946E+02  0.51100000000E-03 0.  1.
        -12    1    3    3    0    0 -0.18912447635E+02 -0.98440674142E+01  0.31958550187E+01  0.21559216779E+02  0.00000000000E+00 0.  1.
</event>
<event>
 7    1  0.6889665E-012  0.5052887E+02  0.7816164E-02  0.1300439E+00
        -11   -1    0    0    0    0  0.00000000000E+00  0.00000000000E+00  0.45593999997E+02  0.45594000000E+02  0.51100000000E-03 0. -1.
         11   -1    0    0    0    0 -0.00000000000E+00 -0.00000000000E+00 -0.45593999997E+02  0.45594000000E+02  0.51100000000E-03 0.  1.
    9900012    2    1    2    0    0  0.23166225233E+02  0.45103412549E+01 -0.33108126966E+02  0.50528865221E+02  0.30000016324E+02 0.  0.
         12    1    1    2    0    0 -0.23166225233E+02 -0.45103412549E+01  0.33108126966E+02  0.40659134779E+02  0.00000000000E+00 0. -1.
         11    1    3    3    0    0 -0.18151797394E+01  0.28133988055E+01 -0.13078661004E+01  0.35945242137E+01  0.51100000000E-03 0. -1.
        -11    1    3    3    0    0  0.14384268337E+02 -0.10139328051E+02 -0.22357410636E+02  0.28452890179E+02  0.51100000000E-03 0.  1.
        -12    1    3    3    0    0  0.10597136636E+02  0.11836270501E+02 -0.94428502298E+01  0.18481450828E+02  0.00000000000E+00 0.  1.
</event>
<event>
 7    1  0.6889665E-012  0.5052886E+02  0.7816164E-02  0.1300439E+00
        -11   -1    0    0    0    0  0.00000000000E+00  0.00000000000E+00  0.45593999997E+02  0.45594000000E+02  0.51100000000E-03 0. -1.
         11   -1    0    0    0    0 -0.00000000000E+00 -0.00000000000E+00 -0.45593999997E+02  0.45594000000E+02  0.51100000000E-03 0.  1.
    9900012    2    1    2    0    0 -0.30297275914E+02  0.19258470002E+02 -0.19088001193E+02  0.50528863460E+02  0.30000010973E+02 0.  0.
         12    1    1    2    0    0  0.30297275914E+02 -0.19258470002E+02  0.19088001193E+02  0.40659136540E+02  0.00000000000E+00 0. -1.
         11    1    3    3    0    0 -0.57317741441E+01  0.15894049053E+02 -0.12350505522E+01  0.16941056055E+02  0.51100000000E-03 0. -1.
        -11    1    3    3    0    0 -0.14563732945E+02  0.39929090489E+01 -0.18088530171E+02  0.23563543111E+02  0.51100000000E-03 0.  1.
         12    1    3    3    0    0 -0.10001768825E+02 -0.62848809908E+00  0.23557952971E+00  0.10024264294E+02  0.00000000000E+00 0. -1.
</event>
<event>
 7    1  0.7065594E-012  0.5052886E+02  0.7816164E-02  0.1300439E+00
        -11   -1    0    0    0    0  0.00000000000E+00  0.00000000000E+00  0.45593999997E+02  0.45594000000E+02  0.51100000000E-03 0. -1.
         11   -1    0    0    0    0 -0.00000000000E+00 -0.00000000000E+00 -0.45593999997E+02  0.45594000000E+02  0.51100000000E-03 0.  1.
    9900012    2    1    2    0    0 -0.89105838415E+01 -0.62705094282E+01 -0.39172031226E+02  0.50528858060E+02  0.29999994560E+02 0.  0.
         12    1    1    2    0    0  0.89105838415E+01  0.62705094282E+01  0.39172031226E+02  0.40659141940E+02  0.00000000000E+00 0. -1.
         11    1    3    3    0    0  0.81770862554E+01  0.41873487591E+01 -0.67532639132E+01  0.11401982415E+02  0.51100000000E-03 0. -1.
        -11    1    3    3    0    0 -0.48765112824E+01 -0.19598606509E+01 -0.16596875161E+02  0.17409126384E+02  0.51100000000E-03 0.  1.
         12    1    3    3    0    0 -0.12211158815E+02 -0.84979975364E+01 -0.15821892152E+02  0.21717749261E+02  0.00000000000E+00 0. -1.
</event>
<event>
 7    1  0.6889665E-012  0.5052886E+02  0.7816164E-02  0.1300439E+00
        -11   -1    0    0    0    0  0.00000000000E+00  0.00000000000E+00  0.45593999997E+02  0.45594000000E+02  0.51100000000E-03 0.  1.
         11   -1    0    0    0    0 -0.00000000000E+00 -0.00000000000E+00 -0.45593999997E+02  0.45594000000E+02  0.51100000000E-03 0. -1.
    9900012    2    1    2    0    0  0.11106144207E+02 -0.23352950018E+02  0.31376090011E+02  0.50528859108E+02  0.29999997746E+02 0.  0.
        -12    1    1    2    0    0 -0.11106144207E+02  0.23352950018E+02 -0.31376090011E+02  0.40659140892E+02  0.00000000000E+00 0.  1.
         11    1    3    3    0    0  0.10034927587E+02 -0.12796877788E+02  0.35318251621E+01  0.16641323326E+02  0.51100000000E-03 0. -1.
        -11    1    3    3    0    0 -0.14182690388E+00 -0.11794626573E+02  0.29324518206E+02  0.31607921462E+02  0.51100000000E-03 0.  1.
        -12    1    3    3    0    0  0.12130435239E+01  0.12385543426E+01 -0.14802533572E+01  0.22796143209E+01  0.00000000000E+00 0.  1.
</event>
<event>
 7    1  0.6889665E-012  0.5052885E+02  0.7816164E-02  0.1300439E+00
        -11   -1    0    0    0    0  0.00000000000E+00  0.00000000000E+00  0.45593999997E+02  0.45594000000E+02  0.51100000000E-03 0. -1.
         11   -1    0    0    0    0 -0.00000000000E+00 -0.00000000000E+00 -0.45593999997E+02  0.45594000000E+02  0.51100000000E-03 0.  1.
    9900012    2    1    2    0    0  0.13536174100E+02 -0.64953820473E+01  0.37785554620E+02  0.50528854225E+02  0.29999982902E+02 0.  0.
        -12    1    1    2    0    0 -0.13536174100E+02  0.64953820473E+01 -0.37785554620E+02  0.40659145775E+02  0.00000000000E+00 0.  1.
         11    1    3    3    0    0 -0.58188791243E+01  0.20111322987E+01  0.81871913051E+01  0.10243735115E+02  0.51100000000E-03 0. -1.
        -11    1    3    3    0    0  0.17691256722E+02 -0.11528462082E+02  0.16666075101E+02  0.26900633113E+02  0.51100000000E-03 0.  1.
        -12    1    3    3    0    0  0.16637965023E+01  0.30219477359E+01  0.12932288215E+02  0.13384485996E+02  0.00000000000E+00 0.  1.
</event>
<event>
 7    1  0.6889665E-012  0.5052886E+02  0.7816164E-02  0.1300439E+00
        -11   -1    0    0    0    0  0.00000000000E+00  0.00000000000E+00  0.45593999997E+02  0.45594000000E+02  0.51100000000E-03 0. -1.
         11   -1    0    0    0    0 -0.00000000000E+00 -0.00000000000E+00 -0.45593999997E+02  0.45594000000E+02  0.51100000000E-03 0.  1.
    9900012    2    1    2    0    0  0.73735027848E+01  0.11387136272E+02 -0.38329234032E+02  0.50528860840E+02  0.30000003009E+02 0.  0.
         12    1    1    2    0    0 -0.73735027848E+01 -0.11387136272E+02  0.38329234032E+02  0.40659139160E+02  0.00000000000E+00 0. -1.
         11    1    3    3    0    0 -0.64770288083E+00 -0.76368326110E+01 -0.62195579746E+01  0.98703410788E+01  0.51100000000E-03 0. -1.
        -11    1    3    3    0    0  0.10264983359E+02  0.15668200166E+02 -0.31395965305E+02  0.36559116749E+02  0.51100000000E-03 0.  1.
         12    1    3    3    0    0 -0.22437776931E+01  0.33557687166E+01 -0.71371075228E+00  0.40994030118E+01  0.00000000000E+00 0. -1.
</event>
<event>
 7    1  0.6889665E-012  0.5052886E+02  0.7816164E-02  0.1300439E+00
        -11   -1    0    0    0    0  0.00000000000E+00  0.00000000000E+00  0.45593999997E+02  0.45594000000E+02  0.51100000000E-03 0. -1.
         11   -1    0    0    0    0 -0.00000000000E+00 -0.00000000000E+00 -0.45593999997E+02  0.45594000000E+02  0.51100000000E-03 0.  1.
    9900012    2    1    2    0    0  0.31140968720E+02 -0.10294001768E+02 -0.24029967559E+02  0.50528859010E+02  0.29999997446E+02 0.  0.
         12    1    1    2    0    0 -0.31140968720E+02  0.10294001768E+02  0.24029967559E+02  0.40659140990E+02  0.00000000000E+00 0. -1.
         11    1    3    3    0    0 -0.88815367818E+00  0.67341476143E+00  0.98838091548E+00  0.14896984568E+01  0.51100000000E-03 0. -1.
        -11    1    3    3    0    0  0.26932027793E+02 -0.40389250411E+01 -0.28805487101E+02  0.39640927385E+02  0.51100000000E-03 0.  1.
        -12    1    3    3    0    0  0.50970946046E+01 -0.69284914881E+01  0.37871386264E+01  0.93982331683E+01  0.00000000000E+00 0.  1.
</event>
<event>
 7    1  0.6889665E-012  0.5052885E+02  0.7816164E-02  0.1300439E+00
        -11   -1    0    0    0    0  0.00000000000E+00  0.00000000000E+00  0.45593999997E+02  0.45594000000E+02  0.51100000000E-03 0. -1.
         11   -1    0    0    0    0 -0.00000000000E+00 -0.00000000000E+00 -0.45593999997E+02  0.45594000000E+02  0.51100000000E-03 0.  1.
    9900012    2    1    2    0    0  0.39250096746E+02 -0.38083730841E+01  0.99041699536E+01  0.50528851182E+02  0.29999973653E+02 0.  0.
        -12    1    1    2    0    0 -0.39250096746E+02  0.38083730841E+01 -0.99041699536E+01  0.40659148818E+02  0.00000000000E+00 0.  1.
         11    1    3    3    0    0  0.15278324606E+02  0.44490660329E+00  0.55647906488E+01  0.16266285375E+02  0.51100000000E-03 0. -1.
        -11    1    3    3    0    0  0.15352559602E+01 -0.45124053999E+01 -0.75046973871E+01  0.88904047427E+01  0.51100000000E-03 0.  1.
        -12    1    3    3    0    0  0.22436516179E+02  0.25912571245E+00  0.11844076692E+02  0.25372161065E+02  0.00000000000E+00 0.  1.
</event>
<event>
 7    1  0.6889666E-012  0.5052886E+02  0.7816164E-02  0.1300439E+00
        -11   -1    0    0    0    0  0.00000000000E+00  0.00000000000E+00  0.45593999997E+02  0.45594000000E+02  0.51100000000E-03 0. -1.
         11   -1    0    0    0    0 -0.00000000000E+00 -0.00000000000E+00 -0.45593999997E+02  0.45594000000E+02  0.51100000000E-03 0.  1.
    9900012    2    1    2    0    0  0.29225948472E+01 -0.17996180874E+02  0.36342285041E+02  0.50528858732E+02  0.29999996601E+02 0.  0.
        -12    1    1    2    0    0 -0.29225948472E+01  0.17996180874E+02 -0.36342285041E+02  0.40659141268E+02  0.00000000000E+00 0.  1.
         11    1    3    3    0    0 -0.26491552757E+00  0.46158299845E+01  0.12161233266E+02  0.13010444323E+02  0.51100000000E-03 0. -1.
        -11    1    3    3    0    0  0.38439443839E+01 -0.19255075459E+02  0.83750761208E+01  0.21346562713E+02  0.51100000000E-03 0.  1.
         12    1    3    3    0    0 -0.65643400912E+00 -0.33569353989E+01  0.15805975654E+02  0.16171851695E+02  0.00000000000E+00 0. -1.
</event>
<event>
 7    1  0.6889665E-012  0.5052886E+02  0.7816164E-02  0.1300439E+00
        -11   -1    0    0    0    0  0.00000000000E+00  0.00000000000E+00  0.45593999997E+02  0.45594000000E+02  0.51100000000E-03 0. -1.
         11   -1    0    0    0    0 -0.00000000000E+00 -0.00000000000E+00 -0.45593999997E+02  0.45594000000E+02  0.51100000000E-03 0.  1.
    9900012    2    1    2    0    0 -0.35342684403E+02 -0.48901477563E+01  0.19497352698E+02  0.50528860214E+02  0.30000001106E+02 0.  0.
        -12    1    1    2    0    0  0.35342684403E+02  0.48901477563E+01 -0.19497352698E+02  0.40659139786E+02  0.00000000000E+00 0.  1.
         11    1    3    3    0    0 -0.20574588693E+02 -0.88598291437E+01 -0.33280111856E+01  0.22646985032E+02  0.51100000000E-03 0. -1.
        -11    1    3    3    0    0 -0.65425220177E+01  0.89516063100E+00  0.13750346040E+02  0.15253783904E+02  0.51100000000E-03 0.  1.
        -12    1    3    3    0    0 -0.82255736927E+01  0.30745207565E+01  0.90750178436E+01  0.12628091278E+02  0.00000000000E+00 0.  1.
</event>
<event>
 7    1  0.6889665E-012  0.5052886E+02  0.7816164E-02  0.1300439E+00
        -11   -1    0    0    0    0  0.00000000000E+00  0.00000000000E+00  0.45593999997E+02  0.45594000000E+02  0.51100000000E-03 0. -1.
         11   -1    0    0    0    0 -0.00000000000E+00 -0.00000000000E+00 -0.45593999997E+02  0.45594000000E+02  0.51100000000E-03 0.  1.
    9900012    2    1    2    0    0 -0.23413190141E+02 -0.23016389932E+02  0.23984035051E+02  0.50528860617E+02  0.30000002331E+02 0.  0.
        -12    1    1    2    0    0  0.23413190141E+02  0.23016389932E+02 -0.23984035051E+02  0.40659139383E+02  0.00000000000E+00 0.  1.
         11    1    3    3    0    0 -0.14089691059E+02  0.29395939304E+01  0.17690750485E+01  0.14501387292E+02  0.51100000000E-03 0. -1.
        -11    1    3    3    0    0 -0.46849665949E+00 -0.67213736450E+01  0.27906684838E+01  0.72927487028E+01  0.51100000000E-03 0.  1.
         12    1    3    3    0    0 -0.88550024224E+01 -0.19234610217E+02  0.19424291518E+02  0.28734724622E+02  0.00000000000E+00 0. -1.
</event>
<event>
 7    1  0.6889665E-012  0.5052884E+02  0.7816164E-02  0.1300439E+00
        -11   -1    0    0    0    0  0.00000000000E+00  0.00000000000E+00  0.45593999997E+02  0.45594000000E+02  0.51100000000E-03 0. -1.
         11   -1    0    0    0    0 -0.00000000000E+00 -0.00000000000E+00 -0.45593999997E+02  0.45594000000E+02  0.51100000000E-03 0.  1.
    9900012    2    1    2    0    0 -0.17334430392E+02 -0.16547712762E+01 -0.36741616992E+02  0.50528841571E+02  0.29999944439E+02 0.  0.
         12    1    1    2    0    0  0.17334430392E+02  0.16547712762E+01  0.36741616992E+02  0.40659158429E+02  0.00000000000E+00 0. -1.
         11    1    3    3    0    0  0.60626379211E+00  0.96498250131E+01 -0.36977289383E+01  0.10351805549E+02  0.51100000000E-03 0. -1.
        -11    1    3    3    0    0 -0.12241625038E+02 -0.11943559215E+02 -0.25390708522E+02  0.30613625558E+02  0.51100000000E-03 0.  1.
         12    1    3    3    0    0 -0.56990691463E+01  0.63896292550E+00 -0.76531795315E+01  0.95634104636E+01  0.00000000000E+00 0. -1.
</event>
<event>
 7    1  0.6889665E-012  0.5052889E+02  0.7816164E-02  0.1300439E+00
        -11   -1    0    0    0    0  0.00000000000E+00  0.00000000000E+00  0.45593999997E+02  0.45594000000E+02  0.51100000000E-03 0. -1.
         11   -1    0    0    0    0 -0.00000000000E+00 -0.00000000000E+00 -0.45593999997E+02  0.45594000000E+02  0.51100000000E-03 0.  1.
    9900012    2    1    2    0    0 -0.31153041519E+02 -0.26126003224E+02  0.28777065622E+00  0.50528894596E+02  0.30000105612E+02 0.  0.
         12    1    1    2    0    0  0.31153041519E+02  0.26126003224E+02 -0.28777065622E+00  0.40659105404E+02  0.00000000000E+00 0. -1.
         11    1    3    3    0    0  0.19332403228E+01  0.66069894533E+00  0.66050022430E+01  0.69137541273E+01  0.51100000000E-03 0. -1.
        -11    1    3    3    0    0 -0.32925831600E+02 -0.26911002866E+02 -0.68248529121E+01  0.43068446447E+02  0.51100000000E-03 0.  1.
        -12    1    3    3    0    0 -0.16045024201E+00  0.12430069680E+00  0.50762132526E+00  0.54669402160E+00  0.00000000000E+00 0.  1.
</event>
<event>
 7    1  0.6889665E-012  0.5052883E+02  0.7816164E-02  0.1300439E+00
        -11   -1    0    0    0    0  0.00000000000E+00  0.00000000000E+00  0.45593999997E+02  0.45594000000E+02  0.51100000000E-03 0. -1.
         11   -1    0    0    0    0 -0.00000000000E+00 -0.00000000000E+00 -0.45593999997E+02  0.45594000000E+02  0.51100000000E-03 0.  1.
    9900012    2    1    2    0    0  0.83949338376E+01 -0.26159383092E+02 -0.29972981649E+02  0.50528832930E+02  0.29999918174E+02 0.  0.
         12    1    1    2    0    0 -0.83949338376E+01  0.26159383092E+02  0.29972981649E+02  0.40659167070E+02  0.00000000000E+00 0. -1.
         11    1    3    3    0    0  0.22247824332E+01  0.14416670282E+01 -0.32767702299E+01  0.42148883848E+01  0.51100000000E-03 0. -1.
        -11    1    3    3    0    0 -0.34739768187E+01 -0.24342963313E+02 -0.95608011408E+01  0.26382897804E+02  0.51100000000E-03 0.  1.
        -12    1    3    3    0    0  0.96441282231E+01 -0.32580868072E+01 -0.17135410278E+02  0.19931046742E+02  0.00000000000E+00 0.  1.
</event>
<event>
 7    1  0.6889665E-012  0.5052886E+02  0.7816164E-02  0.1300439E+00
        -11   -1    0    0    0    0  0.00000000000E+00  0.00000000000E+00  0.45593999997E+02  0.45594000000E+02  0.51100000000E-03 0. -1.
         11   -1    0    0    0    0 -0.00000000000E+00 -0.00000000000E+00 -0.45593999997E+02  0.45594000000E+02  0.51100000000E-03 0.  1.
    9900012    2    1    2    0    0  0.12200970629E+02  0.92639226300E+01  0.37662741376E+02  0.50528855460E+02  0.29999986657E+02 0.  0.
        -12    1    1    2    0    0 -0.12200970629E+02 -0.92639226300E+01 -0.37662741376E+02  0.40659144540E+02  0.00000000000E+00 0.  1.
         11    1    3    3    0    0 -0.62271073404E+01 -0.17219384122E+01  0.13932044206E+02  0.15357206573E+02  0.51100000000E-03 0. -1.
        -11    1    3    3    0    0  0.12226778490E+02  0.99858970273E+01  0.24176845888E+02  0.28874419978E+02  0.51100000000E-03 0.  1.
        -12    1    3    3    0    0  0.62012994787E+01  0.99996401486E+00 -0.44614871807E+00  0.62972289091E+01  0.00000000000E+00 0.  1.
</event>
<event>
 7    1  0.6889665E-012  0.5052888E+02  0.7816164E-02  0.1300439E+00
        -11   -1    0    0    0    0  0.00000000000E+00  0.00000000000E+00  0.45593999997E+02  0.45594000000E+02  0.51100000000E-03 0.  1.
         11   -1    0    0    0    0 -0.00000000000E+00 -0.00000000000E+00 -0.45593999997E+02  0.45594000000E+02  0.51100000000E-03 0. -1.
    9900012    2    1    2    0    0 -0.40271388107E+02 -0.94279389123E+00 -0.55218486896E+01  0.50528875890E+02  0.30000048757E+02 0.  0.
        -12    1    1    2    0    0  0.40271388107E+02  0.94279389123E+00  0.55218486896E+01  0.40659124110E+02  0.00000000000E+00 0.  1.
         11    1    3    3    0    0 -0.37683102816E+02 -0.57007180114E+01 -0.11139930752E+02  0.39706579821E+02  0.51100000000E-03 0. -1.
        -11    1    3    3    0    0 -0.36803442985E+01  0.38253233276E+01  0.70295707125E+01  0.88086830673E+01  0.51100000000E-03 0.  1.
         12    1    3    3    0    0  0.10920590071E+01  0.93260079255E+00 -0.14114886497E+01  0.20136130019E+01  0.00000000000E+00 0. -1.
</event>
<event>
 7    1  0.8469273E-012  0.5052886E+02  0.7816164E-02  0.1300439E+00
        -11   -1    0    0    0    0  0.00000000000E+00  0.00000000000E+00  0.45593999997E+02  0.45594000000E+02  0.51100000000E-03 0. -1.
         11   -1    0    0    0    0 -0.00000000000E+00 -0.00000000000E+00 -0.45593999997E+02  0.45594000000E+02  0.51100000000E-03 0.  1.
    9900012    2    1    2    0    0 -0.24341646977E+02  0.56624489763E+01 -0.32071581652E+02  0.50528862582E+02  0.30000008303E+02 0.  0.
         12    1    1    2    0    0  0.24341646977E+02 -0.56624489763E+01  0.32071581652E+02  0.40659137418E+02  0.00000000000E+00 0. -1.
         11    1    3    3    0    0  0.27243637548E+01  0.20413483275E+01 -0.43384660361E+01  0.55146666871E+01  0.51100000000E-03 0. -1.
        -11    1    3    3    0    0 -0.21153082353E+02  0.63304354384E+01 -0.30740513916E+02  0.37848467630E+02  0.51100000000E-03 0.  1.
        -12    1    3    3    0    0 -0.59129283789E+01 -0.27093347896E+01  0.30073983006E+01  0.71657282641E+01  0.00000000000E+00 0.  1.
</event>
<event>
 7    1  0.6889665E-012  0.5052885E+02  0.7816164E-02  0.1300439E+00
        -11   -1    0    0    0    0  0.00000000000E+00  0.00000000000E+00  0.45593999997E+02  0.45594000000E+02  0.51100000000E-03 0. -1.
         11   -1    0    0    0    0 -0.00000000000E+00 -0.00000000000E+00 -0.45593999997E+02  0.45594000000E+02  0.51100000000E-03 0.  1.
    9900012    2    1    2    0    0 -0.21936729664E+02  0.17752132655E+02  0.29271281850E+02  0.50528852649E+02  0.29999978112E+02 0.  0.
        -12    1    1    2    0    0  0.21936729664E+02 -0.17752132655E+02 -0.29271281850E+02  0.40659147351E+02  0.00000000000E+00 0.  1.
         11    1    3    3    0    0 -0.24075088901E+02  0.31703140075E+01  0.12019433539E+02  0.27094788786E+02  0.51100000000E-03 0. -1.
        -11    1    3    3    0    0 -0.68721642526E+00  0.11654637725E+02  0.11489589786E+02  0.16380278405E+02  0.51100000000E-03 0.  1.
         12    1    3    3    0    0  0.28255756625E+01  0.29271809233E+01  0.57622585249E+01  0.70537854582E+01  0.00000000000E+00 0. -1.
</event>
<event>
 7    1  0.6889665E-012  0.5052884E+02  0.7816164E-02  0.1300439E+00
        -11   -1    0    0    0    0  0.00000000000E+00  0.00000000000E+00  0.45593999997E+02  0.45594000000E+02  0.51100000000E-03 0. -1.
         11   -1    0    0    0    0 -0.00000000000E+00 -0.00000000000E+00 -0.45593999997E+02  0.45594000000E+02  0.51100000000E-03 0.  1.
    9900012    2    1    2    0    0 -0.16395714864E+02  0.24286235973E+02  0.28187351285E+02  0.50528837489E+02  0.29999932030E+02 0.  0.
        -12    1    1    2    0    0  0.16395714864E+02 -0.24286235973E+02 -0.28187351285E+02  0.40659162511E+02  0.00000000000E+00 0.  1.
         11    1    3    3    0    0 -0.47662263132E+01  0.16062904017E+02  0.21986385265E+02  0.27642990721E+02  0.51100000000E-03 0. -1.
        -11    1    3    3    0    0 -0.86356642120E+00 -0.48425480680E+01  0.26506670830E+01  0.55876699080E+01  0.51100000000E-03 0.  1.
        -12    1    3    3    0    0 -0.10765922130E+02  0.13065880024E+02  0.35502989372E+01  0.17298176859E+02  0.00000000000E+00 0.  1.
</event>
<event>
 7    1  0.6889665E-012  0.5052886E+02  0.7816164E-02  0.1300439E+00
        -11   -1    0    0    0    0  0.00000000000E+00  0.00000000000E+00  0.45593999997E+02  0.45594000000E+02  0.51100000000E-03 0. -1.
         11   -1    0    0    0    0 -0.00000000000E+00 -0.00000000000E+00 -0.45593999997E+02  0.45594000000E+02  0.51100000000E-03 0.  1.
    9900012    2    1    2    0    0  0.23666295744E+02 -0.18982835457E+02 -0.27068872387E+02  0.50528862669E+02  0.30000008568E+02 0.  0.
         12    1    1    2    0    0 -0.23666295744E+02  0.18982835457E+02  0.27068872387E+02  0.40659137331E+02  0.00000000000E+00 0. -1.
         11    1    3    3    0    0  0.20776828244E+02  0.21584584121E+00 -0.20085281824E+02  0.28898818791E+02  0.51100000000E-03 0. -1.
        -11    1    3    3    0    0  0.40188693568E+01 -0.17031731317E+02 -0.76479940410E+01  0.19097722264E+02  0.51100000000E-03 0.  1.
         12    1    3    3    0    0 -0.11294018567E+01 -0.21669499814E+01  0.66440347810E+00  0.25323216141E+01  0.00000000000E+00 0. -1.
</event>
<event>
 7    1  0.6889665E-012  0.5052884E+02  0.7816164E-02  0.1300439E+00
        -11   -1    0    0    0    0  0.00000000000E+00  0.00000000000E+00  0.45593999997E+02  0.45594000000E+02  0.51100000000E-03 0. -1.
         11   -1    0    0    0    0 -0.00000000000E+00 -0.00000000000E+00 -0.45593999997E+02  0.45594000000E+02  0.51100000000E-03 0.  1.
    9900012    2    1    2    0    0 -0.27590339888E+02  0.21182880254E+02  0.21052926457E+02  0.50528843794E+02  0.29999951197E+02 0.  0.
        -12    1    1    2    0    0  0.27590339888E+02 -0.21182880254E+02 -0.21052926457E+02  0.40659156206E+02  0.00000000000E+00 0.  1.
         11    1    3    3    0    0 -0.18841783081E+02  0.21584553064E+02  0.13572169641E+02  0.31703462108E+02  0.51100000000E-03 0. -1.
        -11    1    3    3    0    0  0.37560986756E+01  0.79654479542E+00  0.44984520513E+01  0.59142904892E+01  0.51100000000E-03 0.  1.
        -12    1    3    3    0    0 -0.12504655483E+02 -0.11982176054E+01  0.29823047640E+01  0.12911091197E+02  0.00000000000E+00 0.  1.
</event>
<event>
 7    1  0.6889665E-012  0.5052886E+02  0.7816164E-02  0.1300439E+00
        -11   -1    0    0    0    0  0.00000000000E+00  0.00000000000E+00  0.45593999997E+02  0.45594000000E+02  0.51100000000E-03 0.  1.
         11   -1    0    0    0    0 -0.00000000000E+00 -0.00000000000E+00 -0.45593999997E+02  0.45594000000E+02  0.51100000000E-03 0. -1.
    9900012    2    1    2    0    0 -0.28698268355E+02 -0.19993198369E+02  0.20732748337E+02  0.50528862759E+02  0.30000008842E+02 0.  0.
        -12    1    1    2    0    0  0.28698268355E+02  0.19993198369E+02 -0.20732748337E+02  0.40659137241E+02  0.00000000000E+00 0.  1.
         11    1    3    3    0    0 -0.35218793615E+01 -0.18774603985E+02  0.53677434155E+01  0.19841926789E+02  0.51100000000E-03 0. -1.
        -11    1    3    3    0    0 -0.92039427248E+01  0.16072104954E+01  0.97955241651E+01  0.13536911804E+02  0.51100000000E-03 0.  1.
         12    1    3    3    0    0 -0.15972446268E+02 -0.28258048785E+01  0.55694807567E+01  0.17150024166E+02  0.00000000000E+00 0. -1.
</event>
<event>
 7    1  0.6889665E-012  0.5052887E+02  0.7816164E-02  0.1300439E+00
        -11   -1    0    0    0    0  0.00000000000E+00  0.00000000000E+00  0.45593999997E+02  0.45594000000E+02  0.51100000000E-03 0. -1.
         11   -1    0    0    0    0 -0.00000000000E+00 -0.00000000000E+00 -0.45593999997E+02  0.45594000000E+02  0.51100000000E-03 0.  1.
    9900012    2    1    2    0    0 -0.28452575127E+02 -0.26311512725E+02 -0.12301239021E+02  0.50528865545E+02  0.30000017309E+02 0.  0.
         12    1    1    2    0    0  0.28452575127E+02  0.26311512725E+02  0.12301239021E+02  0.40659134455E+02  0.00000000000E+00 0. -1.
         11    1    3    3    0    0 -0.66701462611E+01 -0.59993664343E+01  0.98271221916E+01  0.13306223340E+02  0.51100000000E-03 0. -1.
        -11    1    3    3    0    0 -0.13908550672E+02 -0.14854711779E+02 -0.14905614178E+02  0.25224741388E+02  0.51100000000E-03 0.  1.
         12    1    3    3    0    0 -0.78738781939E+01 -0.54574345115E+01 -0.72227470349E+01  0.11997900816E+02  0.00000000000E+00 0. -1.
</event>
<event>
 7    1  0.6889665E-012  0.5052886E+02  0.7816164E-02  0.1300439E+00
        -11   -1    0    0    0    0  0.00000000000E+00  0.00000000000E+00  0.45593999997E+02  0.45594000000E+02  0.51100000000E-03 0. -1.
         11   -1    0    0    0    0 -0.00000000000E+00 -0.00000000000E+00 -0.45593999997E+02  0.45594000000E+02  0.51100000000E-03 0.  1.
    9900012    2    1    2    0    0 -0.72465251518E+01  0.17386057884E+02 -0.36033023313E+02  0.50528857060E+02  0.29999991521E+02 0.  0.
         12    1    1    2    0    0  0.72465251518E+01 -0.17386057884E+02  0.36033023313E+02  0.40659142940E+02  0.00000000000E+00 0. -1.
         11    1    3    3    0    0  0.62636602384E+01 -0.54451808356E+01 -0.75341127534E+01  0.11209205554E+02  0.51100000000E-03 0. -1.
        -11    1    3    3    0    0 -0.74961587534E+01  0.98127506448E+01 -0.98570904404E+01  0.15800148844E+02  0.51100000000E-03 0.  1.
         12    1    3    3    0    0 -0.60140266368E+01  0.13018488075E+02 -0.18641820119E+02  0.23519502662E+02  0.00000000000E+00 0. -1.
</event>
<event>
 7    1  0.6889665E-012  0.5052886E+02  0.7816164E-02  0.1300439E+00
        -11   -1    0    0    0    0  0.00000000000E+00  0.00000000000E+00  0.45593999997E+02  0.45594000000E+02  0.51100000000E-03 0. -1.
         11   -1    0    0    0    0 -0.00000000000E+00 -0.00000000000E+00 -0.45593999997E+02  0.45594000000E+02  0.51100000000E-03 0.  1.
    9900012    2    1    2    0    0 -0.11228169161E+02 -0.75971172975E-01  0.39077974544E+02  0.50528860206E+02  0.30000001082E+02 0.  0.
        -12    1    1    2    0    0  0.11228169161E+02  0.75971172975E-01 -0.39077974544E+02  0.40659139794E+02  0.00000000000E+00 0.  1.
         11    1    3    3    0    0  0.43047195773E+01  0.10533372198E+02  0.11878663735E+02  0.16449473939E+02  0.51100000000E-03 0. -1.
        -11    1    3    3    0    0  0.55187875613E+00  0.18014899004E+00 -0.11813687636E+00  0.59243599043E+00  0.51100000000E-03 0.  1.
         12    1    3    3    0    0 -0.16084767494E+02 -0.10789492361E+02  0.27317447685E+02  0.33486950276E+02  0.00000000000E+00 0. -1.
</event>
<event>
 7    1  0.6936175E-012  0.5052887E+02  0.7816164E-02  0.1300439E+00
        -11   -1    0    0    0    0  0.00000000000E+00  0.00000000000E+00  0.45593999997E+02  0.45594000000E+02  0.51100000000E-03 0. -1.
         11   -1    0    0    0    0 -0.00000000000E+00 -0.00000000000E+00 -0.45593999997E+02  0.45594000000E+02  0.51100000000E-03 0.  1.
    9900012    2    1    2    0    0 -0.22996565692E+02  0.12640869527E+02 -0.31056907547E+02  0.50528866679E+02  0.30000020759E+02 0.  0.
         12    1    1    2    0    0  0.22996565692E+02 -0.12640869527E+02  0.31056907547E+02  0.40659133321E+02  0.00000000000E+00 0. -1.
         11    1    3    3    0    0  0.14534564107E+01 -0.55654807102E+00  0.44243415839E+00  0.16180326137E+01  0.51100000000E-03 0. -1.
        -11    1    3    3    0    0 -0.24688807078E+02  0.90744482505E+01 -0.11880889380E+02  0.28862403551E+02  0.51100000000E-03 0.  1.
        -12    1    3    3    0    0  0.23878497545E+00  0.41229693478E+01 -0.19618452324E+02  0.20048430515E+02  0.00000000000E+00 0.  1.
</event>
<event>
 7    1  0.6889665E-012  0.5052886E+02  0.7816164E-02  0.1300439E+00
        -11   -1    0    0    0    0  0.00000000000E+00  0.00000000000E+00  0.45593999997E+02  0.45594000000E+02  0.51100000000E-03 0. -1.
         11   -1    0    0    0    0 -0.00000000000E+00 -0.00000000000E+00 -0.45593999997E+02  0.45594000000E+02  0.51100000000E-03 0.  1.
    9900012    2    1    2    0    0 -0.54345108910E+01  0.19905307483E+01 -0.40245115329E+02  0.50528862907E+02  0.30000009291E+02 0.  0.
         12    1    1    2    0    0  0.54345108910E+01 -0.19905307483E+01  0.40245115329E+02  0.40659137093E+02  0.00000000000E+00 0. -1.
         11    1    3    3    0    0 -0.35843141431E+01  0.27289889288E+01 -0.10718672481E+01  0.46307222017E+01  0.51100000000E-03 0. -1.
        -11    1    3    3    0    0  0.34883684974E+01 -0.10920068369E+02 -0.25992486805E+02  0.28408202662E+02  0.51100000000E-03 0.  1.
        -12    1    3    3    0    0 -0.53385652453E+01  0.10181610188E+02 -0.13180761277E+02  0.17489938043E+02  0.00000000000E+00 0.  1.
</event>
<event>
 7    1  0.6889665E-012  0.5052883E+02  0.7816164E-02  0.1300439E+00
        -11   -1    0    0    0    0  0.00000000000E+00  0.00000000000E+00  0.45593999997E+02  0.45594000000E+02  0.51100000000E-03 0. -1.
         11   -1    0    0    0    0 -0.00000000000E+00 -0.00000000000E+00 -0.45593999997E+02  0.45594000000E+02  0.51100000000E-03 0.  1.
    9900012    2    1    2    0    0  0.10008317192E+02 -0.10671263739E+02 -0.37935807220E+02  0.50528834339E+02  0.29999922457E+02 0.  0.
         12    1    1    2    0    0 -0.10008317192E+02  0.10671263739E+02  0.37935807220E+02  0.40659165661E+02  0.00000000000E+00 0. -1.
         11    1    3    3    0    0 -0.61734588495E+01 -0.88267175678E+01 -0.13653520945E+02  0.17390835852E+02  0.51100000000E-03 0.  1.
        -11    1    3    3    0    0  0.19045473119E+02 -0.32899623444E+01 -0.20398524345E+02  0.28100777468E+02  0.51100000000E-03 0. -1.
         12    1    3    3    0    0 -0.28636970780E+01  0.14454161730E+01 -0.38837619297E+01  0.50372210190E+01  0.00000000000E+00 0. -1.
</event>
<event>
 7    1  0.6889665E-012  0.5052886E+02  0.7816164E-02  0.1300439E+00
        -11   -1    0    0    0    0  0.00000000000E+00  0.00000000000E+00  0.45593999997E+02  0.45594000000E+02  0.51100000000E-03 0. -1.
         11   -1    0    0    0    0 -0.00000000000E+00 -0.00000000000E+00 -0.45593999997E+02  0.45594000000E+02  0.51100000000E-03 0.  1.
    9900012    2    1    2    0    0  0.65972173088E+01 -0.25193783987E+02  0.31223642287E+02  0.50528857541E+02  0.29999992983E+02 0.  0.
        -12    1    1    2    0    0 -0.65972173088E+01  0.25193783987E+02 -0.31223642287E+02  0.40659142459E+02  0.00000000000E+00 0.  1.
         11    1    3    3    0    0 -0.22271517237E+01 -0.12475544085E+02  0.29069071902E+02  0.31711359897E+02  0.51100000000E-03 0. -1.
        -11    1    3    3    0    0  0.10151731174E+02 -0.11308728780E+02 -0.87505866480E+00  0.15222047180E+02  0.51100000000E-03 0.  1.
        -12    1    3    3    0    0 -0.13273621413E+01 -0.14095111227E+01  0.30296290498E+01  0.35954504639E+01  0.00000000000E+00 0.  1.
</event>
<event>
 7    1  0.6889665E-012  0.5052886E+02  0.7816164E-02  0.1300439E+00
        -11   -1    0    0    0    0  0.00000000000E+00  0.00000000000E+00  0.45593999997E+02  0.45594000000E+02  0.51100000000E-03 0. -1.
         11   -1    0    0    0    0 -0.00000000000E+00 -0.00000000000E+00 -0.45593999997E+02  0.45594000000E+02  0.51100000000E-03 0.  1.
    9900012    2    1    2    0    0 -0.20855717356E+01 -0.36309539319E+02  0.18177826490E+02  0.50528860426E+02  0.30000001750E+02 0.  0.
        -12    1    1    2    0    0  0.20855717356E+01  0.36309539319E+02 -0.18177826490E+02  0.40659139574E+02  0.00000000000E+00 0.  1.
         11    1    3    3    0    0 -0.45535108210E+01 -0.93738648892E+01  0.15802552392E+02  0.18929460270E+02  0.51100000000E-03 0. -1.
        -11    1    3    3    0    0 -0.50152977591E+01 -0.18215511323E+02 -0.26117671959E+01  0.19073001665E+02  0.51100000000E-03 0.  1.
        -12    1    3    3    0    0  0.74832368446E+01 -0.87201631066E+01  0.49870412941E+01  0.12526398491E+02  0.00000000000E+00 0.  1.
</event>
<event>
 7    1  0.6889665E-012  0.5052881E+02  0.7816164E-02  0.1300439E+00
        -11   -1    0    0    0    0  0.00000000000E+00  0.00000000000E+00  0.45593999997E+02  0.45594000000E+02  0.51100000000E-03 0. -1.
         11   -1    0    0    0    0 -0.00000000000E+00 -0.00000000000E+00 -0.45593999997E+02  0.45594000000E+02  0.51100000000E-03 0.  1.
    9900012    2    1    2    0    0  0.27006680678E+02 -0.20614935044E+02  0.22334582662E+02  0.50528807549E+02  0.29999841025E+02 0.  0.
        -12    1    1    2    0    0 -0.27006680678E+02  0.20614935044E+02 -0.22334582662E+02  0.40659192451E+02  0.00000000000E+00 0.  1.
         11    1    3    3    0    0  0.22819427649E+02 -0.23380067840E+01  0.14617531323E+02  0.27200455441E+02  0.51100000000E-03 0.  1.
        -11    1    3    3    0    0  0.38913906971E+01 -0.59720232977E+01 -0.22669116836E+01  0.74797642121E+01  0.51100000000E-03 0. -1.
         12    1    3    3    0    0  0.29586233157E+00 -0.12304904962E+02  0.99839630230E+01  0.15848587896E+02  0.00000000000E+00 0. -1.
</event>
<event>
 7    1  0.6889665E-012  0.5052886E+02  0.7816164E-02  0.1300439E+00
        -11   -1    0    0    0    0  0.00000000000E+00  0.00000000000E+00  0.45593999997E+02  0.45594000000E+02  0.51100000000E-03 0. -1.
         11   -1    0    0    0    0 -0.00000000000E+00 -0.00000000000E+00 -0.45593999997E+02  0.45594000000E+02  0.51100000000E-03 0.  1.
    9900012    2    1    2    0    0 -0.97039212278E+01  0.21402489989E+02  0.33180314514E+02  0.50528856672E+02  0.29999990341E+02 0.  0.
        -12    1    1    2    0    0  0.97039212278E+01 -0.21402489989E+02 -0.33180314514E+02  0.40659143328E+02  0.00000000000E+00 0.  1.
         11    1    3    3    0    0 -0.11185232089E+02  0.59548840315E+01  0.10883942946E+02  0.16704199324E+02  0.51100000000E-03 0. -1.
        -11    1    3    3    0    0  0.39156280285E+01  0.60993422008E+01  0.23023382865E+02  0.24137321246E+02  0.51100000000E-03 0.  1.
        -12    1    3    3    0    0 -0.24343171669E+01  0.93482637564E+01 -0.72701129756E+00  0.96873361021E+01  0.00000000000E+00 0.  1.
</event>
<event>
 7    1  0.6889665E-012  0.5052884E+02  0.7816164E-02  0.1300439E+00
        -11   -1    0    0    0    0  0.00000000000E+00  0.00000000000E+00  0.45593999997E+02  0.45594000000E+02  0.51100000000E-03 0. -1.
         11   -1    0    0    0    0 -0.00000000000E+00 -0.00000000000E+00 -0.45593999997E+02  0.45594000000E+02  0.51100000000E-03 0.  1.
    9900012    2    1    2    0    0  0.25393996336E+02  0.23369444716E+02  0.21498399749E+02  0.50528841278E+02  0.29999943548E+02 0.  0.
        -12    1    1    2    0    0 -0.25393996336E+02 -0.23369444716E+02 -0.21498399749E+02  0.40659158722E+02  0.00000000000E+00 0.  1.
         11    1    3    3    0    0  0.14417338417E+02  0.14146036953E+02  0.21866087272E+02  0.29767361008E+02  0.51100000000E-03 0. -1.
        -11    1    3    3    0    0 -0.16042169454E+01  0.15108572452E+01 -0.48598468835E+01  0.53361328334E+01  0.51100000000E-03 0.  1.
         12    1    3    3    0    0  0.12580874864E+02  0.77125505175E+01  0.44921593608E+01  0.15425347437E+02  0.00000000000E+00 0. -1.
</event>
<event>
 7    1  0.6889665E-012  0.5052886E+02  0.7816164E-02  0.1300439E+00
        -11   -1    0    0    0    0  0.00000000000E+00  0.00000000000E+00  0.45593999997E+02  0.45594000000E+02  0.51100000000E-03 0. -1.
         11   -1    0    0    0    0 -0.00000000000E+00 -0.00000000000E+00 -0.45593999997E+02  0.45594000000E+02  0.51100000000E-03 0.  1.
    9900012    2    1    2    0    0 -0.43674800478E+00  0.85573528654E+01 -0.39746028282E+02  0.50528858334E+02  0.29999995391E+02 0.  0.
         12    1    1    2    0    0  0.43674800478E+00 -0.85573528654E+01  0.39746028282E+02  0.40659141666E+02  0.00000000000E+00 0. -1.
         11    1    3    3    0    0 -0.82149098900E+01 -0.68423214543E+00 -0.22054497154E+01  0.85332834734E+01  0.51100000000E-03 0. -1.
        -11    1    3    3    0    0  0.11196279065E+02  0.30537162605E+01 -0.20695866964E+02  0.23727636999E+02  0.51100000000E-03 0.  1.
        -12    1    3    3    0    0 -0.34181171802E+01  0.61878687503E+01 -0.16844711603E+02  0.18267937861E+02  0.00000000000E+00 0.  1.
</event>
<event>
 7    1  0.6889665E-012  0.5052886E+02  0.7816164E-02  0.1300439E+00
        -11   -1    0    0    0    0  0.00000000000E+00  0.00000000000E+00  0.45593999997E+02  0.45594000000E+02  0.51100000000E-03 0. -1.
         11   -1    0    0    0    0 -0.00000000000E+00 -0.00000000000E+00 -0.45593999997E+02  0.45594000000E+02  0.51100000000E-03 0.  1.
    9900012    2    1    2    0    0  0.99551640492E+01 -0.34642466507E+02 -0.18813817742E+02  0.50528861852E+02  0.30000006084E+02 0.  0.
         12    1    1    2    0    0 -0.99551640492E+01  0.34642466507E+02  0.18813817742E+02  0.40659138148E+02  0.00000000000E+00 0. -1.
         11    1    3    3    0    0  0.97887881083E+01 -0.62029756234E+01  0.39834520867E+01  0.12254189896E+02  0.51100000000E-03 0. -1.
        -11    1    3    3    0    0 -0.49364088617E+01 -0.20778321366E+02 -0.17792342108E+02  0.27797017991E+02  0.51100000000E-03 0.  1.
        -12    1    3    3    0    0  0.51027848026E+01 -0.76611695174E+01 -0.50049277204E+01  0.10477653965E+02  0.00000000000E+00 0.  1.
</event>
<event>
 7    1  0.6889665E-012  0.5052886E+02  0.7816164E-02  0.1300439E+00
        -11   -1    0    0    0    0  0.00000000000E+00  0.00000000000E+00  0.45593999997E+02  0.45594000000E+02  0.51100000000E-03 0. -1.
         11   -1    0    0    0    0 -0.00000000000E+00 -0.00000000000E+00 -0.45593999997E+02  0.45594000000E+02  0.51100000000E-03 0.  1.
    9900012    2    1    2    0    0 -0.27616399150E+02  0.17566764070E+02 -0.24122796096E+02  0.50528855968E+02  0.29999988201E+02 0.  0.
         12    1    1    2    0    0  0.27616399150E+02 -0.17566764070E+02  0.24122796096E+02  0.40659144032E+02  0.00000000000E+00 0. -1.
         11    1    3    3    0    0  0.29085892465E+01  0.37083734127E+01 -0.13389980455E+02  0.14195192905E+02  0.51100000000E-03 0. -1.
        -11    1    3    3    0    0 -0.14986741257E+02  0.83177863266E+01 -0.97649646643E+00  0.17168037992E+02  0.51100000000E-03 0.  1.
         12    1    3    3    0    0 -0.15538247139E+02  0.55406043311E+01 -0.97563191750E+01  0.19165625071E+02  0.00000000000E+00 0. -1.
</event>
<event>
 7    1  0.6889665E-012  0.5052887E+02  0.7816164E-02  0.1300439E+00
        -11   -1    0    0    0    0  0.00000000000E+00  0.00000000000E+00  0.45593999997E+02  0.45594000000E+02  0.51100000000E-03 0. -1.
         11   -1    0    0    0    0 -0.00000000000E+00 -0.00000000000E+00 -0.45593999997E+02  0.45594000000E+02  0.51100000000E-03 0.  1.
    9900012    2    1    2    0    0  0.81687036915E+01 -0.62904451820E+01  0.39330239401E+02  0.50528866316E+02  0.30000019655E+02 0.  0.
        -12    1    1    2    0    0 -0.81687036915E+01  0.62904451820E+01 -0.39330239401E+02  0.40659133684E+02  0.00000000000E+00 0.  1.
         11    1    3    3    0    0  0.10949460585E+00 -0.46527571478E+01  0.18553341784E+02  0.19128163261E+02  0.51100000000E-03 0. -1.
        -11    1    3    3    0    0  0.87393912873E+01 -0.75451809608E+01  0.20167622188E+01  0.11720667469E+02  0.51100000000E-03 0.  1.
        -12    1    3    3    0    0 -0.68018220159E+00  0.59074929266E+01  0.18760135398E+02  0.19680035586E+02  0.00000000000E+00 0.  1.
</event>
<event>
 7    1  0.6889665E-012  0.5052885E+02  0.7816164E-02  0.1300439E+00
        -11   -1    0    0    0    0  0.00000000000E+00  0.00000000000E+00  0.45593999997E+02  0.45594000000E+02  0.51100000000E-03 0. -1.
         11   -1    0    0    0    0 -0.00000000000E+00 -0.00000000000E+00 -0.45593999997E+02  0.45594000000E+02  0.51100000000E-03 0.  1.
    9900012    2    1    2    0    0 -0.31510772603E+01  0.33752975552E+02  0.22449363359E+02  0.50528848979E+02  0.29999966956E+02 0.  0.
        -12    1    1    2    0    0  0.31510772603E+01 -0.33752975552E+02 -0.22449363359E+02  0.40659151021E+02  0.00000000000E+00 0.  1.
         11    1    3    3    0    0  0.32079130858E+01  0.63623279758E+01  0.26711827248E+01  0.76095427621E+01  0.51100000000E-03 0. -1.
        -11    1    3    3    0    0  0.91593875671E+01  0.52359096686E+01  0.87570393274E+01  0.13711122080E+02  0.51100000000E-03 0.  1.
        -12    1    3    3    0    0 -0.15518377913E+02  0.22154737908E+02  0.11021141307E+02  0.29208184136E+02  0.00000000000E+00 0.  1.
</event>
<event>
 7    1  0.6889665E-012  0.5052887E+02  0.7816164E-02  0.1300439E+00
        -11   -1    0    0    0    0  0.00000000000E+00  0.00000000000E+00  0.45593999997E+02  0.45594000000E+02  0.51100000000E-03 0. -1.
         11   -1    0    0    0    0 -0.00000000000E+00 -0.00000000000E+00 -0.45593999997E+02  0.45594000000E+02  0.51100000000E-03 0.  1.
    9900012    2    1    2    0    0  0.38196778813E+02  0.11574678085E+01 -0.13886376488E+02  0.50528867012E+02  0.30000021768E+02 0.  0.
         12    1    1    2    0    0 -0.38196778813E+02 -0.11574678085E+01  0.13886376488E+02  0.40659132988E+02  0.00000000000E+00 0. -1.
         11    1    3    3    0    0  0.15398905606E+02  0.69613955159E+01  0.11200345085E+01  0.16936404546E+02  0.51100000000E-03 0. -1.
        -11    1    3    3    0    0  0.19585787449E+01 -0.84100131955E+01 -0.70018785037E+01  0.11117133421E+02  0.51100000000E-03 0.  1.
        -12    1    3    3    0    0  0.20839294462E+02  0.26060854882E+01 -0.80045324931E+01  0.22475329045E+02  0.00000000000E+00 0.  1.
</event>
<event>
 7    1  0.6889665E-012  0.5052886E+02  0.7816164E-02  0.1300439E+00
        -11   -1    0    0    0    0  0.00000000000E+00  0.00000000000E+00  0.45593999997E+02  0.45594000000E+02  0.51100000000E-03 0. -1.
         11   -1    0    0    0    0 -0.00000000000E+00 -0.00000000000E+00 -0.45593999997E+02  0.45594000000E+02  0.51100000000E-03 0.  1.
    9900012    2    1    2    0    0  0.16228523860E+02 -0.54121756438E+01  0.36885080125E+02  0.50528858744E+02  0.29999996638E+02 0.  0.
        -12    1    1    2    0    0 -0.16228523860E+02  0.54121756438E+01 -0.36885080125E+02  0.40659141256E+02  0.00000000000E+00 0.  1.
         11    1    3    3    0    0  0.51994320374E+01  0.83596828102E+01  0.83350928597E+01  0.12899308642E+02  0.51100000000E-03 0. -1.
        -11    1    3    3    0    0  0.55223680034E+01 -0.16262535322E+02  0.25790116682E+02  0.30985427578E+02  0.51100000000E-03 0.  1.
        -12    1    3    3    0    0  0.55067238190E+01  0.24906768678E+01  0.27598705835E+01  0.66441225242E+01  0.00000000000E+00 0.  1.
</event>
<event>
 7    1  0.6889665E-012  0.5052885E+02  0.7816164E-02  0.1300439E+00
        -11   -1    0    0    0    0  0.00000000000E+00  0.00000000000E+00  0.45593999997E+02  0.45594000000E+02  0.51100000000E-03 0. -1.
         11   -1    0    0    0    0 -0.00000000000E+00 -0.00000000000E+00 -0.45593999997E+02  0.45594000000E+02  0.51100000000E-03 0.  1.
    9900012    2    1    2    0    0  0.17778418177E+02  0.20589241851E+02 -0.30218832187E+02  0.50528845415E+02  0.29999956123E+02 0.  0.
         12    1    1    2    0    0 -0.17778418177E+02 -0.20589241851E+02  0.30218832187E+02  0.40659154585E+02  0.00000000000E+00 0. -1.
         11    1    3    3    0    0  0.20788487096E+01 -0.51745289894E+01  0.83321560143E+00  0.56384049801E+01  0.51100000000E-03 0. -1.
        -11    1    3    3    0    0  0.17264930820E+02  0.21103479983E+02 -0.28109499102E+02  0.39160932620E+02  0.51100000000E-03 0.  1.
        -12    1    3    3    0    0 -0.15653613523E+01  0.46602908565E+01 -0.29425486862E+01  0.57295078149E+01  0.00000000000E+00 0.  1.
</event>
<event>
 7    1  0.7120457E-012  0.5052887E+02  0.7816164E-02  0.1300439E+00
        -11   -1    0    0    0    0  0.00000000000E+00  0.00000000000E+00  0.45593999997E+02  0.45594000000E+02  0.51100000000E-03 0. -1.
         11   -1    0    0    0    0 -0.00000000000E+00 -0.00000000000E+00 -0.45593999997E+02  0.45594000000E+02  0.51100000000E-03 0.  1.
    9900012    2    1    2    0    0  0.14119395236E+02 -0.15353737566E+02  0.34900858001E+02  0.50528874723E+02  0.30000045208E+02 0.  0.
        -12    1    1    2    0    0 -0.14119395236E+02  0.15353737566E+02 -0.34900858001E+02  0.40659125277E+02  0.00000000000E+00 0.  1.
         11    1    3    3    0    0  0.65725793166E+01 -0.21397113365E+02  0.16771448716E+02  0.27969925841E+02  0.51100000000E-03 0. -1.
        -11    1    3    3    0    0  0.71301208374E+00  0.12869362279E+01 -0.94356120391E+00  0.17478269631E+01  0.51100000000E-03 0.  1.
         12    1    3    3    0    0  0.68338038355E+01  0.47564395712E+01  0.19072970489E+02  0.20811121919E+02  0.00000000000E+00 0. -1.
</event>
<event>
 7    1  0.6889665E-012  0.5052886E+02  0.7816164E-02  0.1300439E+00
        -11   -1    0    0    0    0  0.00000000000E+00  0.00000000000E+00  0.45593999997E+02  0.45594000000E+02  0.51100000000E-03 0. -1.
         11   -1    0    0    0    0 -0.00000000000E+00 -0.00000000000E+00 -0.45593999997E+02  0.45594000000E+02  0.51100000000E-03 0.  1.
    9900012    2    1    2    0    0  0.21310500571E+02 -0.25584083792E+02 -0.23334156251E+02  0.50528860486E+02  0.30000001933E+02 0.  0.
         12    1    1    2    0    0 -0.21310500571E+02  0.25584083792E+02  0.23334156251E+02  0.40659139514E+02  0.00000000000E+00 0. -1.
         11    1    3    3    0    0  0.68523842347E+01 -0.12640051311E+02 -0.13961315712E+01  0.14445596231E+02  0.51100000000E-03 0. -1.
        -11    1    3    3    0    0  0.12302743521E+02 -0.93462535548E+01 -0.26000314202E+02  0.30244442341E+02  0.51100000000E-03 0.  1.
        -12    1    3    3    0    0  0.21553728148E+01 -0.35977789271E+01  0.40622895222E+01  0.58388219138E+01  0.00000000000E+00 0.  1.
</event>
<event>
 7    1  0.6889665E-012  0.5052886E+02  0.7816164E-02  0.1300439E+00
        -11   -1    0    0    0    0  0.00000000000E+00  0.00000000000E+00  0.45593999997E+02  0.45594000000E+02  0.51100000000E-03 0. -1.
         11   -1    0    0    0    0 -0.00000000000E+00 -0.00000000000E+00 -0.45593999997E+02  0.45594000000E+02  0.51100000000E-03 0.  1.
    9900012    2    1    2    0    0  0.23376853231E+02 -0.31940704772E+02  0.92994598291E+01  0.50528857837E+02  0.29999993880E+02 0.  0.
        -12    1    1    2    0    0 -0.23376853231E+02  0.31940704772E+02 -0.92994598291E+01  0.40659142163E+02  0.00000000000E+00 0.  1.
         11    1    3    3    0    0  0.23899547912E+02 -0.11367074158E+02  0.75262238309E+00  0.26475747507E+02  0.51100000000E-03 0. -1.
        -11    1    3    3    0    0 -0.22793212961E+01 -0.66273537119E+01 -0.97404616983E+00  0.70757253335E+01  0.51100000000E-03 0.  1.
         12    1    3    3    0    0  0.17566266152E+01 -0.13946276902E+02  0.95208836158E+01  0.16977384997E+02  0.00000000000E+00 0. -1.
</event>
<event>
 7    1  0.6929187E-012  0.5052886E+02  0.7816164E-02  0.1300439E+00
        -11   -1    0    0    0    0  0.00000000000E+00  0.00000000000E+00  0.45593999997E+02  0.45594000000E+02  0.51100000000E-03 0. -1.
         11   -1    0    0    0    0 -0.00000000000E+00 -0.00000000000E+00 -0.45593999997E+02  0.45594000000E+02  0.51100000000E-03 0.  1.
    9900012    2    1    2    0    0 -0.20926215847E+02 -0.51629854803E+01  0.34476121092E+02  0.50528857679E+02  0.29999993400E+02 0.  0.
        -12    1    1    2    0    0  0.20926215847E+02  0.51629854803E+01 -0.34476121092E+02  0.40659142321E+02  0.00000000000E+00 0.  1.
         11    1    3    3    0    0  0.33338331892E+01  0.31855294052E+01  0.18637535183E+02  0.19199472890E+02  0.51100000000E-03 0. -1.
        -11    1    3    3    0    0 -0.75251459559E+01 -0.47465461194E+01  0.15490205115E+01  0.90308906829E+01  0.51100000000E-03 0.  1.
         12    1    3    3    0    0 -0.16734903081E+02 -0.36019687661E+01  0.14289565398E+02  0.22298494105E+02  0.00000000000E+00 0. -1.
</event>
<event>
 7    1  0.6889665E-012  0.5052885E+02  0.7816164E-02  0.1300439E+00
        -11   -1    0    0    0    0  0.00000000000E+00  0.00000000000E+00  0.45593999997E+02  0.45594000000E+02  0.51100000000E-03 0. -1.
         11   -1    0    0    0    0 -0.00000000000E+00 -0.00000000000E+00 -0.45593999997E+02  0.45594000000E+02  0.51100000000E-03 0.  1.
    9900012    2    1    2    0    0  0.14978024248E+02 -0.28832070601E+02  0.24444569690E+02  0.50528849826E+02  0.29999969532E+02 0.  0.
        -12    1    1    2    0    0 -0.14978024248E+02  0.28832070601E+02 -0.24444569690E+02  0.40659150174E+02  0.00000000000E+00 0.  1.
         11    1    3    3    0    0  0.43138354686E+00 -0.90861806953E+01  0.10650375509E+02  0.14006258249E+02  0.51100000000E-03 0. -1.
        -11    1    3    3    0    0  0.39193717038E+01 -0.12672862286E+01 -0.61028241386E+01  0.73628765890E+01  0.51100000000E-03 0.  1.
        -12    1    3    3    0    0  0.10627268997E+02 -0.18478603677E+02  0.19897018320E+02  0.29159714989E+02  0.00000000000E+00 0.  1.
</event>
<event>
 7    1  0.6889665E-012  0.5052887E+02  0.7816164E-02  0.1300439E+00
        -11   -1    0    0    0    0  0.00000000000E+00  0.00000000000E+00  0.45593999997E+02  0.45594000000E+02  0.51100000000E-03 0. -1.
         11   -1    0    0    0    0 -0.00000000000E+00 -0.00000000000E+00 -0.45593999997E+02  0.45594000000E+02  0.51100000000E-03 0.  1.
    9900012    2    1    2    0    0 -0.25791886473E+02 -0.22634526018E+02 -0.21808755844E+02  0.50528868094E+02  0.30000025059E+02 0.  0.
         12    1    1    2    0    0  0.25791886473E+02  0.22634526018E+02  0.21808755844E+02  0.40659131906E+02  0.00000000000E+00 0. -1.
         11    1    3    3    0    0 -0.25232508057E+02 -0.70298948301E+01 -0.19777658905E+02  0.32821558101E+02  0.51100000000E-03 0. -1.
        -11    1    3    3    0    0 -0.34823618921E+01 -0.77563550348E+01 -0.35181884181E+01  0.92013878182E+01  0.51100000000E-03 0.  1.
         12    1    3    3    0    0  0.29229834760E+01 -0.78482761528E+01  0.14870914798E+01  0.85059221746E+01  0.00000000000E+00 0. -1.
</event>
<event>
 7    1  0.6889665E-012  0.5052887E+02  0.7816164E-02  0.1300439E+00
        -11   -1    0    0    0    0  0.00000000000E+00  0.00000000000E+00  0.45593999997E+02  0.45594000000E+02  0.51100000000E-03 0. -1.
         11   -1    0    0    0    0 -0.00000000000E+00 -0.00000000000E+00 -0.45593999997E+02  0.45594000000E+02  0.51100000000E-03 0.  1.
    9900012    2    1    2    0    0  0.25608398548E+02  0.25621222251E+01 -0.31477145452E+02  0.50528865328E+02  0.30000016650E+02 0.  0.
         12    1    1    2    0    0 -0.25608398548E+02 -0.25621222251E+01  0.31477145452E+02  0.40659134672E+02  0.00000000000E+00 0. -1.
         11    1    3    3    0    0 -0.67022748840E-01 -0.63275592224E+01  0.69508139147E-02  0.63279180096E+01  0.51100000000E-03 0. -1.
        -11    1    3    3    0    0  0.86250272237E+01  0.85121589849E+01 -0.20810712333E+02  0.24081812500E+02  0.51100000000E-03 0.  1.
         12    1    3    3    0    0  0.17050394073E+02  0.37752246256E+00 -0.10673383933E+02  0.20119134818E+02  0.00000000000E+00 0. -1.
</event>
<event>
 7    1  0.6889665E-012  0.5052889E+02  0.7816164E-02  0.1300439E+00
        -11   -1    0    0    0    0  0.00000000000E+00  0.00000000000E+00  0.45593999997E+02  0.45594000000E+02  0.51100000000E-03 0.  1.
         11   -1    0    0    0    0 -0.00000000000E+00 -0.00000000000E+00 -0.45593999997E+02  0.45594000000E+02  0.51100000000E-03 0. -1.
    9900012    2    1    2    0    0  0.35464584616E+02  0.32208577923E+01 -0.19622761420E+02  0.50528887213E+02  0.30000083172E+02 0.  0.
        -12    1    1    2    0    0 -0.35464584616E+02 -0.32208577923E+01  0.19622761420E+02  0.40659112787E+02  0.00000000000E+00 0.  1.
         11    1    3    3    0    0  0.26838899140E+02 -0.13566138374E+01 -0.21436554014E+01  0.26958526794E+02  0.51100000000E-03 0. -1.
        -11    1    3    3    0    0  0.44577618588E+01 -0.18966084700E+01 -0.43035125548E+00  0.48635344085E+01  0.51100000000E-03 0.  1.
         12    1    3    3    0    0  0.41679236172E+01  0.64740800997E+01 -0.17048754763E+02  0.18706826010E+02  0.00000000000E+00 0. -1.
</event>
<event>
 7    1  0.6889665E-012  0.5052886E+02  0.7816164E-02  0.1300439E+00
        -11   -1    0    0    0    0  0.00000000000E+00  0.00000000000E+00  0.45593999997E+02  0.45594000000E+02  0.51100000000E-03 0.  1.
         11   -1    0    0    0    0 -0.00000000000E+00 -0.00000000000E+00 -0.45593999997E+02  0.45594000000E+02  0.51100000000E-03 0. -1.
    9900012    2    1    2    0    0  0.23953851034E+02 -0.11413302511E+02  0.30807712206E+02  0.50528860992E+02  0.30000003470E+02 0.  0.
        -12    1    1    2    0    0 -0.23953851034E+02  0.11413302511E+02 -0.30807712206E+02  0.40659139008E+02  0.00000000000E+00 0.  1.
         11    1    3    3    0    0  0.22662737211E+02 -0.63381543829E+01  0.20803068707E+02  0.31409226777E+02  0.51100000000E-03 0. -1.
        -11    1    3    3    0    0  0.94959934932E+00 -0.87661788582E+01  0.40227247074E+00  0.88266332256E+01  0.51100000000E-03 0.  1.
        -12    1    3    3    0    0  0.34151447348E+00  0.36910307301E+01  0.96023710282E+01  0.10293000988E+02  0.00000000000E+00 0.  1.
</event>
<event>
 7    1  0.6889665E-012  0.5052886E+02  0.7816164E-02  0.1300439E+00
        -11   -1    0    0    0    0  0.00000000000E+00  0.00000000000E+00  0.45593999997E+02  0.45594000000E+02  0.51100000000E-03 0. -1.
         11   -1    0    0    0    0 -0.00000000000E+00 -0.00000000000E+00 -0.45593999997E+02  0.45594000000E+02  0.51100000000E-03 0.  1.
    9900012    2    1    2    0    0 -0.13713505684E+02  0.17935541124E+02 -0.33814523927E+02  0.50528857092E+02  0.29999991618E+02 0.  0.
         12    1    1    2    0    0  0.13713505684E+02 -0.17935541124E+02  0.33814523927E+02  0.40659142908E+02  0.00000000000E+00 0. -1.
         11    1    3    3    0    0  0.83960129242E+01  0.48839585826E+01 -0.52089926152E+01  0.11021782469E+02  0.51100000000E-03 0. -1.
        -11    1    3    3    0    0 -0.11202713437E+02  0.25822755861E+01 -0.16646682918E+02  0.20230694204E+02  0.51100000000E-03 0.  1.
         12    1    3    3    0    0 -0.10906805170E+02  0.10469306956E+02 -0.11958848394E+02  0.19276380419E+02  0.00000000000E+00 0. -1.
</event>
<event>
 7    1  0.6889665E-012  0.5052886E+02  0.7816164E-02  0.1300439E+00
        -11   -1    0    0    0    0  0.00000000000E+00  0.00000000000E+00  0.45593999997E+02  0.45594000000E+02  0.51100000000E-03 0. -1.
         11   -1    0    0    0    0 -0.00000000000E+00 -0.00000000000E+00 -0.45593999997E+02  0.45594000000E+02  0.51100000000E-03 0.  1.
    9900012    2    1    2    0    0  0.57421446224E+01  0.33043273595E+02 -0.22985552517E+02  0.50528858601E+02  0.29999996204E+02 0.  0.
         12    1    1    2    0    0 -0.57421446224E+01 -0.33043273595E+02  0.22985552517E+02  0.40659141399E+02  0.00000000000E+00 0. -1.
         11    1    3    3    0    0  0.51799891047E+01  0.18951603027E+02  0.19761481871E+01  0.19745903533E+02  0.51100000000E-03 0. -1.
        -11    1    3    3    0    0  0.16459317692E+01  0.15857093988E+02 -0.22132297517E+02  0.27276273843E+02  0.51100000000E-03 0.  1.
        -12    1    3    3    0    0 -0.10837762515E+01 -0.17654234200E+01 -0.28294031875E+01  0.35066812248E+01  0.00000000000E+00 0.  1.
</event>
<event>
 7    1  0.6889665E-012  0.5052886E+02  0.7816164E-02  0.1300439E+00
        -11   -1    0    0    0    0  0.00000000000E+00  0.00000000000E+00  0.45593999997E+02  0.45594000000E+02  0.51100000000E-03 0. -1.
         11   -1    0    0    0    0 -0.00000000000E+00 -0.00000000000E+00 -0.45593999997E+02  0.45594000000E+02  0.51100000000E-03 0.  1.
    9900012    2    1    2    0    0 -0.11638360979E+02 -0.26862468091E+02 -0.28215634008E+02  0.50528860306E+02  0.30000001386E+02 0.  0.
         12    1    1    2    0    0  0.11638360979E+02  0.26862468091E+02  0.28215634008E+02  0.40659139694E+02  0.00000000000E+00 0. -1.
         11    1    3    3    0    0 -0.22989437717E+01 -0.10053683834E+02 -0.17290647893E+02  0.20132764488E+02  0.51100000000E-03 0. -1.
        -11    1    3    3    0    0  0.47037918331E+01  0.18111989490E+01 -0.20949880059E+01  0.54584864429E+01  0.51100000000E-03 0.  1.
        -12    1    3    3    0    0 -0.14043209041E+02 -0.18619983205E+02 -0.88299981089E+01  0.24937609375E+02  0.00000000000E+00 0.  1.
</event>
<event>
 7    1  0.6889665E-012  0.5052884E+02  0.7816164E-02  0.1300439E+00
        -11   -1    0    0    0    0  0.00000000000E+00  0.00000000000E+00  0.45593999997E+02  0.45594000000E+02  0.51100000000E-03 0. -1.
         11   -1    0    0    0    0 -0.00000000000E+00 -0.00000000000E+00 -0.45593999997E+02  0.45594000000E+02  0.51100000000E-03 0.  1.
    9900012    2    1    2    0    0  0.14309318255E+01  0.32494368226E+02 -0.24397447681E+02  0.50528843766E+02  0.29999951112E+02 0.  0.
         12    1    1    2    0    0 -0.14309318255E+01 -0.32494368226E+02  0.24397447681E+02  0.40659156234E+02  0.00000000000E+00 0. -1.
         11    1    3    3    0    0 -0.63445895145E+01  0.15080519185E+02  0.31264027826E+01  0.16656838524E+02  0.51100000000E-03 0. -1.
        -11    1    3    3    0    0  0.40795295303E+01  0.66317246063E+01 -0.73844186560E+01  0.10730888667E+02  0.51100000000E-03 0.  1.
         12    1    3    3    0    0  0.36959918098E+01  0.10782124435E+02 -0.20139431808E+02  0.23141116575E+02  0.00000000000E+00 0. -1.
</event>
<event>
 7    1  0.1141884E-011  0.5052886E+02  0.7816164E-02  0.1300439E+00
        -11   -1    0    0    0    0  0.00000000000E+00  0.00000000000E+00  0.45593999997E+02  0.45594000000E+02  0.51100000000E-03 0. -1.
         11   -1    0    0    0    0 -0.00000000000E+00 -0.00000000000E+00 -0.45593999997E+02  0.45594000000E+02  0.51100000000E-03 0.  1.
    9900012    2    1    2    0    0  0.39079976240E+01 -0.24132160653E+02  0.32488952467E+02  0.50528860122E+02  0.30000000826E+02 0.  0.
        -12    1    1    2    0    0 -0.39079976240E+01  0.24132160653E+02 -0.32488952467E+02  0.40659139878E+02  0.00000000000E+00 0.  1.
         11    1    3    3    0    0 -0.63137308486E+01 -0.15046896363E+02  0.22133706081E+02  0.27498604192E+02  0.51100000000E-03 0. -1.
        -11    1    3    3    0    0  0.70305336439E+01 -0.10033427118E+02  0.10388581369E+00  0.12251891918E+02  0.51100000000E-03 0.  1.
         12    1    3    3    0    0  0.31911948287E+01  0.94816282705E+00  0.10251360573E+02  0.10778364012E+02  0.00000000000E+00 0. -1.
</event>
<event>
 7    1  0.6889665E-012  0.5052895E+02  0.7816164E-02  0.1300438E+00
        -11   -1    0    0    0    0  0.00000000000E+00  0.00000000000E+00  0.45593999997E+02  0.45594000000E+02  0.51100000000E-03 0. -1.
         11   -1    0    0    0    0 -0.00000000000E+00 -0.00000000000E+00 -0.45593999997E+02  0.45594000000E+02  0.51100000000E-03 0.  1.
    9900012    2    1    2    0    0  0.38387380148E+02  0.53061932045E+01 -0.12304948788E+02  0.50528949278E+02  0.30000271825E+02 0.  0.
         12    1    1    2    0    0 -0.38387380148E+02 -0.53061932045E+01  0.12304948788E+02  0.40659050722E+02  0.00000000000E+00 0. -1.
         11    1    3    3    0    0  0.24999101881E+02 -0.57238668902E+01  0.41727667819E-01  0.25646042356E+02  0.51100000000E-03 0. -1.
        -11    1    3    3    0    0  0.54348392425E+01 -0.62300278796E+00 -0.87563554624E+01  0.10324697153E+02  0.51100000000E-03 0.  1.
         12    1    3    3    0    0  0.79534390239E+01  0.11653062883E+02 -0.35903209930E+01  0.14558209769E+02  0.00000000000E+00 0. -1.
</event>
<event>
 7    1  0.6889665E-012  0.5052882E+02  0.7816164E-02  0.1300439E+00
        -11   -1    0    0    0    0  0.00000000000E+00  0.00000000000E+00  0.45593999997E+02  0.45594000000E+02  0.51100000000E-03 0.  1.
         11   -1    0    0    0    0 -0.00000000000E+00 -0.00000000000E+00 -0.45593999997E+02  0.45594000000E+02  0.51100000000E-03 0. -1.
    9900012    2    1    2    0    0  0.14058844820E+02  0.25908889137E+02  0.28004418085E+02  0.50528817934E+02  0.29999872591E+02 0.  0.
        -12    1    1    2    0    0 -0.14058844820E+02 -0.25908889137E+02 -0.28004418085E+02  0.40659182066E+02  0.00000000000E+00 0.  1.
         11    1    3    3    0    0  0.23759935936E+00  0.40082882223E+01 -0.20918088325E+01  0.45275260773E+01  0.51100000000E-03 0. -1.
        -11    1    3    3    0    0  0.16695497135E+02  0.64262098610E+01  0.10065439923E+02  0.20526784426E+02  0.51100000000E-03 0.  1.
        -12    1    3    3    0    0 -0.28742516745E+01  0.15474391054E+02  0.20030786995E+02  0.25474507431E+02  0.00000000000E+00 0.  1.
</event>
<event>
 7    1  0.6889665E-012  0.5052888E+02  0.7816164E-02  0.1300439E+00
        -11   -1    0    0    0    0  0.00000000000E+00  0.00000000000E+00  0.45593999997E+02  0.45594000000E+02  0.51100000000E-03 0. -1.
         11   -1    0    0    0    0 -0.00000000000E+00 -0.00000000000E+00 -0.45593999997E+02  0.45594000000E+02  0.51100000000E-03 0.  1.
    9900012    2    1    2    0    0 -0.24518411402E+01  0.24152417501E+02 -0.32616153016E+02  0.50528877608E+02  0.30000053978E+02 0.  0.
         12    1    1    2    0    0  0.24518411402E+01 -0.24152417501E+02  0.32616153016E+02  0.40659122392E+02  0.00000000000E+00 0. -1.
         11    1    3    3    0    0 -0.29124655258E+01 -0.23326503425E+01 -0.10359210790E+02  0.11010765710E+02  0.51100000000E-03 0. -1.
        -11    1    3    3    0    0  0.14185193636E+01  0.19236891568E+02 -0.25115510823E+02  0.31667950337E+02  0.51100000000E-03 0.  1.
         12    1    3    3    0    0 -0.95789497805E+00  0.72481762762E+01  0.28585685975E+01  0.78501615618E+01  0.00000000000E+00 0. -1.
</event>
<event>
 7    1  0.6889665E-012  0.5052886E+02  0.7816164E-02  0.1300439E+00
        -11   -1    0    0    0    0  0.00000000000E+00  0.00000000000E+00  0.45593999997E+02  0.45594000000E+02  0.51100000000E-03 0.  1.
         11   -1    0    0    0    0 -0.00000000000E+00 -0.00000000000E+00 -0.45593999997E+02  0.45594000000E+02  0.51100000000E-03 0. -1.
    9900012    2    1    2    0    0  0.36310220317E+02  0.69059569992E+01  0.16942294713E+02  0.50528859679E+02  0.29999999479E+02 0.  0.
        -12    1    1    2    0    0 -0.36310220317E+02 -0.69059569992E+01 -0.16942294713E+02  0.40659140321E+02  0.00000000000E+00 0.  1.
         11    1    3    3    0    0  0.81639962120E+01  0.12804582147E+02 -0.18254010488E+01  0.15295105340E+02  0.51100000000E-03 0. -1.
        -11    1    3    3    0    0  0.20067325863E+02 -0.19386313293E+01  0.16240293262E+02  0.25888278896E+02  0.51100000000E-03 0.  1.
        -12    1    3    3    0    0  0.80788982418E+01 -0.39599938188E+01  0.25274025000E+01  0.93454754423E+01  0.00000000000E+00 0.  1.
</event>
<event>
 7    1  0.6889665E-012  0.5052885E+02  0.7816164E-02  0.1300439E+00
        -11   -1    0    0    0    0  0.00000000000E+00  0.00000000000E+00  0.45593999997E+02  0.45594000000E+02  0.51100000000E-03 0. -1.
         11   -1    0    0    0    0 -0.00000000000E+00 -0.00000000000E+00 -0.45593999997E+02  0.45594000000E+02  0.51100000000E-03 0.  1.
    9900012    2    1    2    0    0 -0.15970043406E+02 -0.12123875649E+02  0.35371400248E+02  0.50528848477E+02  0.29999965429E+02 0.  0.
        -12    1    1    2    0    0  0.15970043406E+02  0.12123875649E+02 -0.35371400248E+02  0.40659151523E+02  0.00000000000E+00 0.  1.
         11    1    3    3    0    0 -0.96796148659E+01  0.67464023514E+01  0.80548599394E+01  0.14285995154E+02  0.51100000000E-03 0. -1.
        -11    1    3    3    0    0 -0.98034456597E+01 -0.16699732684E+02  0.24568512944E+02  0.31282590159E+02  0.51100000000E-03 0.  1.
         12    1    3    3    0    0  0.35130171200E+01 -0.21705453164E+01  0.27480273644E+01  0.49602631635E+01  0.00000000000E+00 0. -1.
</event>
<event>
 7    1  0.6889665E-012  0.5052886E+02  0.7816164E-02  0.1300439E+00
        -11   -1    0    0    0    0  0.00000000000E+00  0.00000000000E+00  0.45593999997E+02  0.45594000000E+02  0.51100000000E-03 0. -1.
         11   -1    0    0    0    0 -0.00000000000E+00 -0.00000000000E+00 -0.45593999997E+02  0.45594000000E+02  0.51100000000E-03 0.  1.
    9900012    2    1    2    0    0 -0.36964356861E+02  0.68094245738E+01  0.15505930371E+02  0.50528858127E+02  0.29999994762E+02 0.  0.
        -12    1    1    2    0    0  0.36964356861E+02 -0.68094245738E+01 -0.15505930371E+02  0.40659141873E+02  0.00000000000E+00 0.  1.
         11    1    3    3    0    0 -0.30923823899E+02 -0.99889370019E+00  0.14557300256E+02  0.34193503245E+02  0.51100000000E-03 0. -1.
        -11    1    3    3    0    0  0.10708312787E+01  0.67311747170E+01  0.46455176507E+01  0.82484075555E+01  0.51100000000E-03 0.  1.
        -12    1    3    3    0    0 -0.71113642405E+01  0.10771435570E+01 -0.36968875354E+01  0.80869473260E+01  0.00000000000E+00 0.  1.
</event>
<event>
 7    1  0.6889665E-012  0.5052887E+02  0.7816164E-02  0.1300439E+00
        -11   -1    0    0    0    0  0.00000000000E+00  0.00000000000E+00  0.45593999997E+02  0.45594000000E+02  0.51100000000E-03 0. -1.
         11   -1    0    0    0    0 -0.00000000000E+00 -0.00000000000E+00 -0.45593999997E+02  0.45594000000E+02  0.51100000000E-03 0.  1.
    9900012    2    1    2    0    0  0.33751301825E+02 -0.85055178488E+01  0.21015970635E+02  0.50528865350E+02  0.30000016718E+02 0.  0.
        -12    1    1    2    0    0 -0.33751301825E+02  0.85055178488E+01 -0.21015970635E+02  0.40659134650E+02  0.00000000000E+00 0.  1.
         11    1    3    3    0    0  0.23045340443E+02 -0.89248547250E+01  0.18131767370E+02  0.30651292570E+02  0.51100000000E-03 0. -1.
        -11    1    3    3    0    0 -0.37890936904E+01 -0.12373912050E+01  0.34578897824E+01  0.52768712318E+01  0.51100000000E-03 0.  1.
         12    1    3    3    0    0  0.14495055072E+02  0.16567280812E+01 -0.57368651701E+00  0.14600701548E+02  0.00000000000E+00 0. -1.
</event>
<event>
 7    1  0.6889665E-012  0.5052886E+02  0.7816164E-02  0.1300439E+00
        -11   -1    0    0    0    0  0.00000000000E+00  0.00000000000E+00  0.45593999997E+02  0.45594000000E+02  0.51100000000E-03 0. -1.
         11   -1    0    0    0    0 -0.00000000000E+00 -0.00000000000E+00 -0.45593999997E+02  0.45594000000E+02  0.51100000000E-03 0.  1.
    9900012    2    1    2    0    0  0.51008079645E+01  0.14217482205E+02  0.37749315211E+02  0.50528857842E+02  0.29999993895E+02 0.  0.
        -12    1    1    2    0    0 -0.51008079645E+01 -0.14217482205E+02 -0.37749315211E+02  0.40659142158E+02  0.00000000000E+00 0.  1.
         11    1    3    3    0    0  0.57837179668E+00  0.85399832191E+01  0.20854160011E+02  0.22542444795E+02  0.51100000000E-03 0. -1.
        -11    1    3    3    0    0  0.65265322967E+01 -0.55963152246E+01  0.13862201750E+01  0.87083853009E+01  0.51100000000E-03 0.  1.
        -12    1    3    3    0    0 -0.20040961289E+01  0.11273814210E+02  0.15508935025E+02  0.19278027745E+02  0.00000000000E+00 0.  1.
</event>
<event>
 7    1  0.6889665E-012  0.5052886E+02  0.7816164E-02  0.1300439E+00
        -11   -1    0    0    0    0  0.00000000000E+00  0.00000000000E+00  0.45593999997E+02  0.45594000000E+02  0.51100000000E-03 0. -1.
         11   -1    0    0    0    0 -0.00000000000E+00 -0.00000000000E+00 -0.45593999997E+02  0.45594000000E+02  0.51100000000E-03 0.  1.
    9900012    2    1    2    0    0  0.11125760043E+01 -0.16504521557E+02 -0.37142006851E+02  0.50528859206E+02  0.29999998042E+02 0.  0.
         12    1    1    2    0    0 -0.11125760043E+01  0.16504521557E+02  0.37142006851E+02  0.40659140794E+02  0.00000000000E+00 0. -1.
         11    1    3    3    0    0  0.65638095509E+01 -0.10399214761E+02 -0.11105653165E+02  0.16569936510E+02  0.51100000000E-03 0. -1.
        -11    1    3    3    0    0 -0.99835611208E+01 -0.14443368784E+01 -0.37800032654E+01  0.10772466134E+02  0.51100000000E-03 0.  1.
        -12    1    3    3    0    0  0.45323275742E+01 -0.46609699176E+01 -0.22256350421E+02  0.23186456561E+02  0.00000000000E+00 0.  1.
</event>
<event>
 7    1  0.7140227E-012  0.5052887E+02  0.7816164E-02  0.1300439E+00
        -11   -1    0    0    0    0  0.00000000000E+00  0.00000000000E+00  0.45593999997E+02  0.45594000000E+02  0.51100000000E-03 0. -1.
         11   -1    0    0    0    0 -0.00000000000E+00 -0.00000000000E+00 -0.45593999997E+02  0.45594000000E+02  0.51100000000E-03 0.  1.
    9900012    2    1    2    0    0  0.13681779546E+02  0.26284810247E+02 -0.27840309974E+02  0.50528865717E+02  0.30000017832E+02 0.  0.
         12    1    1    2    0    0 -0.13681779546E+02 -0.26284810247E+02  0.27840309974E+02  0.40659134283E+02  0.00000000000E+00 0. -1.
         11    1    3    3    0    0  0.54319604163E+01 -0.16045382096E+01 -0.18222140266E+00  0.56669164218E+01  0.51100000000E-03 0. -1.
        -11    1    3    3    0    0  0.45606203044E+01  0.26841617152E+02 -0.13880256468E+02  0.30560320495E+02  0.51100000000E-03 0.  1.
        -12    1    3    3    0    0  0.36891988255E+01  0.10477313042E+01 -0.13777832103E+02  0.14301628800E+02  0.00000000000E+00 0.  1.
</event>
<event>
 7    1  0.6889665E-012  0.5052888E+02  0.7816164E-02  0.1300439E+00
        -11   -1    0    0    0    0  0.00000000000E+00  0.00000000000E+00  0.45593999997E+02  0.45594000000E+02  0.51100000000E-03 0. -1.
         11   -1    0    0    0    0 -0.00000000000E+00 -0.00000000000E+00 -0.45593999997E+02  0.45594000000E+02  0.51100000000E-03 0.  1.
    9900012    2    1    2    0    0 -0.38079980779E+02  0.11869716559E+02  0.78859995713E+01  0.50528879295E+02  0.30000059104E+02 0.  0.
        -12    1    1    2    0    0  0.38079980779E+02 -0.11869716559E+02 -0.78859995713E+01  0.40659120705E+02  0.00000000000E+00 0.  1.
         11    1    3    3    0    0 -0.78538814170E+01  0.53453097822E+01  0.67645138946E+01  0.11662522818E+02  0.51100000000E-03 0. -1.
        -11    1    3    3    0    0 -0.59200930302E+01  0.22994943104E+00 -0.98274014800E+01  0.11475112127E+02  0.51100000000E-03 0.  1.
        -12    1    3    3    0    0 -0.24306006331E+02  0.62944573456E+01  0.10948887157E+02  0.27391244350E+02  0.00000000000E+00 0.  1.
</event>
<event>
 7    1  0.7939271E-012  0.5052882E+02  0.7816164E-02  0.1300439E+00
        -11   -1    0    0    0    0  0.00000000000E+00  0.00000000000E+00  0.45593999997E+02  0.45594000000E+02  0.51100000000E-03 0. -1.
         11   -1    0    0    0    0 -0.00000000000E+00 -0.00000000000E+00 -0.45593999997E+02  0.45594000000E+02  0.51100000000E-03 0.  1.
    9900012    2    1    2    0    0 -0.19150096131E+02  0.57191759876E+01  0.35408097595E+02  0.50528824761E+02  0.29999893344E+02 0.  0.
        -12    1    1    2    0    0  0.19150096131E+02 -0.57191759876E+01 -0.35408097595E+02  0.40659175239E+02  0.00000000000E+00 0.  1.
         11    1    3    3    0    0 -0.71402529484E+01  0.12632344303E+02  0.25220738385E+02  0.29097164461E+02  0.51100000000E-03 0. -1.
        -11    1    3    3    0    0 -0.16016783653E+01 -0.59962094157E+01 -0.81365433887E+00  0.62595474746E+01  0.51100000000E-03 0.  1.
         12    1    3    3    0    0 -0.10408164817E+02 -0.91695889926E+00  0.11001013549E+02  0.15172112825E+02  0.00000000000E+00 0. -1.
</event>
<event>
 7    1  0.6889665E-012  0.5052886E+02  0.7816164E-02  0.1300439E+00
        -11   -1    0    0    0    0  0.00000000000E+00  0.00000000000E+00  0.45593999997E+02  0.45594000000E+02  0.51100000000E-03 0.  1.
         11   -1    0    0    0    0 -0.00000000000E+00 -0.00000000000E+00 -0.45593999997E+02  0.45594000000E+02  0.51100000000E-03 0. -1.
    9900012    2    1    2    0    0  0.16197745730E+02 -0.33528223559E+02 -0.16329638041E+02  0.50528858097E+02  0.29999994670E+02 0.  0.
         12    1    1    2    0    0 -0.16197745730E+02  0.33528223559E+02  0.16329638041E+02  0.40659141903E+02  0.00000000000E+00 0. -1.
         11    1    3    3    0    0  0.78114305813E+01 -0.13652971162E+02 -0.19465421478E+02  0.25026480033E+02  0.51100000000E-03 0. -1.
        -11    1    3    3    0    0  0.89786171360E+00 -0.89481851057E+00  0.48626647314E+01  0.50251730691E+01  0.51100000000E-03 0.  1.
         12    1    3    3    0    0  0.74884534353E+01 -0.18980433886E+02 -0.17268812947E+01  0.20477204994E+02  0.00000000000E+00 0. -1.
</event>
<event>
 7    1  0.6889665E-012  0.5052887E+02  0.7816164E-02  0.1300439E+00
        -11   -1    0    0    0    0  0.00000000000E+00  0.00000000000E+00  0.45593999997E+02  0.45594000000E+02  0.51100000000E-03 0. -1.
         11   -1    0    0    0    0 -0.00000000000E+00 -0.00000000000E+00 -0.45593999997E+02  0.45594000000E+02  0.51100000000E-03 0.  1.
    9900012    2    1    2    0    0 -0.81291796808E+01  0.27541531487E+02 -0.28784470257E+02  0.50528865148E+02  0.30000016104E+02 0.  0.
         12    1    1    2    0    0  0.81291796808E+01 -0.27541531487E+02  0.28784470257E+02  0.40659134852E+02  0.00000000000E+00 0. -1.
         11    1    3    3    0    0  0.76769237271E+01  0.14911488340E+02 -0.52531783853E+01  0.17575082527E+02  0.51100000000E-03 0. -1.
        -11    1    3    3    0    0 -0.70179208840E+01  0.53403309749E+01 -0.18463794511E+02  0.20461721737E+02  0.51100000000E-03 0.  1.
         12    1    3    3    0    0 -0.87881825240E+01  0.72897121721E+01 -0.50674973610E+01  0.12492060884E+02  0.00000000000E+00 0. -1.
</event>
<event>
 7    1  0.6889665E-012  0.5052891E+02  0.7816164E-02  0.1300439E+00
        -11   -1    0    0    0    0  0.00000000000E+00  0.00000000000E+00  0.45593999997E+02  0.45594000000E+02  0.51100000000E-03 0. -1.
         11   -1    0    0    0    0 -0.00000000000E+00 -0.00000000000E+00 -0.45593999997E+02  0.45594000000E+02  0.51100000000E-03 0.  1.
    9900012    2    1    2    0    0 -0.33448983791E+02  0.62899754452E+01  0.22243270523E+02  0.50528912562E+02  0.30000160223E+02 0.  0.
        -12    1    1    2    0    0  0.33448983791E+02 -0.62899754452E+01 -0.22243270523E+02  0.40659087438E+02  0.00000000000E+00 0.  1.
         11    1    3    3    0    0 -0.19291610507E+02  0.13128268403E+02  0.24852051976E+01  0.23466868397E+02  0.51100000000E-03 0. -1.
        -11    1    3    3    0    0 -0.14312467206E+02 -0.66274106019E+01  0.20734200686E+02  0.26051417757E+02  0.51100000000E-03 0.  1.
        -12    1    3    3    0    0  0.15509392193E+00 -0.21088235631E+00 -0.97613536113E+00  0.10106264078E+01  0.00000000000E+00 0.  1.
</event>
<event>
 7    1  0.6889665E-012  0.5052886E+02  0.7816164E-02  0.1300439E+00
        -11   -1    0    0    0    0  0.00000000000E+00  0.00000000000E+00  0.45593999997E+02  0.45594000000E+02  0.51100000000E-03 0. -1.
         11   -1    0    0    0    0 -0.00000000000E+00 -0.00000000000E+00 -0.45593999997E+02  0.45594000000E+02  0.51100000000E-03 0.  1.
    9900012    2    1    2    0    0  0.82267357694E+01 -0.25283744845E+01  0.39737816435E+02  0.50528856945E+02  0.29999991169E+02 0.  0.
        -12    1    1    2    0    0 -0.82267357694E+01  0.25283744845E+01 -0.39737816435E+02  0.40659143055E+02  0.00000000000E+00 0.  1.
         11    1    3    3    0    0  0.14919989369E+02 -0.10202530722E+01  0.35416511315E+02  0.38444456988E+02  0.51100000000E-03 0.  1.
        -11    1    3    3    0    0 -0.66630045754E+01  0.14789355946E+01 -0.72148340322E-02  0.68251690660E+01  0.51100000000E-03 0. -1.
         12    1    3    3    0    0 -0.30249024401E-01 -0.29870570069E+01  0.43285199540E+01  0.52592308904E+01  0.00000000000E+00 0. -1.
</event>
<event>
 7    1  0.6889665E-012  0.5052886E+02  0.7816164E-02  0.1300439E+00
        -11   -1    0    0    0    0  0.00000000000E+00  0.00000000000E+00  0.45593999997E+02  0.45594000000E+02  0.51100000000E-03 0. -1.
         11   -1    0    0    0    0 -0.00000000000E+00 -0.00000000000E+00 -0.45593999997E+02  0.45594000000E+02  0.51100000000E-03 0.  1.
    9900012    2    1    2    0    0  0.10433260512E+02 -0.22925357378E+02 -0.31917722386E+02  0.50528856648E+02  0.29999990267E+02 0.  0.
         12    1    1    2    0    0 -0.10433260512E+02  0.22925357378E+02  0.31917722386E+02  0.40659143352E+02  0.00000000000E+00 0. -1.
         11    1    3    3    0    0  0.18405975864E+02 -0.13469431731E+02 -0.10302870303E+02  0.25027078843E+02  0.51100000000E-03 0. -1.
        -11    1    3    3    0    0 -0.12120783412E+01 -0.55003522688E+01 -0.78014721514E+01  0.96221607228E+01  0.51100000000E-03 0.  1.
         12    1    3    3    0    0 -0.67606370110E+01 -0.39555733780E+01 -0.13813379931E+02  0.15879617082E+02  0.00000000000E+00 0. -1.
</event>
<event>
 7    1  0.6889665E-012  0.5052887E+02  0.7816164E-02  0.1300439E+00
        -11   -1    0    0    0    0  0.00000000000E+00  0.00000000000E+00  0.45593999997E+02  0.45594000000E+02  0.51100000000E-03 0.  1.
         11   -1    0    0    0    0 -0.00000000000E+00 -0.00000000000E+00 -0.45593999997E+02  0.45594000000E+02  0.51100000000E-03 0. -1.
    9900012    2    1    2    0    0  0.37459098509E+02  0.14599292745E+02 -0.60697121661E+01  0.50528870453E+02  0.30000032230E+02 0.  0.
         12    1    1    2    0    0 -0.37459098509E+02 -0.14599292745E+02  0.60697121661E+01  0.40659129547E+02  0.00000000000E+00 0. -1.
         11    1    3    3    0    0 -0.15645759420E+01 -0.28733653066E+00  0.13562632336E+01  0.20904330604E+01  0.51100000000E-03 0. -1.
        -11    1    3    3    0    0  0.23756988094E+02  0.13269486271E+02 -0.15264899609E+02  0.31200815847E+02  0.51100000000E-03 0.  1.
        -12    1    3    3    0    0  0.15266686357E+02  0.16171430046E+01  0.78389242089E+01  0.17237621546E+02  0.00000000000E+00 0.  1.
</event>
<event>
 7    1  0.6889665E-012  0.5052886E+02  0.7816164E-02  0.1300439E+00
        -11   -1    0    0    0    0  0.00000000000E+00  0.00000000000E+00  0.45593999997E+02  0.45594000000E+02  0.51100000000E-03 0. -1.
         11   -1    0    0    0    0 -0.00000000000E+00 -0.00000000000E+00 -0.45593999997E+02  0.45594000000E+02  0.51100000000E-03 0.  1.
    9900012    2    1    2    0    0  0.17297785843E+02  0.10243329920E+02  0.35341570560E+02  0.50528858192E+02  0.29999994960E+02 0.  0.
        -12    1    1    2    0    0 -0.17297785843E+02 -0.10243329920E+02 -0.35341570560E+02  0.40659141808E+02  0.00000000000E+00 0.  1.
         11    1    3    3    0    0  0.82553187481E+01  0.16777118693E+01 -0.23237817752E+01  0.87387050956E+01  0.51100000000E-03 0. -1.
        -11    1    3    3    0    0 -0.92147570905E-01 -0.39851329802E+00  0.19850221034E+02  0.19854434754E+02  0.51100000000E-03 0.  1.
         12    1    3    3    0    0  0.91346146655E+01  0.89641313484E+01  0.17815131301E+02  0.21935718342E+02  0.00000000000E+00 0. -1.
</event>
<event>
 7    1  0.6889665E-012  0.5052887E+02  0.7816164E-02  0.1300439E+00
        -11   -1    0    0    0    0  0.00000000000E+00  0.00000000000E+00  0.45593999997E+02  0.45594000000E+02  0.51100000000E-03 0.  1.
         11   -1    0    0    0    0 -0.00000000000E+00 -0.00000000000E+00 -0.45593999997E+02  0.45594000000E+02  0.51100000000E-03 0. -1.
    9900012    2    1    2    0    0 -0.12466466566E+02 -0.34771748090E+02  0.16990514164E+02  0.50528870331E+02  0.30000031858E+02 0.  0.
        -12    1    1    2    0    0  0.12466466566E+02  0.34771748090E+02 -0.16990514164E+02  0.40659129669E+02  0.00000000000E+00 0.  1.
         11    1    3    3    0    0 -0.15937469556E+02 -0.10458130867E+02  0.10167879735E+02  0.21604657268E+02  0.51100000000E-03 0. -1.
        -11    1    3    3    0    0  0.81368592389E+01 -0.11489777997E+02  0.58408074827E+01  0.15242654264E+02  0.51100000000E-03 0.  1.
        -12    1    3    3    0    0 -0.46658562489E+01 -0.12823839226E+02  0.98182694650E+00  0.13681558799E+02  0.00000000000E+00 0.  1.
</event>
<event>
 7    1  0.6889665E-012  0.5052885E+02  0.7816164E-02  0.1300439E+00
        -11   -1    0    0    0    0  0.00000000000E+00  0.00000000000E+00  0.45593999997E+02  0.45594000000E+02  0.51100000000E-03 0. -1.
         11   -1    0    0    0    0 -0.00000000000E+00 -0.00000000000E+00 -0.45593999997E+02  0.45594000000E+02  0.51100000000E-03 0.  1.
    9900012    2    1    2    0    0 -0.85349843672E+01  0.29772030646E+02  0.26342865930E+02  0.50528851554E+02  0.29999974783E+02 0.  0.
        -12    1    1    2    0    0  0.85349843672E+01 -0.29772030646E+02 -0.26342865930E+02  0.40659148446E+02  0.00000000000E+00 0.  1.
         11    1    3    3    0    0 -0.31702281192E+00  0.12775508959E+02  0.27328935923E+02  0.30169270319E+02  0.51100000000E-03 0. -1.
        -11    1    3    3    0    0 -0.15843077951E+01  0.11247470907E+02 -0.19640558632E+01  0.11527061581E+02  0.51100000000E-03 0.  1.
         12    1    3    3    0    0 -0.66336537602E+01  0.57490507791E+01  0.97798587063E+00  0.88325196537E+01  0.00000000000E+00 0. -1.
</event>
<event>
 7    1  0.6889665E-012  0.5052886E+02  0.7816164E-02  0.1300439E+00
        -11   -1    0    0    0    0  0.00000000000E+00  0.00000000000E+00  0.45593999997E+02  0.45594000000E+02  0.51100000000E-03 0. -1.
         11   -1    0    0    0    0 -0.00000000000E+00 -0.00000000000E+00 -0.45593999997E+02  0.45594000000E+02  0.51100000000E-03 0.  1.
    9900012    2    1    2    0    0 -0.15754442654E+02  0.15645755082E+02 -0.34061317812E+02  0.50528862201E+02  0.30000007147E+02 0.  0.
         12    1    1    2    0    0  0.15754442654E+02 -0.15645755082E+02  0.34061317812E+02  0.40659137799E+02  0.00000000000E+00 0. -1.
         11    1    3    3    0    0 -0.22802284940E+01 -0.49064203596E+01  0.20292408678E+01  0.57784272506E+01  0.51100000000E-03 0. -1.
        -11    1    3    3    0    0 -0.32764183210E+01  0.12104843021E+02 -0.22604164403E+02  0.25849765767E+02  0.51100000000E-03 0.  1.
         12    1    3    3    0    0 -0.10197795839E+02  0.84473324210E+01 -0.13486394277E+02  0.18900669184E+02  0.00000000000E+00 0. -1.
</event>
<event>
 7    1  0.6889665E-012  0.5052886E+02  0.7816164E-02  0.1300439E+00
        -11   -1    0    0    0    0  0.00000000000E+00  0.00000000000E+00  0.45593999997E+02  0.45594000000E+02  0.51100000000E-03 0. -1.
         11   -1    0    0    0    0 -0.00000000000E+00 -0.00000000000E+00 -0.45593999997E+02  0.45594000000E+02  0.51100000000E-03 0.  1.
    9900012    2    1    2    0    0  0.30745771678E+02 -0.24377948802E+02 -0.10657328217E+02  0.50528861930E+02  0.30000006324E+02 0.  0.
         12    1    1    2    0    0 -0.30745771678E+02  0.24377948802E+02  0.10657328217E+02  0.40659138070E+02  0.00000000000E+00 0. -1.
         11    1    3    3    0    0  0.62723636163E+01  0.30356188922E+01 -0.10572131905E+02  0.12662049624E+02  0.51100000000E-03 0. -1.
        -11    1    3    3    0    0  0.16069979625E+02 -0.23641867768E+02  0.91917453066E+00  0.28601171982E+02  0.51100000000E-03 0.  1.
         12    1    3    3    0    0  0.84034284367E+01 -0.37716999264E+01 -0.10043708419E+01  0.92656403240E+01  0.00000000000E+00 0. -1.
</event>
<event>
 7    1  0.6889665E-012  0.5052886E+02  0.7816164E-02  0.1300439E+00
        -11   -1    0    0    0    0  0.00000000000E+00  0.00000000000E+00  0.45593999997E+02  0.45594000000E+02  0.51100000000E-03 0.  1.
         11   -1    0    0    0    0 -0.00000000000E+00 -0.00000000000E+00 -0.45593999997E+02  0.45594000000E+02  0.51100000000E-03 0. -1.
    9900012    2    1    2    0    0 -0.24934605418E+02  0.28164662003E+02  0.15433175958E+02  0.50528860151E+02  0.30000000916E+02 0.  0.
        -12    1    1    2    0    0  0.24934605418E+02 -0.28164662003E+02 -0.15433175958E+02  0.40659139849E+02  0.00000000000E+00 0.  1.
         11    1    3    3    0    0  0.48813711855E+01  0.20919412884E+01 -0.12524093086E+01  0.54564212028E+01  0.51100000000E-03 0. -1.
        -11    1    3    3    0    0 -0.24259511225E+02  0.12719743989E+02  0.10336543940E+02  0.29277293469E+02  0.51100000000E-03 0.  1.
        -12    1    3    3    0    0 -0.55564653780E+01  0.13352976726E+02  0.63490413272E+01  0.15795145479E+02  0.00000000000E+00 0.  1.
</event>
<event>
 7    1  0.6889665E-012  0.5052886E+02  0.7816164E-02  0.1300439E+00
        -11   -1    0    0    0    0  0.00000000000E+00  0.00000000000E+00  0.45593999997E+02  0.45594000000E+02  0.51100000000E-03 0. -1.
         11   -1    0    0    0    0 -0.00000000000E+00 -0.00000000000E+00 -0.45593999997E+02  0.45594000000E+02  0.51100000000E-03 0.  1.
    9900012    2    1    2    0    0  0.16156435108E+02 -0.11072180891E+02  0.35630639093E+02  0.50528855552E+02  0.29999986935E+02 0.  0.
        -12    1    1    2    0    0 -0.16156435108E+02  0.11072180891E+02 -0.35630639093E+02  0.40659144448E+02  0.00000000000E+00 0.  1.
         11    1    3    3    0    0 -0.16181462323E+01 -0.17356276554E+01  0.23074878984E+02  0.23196569595E+02  0.51100000000E-03 0. -1.
        -11    1    3    3    0    0  0.10385149711E+02 -0.10638837532E+01  0.12439117319E+02  0.16239298725E+02  0.51100000000E-03 0.  1.
         12    1    3    3    0    0  0.73894316294E+01 -0.82726694821E+01  0.11664279012E+00  0.11092987231E+02  0.00000000000E+00 0. -1.
</event>
<event>
 7    1  0.6889665E-012  0.5052885E+02  0.7816164E-02  0.1300439E+00
        -11   -1    0    0    0    0  0.00000000000E+00  0.00000000000E+00  0.45593999997E+02  0.45594000000E+02  0.51100000000E-03 0. -1.
         11   -1    0    0    0    0 -0.00000000000E+00 -0.00000000000E+00 -0.45593999997E+02  0.45594000000E+02  0.51100000000E-03 0.  1.
    9900012    2    1    2    0    0  0.12122437063E+02 -0.18260913149E+01 -0.38766971947E+02  0.50528853381E+02  0.29999980336E+02 0.  0.
         12    1    1    2    0    0 -0.12122437063E+02  0.18260913149E+01  0.38766971947E+02  0.40659146619E+02  0.00000000000E+00 0. -1.
         11    1    3    3    0    0 -0.75652903141E+01  0.39381988818E+01 -0.41985912638E+01  0.95063766405E+01  0.51100000000E-03 0. -1.
        -11    1    3    3    0    0  0.13294081800E+02 -0.30489721624E+01 -0.15079833430E+02  0.20332983516E+02  0.51100000000E-03 0.  1.
         12    1    3    3    0    0  0.63936455771E+01 -0.27153180342E+01 -0.19488547254E+02  0.20689493224E+02  0.00000000000E+00 0. -1.
</event>
<event>
 7    1  0.6889665E-012  0.5052883E+02  0.7816164E-02  0.1300439E+00
        -11   -1    0    0    0    0  0.00000000000E+00  0.00000000000E+00  0.45593999997E+02  0.45594000000E+02  0.51100000000E-03 0. -1.
         11   -1    0    0    0    0 -0.00000000000E+00 -0.00000000000E+00 -0.45593999997E+02  0.45594000000E+02  0.51100000000E-03 0.  1.
    9900012    2    1    2    0    0 -0.20904659209E+01 -0.34709239690E+02 -0.21072895779E+02  0.50528827552E+02  0.29999901827E+02 0.  0.
         12    1    1    2    0    0  0.20904659209E+01  0.34709239690E+02  0.21072895779E+02  0.40659172448E+02  0.00000000000E+00 0. -1.
         11    1    3    3    0    0 -0.40950424768E+01 -0.51041847641E+01 -0.66354734099E+01  0.93194196508E+01  0.51100000000E-03 0. -1.
        -11    1    3    3    0    0  0.76577601988E+01  0.69168565502E+00 -0.17829655021E+01  0.78929517008E+01  0.51100000000E-03 0.  1.
        -12    1    3    3    0    0 -0.56531836429E+01 -0.30296740581E+02 -0.12654456867E+02  0.33316456200E+02  0.00000000000E+00 0.  1.
</event>
<event>
 7    1  0.6889665E-012  0.5052886E+02  0.7816164E-02  0.1300439E+00
        -11   -1    0    0    0    0  0.00000000000E+00  0.00000000000E+00  0.45593999997E+02  0.45594000000E+02  0.51100000000E-03 0. -1.
         11   -1    0    0    0    0 -0.00000000000E+00 -0.00000000000E+00 -0.45593999997E+02  0.45594000000E+02  0.51100000000E-03 0.  1.
    9900012    2    1    2    0    0  0.97803399270E+01 -0.26488226377E+02  0.29255507693E+02  0.50528856919E+02  0.29999991091E+02 0.  0.
        -12    1    1    2    0    0 -0.97803399270E+01  0.26488226377E+02 -0.29255507693E+02  0.40659143081E+02  0.00000000000E+00 0.  1.
         11    1    3    3    0    0  0.70671744052E+01 -0.18106153773E+02  0.24219328670E+02  0.31054043859E+02  0.51100000000E-03 0. -1.
        -11    1    3    3    0    0  0.46029582848E+01 -0.68607186405E+01 -0.46561374321E+01  0.94834751691E+01  0.51100000000E-03 0.  1.
        -12    1    3    3    0    0 -0.18897927629E+01 -0.15213539631E+01  0.96923164558E+01  0.99913378907E+01  0.00000000000E+00 0.  1.
</event>
<event>
 7    1  0.6889665E-012  0.5052886E+02  0.7816164E-02  0.1300439E+00
        -11   -1    0    0    0    0  0.00000000000E+00  0.00000000000E+00  0.45593999997E+02  0.45594000000E+02  0.51100000000E-03 0. -1.
         11   -1    0    0    0    0 -0.00000000000E+00 -0.00000000000E+00 -0.45593999997E+02  0.45594000000E+02  0.51100000000E-03 0.  1.
    9900012    2    1    2    0    0  0.18852526771E+02  0.10896296255E+02  0.34336837347E+02  0.50528862814E+02  0.30000009009E+02 0.  0.
        -12    1    1    2    0    0 -0.18852526771E+02 -0.10896296255E+02 -0.34336837347E+02  0.40659137186E+02  0.00000000000E+00 0.  1.
         11    1    3    3    0    0  0.13361307202E+02  0.19712292353E+02  0.17915512613E+02  0.29800412622E+02  0.51100000000E-03 0. -1.
        -11    1    3    3    0    0 -0.12650172909E+01 -0.41983468415E+01  0.46425750315E+01  0.63859132575E+01  0.51100000000E-03 0.  1.
         12    1    3    3    0    0  0.67562368593E+01 -0.46176492568E+01  0.11778749703E+02  0.14342536934E+02  0.00000000000E+00 0. -1.
</event>
<event>
 7    1  0.6889665E-012  0.5052886E+02  0.7816164E-02  0.1300439E+00
        -11   -1    0    0    0    0  0.00000000000E+00  0.00000000000E+00  0.45593999997E+02  0.45594000000E+02  0.51100000000E-03 0. -1.
         11   -1    0    0    0    0 -0.00000000000E+00 -0.00000000000E+00 -0.45593999997E+02  0.45594000000E+02  0.51100000000E-03 0.  1.
    9900012    2    1    2    0    0 -0.42212111435E+01 -0.12559233989E+01  0.40419916183E+02  0.50528860913E+02  0.30000003230E+02 0.  0.
        -12    1    1    2    0    0  0.42212111435E+01  0.12559233989E+01 -0.40419916183E+02  0.40659139087E+02  0.00000000000E+00 0.  1.
         11    1    3    3    0    0  0.94824613689E+00  0.78934685107E-01  0.33753214350E+02  0.33766623767E+02  0.51100000000E-03 0. -1.
        -11    1    3    3    0    0 -0.33413474901E+01 -0.44496119265E+01 -0.30855419506E+01  0.63627210167E+01  0.51100000000E-03 0.  1.
        -12    1    3    3    0    0 -0.18281097903E+01  0.31147538426E+01  0.97522437834E+01  0.10399516129E+02  0.00000000000E+00 0.  1.
</event>
<event>
 7    1  0.6889665E-012  0.5052885E+02  0.7816164E-02  0.1300439E+00
        -11   -1    0    0    0    0  0.00000000000E+00  0.00000000000E+00  0.45593999997E+02  0.45594000000E+02  0.51100000000E-03 0. -1.
         11   -1    0    0    0    0 -0.00000000000E+00 -0.00000000000E+00 -0.45593999997E+02  0.45594000000E+02  0.51100000000E-03 0.  1.
    9900012    2    1    2    0    0 -0.22276490113E+01 -0.16982102078E+02  0.36875630489E+02  0.50528851767E+02  0.29999975430E+02 0.  0.
        -12    1    1    2    0    0  0.22276490113E+01  0.16982102078E+02 -0.36875630489E+02  0.40659148233E+02  0.00000000000E+00 0.  1.
         11    1    3    3    0    0 -0.37411030663E+00 -0.93346102920E+01  0.37911313109E+01  0.10082042685E+02  0.51100000000E-03 0. -1.
        -11    1    3    3    0    0  0.55872882418E+01 -0.78177778185E+01  0.31370531465E+02  0.32809231697E+02  0.51100000000E-03 0.  1.
        -12    1    3    3    0    0 -0.74408269464E+01  0.17028603221E+00  0.17139677128E+01  0.76375773842E+01  0.00000000000E+00 0.  1.
</event>
<event>
 7    1  0.6889665E-012  0.5052886E+02  0.7816164E-02  0.1300439E+00
        -11   -1    0    0    0    0  0.00000000000E+00  0.00000000000E+00  0.45593999997E+02  0.45594000000E+02  0.51100000000E-03 0. -1.
         11   -1    0    0    0    0 -0.00000000000E+00 -0.00000000000E+00 -0.45593999997E+02  0.45594000000E+02  0.51100000000E-03 0.  1.
    9900012    2    1    2    0    0  0.33528722416E+02  0.97443796338E+01  0.20833564033E+02  0.50528861401E+02  0.30000004714E+02 0.  0.
        -12    1    1    2    0    0 -0.33528722416E+02 -0.97443796338E+01 -0.20833564033E+02  0.40659138599E+02  0.00000000000E+00 0.  1.
         11    1    3    3    0    0  0.20619811789E+02  0.12741237714E+02  0.14399122923E+02  0.28193093443E+02  0.51100000000E-03 0. -1.
        -11    1    3    3    0    0 -0.34613928117E+00  0.27798505177E+01 -0.37275471236E+01  0.46628305912E+01  0.51100000000E-03 0.  1.
        -12    1    3    3    0    0  0.13255049909E+02 -0.57767085978E+01  0.10161988233E+02  0.17672937366E+02  0.00000000000E+00 0.  1.
</event>
<event>
 7    1  0.6889665E-012  0.5052887E+02  0.7816164E-02  0.1300439E+00
        -11   -1    0    0    0    0  0.00000000000E+00  0.00000000000E+00  0.45593999997E+02  0.45594000000E+02  0.51100000000E-03 0. -1.
         11   -1    0    0    0    0 -0.00000000000E+00 -0.00000000000E+00 -0.45593999997E+02  0.45594000000E+02  0.51100000000E-03 0.  1.
    9900012    2    1    2    0    0 -0.27549420601E+02  0.16423792378E+02  0.24989061677E+02  0.50528871443E+02  0.30000035237E+02 0.  0.
        -12    1    1    2    0    0  0.27549420601E+02 -0.16423792378E+02 -0.24989061677E+02  0.40659128557E+02  0.00000000000E+00 0.  1.
         11    1    3    3    0    0 -0.22483894608E+02  0.21585731790E+02  0.24331838780E+02  0.39541215362E+02  0.51100000000E-03 0. -1.
        -11    1    3    3    0    0 -0.70850846464E+01 -0.45296010758E+01  0.17747051045E+01  0.85944917721E+01  0.51100000000E-03 0.  1.
        -12    1    3    3    0    0  0.20195586527E+01 -0.63233833597E+00 -0.11174822076E+01  0.23931643084E+01  0.00000000000E+00 0.  1.
</event>
<event>
 7    1  0.6889665E-012  0.5052886E+02  0.7816164E-02  0.1300439E+00
        -11   -1    0    0    0    0  0.00000000000E+00  0.00000000000E+00  0.45593999997E+02  0.45594000000E+02  0.51100000000E-03 0. -1.
         11   -1    0    0    0    0 -0.00000000000E+00 -0.00000000000E+00 -0.45593999997E+02  0.45594000000E+02  0.51100000000E-03 0.  1.
    9900012    2    1    2    0    0 -0.57882102708E+01 -0.20950377585E+02  0.34361954406E+02  0.50528860687E+02  0.30000002544E+02 0.  0.
        -12    1    1    2    0    0  0.57882102708E+01  0.20950377585E+02 -0.34361954406E+02  0.40659139313E+02  0.00000000000E+00 0.  1.
         11    1    3    3    0    0 -0.58761723381E+01 -0.51663394441E+00  0.24314010037E+02  0.25019340445E+02  0.51100000000E-03 0. -1.
        -11    1    3    3    0    0 -0.33273788353E+01 -0.19367996264E+02  0.96987622483E+01  0.21914760291E+02  0.51100000000E-03 0.  1.
         12    1    3    3    0    0  0.34153409025E+01 -0.10657473765E+01  0.34918212080E+00  0.35947599509E+01  0.00000000000E+00 0. -1.
</event>
<event>
 7    1  0.6889665E-012  0.5052887E+02  0.7816164E-02  0.1300439E+00
        -11   -1    0    0    0    0  0.00000000000E+00  0.00000000000E+00  0.45593999997E+02  0.45594000000E+02  0.51100000000E-03 0. -1.
         11   -1    0    0    0    0 -0.00000000000E+00 -0.00000000000E+00 -0.45593999997E+02  0.45594000000E+02  0.51100000000E-03 0.  1.
    9900012    2    1    2    0    0  0.33740603919E+02  0.14123328468E+02  0.17755793226E+02  0.50528868763E+02  0.30000027093E+02 0.  0.
        -12    1    1    2    0    0 -0.33740603919E+02 -0.14123328468E+02 -0.17755793226E+02  0.40659131237E+02  0.00000000000E+00 0.  1.
         11    1    3    3    0    0  0.34182135685E+02  0.96355891412E+01  0.76303472347E+01  0.36324718543E+02  0.51100000000E-03 0. -1.
        -11    1    3    3    0    0 -0.17612838466E+01  0.67374912958E+01  0.54214371686E+01  0.88254116609E+01  0.51100000000E-03 0.  1.
        -12    1    3    3    0    0  0.13197520809E+01 -0.22497519694E+01  0.47040088231E+01  0.53787385590E+01  0.00000000000E+00 0.  1.
</event>
<event>
 7    1  0.6889665E-012  0.5052885E+02  0.7816164E-02  0.1300439E+00
        -11   -1    0    0    0    0  0.00000000000E+00  0.00000000000E+00  0.45593999997E+02  0.45594000000E+02  0.51100000000E-03 0. -1.
         11   -1    0    0    0    0 -0.00000000000E+00 -0.00000000000E+00 -0.45593999997E+02  0.45594000000E+02  0.51100000000E-03 0.  1.
    9900012    2    1    2    0    0  0.96177608691E+01 -0.12237456864E+02  0.37562077753E+02  0.50528851463E+02  0.29999974507E+02 0.  0.
        -12    1    1    2    0    0 -0.96177608691E+01  0.12237456864E+02 -0.37562077753E+02  0.40659148537E+02  0.00000000000E+00 0.  1.
         11    1    3    3    0    0  0.80994550304E+01  0.82660342667E+00  0.28678873702E+02  0.29812115693E+02  0.51100000000E-03 0. -1.
        -11    1    3    3    0    0 -0.28703635005E+01  0.19243697797E+00 -0.15664922774E+01  0.32756551913E+01  0.51100000000E-03 0.  1.
        -12    1    3    3    0    0  0.43886693393E+01 -0.13256497269E+02  0.10449696329E+02  0.17441080579E+02  0.00000000000E+00 0.  1.
</event>
<event>
 7    1  0.6889665E-012  0.5052886E+02  0.7816164E-02  0.1300439E+00
        -11   -1    0    0    0    0  0.00000000000E+00  0.00000000000E+00  0.45593999997E+02  0.45594000000E+02  0.51100000000E-03 0. -1.
         11   -1    0    0    0    0 -0.00000000000E+00 -0.00000000000E+00 -0.45593999997E+02  0.45594000000E+02  0.51100000000E-03 0.  1.
    9900012    2    1    2    0    0  0.10643653149E+02 -0.23892068412E+02  0.31129522800E+02  0.50528862342E+02  0.30000007575E+02 0.  0.
        -12    1    1    2    0    0 -0.10643653149E+02  0.23892068412E+02 -0.31129522800E+02  0.40659137658E+02  0.00000000000E+00 0.  1.
         11    1    3    3    0    0  0.95511359029E+01 -0.91261313797E+01  0.23277784597E+02  0.26765009378E+02  0.51100000000E-03 0. -1.
        -11    1    3    3    0    0  0.14819345328E+00 -0.98367967889E+01 -0.42090641826E+01  0.10700502508E+02  0.51100000000E-03 0.  1.
        -12    1    3    3    0    0  0.94432379319E+00 -0.49291402430E+01  0.12060802385E+02  0.13063350456E+02  0.00000000000E+00 0.  1.
</event>
<event>
 7    1  0.6889665E-012  0.5052886E+02  0.7816164E-02  0.1300439E+00
        -11   -1    0    0    0    0  0.00000000000E+00  0.00000000000E+00  0.45593999997E+02  0.45594000000E+02  0.51100000000E-03 0. -1.
         11   -1    0    0    0    0 -0.00000000000E+00 -0.00000000000E+00 -0.45593999997E+02  0.45594000000E+02  0.51100000000E-03 0.  1.
    9900012    2    1    2    0    0  0.13308757966E+02  0.29750533441E+02  0.24309430488E+02  0.50528859708E+02  0.29999999570E+02 0.  0.
        -12    1    1    2    0    0 -0.13308757966E+02 -0.29750533441E+02 -0.24309430488E+02  0.40659140292E+02  0.00000000000E+00 0.  1.
         11    1    3    3    0    0  0.10460231521E+02  0.24351743470E+02  0.27931321396E+02  0.38504318832E+02  0.51100000000E-03 0. -1.
        -11    1    3    3    0    0 -0.24659072368E+01  0.53996060639E+01 -0.74844730298E+00  0.59830274754E+01  0.51100000000E-03 0.  1.
         12    1    3    3    0    0  0.53144336821E+01 -0.81609331084E-03 -0.28734436052E+01  0.60415134014E+01  0.00000000000E+00 0. -1.
</event>
<event>
 7    1  0.6889665E-012  0.5052887E+02  0.7816164E-02  0.1300439E+00
        -11   -1    0    0    0    0  0.00000000000E+00  0.00000000000E+00  0.45593999997E+02  0.45594000000E+02  0.51100000000E-03 0. -1.
         11   -1    0    0    0    0 -0.00000000000E+00 -0.00000000000E+00 -0.45593999997E+02  0.45594000000E+02  0.51100000000E-03 0.  1.
    9900012    2    1    2    0    0  0.30272281602E+02  0.35292997409E+01  0.26912787172E+02  0.50528866913E+02  0.30000021469E+02 0.  0.
        -12    1    1    2    0    0 -0.30272281602E+02 -0.35292997409E+01 -0.26912787172E+02  0.40659133087E+02  0.00000000000E+00 0.  1.
         11    1    3    3    0    0  0.99844093597E+01  0.81051986480E+01  0.43607071092E+01  0.13579338796E+02  0.51100000000E-03 0. -1.
        -11    1    3    3    0    0  0.16892227840E+02 -0.40962566636E+01  0.26517736115E+02  0.31706734443E+02  0.51100000000E-03 0.  1.
        -12    1    3    3    0    0  0.33956444016E+01 -0.47964224346E+00 -0.39656560528E+01  0.52427936744E+01  0.00000000000E+00 0.  1.
</event>
<event>
 7    1  0.7561626E-012  0.5052885E+02  0.7816164E-02  0.1300439E+00
        -11   -1    0    0    0    0  0.00000000000E+00  0.00000000000E+00  0.45593999997E+02  0.45594000000E+02  0.51100000000E-03 0.  1.
         11   -1    0    0    0    0 -0.00000000000E+00 -0.00000000000E+00 -0.45593999997E+02  0.45594000000E+02  0.51100000000E-03 0. -1.
    9900012    2    1    2    0    0  0.10232667721E+02 -0.23075080089E+02 -0.31874743887E+02  0.50528854563E+02  0.29999983929E+02 0.  0.
         12    1    1    2    0    0 -0.10232667721E+02  0.23075080089E+02  0.31874743887E+02  0.40659145437E+02  0.00000000000E+00 0. -1.
         11    1    3    3    0    0 -0.10425953471E+01  0.35666312035E+01 -0.88413648333E+00  0.38196283565E+01  0.51100000000E-03 0. -1.
        -11    1    3    3    0    0 -0.61568906280E+00 -0.20251417057E+02 -0.12469003428E+02  0.23790229352E+02  0.51100000000E-03 0.  1.
        -12    1    3    3    0    0  0.11890952131E+02 -0.63902942356E+01 -0.18521603975E+02  0.22918996855E+02  0.00000000000E+00 0.  1.
</event>
<event>
 7    1  0.6889665E-012  0.5052886E+02  0.7816164E-02  0.1300439E+00
        -11   -1    0    0    0    0  0.00000000000E+00  0.00000000000E+00  0.45593999997E+02  0.45594000000E+02  0.51100000000E-03 0.  1.
         11   -1    0    0    0    0 -0.00000000000E+00 -0.00000000000E+00 -0.45593999997E+02  0.45594000000E+02  0.51100000000E-03 0. -1.
    9900012    2    1    2    0    0  0.30333726042E+02  0.25406609803E+02 -0.93560265782E+01  0.50528856003E+02  0.29999988306E+02 0.  0.
         12    1    1    2    0    0 -0.30333726042E+02 -0.25406609803E+02  0.93560265782E+01  0.40659143997E+02  0.00000000000E+00 0. -1.
         11    1    3    3    0    0  0.13494387036E+02  0.84728390155E+01  0.59314112616E+01  0.17002032886E+02  0.51100000000E-03 0.  1.
        -11    1    3    3    0    0  0.33920808975E+01 -0.24764138988E+00 -0.10705520455E+02  0.11232796069E+02  0.51100000000E-03 0. -1.
         12    1    3    3    0    0  0.13447258109E+02  0.17181412177E+02 -0.45819173853E+01  0.22294027047E+02  0.00000000000E+00 0. -1.
</event>
<event>
 7    1  0.8727940E-012  0.5052886E+02  0.7816164E-02  0.1300439E+00
        -11   -1    0    0    0    0  0.00000000000E+00  0.00000000000E+00  0.45593999997E+02  0.45594000000E+02  0.51100000000E-03 0. -1.
         11   -1    0    0    0    0 -0.00000000000E+00 -0.00000000000E+00 -0.45593999997E+02  0.45594000000E+02  0.51100000000E-03 0.  1.
    9900012    2    1    2    0    0  0.23346933379E+02  0.84359452451E+01 -0.32201257643E+02  0.50528862477E+02  0.30000007984E+02 0.  0.
         12    1    1    2    0    0 -0.23346933379E+02 -0.84359452451E+01  0.32201257643E+02  0.40659137523E+02  0.00000000000E+00 0. -1.
         11    1    3    3    0    0  0.12210113754E+02  0.23975895276E+01 -0.24597824704E+01  0.12684078346E+02  0.51100000000E-03 0. -1.
        -11    1    3    3    0    0  0.22896444542E+01  0.12317633631E+02 -0.16804179591E+02  0.20960606432E+02  0.51100000000E-03 0.  1.
        -12    1    3    3    0    0  0.88471751710E+01 -0.62792779134E+01 -0.12937295581E+02  0.16884177699E+02  0.00000000000E+00 0.  1.
</event>
<event>
 7    1  0.6889665E-012  0.5052886E+02  0.7816164E-02  0.1300439E+00
        -11   -1    0    0    0    0  0.00000000000E+00  0.00000000000E+00  0.45593999997E+02  0.45594000000E+02  0.51100000000E-03 0. -1.
         11   -1    0    0    0    0 -0.00000000000E+00 -0.00000000000E+00 -0.45593999997E+02  0.45594000000E+02  0.51100000000E-03 0.  1.
    9900012    2    1    2    0    0 -0.24826516265E+02 -0.10664082900E+02  0.30382352311E+02  0.50528857044E+02  0.29999991470E+02 0.  0.
        -12    1    1    2    0    0  0.24826516265E+02  0.10664082900E+02 -0.30382352311E+02  0.40659142956E+02  0.00000000000E+00 0.  1.
         11    1    3    3    0    0 -0.20143318634E+02 -0.13174731883E+02  0.67329151862E+01  0.24993178928E+02  0.51100000000E-03 0. -1.
        -11    1    3    3    0    0  0.18234254250E+01 -0.50533072030E+00  0.93392607642E+01  0.95290099854E+01  0.51100000000E-03 0.  1.
         12    1    3    3    0    0 -0.65066230567E+01  0.30159797028E+01  0.14310176361E+02  0.16006668131E+02  0.00000000000E+00 0. -1.
</event>
<event>
 7    1  0.6889665E-012  0.5052887E+02  0.7816164E-02  0.1300439E+00
        -11   -1    0    0    0    0  0.00000000000E+00  0.00000000000E+00  0.45593999997E+02  0.45594000000E+02  0.51100000000E-03 0. -1.
         11   -1    0    0    0    0 -0.00000000000E+00 -0.00000000000E+00 -0.45593999997E+02  0.45594000000E+02  0.51100000000E-03 0.  1.
    9900012    2    1    2    0    0 -0.16911824323E+02  0.76438946699E+01 -0.36176317888E+02  0.50528869370E+02  0.30000028938E+02 0.  0.
         12    1    1    2    0    0  0.16911824323E+02 -0.76438946699E+01  0.36176317888E+02  0.40659130630E+02  0.00000000000E+00 0. -1.
         11    1    3    3    0    0 -0.69537328633E+01 -0.44003818282E+01 -0.15970875119E+01  0.83826278547E+01  0.51100000000E-03 0. -1.
        -11    1    3    3    0    0 -0.54799590397E+01  0.16695849161E+02 -0.26629173814E+02  0.31904454682E+02  0.51100000000E-03 0.  1.
        -12    1    3    3    0    0 -0.44781324196E+01 -0.46515726628E+01 -0.79500565623E+01  0.10241786834E+02  0.00000000000E+00 0.  1.
</event>
<event>
 7    1  0.6889665E-012  0.5052886E+02  0.7816164E-02  0.1300439E+00
        -11   -1    0    0    0    0  0.00000000000E+00  0.00000000000E+00  0.45593999997E+02  0.45594000000E+02  0.51100000000E-03 0. -1.
         11   -1    0    0    0    0 -0.00000000000E+00 -0.00000000000E+00 -0.45593999997E+02  0.45594000000E+02  0.51100000000E-03 0.  1.
    9900012    2    1    2    0    0  0.51797892542E+01 -0.10421369333E+02 -0.38958063325E+02  0.50528857689E+02  0.29999993431E+02 0.  0.
         12    1    1    2    0    0 -0.51797892542E+01  0.10421369333E+02  0.38958063325E+02  0.40659142311E+02  0.00000000000E+00 0. -1.
         11    1    3    3    0    0  0.10558551190E+02  0.39107244382E+01 -0.24668374868E+02  0.27116516880E+02  0.51100000000E-03 0.  1.
        -11    1    3    3    0    0 -0.69638631180E+01 -0.62444934010E+01 -0.11244498070E+02  0.14626271721E+02  0.51100000000E-03 0. -1.
        -12    1    3    3    0    0  0.15851011827E+01 -0.80876003702E+01 -0.30451903868E+01  0.87860690868E+01  0.00000000000E+00 0.  1.
</event>
<event>
 7    1  0.6889665E-012  0.5052885E+02  0.7816164E-02  0.1300439E+00
        -11   -1    0    0    0    0  0.00000000000E+00  0.00000000000E+00  0.45593999997E+02  0.45594000000E+02  0.51100000000E-03 0. -1.
         11   -1    0    0    0    0 -0.00000000000E+00 -0.00000000000E+00 -0.45593999997E+02  0.45594000000E+02  0.51100000000E-03 0.  1.
    9900012    2    1    2    0    0  0.24031025547E+02 -0.11763006576E+02 -0.30615489626E+02  0.50528847063E+02  0.29999961133E+02 0.  0.
         12    1    1    2    0    0 -0.24031025547E+02  0.11763006576E+02  0.30615489626E+02  0.40659152937E+02  0.00000000000E+00 0. -1.
         11    1    3    3    0    0  0.20473929295E+02 -0.11598753733E+02 -0.22325747701E+02  0.32436890720E+02  0.51100000000E-03 0. -1.
        -11    1    3    3    0    0 -0.46733502203E+00  0.57201786196E+01  0.15464958040E+01  0.59439460795E+01  0.51100000000E-03 0.  1.
        -12    1    3    3    0    0  0.40244312739E+01 -0.58844314622E+01 -0.98362377282E+01  0.12148010263E+02  0.00000000000E+00 0.  1.
</event>
<event>
 7    1  0.6889665E-012  0.5052887E+02  0.7816164E-02  0.1300439E+00
        -11   -1    0    0    0    0  0.00000000000E+00  0.00000000000E+00  0.45593999997E+02  0.45594000000E+02  0.51100000000E-03 0. -1.
         11   -1    0    0    0    0 -0.00000000000E+00 -0.00000000000E+00 -0.45593999997E+02  0.45594000000E+02  0.51100000000E-03 0.  1.
    9900012    2    1    2    0    0  0.11009053617E+02  0.35624638629E+02 -0.16212679204E+02  0.50528866882E+02  0.30000021374E+02 0.  0.
         12    1    1    2    0    0 -0.11009053617E+02 -0.35624638629E+02  0.16212679204E+02  0.40659133118E+02  0.00000000000E+00 0. -1.
         11    1    3    3    0    0  0.13693542709E+02  0.14026903765E+02 -0.31827772320E+01  0.19859436355E+02  0.51100000000E-03 0. -1.
        -11    1    3    3    0    0 -0.43652129818E+01 -0.12214526995E+01 -0.40855206288E+01  0.61023364495E+01  0.51100000000E-03 0.  1.
        -12    1    3    3    0    0  0.16807238899E+01  0.22819187563E+02 -0.89443813427E+01  0.24567094078E+02  0.00000000000E+00 0.  1.
</event>
<event>
 7    1  0.6889665E-012  0.5052888E+02  0.7816164E-02  0.1300439E+00
        -11   -1    0    0    0    0  0.00000000000E+00  0.00000000000E+00  0.45593999997E+02  0.45594000000E+02  0.51100000000E-03 0. -1.
         11   -1    0    0    0    0 -0.00000000000E+00 -0.00000000000E+00 -0.45593999997E+02  0.45594000000E+02  0.51100000000E-03 0.  1.
    9900012    2    1    2    0    0  0.23105422940E+01 -0.66293073145E+01  0.40048444799E+02  0.50528877383E+02  0.30000053292E+02 0.  0.
        -12    1    1    2    0    0 -0.23105422940E+01  0.66293073145E+01 -0.40048444799E+02  0.40659122617E+02  0.00000000000E+00 0.  1.
         11    1    3    3    0    0 -0.39022514817E+01 -0.14630904749E+02  0.29724344752E+02  0.33359070904E+02  0.51100000000E-03 0. -1.
        -11    1    3    3    0    0  0.39639952413E+01 -0.11027144320E+01  0.46496405176E+01  0.62087353459E+01  0.51100000000E-03 0.  1.
         12    1    3    3    0    0  0.22487985344E+01  0.91043118667E+01  0.56744595299E+01  0.10961071132E+02  0.00000000000E+00 0. -1.
</event>
<event>
 7    1  0.6889665E-012  0.5052886E+02  0.7816164E-02  0.1300439E+00
        -11   -1    0    0    0    0  0.00000000000E+00  0.00000000000E+00  0.45593999997E+02  0.45594000000E+02  0.51100000000E-03 0. -1.
         11   -1    0    0    0    0 -0.00000000000E+00 -0.00000000000E+00 -0.45593999997E+02  0.45594000000E+02  0.51100000000E-03 0.  1.
    9900012    2    1    2    0    0 -0.24979659308E+02 -0.31587779746E+02 -0.56030826009E+01  0.50528859047E+02  0.29999997558E+02 0.  0.
         12    1    1    2    0    0  0.24979659308E+02  0.31587779746E+02  0.56030826009E+01  0.40659140953E+02  0.00000000000E+00 0. -1.
         11    1    3    3    0    0 -0.79781849811E+01  0.38870545212E+01 -0.43186514482E+01  0.98697203119E+01  0.51100000000E-03 0. -1.
        -11    1    3    3    0    0 -0.43647375486E+01 -0.62330527155E+01 -0.41634257277E+01  0.86738684607E+01  0.51100000000E-03 0.  1.
         12    1    3    3    0    0 -0.12636736778E+02 -0.29241781552E+02  0.28789945749E+01  0.31985270274E+02  0.00000000000E+00 0. -1.
</event>
<event>
 7    1  0.6889665E-012  0.5052888E+02  0.7816164E-02  0.1300439E+00
        -11   -1    0    0    0    0  0.00000000000E+00  0.00000000000E+00  0.45593999997E+02  0.45594000000E+02  0.51100000000E-03 0. -1.
         11   -1    0    0    0    0 -0.00000000000E+00 -0.00000000000E+00 -0.45593999997E+02  0.45594000000E+02  0.51100000000E-03 0.  1.
    9900012    2    1    2    0    0 -0.39360488011E+01 -0.40334855486E+02 -0.32819371476E+01  0.50528878531E+02  0.30000056781E+02 0.  0.
         12    1    1    2    0    0  0.39360488011E+01  0.40334855486E+02  0.32819371476E+01  0.40659121469E+02  0.00000000000E+00 0. -1.
         11    1    3    3    0    0  0.34135262295E+01 -0.42495728719E+01  0.20370924517E+01  0.58190013603E+01  0.51100000000E-03 0. -1.
        -11    1    3    3    0    0 -0.12688804476E+02 -0.65100626165E+01 -0.29505225327E+01  0.14563387579E+02  0.51100000000E-03 0.  1.
        -12    1    3    3    0    0  0.53392294451E+01 -0.29575219997E+02 -0.23685070666E+01  0.30146489591E+02  0.00000000000E+00 0.  1.
</event>
<event>
 7    1  0.6889665E-012  0.5052886E+02  0.7816164E-02  0.1300439E+00
        -11   -1    0    0    0    0  0.00000000000E+00  0.00000000000E+00  0.45593999997E+02  0.45594000000E+02  0.51100000000E-03 0.  1.
         11   -1    0    0    0    0 -0.00000000000E+00 -0.00000000000E+00 -0.45593999997E+02  0.45594000000E+02  0.51100000000E-03 0. -1.
    9900012    2    1    2    0    0  0.30403743103E+02 -0.15491512794E+02  0.22108624419E+02  0.50528857891E+02  0.29999994046E+02 0.  0.
        -12    1    1    2    0    0 -0.30403743103E+02  0.15491512794E+02 -0.22108624419E+02  0.40659142109E+02  0.00000000000E+00 0.  1.
         11    1    3    3    0    0  0.13377620290E+02 -0.76720170865E+01  0.40024225658E+01  0.15932355678E+02  0.51100000000E-03 0. -1.
        -11    1    3    3    0    0 -0.32843110043E+01  0.37048951831E+01 -0.15270385002E+00  0.49534095144E+01  0.51100000000E-03 0.  1.
        -12    1    3    3    0    0  0.20310433818E+02 -0.11524390891E+02  0.18258905703E+02  0.29643092699E+02  0.00000000000E+00 0.  1.
</event>
<event>
 7    1  0.6889665E-012  0.5052886E+02  0.7816164E-02  0.1300439E+00
        -11   -1    0    0    0    0  0.00000000000E+00  0.00000000000E+00  0.45593999997E+02  0.45594000000E+02  0.51100000000E-03 0. -1.
         11   -1    0    0    0    0 -0.00000000000E+00 -0.00000000000E+00 -0.45593999997E+02  0.45594000000E+02  0.51100000000E-03 0.  1.
    9900012    2    1    2    0    0 -0.10783155159E+02  0.25078418276E+01  0.39122881462E+02  0.50528861302E+02  0.30000004412E+02 0.  0.
        -12    1    1    2    0    0  0.10783155159E+02 -0.25078418276E+01 -0.39122881462E+02  0.40659138698E+02  0.00000000000E+00 0.  1.
         11    1    3    3    0    0 -0.66475294858E+01  0.32230608550E+01  0.40973689261E+02  0.41634372596E+02  0.51100000000E-03 0. -1.
        -11    1    3    3    0    0  0.94925943115E+00 -0.29680207208E+01 -0.96988457344E+00  0.32635742391E+01  0.51100000000E-03 0.  1.
         12    1    3    3    0    0 -0.50848851046E+01  0.22528016934E+01 -0.88092322588E+00  0.56309144663E+01  0.00000000000E+00 0. -1.
</event>
<event>
 7    1  0.6889665E-012  0.5052886E+02  0.7816164E-02  0.1300439E+00
        -11   -1    0    0    0    0  0.00000000000E+00  0.00000000000E+00  0.45593999997E+02  0.45594000000E+02  0.51100000000E-03 0. -1.
         11   -1    0    0    0    0 -0.00000000000E+00 -0.00000000000E+00 -0.45593999997E+02  0.45594000000E+02  0.51100000000E-03 0.  1.
    9900012    2    1    2    0    0 -0.42771775965E+00  0.25078965955E+02 -0.32000438932E+02  0.50528861203E+02  0.30000004114E+02 0.  0.
         12    1    1    2    0    0  0.42771775965E+00 -0.25078965955E+02  0.32000438932E+02  0.40659138797E+02  0.00000000000E+00 0. -1.
         11    1    3    3    0    0 -0.88084792112E+01  0.94726184288E+01  0.17193261758E-01  0.12935227164E+02  0.51100000000E-03 0. -1.
        -11    1    3    3    0    0  0.22867057202E+01 -0.32408674481E+00 -0.65217987024E+01  0.69186641662E+01  0.51100000000E-03 0.  1.
         12    1    3    3    0    0  0.60940557314E+01  0.15930434271E+02 -0.25495833491E+02  0.30674969873E+02  0.00000000000E+00 0. -1.
</event>
<event>
 7    1  0.6889665E-012  0.5052886E+02  0.7816164E-02  0.1300439E+00
        -11   -1    0    0    0    0  0.00000000000E+00  0.00000000000E+00  0.45593999997E+02  0.45594000000E+02  0.51100000000E-03 0. -1.
         11   -1    0    0    0    0 -0.00000000000E+00 -0.00000000000E+00 -0.45593999997E+02  0.45594000000E+02  0.51100000000E-03 0.  1.
    9900012    2    1    2    0    0  0.14840959088E+02  0.23993851075E+01 -0.37777695613E+02  0.50528863249E+02  0.30000010330E+02 0.  0.
         12    1    1    2    0    0 -0.14840959088E+02 -0.23993851075E+01  0.37777695613E+02  0.40659136751E+02  0.00000000000E+00 0. -1.
         11    1    3    3    0    0 -0.53439458042E+01 -0.44425848813E+01 -0.42094604710E+01  0.81248923011E+01  0.51100000000E-03 0. -1.
        -11    1    3    3    0    0  0.18864576507E+02  0.63045613205E+01 -0.35079759142E+02  0.40326284752E+02  0.51100000000E-03 0.  1.
        -12    1    3    3    0    0  0.13203283859E+01  0.53740866832E+00  0.15115239999E+01  0.20776861952E+01  0.00000000000E+00 0.  1.
</event>
<event>
 7    1  0.6889665E-012  0.5052886E+02  0.7816164E-02  0.1300439E+00
        -11   -1    0    0    0    0  0.00000000000E+00  0.00000000000E+00  0.45593999997E+02  0.45594000000E+02  0.51100000000E-03 0. -1.
         11   -1    0    0    0    0 -0.00000000000E+00 -0.00000000000E+00 -0.45593999997E+02  0.45594000000E+02  0.51100000000E-03 0.  1.
    9900012    2    1    2    0    0  0.44028737931E+01 -0.40381772569E+02  0.17585258614E+01  0.50528864906E+02  0.30000015367E+02 0.  0.
        -12    1    1    2    0    0 -0.44028737931E+01  0.40381772569E+02 -0.17585258614E+01  0.40659135094E+02  0.00000000000E+00 0.  1.
         11    1    3    3    0    0 -0.46779860591E+01 -0.19765973185E+02  0.94484452200E+01  0.22402017026E+02  0.51100000000E-03 0. -1.
        -11    1    3    3    0    0  0.55150187030E+01 -0.11815249490E+01 -0.60944455753E+01  0.83038364406E+01  0.51100000000E-03 0.  1.
        -12    1    3    3    0    0  0.35658411491E+01 -0.19434274435E+02 -0.15954737833E+01  0.19823011439E+02  0.00000000000E+00 0.  1.
</event>
<event>
 7    1  0.6889665E-012  0.5052886E+02  0.7816164E-02  0.1300439E+00
        -11   -1    0    0    0    0  0.00000000000E+00  0.00000000000E+00  0.45593999997E+02  0.45594000000E+02  0.51100000000E-03 0. -1.
         11   -1    0    0    0    0 -0.00000000000E+00 -0.00000000000E+00 -0.45593999997E+02  0.45594000000E+02  0.51100000000E-03 0.  1.
    9900012    2    1    2    0    0  0.55738343303E+01 -0.12235662290E+02 -0.38371690667E+02  0.50528859509E+02  0.29999998964E+02 0.  0.
         12    1    1    2    0    0 -0.55738343303E+01  0.12235662290E+02  0.38371690667E+02  0.40659140491E+02  0.00000000000E+00 0. -1.
         11    1    3    3    0    0  0.17559464176E+01 -0.14207114265E+01  0.73883063688E+00  0.23764763306E+01  0.51100000000E-03 0. -1.
        -11    1    3    3    0    0 -0.16163648015E+01 -0.83406269273E+01 -0.41014461399E+02  0.41885137421E+02  0.51100000000E-03 0.  1.
        -12    1    3    3    0    0  0.54342527142E+01 -0.24743239359E+01  0.19039400947E+01  0.62672457576E+01  0.00000000000E+00 0.  1.
</event>
<event>
 7    1  0.6889665E-012  0.5052886E+02  0.7816164E-02  0.1300439E+00
        -11   -1    0    0    0    0  0.00000000000E+00  0.00000000000E+00  0.45593999997E+02  0.45594000000E+02  0.51100000000E-03 0. -1.
         11   -1    0    0    0    0 -0.00000000000E+00 -0.00000000000E+00 -0.45593999997E+02  0.45594000000E+02  0.51100000000E-03 0.  1.
    9900012    2    1    2    0    0 -0.14323578803E+02  0.31210214484E+02 -0.21769772453E+02  0.50528863382E+02  0.30000010735E+02 0.  0.
         12    1    1    2    0    0  0.14323578803E+02 -0.31210214484E+02  0.21769772453E+02  0.40659136618E+02  0.00000000000E+00 0. -1.
         11    1    3    3    0    0 -0.14283255835E+02  0.15974680891E+02  0.29090904371E+00  0.21430969533E+02  0.51100000000E-03 0. -1.
        -11    1    3    3    0    0 -0.59172655539E+00  0.29642608845E+01 -0.14191415467E+02  0.14509764165E+02  0.51100000000E-03 0.  1.
         12    1    3    3    0    0  0.55140358758E+00  0.12271272709E+02 -0.78692660306E+01  0.14588129684E+02  0.00000000000E+00 0. -1.
</event>
<event>
 7    1  0.6889665E-012  0.5052886E+02  0.7816164E-02  0.1300439E+00
        -11   -1    0    0    0    0  0.00000000000E+00  0.00000000000E+00  0.45593999997E+02  0.45594000000E+02  0.51100000000E-03 0. -1.
         11   -1    0    0    0    0 -0.00000000000E+00 -0.00000000000E+00 -0.45593999997E+02  0.45594000000E+02  0.51100000000E-03 0.  1.
    9900012    2    1    2    0    0  0.30627684555E+02 -0.16021317105E+02 -0.21410925106E+02  0.50528863550E+02  0.30000011246E+02 0.  0.
         12    1    1    2    0    0 -0.30627684555E+02  0.16021317105E+02  0.21410925106E+02  0.40659136450E+02  0.00000000000E+00 0. -1.
         11    1    3    3    0    0  0.16180841246E+02  0.40587301493E+01 -0.80085462498E+01  0.18504856853E+02  0.51100000000E-03 0. -1.
        -11    1    3    3    0    0  0.32894744452E+01 -0.54048888609E+01  0.33105008836E+01  0.71409300574E+01  0.51100000000E-03 0.  1.
         12    1    3    3    0    0  0.11157368864E+02 -0.14675158393E+02 -0.16712879740E+02  0.24883076639E+02  0.00000000000E+00 0. -1.
</event>
<event>
 7    1  0.6889665E-012  0.5052885E+02  0.7816164E-02  0.1300439E+00
        -11   -1    0    0    0    0  0.00000000000E+00  0.00000000000E+00  0.45593999997E+02  0.45594000000E+02  0.51100000000E-03 0. -1.
         11   -1    0    0    0    0 -0.00000000000E+00 -0.00000000000E+00 -0.45593999997E+02  0.45594000000E+02  0.51100000000E-03 0.  1.
    9900012    2    1    2    0    0  0.12198142102E+02 -0.26201733047E+02  0.28597914372E+02  0.50528853528E+02  0.29999980782E+02 0.  0.
        -12    1    1    2    0    0 -0.12198142102E+02  0.26201733047E+02 -0.28597914372E+02  0.40659146472E+02  0.00000000000E+00 0.  1.
         11    1    3    3    0    0 -0.79509212289E+00 -0.33684014103E+01  0.63850695480E+01  0.72627414204E+01  0.51100000000E-03 0. -1.
        -11    1    3    3    0    0  0.73599237731E+01 -0.20342270201E+02  0.15313824650E+01  0.21686898520E+02  0.51100000000E-03 0.  1.
        -12    1    3    3    0    0  0.56333104516E+01 -0.24910614354E+01  0.20681462360E+02  0.21579213587E+02  0.00000000000E+00 0.  1.
</event>
<event>
 7    1  0.6889665E-012  0.5052886E+02  0.7816164E-02  0.1300439E+00
        -11   -1    0    0    0    0  0.00000000000E+00  0.00000000000E+00  0.45593999997E+02  0.45594000000E+02  0.51100000000E-03 0. -1.
         11   -1    0    0    0    0 -0.00000000000E+00 -0.00000000000E+00 -0.45593999997E+02  0.45594000000E+02  0.51100000000E-03 0.  1.
    9900012    2    1    2    0    0 -0.15198999374E+02  0.29967507440E+02  0.22893332948E+02  0.50528858622E+02  0.29999996267E+02 0.  0.
        -12    1    1    2    0    0  0.15198999374E+02 -0.29967507440E+02 -0.22893332948E+02  0.40659141378E+02  0.00000000000E+00 0.  1.
         11    1    3    3    0    0  0.73722364164E+01  0.12603005478E+02  0.29343557137E+01  0.14892819094E+02  0.51100000000E-03 0. -1.
        -11    1    3    3    0    0 -0.39467739597E+01  0.30263725545E+01  0.75939873661E+01  0.90776979408E+01  0.51100000000E-03 0.  1.
         12    1    3    3    0    0 -0.18624461831E+02  0.14338129407E+02  0.12364989869E+02  0.26558341587E+02  0.00000000000E+00 0. -1.
</event>
<event>
 7    1  0.7482746E-012  0.5052886E+02  0.7816164E-02  0.1300439E+00
        -11   -1    0    0    0    0  0.00000000000E+00  0.00000000000E+00  0.45593999997E+02  0.45594000000E+02  0.51100000000E-03 0. -1.
         11   -1    0    0    0    0 -0.00000000000E+00 -0.00000000000E+00 -0.45593999997E+02  0.45594000000E+02  0.51100000000E-03 0.  1.
    9900012    2    1    2    0    0 -0.17748433771E+02  0.13198160529E+00  0.36580610923E+02  0.50528863069E+02  0.30000009786E+02 0.  0.
        -12    1    1    2    0    0  0.17748433771E+02 -0.13198160529E+00 -0.36580610923E+02  0.40659136931E+02  0.00000000000E+00 0.  1.
         11    1    3    3    0    0 -0.21171191951E+02 -0.22517809100E+00  0.34231653314E+02  0.40250169723E+02  0.51100000000E-03 0. -1.
        -11    1    3    3    0    0  0.26120069973E+01 -0.44199619080E+01  0.15867520381E+01  0.53736790110E+01  0.51100000000E-03 0.  1.
         12    1    3    3    0    0  0.81075118293E+00  0.47771216043E+01  0.76220557045E+00  0.49050143358E+01  0.00000000000E+00 0. -1.
</event>
<event>
 7    1  0.6889665E-012  0.5052885E+02  0.7816164E-02  0.1300439E+00
        -11   -1    0    0    0    0  0.00000000000E+00  0.00000000000E+00  0.45593999997E+02  0.45594000000E+02  0.51100000000E-03 0. -1.
         11   -1    0    0    0    0 -0.00000000000E+00 -0.00000000000E+00 -0.45593999997E+02  0.45594000000E+02  0.51100000000E-03 0.  1.
    9900012    2    1    2    0    0 -0.30176457538E+02 -0.24493382582E+02 -0.11942461618E+02  0.50528846427E+02  0.29999959198E+02 0.  0.
         12    1    1    2    0    0  0.30176457538E+02  0.24493382582E+02  0.11942461618E+02  0.40659153573E+02  0.00000000000E+00 0. -1.
         11    1    3    3    0    0 -0.11389628094E+01 -0.42264664433E+01 -0.71923702151E+01  0.84196463376E+01  0.51100000000E-03 0. -1.
        -11    1    3    3    0    0 -0.19110007827E+02 -0.24349907691E+02 -0.19449800359E+01  0.31014405545E+02  0.51100000000E-03 0.  1.
        -12    1    3    3    0    0 -0.99274869013E+01  0.40829915525E+01 -0.28051113669E+01  0.11094794544E+02  0.00000000000E+00 0.  1.
</event>
<event>
 7    1  0.6889665E-012  0.5052886E+02  0.7816164E-02  0.1300439E+00
        -11   -1    0    0    0    0  0.00000000000E+00  0.00000000000E+00  0.45593999997E+02  0.45594000000E+02  0.51100000000E-03 0. -1.
         11   -1    0    0    0    0 -0.00000000000E+00 -0.00000000000E+00 -0.45593999997E+02  0.45594000000E+02  0.51100000000E-03 0.  1.
    9900012    2    1    2    0    0 -0.15261255384E+02  0.11428522434E+02  0.35911678280E+02  0.50528859849E+02  0.29999999997E+02 0.  0.
        -12    1    1    2    0    0  0.15261255384E+02 -0.11428522434E+02 -0.35911678280E+02  0.40659140151E+02  0.00000000000E+00 0.  1.
         11    1    3    3    0    0  0.63173522380E+01  0.26565032441E+01  0.40692695467E+01  0.79702511686E+01  0.51100000000E-03 0. -1.
        -11    1    3    3    0    0 -0.12852507809E+02 -0.30030091431E+01  0.18593635215E+02  0.22801936139E+02  0.51100000000E-03 0.  1.
        -12    1    3    3    0    0 -0.87260998128E+01  0.11775028333E+02  0.13248773518E+02  0.19756672542E+02  0.00000000000E+00 0.  1.
</event>
<event>
 7    1  0.6889665E-012  0.5052886E+02  0.7816164E-02  0.1300439E+00
        -11   -1    0    0    0    0  0.00000000000E+00  0.00000000000E+00  0.45593999997E+02  0.45594000000E+02  0.51100000000E-03 0. -1.
         11   -1    0    0    0    0 -0.00000000000E+00 -0.00000000000E+00 -0.45593999997E+02  0.45594000000E+02  0.51100000000E-03 0.  1.
    9900012    2    1    2    0    0  0.15259126984E+02 -0.26422098025E+01 -0.37594457275E+02  0.50528862691E+02  0.30000008634E+02 0.  0.
         12    1    1    2    0    0 -0.15259126984E+02  0.26422098025E+01  0.37594457275E+02  0.40659137309E+02  0.00000000000E+00 0. -1.
         11    1    3    3    0    0  0.17620513591E+02 -0.51268189399E+01 -0.16695739949E+02  0.24809564776E+02  0.51100000000E-03 0. -1.
        -11    1    3    3    0    0 -0.50788451723E+01 -0.46067428539E+01 -0.13369542631E+02  0.15025359178E+02  0.51100000000E-03 0.  1.
         12    1    3    3    0    0  0.27174585648E+01  0.70913519913E+01 -0.75291746945E+01  0.10693938736E+02  0.00000000000E+00 0. -1.
</event>
<event>
 7    1  0.6889665E-012  0.5052886E+02  0.7816164E-02  0.1300439E+00
        -11   -1    0    0    0    0  0.00000000000E+00  0.00000000000E+00  0.45593999997E+02  0.45594000000E+02  0.51100000000E-03 0. -1.
         11   -1    0    0    0    0 -0.00000000000E+00 -0.00000000000E+00 -0.45593999997E+02  0.45594000000E+02  0.51100000000E-03 0.  1.
    9900012    2    1    2    0    0 -0.64305391991E+01 -0.19180971160E+02  0.35269025162E+02  0.50528860499E+02  0.30000001974E+02 0.  0.
        -12    1    1    2    0    0  0.64305391991E+01  0.19180971160E+02 -0.35269025162E+02  0.40659139501E+02  0.00000000000E+00 0.  1.
         11    1    3    3    0    0 -0.82162451867E+01 -0.14736056535E+02  0.16548279529E+02  0.23632680821E+02  0.51100000000E-03 0. -1.
        -11    1    3    3    0    0  0.17803465218E+01  0.72126881993E+01  0.53382264570E+01  0.91481783304E+01  0.51100000000E-03 0.  1.
        -12    1    3    3    0    0  0.53594658266E-02 -0.11657602825E+02  0.13382519176E+02  0.17748001348E+02  0.00000000000E+00 0.  1.
</event>
<event>
 7    1  0.6889665E-012  0.5052886E+02  0.7816164E-02  0.1300439E+00
        -11   -1    0    0    0    0  0.00000000000E+00  0.00000000000E+00  0.45593999997E+02  0.45594000000E+02  0.51100000000E-03 0. -1.
         11   -1    0    0    0    0 -0.00000000000E+00 -0.00000000000E+00 -0.45593999997E+02  0.45594000000E+02  0.51100000000E-03 0.  1.
    9900012    2    1    2    0    0  0.22603051819E+01 -0.12681478151E+02 -0.38564712532E+02  0.50528856867E+02  0.29999990934E+02 0.  0.
         12    1    1    2    0    0 -0.22603051819E+01  0.12681478151E+02  0.38564712532E+02  0.40659143133E+02  0.00000000000E+00 0. -1.
         11    1    3    3    0    0 -0.22379670955E+01 -0.62481612403E+01  0.23078496423E+01  0.70266767279E+01  0.51100000000E-03 0. -1.
        -11    1    3    3    0    0  0.43212111465E+01 -0.10037359858E+02 -0.26102598187E+02  0.28297828381E+02  0.51100000000E-03 0.  1.
         12    1    3    3    0    0  0.17706113094E+00  0.36040429476E+01 -0.14769963987E+02  0.15204351759E+02  0.00000000000E+00 0. -1.
</event>
<event>
 7    1  0.6889665E-012  0.5052886E+02  0.7816164E-02  0.1300439E+00
        -11   -1    0    0    0    0  0.00000000000E+00  0.00000000000E+00  0.45593999997E+02  0.45594000000E+02  0.51100000000E-03 0. -1.
         11   -1    0    0    0    0 -0.00000000000E+00 -0.00000000000E+00 -0.45593999997E+02  0.45594000000E+02  0.51100000000E-03 0.  1.
    9900012    2    1    2    0    0 -0.27886801174E+02  0.28832812192E+00 -0.29587314322E+02  0.50528856113E+02  0.29999988641E+02 0.  0.
         12    1    1    2    0    0  0.27886801174E+02 -0.28832812192E+00  0.29587314322E+02  0.40659143887E+02  0.00000000000E+00 0. -1.
         11    1    3    3    0    0 -0.25177543132E+02 -0.11803962626E+01 -0.13496012763E+02  0.28590984143E+02  0.51100000000E-03 0. -1.
        -11    1    3    3    0    0  0.21815091523E+01 -0.32135224058E+01 -0.14461128509E+02  0.14973641723E+02  0.51100000000E-03 0.  1.
         12    1    3    3    0    0 -0.48907671941E+01  0.46822467904E+01 -0.16301730495E+01  0.69642302463E+01  0.00000000000E+00 0. -1.
</event>
<event>
 7    1  0.6889665E-012  0.5052886E+02  0.7816164E-02  0.1300439E+00
        -11   -1    0    0    0    0  0.00000000000E+00  0.00000000000E+00  0.45593999997E+02  0.45594000000E+02  0.51100000000E-03 0. -1.
         11   -1    0    0    0    0 -0.00000000000E+00 -0.00000000000E+00 -0.45593999997E+02  0.45594000000E+02  0.51100000000E-03 0.  1.
    9900012    2    1    2    0    0  0.50843132642E+01  0.90986290593E+01  0.39300514929E+02  0.50528858767E+02  0.29999996707E+02 0.  0.
        -12    1    1    2    0    0 -0.50843132642E+01 -0.90986290593E+01 -0.39300514929E+02  0.40659141233E+02  0.00000000000E+00 0.  1.
         11    1    3    3    0    0  0.11584419380E+01  0.54328150381E+01 -0.24462905538E+01  0.60697450274E+01  0.51100000000E-03 0. -1.
        -11    1    3    3    0    0 -0.36834966921E+01 -0.32960449485E+01  0.14958281966E+02  0.15753801440E+02  0.51100000000E-03 0.  1.
         12    1    3    3    0    0  0.76093680182E+01  0.69618589697E+01  0.26788523517E+02  0.28705312299E+02  0.00000000000E+00 0. -1.
</event>
<event>
 7    1  0.6889665E-012  0.5052886E+02  0.7816164E-02  0.1300439E+00
        -11   -1    0    0    0    0  0.00000000000E+00  0.00000000000E+00  0.45593999997E+02  0.45594000000E+02  0.51100000000E-03 0. -1.
         11   -1    0    0    0    0 -0.00000000000E+00 -0.00000000000E+00 -0.45593999997E+02  0.45594000000E+02  0.51100000000E-03 0.  1.
    9900012    2    1    2    0    0 -0.29072376308E+02  0.83508555979E+01 -0.27170314283E+02  0.50528857957E+02  0.29999994246E+02 0.  0.
         12    1    1    2    0    0  0.29072376308E+02 -0.83508555979E+01  0.27170314283E+02  0.40659142043E+02  0.00000000000E+00 0. -1.
         11    1    3    3    0    0 -0.50102963565E+01  0.98850518425E+01 -0.35238414337E+01  0.11629048896E+02  0.51100000000E-03 0. -1.
        -11    1    3    3    0    0 -0.14338092482E+02 -0.10410425077E+02 -0.13819290581E+02  0.22470661733E+02  0.51100000000E-03 0.  1.
        -12    1    3    3    0    0 -0.97239874697E+01  0.88762288322E+01 -0.98271822687E+01  0.16429147328E+02  0.00000000000E+00 0.  1.
</event>
<event>
 7    1  0.6889665E-012  0.5052885E+02  0.7816164E-02  0.1300439E+00
        -11   -1    0    0    0    0  0.00000000000E+00  0.00000000000E+00  0.45593999997E+02  0.45594000000E+02  0.51100000000E-03 0. -1.
         11   -1    0    0    0    0 -0.00000000000E+00 -0.00000000000E+00 -0.45593999997E+02  0.45594000000E+02  0.51100000000E-03 0.  1.
    9900012    2    1    2    0    0 -0.52284727936E+01 -0.33689557231E+02  0.22154984267E+02  0.50528849467E+02  0.29999968441E+02 0.  0.
        -12    1    1    2    0    0  0.52284727936E+01  0.33689557231E+02 -0.22154984267E+02  0.40659150533E+02  0.00000000000E+00 0.  1.
         11    1    3    3    0    0 -0.12936821619E-02 -0.10456073750E+02  0.88576014473E+01  0.13703524496E+02  0.51100000000E-03 0. -1.
        -11    1    3    3    0    0 -0.46400291319E+01 -0.85931927784E+00 -0.57480439636E+01  0.74369556698E+01  0.51100000000E-03 0.  1.
        -12    1    3    3    0    0 -0.58714997949E+00 -0.22374164203E+02  0.19045426783E+02  0.29388369302E+02  0.00000000000E+00 0.  1.
</event>
<event>
 7    1  0.6889665E-012  0.5052885E+02  0.7816164E-02  0.1300439E+00
        -11   -1    0    0    0    0  0.00000000000E+00  0.00000000000E+00  0.45593999997E+02  0.45594000000E+02  0.51100000000E-03 0. -1.
         11   -1    0    0    0    0 -0.00000000000E+00 -0.00000000000E+00 -0.45593999997E+02  0.45594000000E+02  0.51100000000E-03 0.  1.
    9900012    2    1    2    0    0  0.16798749389E+02 -0.11459862019E+02  0.35208521622E+02  0.50528850804E+02  0.29999972504E+02 0.  0.
        -12    1    1    2    0    0 -0.16798749389E+02  0.11459862019E+02 -0.35208521622E+02  0.40659149196E+02  0.00000000000E+00 0.  1.
         11    1    3    3    0    0  0.11316606389E+02 -0.10292077583E+02  0.90314909229E+01  0.17764016148E+02  0.51100000000E-03 0. -1.
        -11    1    3    3    0    0 -0.15864217613E+01  0.71318054128E+01  0.17040710355E+02  0.18540905914E+02  0.51100000000E-03 0.  1.
        -12    1    3    3    0    0  0.70685647618E+01 -0.82995898479E+01  0.91363203443E+01  0.14223928742E+02  0.00000000000E+00 0.  1.
</event>
<event>
 7    1  0.6889665E-012  0.5052886E+02  0.7816164E-02  0.1300439E+00
        -11   -1    0    0    0    0  0.00000000000E+00  0.00000000000E+00  0.45593999997E+02  0.45594000000E+02  0.51100000000E-03 0. -1.
         11   -1    0    0    0    0 -0.00000000000E+00 -0.00000000000E+00 -0.45593999997E+02  0.45594000000E+02  0.51100000000E-03 0.  1.
    9900012    2    1    2    0    0 -0.13448479768E+02  0.67230978122E+01 -0.37777031784E+02  0.50528858559E+02  0.29999996077E+02 0.  0.
         12    1    1    2    0    0  0.13448479768E+02 -0.67230978122E+01  0.37777031784E+02  0.40659141441E+02  0.00000000000E+00 0. -1.
         11    1    3    3    0    0 -0.14275520911E+02  0.84357353153E+01 -0.13181576390E+02  0.21182683588E+02  0.51100000000E-03 0.  1.
        -11    1    3    3    0    0  0.20561154280E+01 -0.79518333738E+01 -0.75618601488E+01  0.11164273099E+02  0.51100000000E-03 0. -1.
         12    1    3    3    0    0 -0.12290742846E+01  0.62391958707E+01 -0.17033595245E+02  0.18181901872E+02  0.00000000000E+00 0. -1.
</event>
<event>
 7    1  0.6889665E-012  0.5052887E+02  0.7816164E-02  0.1300439E+00
        -11   -1    0    0    0    0  0.00000000000E+00  0.00000000000E+00  0.45593999997E+02  0.45594000000E+02  0.51100000000E-03 0. -1.
         11   -1    0    0    0    0 -0.00000000000E+00 -0.00000000000E+00 -0.45593999997E+02  0.45594000000E+02  0.51100000000E-03 0.  1.
    9900012    2    1    2    0    0  0.65664158127E+01  0.22854961300E+01 -0.40060246037E+02  0.50528872836E+02  0.30000039473E+02 0.  0.
         12    1    1    2    0    0 -0.65664158127E+01 -0.22854961300E+01  0.40060246037E+02  0.40659127164E+02  0.00000000000E+00 0. -1.
         11    1    3    3    0    0  0.98531738068E+01  0.92927227333E+01 -0.11350789555E+02  0.17671450242E+02  0.51100000000E-03 0. -1.
        -11    1    3    3    0    0  0.16430813368E+01 -0.99460511877E+01 -0.15981359572E+02  0.18895171461E+02  0.51100000000E-03 0.  1.
        -12    1    3    3    0    0 -0.49298393310E+01  0.29388245844E+01 -0.12728096910E+02  0.13962251133E+02  0.00000000000E+00 0.  1.
</event>
<event>
 7    1  0.6889665E-012  0.5052884E+02  0.7816164E-02  0.1300439E+00
        -11   -1    0    0    0    0  0.00000000000E+00  0.00000000000E+00  0.45593999997E+02  0.45594000000E+02  0.51100000000E-03 0. -1.
         11   -1    0    0    0    0 -0.00000000000E+00 -0.00000000000E+00 -0.45593999997E+02  0.45594000000E+02  0.51100000000E-03 0.  1.
    9900012    2    1    2    0    0 -0.30226869811E+00 -0.37199423725E+01 -0.40487504858E+02  0.50528838828E+02  0.29999936100E+02 0.  0.
         12    1    1    2    0    0  0.30226869811E+00  0.37199423725E+01  0.40487504858E+02  0.40659161172E+02  0.00000000000E+00 0. -1.
         11    1    3    3    0    0 -0.96474489390E+01  0.23600559725E+01 -0.73620367706E+01  0.12362957611E+02  0.51100000000E-03 0.  1.
        -11    1    3    3    0    0  0.11109076858E+02 -0.12867317200E-01 -0.13146799260E+02  0.17211916954E+02  0.51100000000E-03 0. -1.
         12    1    3    3    0    0 -0.17638966167E+01 -0.60671310278E+01 -0.19978668827E+02  0.20953964262E+02  0.00000000000E+00 0. -1.
</event>
<event>
 7    1  0.6889665E-012  0.5052887E+02  0.7816164E-02  0.1300439E+00
        -11   -1    0    0    0    0  0.00000000000E+00  0.00000000000E+00  0.45593999997E+02  0.45594000000E+02  0.51100000000E-03 0. -1.
         11   -1    0    0    0    0 -0.00000000000E+00 -0.00000000000E+00 -0.45593999997E+02  0.45594000000E+02  0.51100000000E-03 0.  1.
    9900012    2    1    2    0    0  0.26716288413E+02  0.73829111360E+01  0.29747230730E+02  0.50528865977E+02  0.30000018623E+02 0.  0.
        -12    1    1    2    0    0 -0.26716288413E+02 -0.73829111360E+01 -0.29747230730E+02  0.40659134023E+02  0.00000000000E+00 0.  1.
         11    1    3    3    0    0  0.67570738105E+01  0.93109327080E+01  0.10021507136E+02  0.15257198954E+02  0.51100000000E-03 0. -1.
        -11    1    3    3    0    0  0.12103641222E+02 -0.11148948409E+02  0.75797922974E+01  0.18117682881E+02  0.51100000000E-03 0.  1.
        -12    1    3    3    0    0  0.78555733805E+01  0.92209268368E+01  0.12145931297E+02  0.17153984142E+02  0.00000000000E+00 0.  1.
</event>
<event>
 7    1  0.6889665E-012  0.5052885E+02  0.7816164E-02  0.1300439E+00
        -11   -1    0    0    0    0  0.00000000000E+00  0.00000000000E+00  0.45593999997E+02  0.45594000000E+02  0.51100000000E-03 0.  1.
         11   -1    0    0    0    0 -0.00000000000E+00 -0.00000000000E+00 -0.45593999997E+02  0.45594000000E+02  0.51100000000E-03 0. -1.
    9900012    2    1    2    0    0  0.35013980428E+01 -0.32574819214E+02  0.24078782759E+02  0.50528850792E+02  0.29999972469E+02 0.  0.
        -12    1    1    2    0    0 -0.35013980428E+01  0.32574819214E+02 -0.24078782759E+02  0.40659149208E+02  0.00000000000E+00 0.  1.
         11    1    3    3    0    0 -0.83565788785E+01 -0.33431799798E+01 -0.22757005398E+01  0.92837533432E+01  0.51100000000E-03 0. -1.
        -11    1    3    3    0    0  0.34753823950E+01 -0.53147208627E+01  0.45391658100E+01  0.78056753168E+01  0.51100000000E-03 0.  1.
         12    1    3    3    0    0  0.83825945263E+01 -0.23916918372E+02  0.21815317489E+02  0.33439422132E+02  0.00000000000E+00 0. -1.
</event>
<event>
 7    1  0.6889665E-012  0.5052885E+02  0.7816164E-02  0.1300439E+00
        -11   -1    0    0    0    0  0.00000000000E+00  0.00000000000E+00  0.45593999997E+02  0.45594000000E+02  0.51100000000E-03 0. -1.
         11   -1    0    0    0    0 -0.00000000000E+00 -0.00000000000E+00 -0.45593999997E+02  0.45594000000E+02  0.51100000000E-03 0.  1.
    9900012    2    1    2    0    0 -0.72538160699E+01 -0.15689402568E+02  0.36802058865E+02  0.50528846821E+02  0.29999960398E+02 0.  0.
        -12    1    1    2    0    0  0.72538160699E+01  0.15689402568E+02 -0.36802058865E+02  0.40659153179E+02  0.00000000000E+00 0.  1.
         11    1    3    3    0    0 -0.11274976073E+02 -0.30220763103E+01  0.21781783665E+02  0.24712428665E+02  0.51100000000E-03 0. -1.
        -11    1    3    3    0    0  0.22774562468E+01 -0.85006864238E+01 -0.12879745082E+01  0.88942315703E+01  0.51100000000E-03 0.  1.
        -12    1    3    3    0    0  0.17437037559E+01 -0.41666398339E+01  0.16308249708E+02  0.16922186586E+02  0.00000000000E+00 0.  1.
</event>
<event>
 7    1  0.6889665E-012  0.5052887E+02  0.7816164E-02  0.1300439E+00
        -11   -1    0    0    0    0  0.00000000000E+00  0.00000000000E+00  0.45593999997E+02  0.45594000000E+02  0.51100000000E-03 0. -1.
         11   -1    0    0    0    0 -0.00000000000E+00 -0.00000000000E+00 -0.45593999997E+02  0.45594000000E+02  0.51100000000E-03 0.  1.
    9900012    2    1    2    0    0  0.23191154774E+02  0.22835040134E+02 -0.24369988750E+02  0.50528867332E+02  0.30000022741E+02 0.  0.
         12    1    1    2    0    0 -0.23191154774E+02 -0.22835040134E+02  0.24369988750E+02  0.40659132668E+02  0.00000000000E+00 0. -1.
         11    1    3    3    0    0  0.99759475637E+01  0.19660195838E+02 -0.21351369020E+02  0.30690776945E+02  0.51100000000E-03 0.  1.
        -11    1    3    3    0    0  0.33307978378E+00 -0.43018587474E+01 -0.23848947447E+01  0.49299750536E+01  0.51100000000E-03 0. -1.
         12    1    3    3    0    0  0.12882127427E+02  0.74767030429E+01 -0.63372498539E+00  0.14908115333E+02  0.00000000000E+00 0. -1.
</event>
<event>
 7    1  0.6889665E-012  0.5052888E+02  0.7816164E-02  0.1300439E+00
        -11   -1    0    0    0    0  0.00000000000E+00  0.00000000000E+00  0.45593999997E+02  0.45594000000E+02  0.51100000000E-03 0. -1.
         11   -1    0    0    0    0 -0.00000000000E+00 -0.00000000000E+00 -0.45593999997E+02  0.45594000000E+02  0.51100000000E-03 0.  1.
    9900012    2    1    2    0    0 -0.11175808717E+02 -0.33484051525E+02  0.20176316294E+02  0.50528878684E+02  0.30000057248E+02 0.  0.
        -12    1    1    2    0    0  0.11175808717E+02  0.33484051525E+02 -0.20176316294E+02  0.40659121316E+02  0.00000000000E+00 0.  1.
         11    1    3    3    0    0 -0.23655357134E+01 -0.31369574133E+02  0.17204068306E+02  0.35855625877E+02  0.51100000000E-03 0. -1.
        -11    1    3    3    0    0 -0.24510702863E+01 -0.18255799936E+00 -0.42179953567E+01  0.48818601026E+01  0.51100000000E-03 0.  1.
        -12    1    3    3    0    0 -0.63592027177E+01 -0.19319193926E+01  0.71902433443E+01  0.97913927045E+01  0.00000000000E+00 0.  1.
</event>
<event>
 7    1  0.6889665E-012  0.5052886E+02  0.7816164E-02  0.1300439E+00
        -11   -1    0    0    0    0  0.00000000000E+00  0.00000000000E+00  0.45593999997E+02  0.45594000000E+02  0.51100000000E-03 0. -1.
         11   -1    0    0    0    0 -0.00000000000E+00 -0.00000000000E+00 -0.45593999997E+02  0.45594000000E+02  0.51100000000E-03 0.  1.
    9900012    2    1    2    0    0  0.10406312416E+02 -0.35640815789E+02 -0.16571254069E+02  0.50528861426E+02  0.30000004790E+02 0.  0.
         12    1    1    2    0    0 -0.10406312416E+02  0.35640815789E+02  0.16571254069E+02  0.40659138574E+02  0.00000000000E+00 0. -1.
         11    1    3    3    0    0 -0.74196493481E+01 -0.16598798125E+02  0.14566095099E+01  0.18239874100E+02  0.51100000000E-03 0. -1.
        -11    1    3    3    0    0  0.74944615427E+01 -0.12438856541E+02 -0.94939678740E+01  0.17350145017E+02  0.51100000000E-03 0.  1.
         12    1    3    3    0    0  0.10331500222E+02 -0.66031611228E+01 -0.85338957046E+01  0.14938842309E+02  0.00000000000E+00 0. -1.
</event>
<event>
 7    1  0.6889665E-012  0.5052887E+02  0.7816164E-02  0.1300439E+00
        -11   -1    0    0    0    0  0.00000000000E+00  0.00000000000E+00  0.45593999997E+02  0.45594000000E+02  0.51100000000E-03 0. -1.
         11   -1    0    0    0    0 -0.00000000000E+00 -0.00000000000E+00 -0.45593999997E+02  0.45594000000E+02  0.51100000000E-03 0.  1.
    9900012    2    1    2    0    0 -0.53481055687E+01  0.16978908700E+02  0.36555153835E+02  0.50528870082E+02  0.30000031101E+02 0.  0.
        -12    1    1    2    0    0  0.53481055687E+01 -0.16978908700E+02 -0.36555153835E+02  0.40659129918E+02  0.00000000000E+00 0.  1.
         11    1    3    3    0    0  0.32444056563E+01  0.19634724510E+02  0.30545198079E+02  0.36456243644E+02  0.51100000000E-03 0.  1.
        -11    1    3    3    0    0 -0.10130728081E+02 -0.58970654514E+00  0.47207268783E+01  0.11192169931E+02  0.51100000000E-03 0. -1.
        -12    1    3    3    0    0  0.15382168556E+01 -0.20661092651E+01  0.12892288768E+01  0.28804565067E+01  0.00000000000E+00 0.  1.
</event>
<event>
 7    1  0.6889665E-012  0.5052889E+02  0.7816164E-02  0.1300439E+00
        -11   -1    0    0    0    0  0.00000000000E+00  0.00000000000E+00  0.45593999997E+02  0.45594000000E+02  0.51100000000E-03 0. -1.
         11   -1    0    0    0    0 -0.00000000000E+00 -0.00000000000E+00 -0.45593999997E+02  0.45594000000E+02  0.51100000000E-03 0.  1.
    9900012    2    1    2    0    0  0.25176787079E+02  0.13786996825E+02 -0.28796025724E+02  0.50528892945E+02  0.30000100594E+02 0.  0.
         12    1    1    2    0    0 -0.25176787079E+02 -0.13786996825E+02  0.28796025724E+02  0.40659107055E+02  0.00000000000E+00 0. -1.
         11    1    3    3    0    0 -0.46277959527E+01 -0.40291895150E+01 -0.54420586030E+01  0.82016379844E+01  0.51100000000E-03 0. -1.
        -11    1    3    3    0    0  0.82089126626E+01  0.81645482877E+01 -0.64451725067E+01  0.13250899771E+02  0.51100000000E-03 0.  1.
         12    1    3    3    0    0  0.21595670369E+02  0.96516380522E+01 -0.16908794614E+02  0.29076355189E+02  0.00000000000E+00 0. -1.
</event>
<event>
 7    1  0.6889665E-012  0.5052889E+02  0.7816164E-02  0.1300439E+00
        -11   -1    0    0    0    0  0.00000000000E+00  0.00000000000E+00  0.45593999997E+02  0.45594000000E+02  0.51100000000E-03 0. -1.
         11   -1    0    0    0    0 -0.00000000000E+00 -0.00000000000E+00 -0.45593999997E+02  0.45594000000E+02  0.51100000000E-03 0.  1.
    9900012    2    1    2    0    0  0.18706097397E+02  0.25164636220E+02  0.25884098702E+02  0.50528885874E+02  0.30000079101E+02 0.  0.
        -12    1    1    2    0    0 -0.18706097397E+02 -0.25164636220E+02 -0.25884098702E+02  0.40659114126E+02  0.00000000000E+00 0.  1.
         11    1    3    3    0    0  0.11755164449E+02  0.46066301709E+01  0.10383469208E+02  0.16346906919E+02  0.51100000000E-03 0.  1.
        -11    1    3    3    0    0 -0.64599249771E+01  0.85006659769E+01  0.11533454279E+02  0.15716631975E+02  0.51100000000E-03 0. -1.
        -12    1    3    3    0    0  0.13410857925E+02  0.12057340072E+02  0.39671752150E+01  0.18465346980E+02  0.00000000000E+00 0.  1.
</event>
<event>
 7    1  0.6889665E-012  0.5052887E+02  0.7816164E-02  0.1300439E+00
        -11   -1    0    0    0    0  0.00000000000E+00  0.00000000000E+00  0.45593999997E+02  0.45594000000E+02  0.51100000000E-03 0. -1.
         11   -1    0    0    0    0 -0.00000000000E+00 -0.00000000000E+00 -0.45593999997E+02  0.45594000000E+02  0.51100000000E-03 0.  1.
    9900012    2    1    2    0    0 -0.29899711328E+01  0.86695452953E+01 -0.39611411189E+02  0.50528870160E+02  0.30000031337E+02 0.  0.
         12    1    1    2    0    0  0.29899711328E+01 -0.86695452953E+01  0.39611411189E+02  0.40659129840E+02  0.00000000000E+00 0. -1.
         11    1    3    3    0    0 -0.52053098306E+01 -0.91393918534E+01 -0.20994674789E+02  0.23481910136E+02  0.51100000000E-03 0. -1.
        -11    1    3    3    0    0  0.16722440677E+01  0.47036608261E-01 -0.27770483994E+01  0.32420072082E+01  0.51100000000E-03 0.  1.
         12    1    3    3    0    0  0.54309463008E+00  0.17761900540E+02 -0.15839688001E+02  0.23804952815E+02  0.00000000000E+00 0. -1.
</event>
<event>
 7    1  0.6889665E-012  0.5052888E+02  0.7816164E-02  0.1300439E+00
        -11   -1    0    0    0    0  0.00000000000E+00  0.00000000000E+00  0.45593999997E+02  0.45594000000E+02  0.51100000000E-03 0. -1.
         11   -1    0    0    0    0 -0.00000000000E+00 -0.00000000000E+00 -0.45593999997E+02  0.45594000000E+02  0.51100000000E-03 0.  1.
    9900012    2    1    2    0    0 -0.37977007393E+02  0.83261462836E+01 -0.11898996028E+02  0.50528881602E+02  0.30000066116E+02 0.  0.
         12    1    1    2    0    0  0.37977007393E+02 -0.83261462836E+01  0.11898996028E+02  0.40659118398E+02  0.00000000000E+00 0. -1.
         11    1    3    3    0    0 -0.26135300757E+01  0.34780909513E+01  0.15036332823E+01  0.46031043255E+01  0.51100000000E-03 0. -1.
        -11    1    3    3    0    0 -0.21006080802E+02 -0.99244067467E+01 -0.56026151976E+01  0.23898505754E+02  0.51100000000E-03 0.  1.
        -12    1    3    3    0    0 -0.14357396515E+02  0.14772462079E+02 -0.78000141127E+01  0.22027271522E+02  0.00000000000E+00 0.  1.
</event>
<event>
 7    1  0.6889665E-012  0.5052886E+02  0.7816164E-02  0.1300439E+00
        -11   -1    0    0    0    0  0.00000000000E+00  0.00000000000E+00  0.45593999997E+02  0.45594000000E+02  0.51100000000E-03 0. -1.
         11   -1    0    0    0    0 -0.00000000000E+00 -0.00000000000E+00 -0.45593999997E+02  0.45594000000E+02  0.51100000000E-03 0.  1.
    9900012    2    1    2    0    0  0.25326353214E+02 -0.78664502237E+01 -0.30819809871E+02  0.50528857280E+02  0.29999992188E+02 0.  0.
         12    1    1    2    0    0 -0.25326353214E+02  0.78664502237E+01  0.30819809871E+02  0.40659142720E+02  0.00000000000E+00 0. -1.
         11    1    3    3    0    0  0.54417560874E+01 -0.36780408697E+00  0.53307208830E+01  0.76265703009E+01  0.51100000000E-03 0. -1.
        -11    1    3    3    0    0  0.26698117978E+01  0.18403927350E+01 -0.77761202190E+01  0.84251401398E+01  0.51100000000E-03 0.  1.
         12    1    3    3    0    0  0.17214785328E+02 -0.93390388716E+01 -0.28374410535E+02  0.34477146839E+02  0.00000000000E+00 0. -1.
</event>
<event>
 7    1  0.6889665E-012  0.5052884E+02  0.7816164E-02  0.1300439E+00
        -11   -1    0    0    0    0  0.00000000000E+00  0.00000000000E+00  0.45593999997E+02  0.45594000000E+02  0.51100000000E-03 0.  1.
         11   -1    0    0    0    0 -0.00000000000E+00 -0.00000000000E+00 -0.45593999997E+02  0.45594000000E+02  0.51100000000E-03 0. -1.
    9900012    2    1    2    0    0 -0.40205926265E+02  0.40446259902E+01 -0.45046128333E+01  0.50528843060E+02  0.29999948966E+02 0.  0.
        -12    1    1    2    0    0  0.40205926265E+02 -0.40446259902E+01  0.45046128333E+01  0.40659156940E+02  0.00000000000E+00 0.  1.
         11    1    3    3    0    0 -0.34616618823E+02 -0.79722292062E+00 -0.84746995221E+01  0.35647810527E+02  0.51100000000E-03 0. -1.
        -11    1    3    3    0    0 -0.17205340794E+01 -0.41473632512E+01  0.59672226430E+00  0.45295625812E+01  0.51100000000E-03 0.  1.
         12    1    3    3    0    0 -0.38687733629E+01  0.89892121620E+01  0.33733644245E+01  0.10351469952E+02  0.00000000000E+00 0. -1.
</event>
<event>
 7    1  0.6889665E-012  0.5052886E+02  0.7816164E-02  0.1300439E+00
        -11   -1    0    0    0    0  0.00000000000E+00  0.00000000000E+00  0.45593999997E+02  0.45594000000E+02  0.51100000000E-03 0. -1.
         11   -1    0    0    0    0 -0.00000000000E+00 -0.00000000000E+00 -0.45593999997E+02  0.45594000000E+02  0.51100000000E-03 0.  1.
    9900012    2    1    2    0    0  0.77450053482E+01 -0.99043201474E+01 -0.38666327545E+02  0.50528861405E+02  0.30000004728E+02 0.  0.
         12    1    1    2    0    0 -0.77450053482E+01  0.99043201474E+01  0.38666327545E+02  0.40659138595E+02  0.00000000000E+00 0. -1.
         11    1    3    3    0    0  0.22575992688E+01 -0.33360700066E-01  0.25706823364E+01  0.34214434572E+01  0.51100000000E-03 0. -1.
        -11    1    3    3    0    0  0.10534074683E+02 -0.12793069659E+02 -0.26457902034E+02  0.31219384059E+02  0.51100000000E-03 0.  1.
        -12    1    3    3    0    0 -0.50466686034E+01  0.29221102121E+01 -0.14779107847E+02  0.15888033889E+02  0.00000000000E+00 0.  1.
</event>
<event>
 7    1  0.6889665E-012  0.5052886E+02  0.7816164E-02  0.1300439E+00
        -11   -1    0    0    0    0  0.00000000000E+00  0.00000000000E+00  0.45593999997E+02  0.45594000000E+02  0.51100000000E-03 0. -1.
         11   -1    0    0    0    0 -0.00000000000E+00 -0.00000000000E+00 -0.45593999997E+02  0.45594000000E+02  0.51100000000E-03 0.  1.
    9900012    2    1    2    0    0 -0.97919143094E+01 -0.16098478184E+02  0.36029477785E+02  0.50528857668E+02  0.29999993368E+02 0.  0.
        -12    1    1    2    0    0  0.97919143094E+01  0.16098478184E+02 -0.36029477785E+02  0.40659142332E+02  0.00000000000E+00 0.  1.
         11    1    3    3    0    0 -0.16633308081E+02 -0.15955952682E+02  0.28429863727E+02  0.36599405944E+02  0.51100000000E-03 0. -1.
        -11    1    3    3    0    0  0.56152274509E+01  0.29565112441E+01  0.83749218007E+01  0.10507666415E+02  0.51100000000E-03 0.  1.
         12    1    3    3    0    0  0.12261663208E+01 -0.30990367470E+01 -0.77530774236E+00  0.34217853090E+01  0.00000000000E+00 0. -1.
</event>
<event>
 7    1  0.6889665E-012  0.5052886E+02  0.7816164E-02  0.1300439E+00
        -11   -1    0    0    0    0  0.00000000000E+00  0.00000000000E+00  0.45593999997E+02  0.45594000000E+02  0.51100000000E-03 0. -1.
         11   -1    0    0    0    0 -0.00000000000E+00 -0.00000000000E+00 -0.45593999997E+02  0.45594000000E+02  0.51100000000E-03 0.  1.
    9900012    2    1    2    0    0 -0.43699501866E+01  0.16086837878E+01  0.40391599088E+02  0.50528860744E+02  0.30000002718E+02 0.  0.
        -12    1    1    2    0    0  0.43699501866E+01 -0.16086837878E+01 -0.40391599088E+02  0.40659139256E+02  0.00000000000E+00 0.  1.
         11    1    3    3    0    0 -0.54611873763E+01  0.10243591296E+02  0.62662575226E+01  0.13191728992E+02  0.51100000000E-03 0. -1.
        -11    1    3    3    0    0  0.45386823437E+01 -0.53744132402E+01  0.30672355627E+02  0.31468672597E+02  0.51100000000E-03 0.  1.
         12    1    3    3    0    0 -0.34474451540E+01 -0.32604942679E+01  0.34529859384E+01  0.58684591548E+01  0.00000000000E+00 0. -1.
</event>
<event>
 7    1  0.6889665E-012  0.5052886E+02  0.7816164E-02  0.1300439E+00
        -11   -1    0    0    0    0  0.00000000000E+00  0.00000000000E+00  0.45593999997E+02  0.45594000000E+02  0.51100000000E-03 0. -1.
         11   -1    0    0    0    0 -0.00000000000E+00 -0.00000000000E+00 -0.45593999997E+02  0.45594000000E+02  0.51100000000E-03 0.  1.
    9900012    2    1    2    0    0 -0.26966944738E+02 -0.26754062967E+01 -0.30311581500E+02  0.50528857358E+02  0.29999992426E+02 0.  0.
         12    1    1    2    0    0  0.26966944738E+02  0.26754062967E+01  0.30311581500E+02  0.40659142642E+02  0.00000000000E+00 0. -1.
         11    1    3    3    0    0  0.15574410020E+01 -0.80087073442E+01 -0.12640534526E+02  0.15044870526E+02  0.51100000000E-03 0. -1.
        -11    1    3    3    0    0 -0.11919115774E+02  0.34142037018E+01 -0.13348704112E+02  0.18218397556E+02  0.51100000000E-03 0.  1.
         12    1    3    3    0    0 -0.16605269965E+02  0.19190973456E+01 -0.43223428619E+01  0.17265589276E+02  0.00000000000E+00 0. -1.
</event>
<event>
 7    1  0.6889665E-012  0.5052887E+02  0.7816164E-02  0.1300439E+00
        -11   -1    0    0    0    0  0.00000000000E+00  0.00000000000E+00  0.45593999997E+02  0.45594000000E+02  0.51100000000E-03 0.  1.
         11   -1    0    0    0    0 -0.00000000000E+00 -0.00000000000E+00 -0.45593999997E+02  0.45594000000E+02  0.51100000000E-03 0. -1.
    9900012    2    1    2    0    0 -0.25597972705E+02  0.30576464705E+02  0.79365462913E+01  0.50528866124E+02  0.30000019072E+02 0.  0.
        -12    1    1    2    0    0  0.25597972705E+02 -0.30576464705E+02 -0.79365462913E+01  0.40659133876E+02  0.00000000000E+00 0.  1.
         11    1    3    3    0    0 -0.24356367460E+02  0.29701353345E+02  0.10039328456E+02  0.39701273814E+02  0.51100000000E-03 0. -1.
        -11    1    3    3    0    0  0.14209520137E+01  0.33256144542E+00 -0.59450667134E+01  0.61215619108E+01  0.51100000000E-03 0.  1.
        -12    1    3    3    0    0 -0.26625572595E+01  0.54254991469E+00  0.38422845486E+01  0.47060303996E+01  0.00000000000E+00 0.  1.
</event>
<event>
 7    1  0.6889665E-012  0.5052887E+02  0.7816164E-02  0.1300439E+00
        -11   -1    0    0    0    0  0.00000000000E+00  0.00000000000E+00  0.45593999997E+02  0.45594000000E+02  0.51100000000E-03 0. -1.
         11   -1    0    0    0    0 -0.00000000000E+00 -0.00000000000E+00 -0.45593999997E+02  0.45594000000E+02  0.51100000000E-03 0.  1.
    9900012    2    1    2    0    0 -0.16191003461E+02  0.26302503352E+02 -0.26442292395E+02  0.50528866921E+02  0.30000021492E+02 0.  0.
         12    1    1    2    0    0  0.16191003461E+02 -0.26302503352E+02  0.26442292395E+02  0.40659133079E+02  0.00000000000E+00 0. -1.
         11    1    3    3    0    0  0.33738563974E+01  0.31967203977E+01 -0.46552436791E+01  0.65782385381E+01  0.51100000000E-03 0. -1.
        -11    1    3    3    0    0 -0.24342097323E+02  0.15593816309E+02 -0.13986700765E+02  0.32114367621E+02  0.51100000000E-03 0.  1.
        -12    1    3    3    0    0  0.47772374642E+01  0.75119666451E+01 -0.78003479505E+01  0.11836260762E+02  0.00000000000E+00 0.  1.
</event>
<event>
 7    1  0.6889665E-012  0.5052886E+02  0.7816164E-02  0.1300439E+00
        -11   -1    0    0    0    0  0.00000000000E+00  0.00000000000E+00  0.45593999997E+02  0.45594000000E+02  0.51100000000E-03 0. -1.
         11   -1    0    0    0    0 -0.00000000000E+00 -0.00000000000E+00 -0.45593999997E+02  0.45594000000E+02  0.51100000000E-03 0.  1.
    9900012    2    1    2    0    0  0.29016148538E+02  0.27123594529E+02  0.86913541520E+01  0.50528857201E+02  0.29999991948E+02 0.  0.
        -12    1    1    2    0    0 -0.29016148538E+02 -0.27123594529E+02 -0.86913541520E+01  0.40659142799E+02  0.00000000000E+00 0.  1.
         11    1    3    3    0    0  0.18100735238E+02  0.17651325715E+02 -0.58877719123E+01  0.25959040314E+02  0.51100000000E-03 0. -1.
        -11    1    3    3    0    0  0.10755496117E+02  0.11799361006E+02  0.15315289423E+02  0.22123826686E+02  0.51100000000E-03 0.  1.
         12    1    3    3    0    0  0.15991718366E+00 -0.23270921919E+01 -0.73616335867E+00  0.24459902015E+01  0.00000000000E+00 0. -1.
</event>
<event>
 7    1  0.6889665E-012  0.5052886E+02  0.7816164E-02  0.1300439E+00
        -11   -1    0    0    0    0  0.00000000000E+00  0.00000000000E+00  0.45593999997E+02  0.45594000000E+02  0.51100000000E-03 0. -1.
         11   -1    0    0    0    0 -0.00000000000E+00 -0.00000000000E+00 -0.45593999997E+02  0.45594000000E+02  0.51100000000E-03 0.  1.
    9900012    2    1    2    0    0 -0.17883098052E+02  0.28056624456E+00  0.36514132848E+02  0.50528858211E+02  0.29999995020E+02 0.  0.
        -12    1    1    2    0    0  0.17883098052E+02 -0.28056624456E+00 -0.36514132848E+02  0.40659141789E+02  0.00000000000E+00 0.  1.
         11    1    3    3    0    0  0.50308342467E+01 -0.18614575064E+01  0.18519921828E+02  0.19281126058E+02  0.51100000000E-03 0. -1.
        -11    1    3    3    0    0 -0.21589236366E+02 -0.13778874336E+01  0.14035773685E+02  0.25787528843E+02  0.51100000000E-03 0.  1.
        -12    1    3    3    0    0 -0.13246959333E+01  0.35199111846E+01  0.39584373342E+01  0.54602033105E+01  0.00000000000E+00 0.  1.
</event>
<event>
 7    1  0.6889665E-012  0.5052895E+02  0.7816164E-02  0.1300438E+00
        -11   -1    0    0    0    0  0.00000000000E+00  0.00000000000E+00  0.45593999997E+02  0.45594000000E+02  0.51100000000E-03 0. -1.
         11   -1    0    0    0    0 -0.00000000000E+00 -0.00000000000E+00 -0.45593999997E+02  0.45594000000E+02  0.51100000000E-03 0.  1.
    9900012    2    1    2    0    0 -0.23143306205E+02 -0.65606637417E+01  0.32779618736E+02  0.50528950142E+02  0.30000274451E+02 0.  0.
        -12    1    1    2    0    0  0.23143306205E+02  0.65606637417E+01 -0.32779618736E+02  0.40659049858E+02  0.00000000000E+00 0.  1.
         11    1    3    3    0    0 -0.23322466704E+02 -0.67740486980E+01  0.22569809166E+02  0.33154509119E+02  0.51100000000E-03 0. -1.
        -11    1    3    3    0    0  0.54671428651E+01 -0.42587729311E+01  0.65756000267E+01  0.95532881228E+01  0.51100000000E-03 0.  1.
         12    1    3    3    0    0 -0.52879823665E+01  0.44721578874E+01  0.36342095438E+01  0.78211529001E+01  0.00000000000E+00 0. -1.
</event>
<event>
 7    1  0.6889665E-012  0.5052887E+02  0.7816164E-02  0.1300439E+00
        -11   -1    0    0    0    0  0.00000000000E+00  0.00000000000E+00  0.45593999997E+02  0.45594000000E+02  0.51100000000E-03 0.  1.
         11   -1    0    0    0    0 -0.00000000000E+00 -0.00000000000E+00 -0.45593999997E+02  0.45594000000E+02  0.51100000000E-03 0. -1.
    9900012    2    1    2    0    0  0.33342234422E+02  0.16243448482E+02 -0.16661661182E+02  0.50528866116E+02  0.30000019047E+02 0.  0.
        -12    1    1    2    0    0 -0.33342234422E+02 -0.16243448482E+02  0.16661661182E+02  0.40659133884E+02  0.00000000000E+00 0.  1.
         11    1    3    3    0    0  0.22064399669E+02  0.59263506678E+00 -0.11960489982E+02  0.25104626466E+02  0.51100000000E-03 0. -1.
        -11    1    3    3    0    0 -0.35098681272E+01  0.13210447988E+01 -0.29250495339E+01  0.47560749224E+01  0.51100000000E-03 0.  1.
         12    1    3    3    0    0  0.14787702879E+02  0.14329768617E+02 -0.17761216660E+01  0.20668164728E+02  0.00000000000E+00 0. -1.
</event>
<event>
 7    1  0.6889665E-012  0.5052887E+02  0.7816164E-02  0.1300439E+00
        -11   -1    0    0    0    0  0.00000000000E+00  0.00000000000E+00  0.45593999997E+02  0.45594000000E+02  0.51100000000E-03 0. -1.
         11   -1    0    0    0    0 -0.00000000000E+00 -0.00000000000E+00 -0.45593999997E+02  0.45594000000E+02  0.51100000000E-03 0.  1.
    9900012    2    1    2    0    0  0.81663743566E+01  0.95118136661E+00 -0.39819218169E+02  0.50528873697E+02  0.30000042089E+02 0.  0.
         12    1    1    2    0    0 -0.81663743566E+01 -0.95118136661E+00  0.39819218169E+02  0.40659126303E+02  0.00000000000E+00 0. -1.
         11    1    3    3    0    0 -0.84353029637E+01  0.30474874224E+01 -0.13450737862E+02  0.16166751837E+02  0.51100000000E-03 0. -1.
        -11    1    3    3    0    0  0.64505840342E+01 -0.22694147753E+01 -0.84080442713E+00  0.68896465911E+01  0.51100000000E-03 0.  1.
         12    1    3    3    0    0  0.10151093286E+02  0.17310871956E+00 -0.25527675880E+02  0.27472475269E+02  0.00000000000E+00 0. -1.
</event>
<event>
 7    1  0.6889665E-012  0.5052887E+02  0.7816164E-02  0.1300439E+00
        -11   -1    0    0    0    0  0.00000000000E+00  0.00000000000E+00  0.45593999997E+02  0.45594000000E+02  0.51100000000E-03 0. -1.
         11   -1    0    0    0    0 -0.00000000000E+00 -0.00000000000E+00 -0.45593999997E+02  0.45594000000E+02  0.51100000000E-03 0.  1.
    9900012    2    1    2    0    0  0.14514893880E+02  0.20711912480E+02 -0.31835511362E+02  0.50528865152E+02  0.30000016115E+02 0.  0.
         12    1    1    2    0    0 -0.14514893880E+02 -0.20711912480E+02  0.31835511362E+02  0.40659134848E+02  0.00000000000E+00 0. -1.
         11    1    3    3    0    0  0.14530592488E+01 -0.18453656548E+01 -0.32566427933E+01  0.40152805786E+01  0.51100000000E-03 0. -1.
        -11    1    3    3    0    0  0.33783877989E+01  0.18588885062E+02 -0.30496067029E+02  0.35874367681E+02  0.51100000000E-03 0.  1.
        -12    1    3    3    0    0  0.96834468327E+01  0.39683930732E+01  0.19171984610E+01  0.10639216892E+02  0.00000000000E+00 0.  1.
</event>
<event>
 7    1  0.7118578E-012  0.5052880E+02  0.7816164E-02  0.1300439E+00
        -11   -1    0    0    0    0  0.00000000000E+00  0.00000000000E+00  0.45593999997E+02  0.45594000000E+02  0.51100000000E-03 0. -1.
         11   -1    0    0    0    0 -0.00000000000E+00 -0.00000000000E+00 -0.45593999997E+02  0.45594000000E+02  0.51100000000E-03 0.  1.
    9900012    2    1    2    0    0  0.19520702092E+02  0.61312339204E+01 -0.35135741645E+02  0.50528804478E+02  0.29999831691E+02 0.  0.
         12    1    1    2    0    0 -0.19520702092E+02 -0.61312339204E+01  0.35135741645E+02  0.40659195522E+02  0.00000000000E+00 0. -1.
         11    1    3    3    0    0 -0.66345055457E+01  0.28188171524E+01 -0.98449162840E+01  0.12201834734E+02  0.51100000000E-03 0. -1.
        -11    1    3    3    0    0  0.23066706536E+02  0.22322494035E+01 -0.26153025106E+02  0.34943334275E+02  0.51100000000E-03 0.  1.
         12    1    3    3    0    0  0.30885011014E+01  0.10801673645E+01  0.86219974419E+00  0.33836354690E+01  0.00000000000E+00 0. -1.
</event>
<event>
 7    1  0.6889665E-012  0.5052887E+02  0.7816164E-02  0.1300439E+00
        -11   -1    0    0    0    0  0.00000000000E+00  0.00000000000E+00  0.45593999997E+02  0.45594000000E+02  0.51100000000E-03 0.  1.
         11   -1    0    0    0    0 -0.00000000000E+00 -0.00000000000E+00 -0.45593999997E+02  0.45594000000E+02  0.51100000000E-03 0. -1.
    9900012    2    1    2    0    0 -0.18494994290E+02  0.12161267225E+02 -0.34105776335E+02  0.50528865556E+02  0.30000017344E+02 0.  0.
         12    1    1    2    0    0  0.18494994290E+02 -0.12161267225E+02  0.34105776335E+02  0.40659134444E+02  0.00000000000E+00 0. -1.
         11    1    3    3    0    0 -0.78526338457E+01 -0.75237333953E+01 -0.21901624531E+01  0.11093567251E+02  0.51100000000E-03 0. -1.
        -11    1    3    3    0    0 -0.10484424935E+02  0.14674123430E+02 -0.23260291248E+02  0.29432876412E+02  0.51100000000E-03 0.  1.
         12    1    3    3    0    0 -0.15793550946E+00  0.50108771904E+01 -0.86553226335E+01  0.10002421893E+02  0.00000000000E+00 0. -1.
</event>
<event>
 7    1  0.6889665E-012  0.5052886E+02  0.7816164E-02  0.1300439E+00
        -11   -1    0    0    0    0  0.00000000000E+00  0.00000000000E+00  0.45593999997E+02  0.45594000000E+02  0.51100000000E-03 0. -1.
         11   -1    0    0    0    0 -0.00000000000E+00 -0.00000000000E+00 -0.45593999997E+02  0.45594000000E+02  0.51100000000E-03 0.  1.
    9900012    2    1    2    0    0  0.18463238212E+01 -0.14458495389E+02 -0.37956666904E+02  0.50528861261E+02  0.30000004288E+02 0.  0.
         12    1    1    2    0    0 -0.18463238212E+01  0.14458495389E+02  0.37956666904E+02  0.40659138739E+02  0.00000000000E+00 0. -1.
         11    1    3    3    0    0 -0.20598024331E+01 -0.24228321345E+00  0.10509917322E+01  0.23250959338E+01  0.51100000000E-03 0. -1.
        -11    1    3    3    0    0  0.71577847900E+01 -0.17906730476E+02 -0.17174468998E+02  0.25823386011E+02  0.51100000000E-03 0.  1.
        -12    1    3    3    0    0 -0.32516585357E+01  0.36905183002E+01 -0.21833189638E+02  0.22380379316E+02  0.00000000000E+00 0.  1.
</event>
<event>
 7    1  0.6889665E-012  0.5052886E+02  0.7816164E-02  0.1300439E+00
        -11   -1    0    0    0    0  0.00000000000E+00  0.00000000000E+00  0.45593999997E+02  0.45594000000E+02  0.51100000000E-03 0. -1.
         11   -1    0    0    0    0 -0.00000000000E+00 -0.00000000000E+00 -0.45593999997E+02  0.45594000000E+02  0.51100000000E-03 0.  1.
    9900012    2    1    2    0    0  0.77551744198E+01  0.29321411634E+02 -0.27079099604E+02  0.50528861472E+02  0.30000004929E+02 0.  0.
         12    1    1    2    0    0 -0.77551744198E+01 -0.29321411634E+02  0.27079099604E+02  0.40659138528E+02  0.00000000000E+00 0. -1.
         11    1    3    3    0    0 -0.34199710290E+01  0.12180644588E+02 -0.23084356949E+02  0.26323978431E+02  0.51100000000E-03 0. -1.
        -11    1    3    3    0    0  0.81964883967E+01  0.10481542663E+02 -0.83498202631E+01  0.15708744613E+02  0.51100000000E-03 0.  1.
         12    1    3    3    0    0  0.29786570521E+01  0.66592243831E+01  0.43550776075E+01  0.84961384278E+01  0.00000000000E+00 0. -1.
</event>
<event>
 7    1  0.6889665E-012  0.5052886E+02  0.7816164E-02  0.1300439E+00
        -11   -1    0    0    0    0  0.00000000000E+00  0.00000000000E+00  0.45593999997E+02  0.45594000000E+02  0.51100000000E-03 0.  1.
         11   -1    0    0    0    0 -0.00000000000E+00 -0.00000000000E+00 -0.45593999997E+02  0.45594000000E+02  0.51100000000E-03 0. -1.
    9900012    2    1    2    0    0  0.12662273186E+02 -0.38532395347E+02  0.28437261229E+01  0.50528862875E+02  0.30000009196E+02 0.  0.
         12    1    1    2    0    0 -0.12662273186E+02  0.38532395347E+02 -0.28437261229E+01  0.40659137125E+02  0.00000000000E+00 0. -1.
         11    1    3    3    0    0  0.37018945524E+01 -0.93187281536E+01 -0.12083642425E+02  0.15702137822E+02  0.51100000000E-03 0. -1.
        -11    1    3    3    0    0  0.74175287191E+01 -0.20961926281E+02  0.14238589344E+02  0.26403778375E+02  0.51100000000E-03 0.  1.
         12    1    3    3    0    0  0.15428499148E+01 -0.82517409128E+01  0.68877920380E+00  0.84229466782E+01  0.00000000000E+00 0. -1.
</event>
<event>
 7    1  0.6889665E-012  0.5052886E+02  0.7816164E-02  0.1300439E+00
        -11   -1    0    0    0    0  0.00000000000E+00  0.00000000000E+00  0.45593999997E+02  0.45594000000E+02  0.51100000000E-03 0. -1.
         11   -1    0    0    0    0 -0.00000000000E+00 -0.00000000000E+00 -0.45593999997E+02  0.45594000000E+02  0.51100000000E-03 0.  1.
    9900012    2    1    2    0    0 -0.77353048041E+01  0.23289726438E+02 -0.32417884215E+02  0.50528861851E+02  0.30000006083E+02 0.  0.
         12    1    1    2    0    0  0.77353048041E+01 -0.23289726438E+02  0.32417884215E+02  0.40659138149E+02  0.00000000000E+00 0. -1.
         11    1    3    3    0    0  0.34401106940E+01 -0.14449480032E+01 -0.16691468929E+02  0.17103431573E+02  0.51100000000E-03 0. -1.
        -11    1    3    3    0    0 -0.11498628013E+02  0.25775340192E+02 -0.15777667160E+02  0.32334523183E+02  0.51100000000E-03 0.  1.
        -12    1    3    3    0    0  0.32321251499E+00 -0.10406657509E+01  0.51251873380E-01  0.10909070948E+01  0.00000000000E+00 0.  1.
</event>
<event>
 7    1  0.6889665E-012  0.5052887E+02  0.7816164E-02  0.1300439E+00
        -11   -1    0    0    0    0  0.00000000000E+00  0.00000000000E+00  0.45593999997E+02  0.45594000000E+02  0.51100000000E-03 0. -1.
         11   -1    0    0    0    0 -0.00000000000E+00 -0.00000000000E+00 -0.45593999997E+02  0.45594000000E+02  0.51100000000E-03 0.  1.
    9900012    2    1    2    0    0 -0.18826785002E+02 -0.67319044829E-01 -0.36037657045E+02  0.50528867070E+02  0.30000021946E+02 0.  0.
         12    1    1    2    0    0  0.18826785002E+02  0.67319044829E-01  0.36037657045E+02  0.40659132930E+02  0.00000000000E+00 0. -1.
         11    1    3    3    0    0 -0.39631110801E+01  0.14006084107E+02 -0.14837617870E+02  0.20785368550E+02  0.51100000000E-03 0. -1.
        -11    1    3    3    0    0 -0.34109957651E+01 -0.55795000167E+01 -0.77715915575E+01  0.10156935962E+02  0.51100000000E-03 0.  1.
         12    1    3    3    0    0 -0.11452678157E+02 -0.84939031349E+01 -0.13428447617E+02  0.19586562558E+02  0.00000000000E+00 0. -1.
</event>
<event>
 7    1  0.6889665E-012  0.5052886E+02  0.7816164E-02  0.1300439E+00
        -11   -1    0    0    0    0  0.00000000000E+00  0.00000000000E+00  0.45593999997E+02  0.45594000000E+02  0.51100000000E-03 0.  1.
         11   -1    0    0    0    0 -0.00000000000E+00 -0.00000000000E+00 -0.45593999997E+02  0.45594000000E+02  0.51100000000E-03 0. -1.
    9900012    2    1    2    0    0 -0.35147563192E+02 -0.20052605299E+02  0.39632968792E+01  0.50528857120E+02  0.29999991701E+02 0.  0.
         12    1    1    2    0    0  0.35147563192E+02  0.20052605299E+02 -0.39632968792E+01  0.40659142880E+02  0.00000000000E+00 0. -1.
         11    1    3    3    0    0 -0.14014566024E+02 -0.79332812698E+00  0.58257439808E+00  0.14049086217E+02  0.51100000000E-03 0. -1.
        -11    1    3    3    0    0 -0.15432675159E+02 -0.20072050900E+02 -0.54868700750E+01  0.25906764240E+02  0.51100000000E-03 0.  1.
        -12    1    3    3    0    0 -0.57003220092E+01  0.81277372843E+00  0.88675925561E+01  0.10573006662E+02  0.00000000000E+00 0.  1.
</event>
<event>
 7    1  0.6889665E-012  0.5052886E+02  0.7816164E-02  0.1300439E+00
        -11   -1    0    0    0    0  0.00000000000E+00  0.00000000000E+00  0.45593999997E+02  0.45594000000E+02  0.51100000000E-03 0. -1.
         11   -1    0    0    0    0 -0.00000000000E+00 -0.00000000000E+00 -0.45593999997E+02  0.45594000000E+02  0.51100000000E-03 0.  1.
    9900012    2    1    2    0    0 -0.18327907102E+02 -0.23818564673E+02 -0.27384837148E+02  0.50528861944E+02  0.30000006365E+02 0.  0.
         12    1    1    2    0    0  0.18327907102E+02  0.23818564673E+02  0.27384837148E+02  0.40659138056E+02  0.00000000000E+00 0. -1.
         11    1    3    3    0    0  0.40278942524E+01  0.33113612291E+01 -0.98801377338E+01  0.11171668058E+02  0.51100000000E-03 0. -1.
        -11    1    3    3    0    0 -0.11057259151E+02 -0.12806935540E+02 -0.98084878355E+01  0.19557275162E+02  0.51100000000E-03 0.  1.
         12    1    3    3    0    0 -0.11298542203E+02 -0.14322990362E+02 -0.76962115784E+01  0.19799918724E+02  0.00000000000E+00 0. -1.
</event>
<event>
 7    1  0.6889665E-012  0.5052882E+02  0.7816164E-02  0.1300439E+00
        -11   -1    0    0    0    0  0.00000000000E+00  0.00000000000E+00  0.45593999997E+02  0.45594000000E+02  0.51100000000E-03 0. -1.
         11   -1    0    0    0    0 -0.00000000000E+00 -0.00000000000E+00 -0.45593999997E+02  0.45594000000E+02  0.51100000000E-03 0.  1.
    9900012    2    1    2    0    0  0.54341611360E+01 -0.11869212009E+02  0.38506625886E+02  0.50528824675E+02  0.29999893082E+02 0.  0.
        -12    1    1    2    0    0 -0.54341611360E+01  0.11869212009E+02 -0.38506625886E+02  0.40659175325E+02  0.00000000000E+00 0.  1.
         11    1    3    3    0    0  0.65450327708E+01 -0.86501959442E+00  0.59236880479E+01  0.88699376108E+01  0.51100000000E-03 0. -1.
        -11    1    3    3    0    0 -0.27495129936E+00 -0.18088052271E+02  0.27434633936E+02  0.32862020216E+02  0.51100000000E-03 0.  1.
        -12    1    3    3    0    0 -0.83592033543E+00  0.70838598571E+01  0.51483039024E+01  0.87968668487E+01  0.00000000000E+00 0.  1.
</event>
<event>
 7    1  0.6889665E-012  0.5052886E+02  0.7816164E-02  0.1300439E+00
        -11   -1    0    0    0    0  0.00000000000E+00  0.00000000000E+00  0.45593999997E+02  0.45594000000E+02  0.51100000000E-03 0. -1.
         11   -1    0    0    0    0 -0.00000000000E+00 -0.00000000000E+00 -0.45593999997E+02  0.45594000000E+02  0.51100000000E-03 0.  1.
    9900012    2    1    2    0    0  0.15476944072E+02 -0.18316743943E+02 -0.32834845350E+02  0.50528856187E+02  0.29999988865E+02 0.  0.
         12    1    1    2    0    0 -0.15476944072E+02  0.18316743943E+02  0.32834845350E+02  0.40659143813E+02  0.00000000000E+00 0. -1.
         11    1    3    3    0    0  0.11946981803E+02 -0.57925899649E+01 -0.36702340512E+01  0.13775162102E+02  0.51100000000E-03 0. -1.
        -11    1    3    3    0    0 -0.48549090466E+01  0.15015803000E+01 -0.12115056152E+02  0.13137711790E+02  0.51100000000E-03 0.  1.
        -12    1    3    3    0    0  0.83848713160E+01 -0.14025734278E+02 -0.17049555147E+02  0.23615982294E+02  0.00000000000E+00 0.  1.
</event>
<event>
 7    1  0.6889665E-012  0.5052889E+02  0.7816164E-02  0.1300439E+00
        -11   -1    0    0    0    0  0.00000000000E+00  0.00000000000E+00  0.45593999997E+02  0.45594000000E+02  0.51100000000E-03 0. -1.
         11   -1    0    0    0    0 -0.00000000000E+00 -0.00000000000E+00 -0.45593999997E+02  0.45594000000E+02  0.51100000000E-03 0.  1.
    9900012    2    1    2    0    0  0.24757892562E+02 -0.14594889763E+02 -0.28761069116E+02  0.50528890959E+02  0.30000094557E+02 0.  0.
         12    1    1    2    0    0 -0.24757892562E+02  0.14594889763E+02  0.28761069116E+02  0.40659109041E+02  0.00000000000E+00 0. -1.
         11    1    3    3    0    0  0.16760375559E+00  0.55358029927E+01 -0.13962060525E+02  0.15020397470E+02  0.51100000000E-03 0. -1.
        -11    1    3    3    0    0  0.93534866938E+01 -0.10006778417E+02 -0.40191264850E+01  0.14275037849E+02  0.51100000000E-03 0.  1.
         12    1    3    3    0    0  0.15236802113E+02 -0.10123914339E+02 -0.10779882106E+02  0.21233455639E+02  0.00000000000E+00 0. -1.
</event>
<event>
 7    1  0.6889665E-012  0.5052886E+02  0.7816164E-02  0.1300439E+00
        -11   -1    0    0    0    0  0.00000000000E+00  0.00000000000E+00  0.45593999997E+02  0.45594000000E+02  0.51100000000E-03 0. -1.
         11   -1    0    0    0    0 -0.00000000000E+00 -0.00000000000E+00 -0.45593999997E+02  0.45594000000E+02  0.51100000000E-03 0.  1.
    9900012    2    1    2    0    0  0.29828981325E+02  0.27100301386E+02  0.53825203045E+01  0.50528856048E+02  0.29999988443E+02 0.  0.
         12    1    1    2    0    0 -0.29828981325E+02 -0.27100301386E+02 -0.53825203045E+01  0.40659143952E+02  0.00000000000E+00 0. -1.
         11    1    3    3    0    0  0.83567089433E+01 -0.61731922206E+01 -0.22533069377E+00  0.10391999843E+02  0.51100000000E-03 0. -1.
        -11    1    3    3    0    0  0.13647387435E+02  0.20962843755E+02  0.18995278296E+01  0.25085856739E+02  0.51100000000E-03 0.  1.
         12    1    3    3    0    0  0.78248849469E+01  0.12310649852E+02  0.37083231686E+01  0.15050999466E+02  0.00000000000E+00 0. -1.
</event>
<event>
 7    1  0.6889665E-012  0.5052886E+02  0.7816164E-02  0.1300439E+00
        -11   -1    0    0    0    0  0.00000000000E+00  0.00000000000E+00  0.45593999997E+02  0.45594000000E+02  0.51100000000E-03 0. -1.
         11   -1    0    0    0    0 -0.00000000000E+00 -0.00000000000E+00 -0.45593999997E+02  0.45594000000E+02  0.51100000000E-03 0.  1.
    9900012    2    1    2    0    0 -0.96794468328E+00 -0.88664725658E+01 -0.39668811332E+02  0.50528857791E+02  0.29999993740E+02 0.  0.
         12    1    1    2    0    0  0.96794468328E+00  0.88664725658E+01  0.39668811332E+02  0.40659142209E+02  0.00000000000E+00 0. -1.
         11    1    3    3    0    0  0.27849395548E+01  0.89966757603E+01 -0.11960088796E+02  0.15223001915E+02  0.51100000000E-03 0. -1.
        -11    1    3    3    0    0  0.14098380651E+01 -0.16008047310E+02 -0.17808013190E+02  0.23986883001E+02  0.51100000000E-03 0.  1.
         12    1    3    3    0    0 -0.51627223033E+01 -0.18551010157E+01 -0.99007093466E+01  0.11318972874E+02  0.00000000000E+00 0. -1.
</event>
<event>
 7    1  0.6889665E-012  0.5052886E+02  0.7816164E-02  0.1300439E+00
        -11   -1    0    0    0    0  0.00000000000E+00  0.00000000000E+00  0.45593999997E+02  0.45594000000E+02  0.51100000000E-03 0. -1.
         11   -1    0    0    0    0 -0.00000000000E+00 -0.00000000000E+00 -0.45593999997E+02  0.45594000000E+02  0.51100000000E-03 0.  1.
    9900012    2    1    2    0    0 -0.30946667513E+02  0.24763666359E+02  0.90680837898E+01  0.50528861479E+02  0.30000004950E+02 0.  0.
        -12    1    1    2    0    0  0.30946667513E+02 -0.24763666359E+02 -0.90680837898E+01  0.40659138521E+02  0.00000000000E+00 0.  1.
         11    1    3    3    0    0 -0.15232490477E+02  0.39844285675E+01 -0.69301936795E+01  0.17202674845E+02  0.51100000000E-03 0. -1.
        -11    1    3    3    0    0 -0.68423869470E+01  0.16348964888E+02  0.47861172889E+01  0.18357936459E+02  0.51100000000E-03 0.  1.
         12    1    3    3    0    0 -0.88717900894E+01  0.44302729027E+01  0.11212160180E+02  0.14968250175E+02  0.00000000000E+00 0. -1.
</event>
<event>
 7    1  0.6889665E-012  0.5052886E+02  0.7816164E-02  0.1300439E+00
        -11   -1    0    0    0    0  0.00000000000E+00  0.00000000000E+00  0.45593999997E+02  0.45594000000E+02  0.51100000000E-03 0. -1.
         11   -1    0    0    0    0 -0.00000000000E+00 -0.00000000000E+00 -0.45593999997E+02  0.45594000000E+02  0.51100000000E-03 0.  1.
    9900012    2    1    2    0    0 -0.25681042900E+02 -0.96465642313E+01 -0.30009888269E+02  0.50528861300E+02  0.30000004408E+02 0.  0.
         12    1    1    2    0    0  0.25681042900E+02  0.96465642313E+01  0.30009888269E+02  0.40659138700E+02  0.00000000000E+00 0. -1.
         11    1    3    3    0    0 -0.61591370980E+01 -0.11279844828E+01  0.30567701405E+01  0.69678664409E+01  0.51100000000E-03 0. -1.
        -11    1    3    3    0    0 -0.19987523659E+02 -0.47990053511E+01 -0.33970013009E+02  0.39705079505E+02  0.51100000000E-03 0.  1.
        -12    1    3    3    0    0  0.46561785745E+00 -0.37195743974E+01  0.90335459971E+00  0.38559153543E+01  0.00000000000E+00 0.  1.
</event>
<event>
 7    1  0.6889665E-012  0.5052886E+02  0.7816164E-02  0.1300439E+00
        -11   -1    0    0    0    0  0.00000000000E+00  0.00000000000E+00  0.45593999997E+02  0.45594000000E+02  0.51100000000E-03 0. -1.
         11   -1    0    0    0    0 -0.00000000000E+00 -0.00000000000E+00 -0.45593999997E+02  0.45594000000E+02  0.51100000000E-03 0.  1.
    9900012    2    1    2    0    0  0.17188073302E+02  0.83790626853E+01  0.35882122484E+02  0.50528864873E+02  0.30000015268E+02 0.  0.
        -12    1    1    2    0    0 -0.17188073302E+02 -0.83790626853E+01 -0.35882122484E+02  0.40659135127E+02  0.00000000000E+00 0.  1.
         11    1    3    3    0    0  0.97742266404E-01  0.29156508724E+01  0.25868411393E+02  0.26032389091E+02  0.51100000000E-03 0. -1.
        -11    1    3    3    0    0  0.13346218659E+02  0.58973536756E+01  0.13112287537E+02  0.19617146010E+02  0.51100000000E-03 0.  1.
         12    1    3    3    0    0  0.37441123769E+01 -0.43394186265E+00 -0.30985764455E+01  0.48793297716E+01  0.00000000000E+00 0. -1.
</event>
<event>
 7    1  0.6889665E-012  0.5052886E+02  0.7816164E-02  0.1300439E+00
        -11   -1    0    0    0    0  0.00000000000E+00  0.00000000000E+00  0.45593999997E+02  0.45594000000E+02  0.51100000000E-03 0. -1.
         11   -1    0    0    0    0 -0.00000000000E+00 -0.00000000000E+00 -0.45593999997E+02  0.45594000000E+02  0.51100000000E-03 0.  1.
    9900012    2    1    2    0    0  0.31427996330E+02  0.14438515139E+01  0.25755820244E+02  0.50528856663E+02  0.29999990313E+02 0.  0.
        -12    1    1    2    0    0 -0.31427996330E+02 -0.14438515139E+01 -0.25755820244E+02  0.40659143337E+02  0.00000000000E+00 0.  1.
         11    1    3    3    0    0  0.27822491364E+02  0.24371693328E+01  0.24128154055E+02  0.36907975268E+02  0.51100000000E-03 0. -1.
        -11    1    3    3    0    0  0.15869723731E+01 -0.57770239129E+01 -0.29689928272E+01  0.66863596428E+01  0.51100000000E-03 0.  1.
        -12    1    3    3    0    0  0.20185325929E+01  0.47837060940E+01  0.45966590155E+01  0.69345217519E+01  0.00000000000E+00 0.  1.
</event>
<event>
 7    1  0.6889665E-012  0.5052886E+02  0.7816164E-02  0.1300439E+00
        -11   -1    0    0    0    0  0.00000000000E+00  0.00000000000E+00  0.45593999997E+02  0.45594000000E+02  0.51100000000E-03 0. -1.
         11   -1    0    0    0    0 -0.00000000000E+00 -0.00000000000E+00 -0.45593999997E+02  0.45594000000E+02  0.51100000000E-03 0.  1.
    9900012    2    1    2    0    0 -0.12139491742E+02  0.34252021684E+02 -0.18237257039E+02  0.50528858427E+02  0.29999995673E+02 0.  0.
         12    1    1    2    0    0  0.12139491742E+02 -0.34252021684E+02  0.18237257039E+02  0.40659141573E+02  0.00000000000E+00 0. -1.
         11    1    3    3    0    0  0.53526120159E+01  0.15394132129E+02 -0.10732520474E+02  0.19514526779E+02  0.51100000000E-03 0. -1.
        -11    1    3    3    0    0 -0.61829587662E+01 -0.10034989493E+01  0.15133389696E+01  0.64440813421E+01  0.51100000000E-03 0.  1.
        -12    1    3    3    0    0 -0.11309144992E+02  0.19861388504E+02 -0.90180755348E+01  0.24570250306E+02  0.00000000000E+00 0.  1.
</event>
<event>
 7    1  0.6889665E-012  0.5052886E+02  0.7816164E-02  0.1300439E+00
        -11   -1    0    0    0    0  0.00000000000E+00  0.00000000000E+00  0.45593999997E+02  0.45594000000E+02  0.51100000000E-03 0. -1.
         11   -1    0    0    0    0 -0.00000000000E+00 -0.00000000000E+00 -0.45593999997E+02  0.45594000000E+02  0.51100000000E-03 0.  1.
    9900012    2    1    2    0    0 -0.18885650852E+02 -0.14642525310E+02  0.32895204043E+02  0.50528858290E+02  0.29999995259E+02 0.  0.
        -12    1    1    2    0    0  0.18885650852E+02  0.14642525310E+02 -0.32895204043E+02  0.40659141710E+02  0.00000000000E+00 0.  1.
         11    1    3    3    0    0 -0.74258376986E+00 -0.17742333617E+02  0.12671961587E+02  0.21815600921E+02  0.51100000000E-03 0. -1.
        -11    1    3    3    0    0 -0.85369336253E+01  0.82096834796E+00  0.34378938138E+01  0.92397153034E+01  0.51100000000E-03 0.  1.
         12    1    3    3    0    0 -0.96061334568E+01  0.22788399594E+01  0.16785348642E+02  0.19473542066E+02  0.00000000000E+00 0. -1.
</event>
<event>
 7    1  0.6889665E-012  0.5052886E+02  0.7816164E-02  0.1300439E+00
        -11   -1    0    0    0    0  0.00000000000E+00  0.00000000000E+00  0.45593999997E+02  0.45594000000E+02  0.51100000000E-03 0. -1.
         11   -1    0    0    0    0 -0.00000000000E+00 -0.00000000000E+00 -0.45593999997E+02  0.45594000000E+02  0.51100000000E-03 0.  1.
    9900012    2    1    2    0    0 -0.31506336923E+02  0.13644662651E+02 -0.21779336843E+02  0.50528860825E+02  0.30000002963E+02 0.  0.
         12    1    1    2    0    0  0.31506336923E+02 -0.13644662651E+02  0.21779336843E+02  0.40659139175E+02  0.00000000000E+00 0. -1.
         11    1    3    3    0    0  0.49719809467E+01  0.43948792910E+01  0.22919011916E+00  0.66398860599E+01  0.51100000000E-03 0. -1.
        -11    1    3    3    0    0 -0.32790945070E+02  0.70012794186E+01 -0.18314555729E+02  0.38205849603E+02  0.51100000000E-03 0.  1.
        -12    1    3    3    0    0 -0.36873727993E+01  0.22485039414E+01 -0.36939712325E+01  0.56831251615E+01  0.00000000000E+00 0.  1.
</event>
<event>
 7    1  0.6889665E-012  0.5052886E+02  0.7816164E-02  0.1300439E+00
        -11   -1    0    0    0    0  0.00000000000E+00  0.00000000000E+00  0.45593999997E+02  0.45594000000E+02  0.51100000000E-03 0. -1.
         11   -1    0    0    0    0 -0.00000000000E+00 -0.00000000000E+00 -0.45593999997E+02  0.45594000000E+02  0.51100000000E-03 0.  1.
    9900012    2    1    2    0    0 -0.43568020884E+01 -0.29961580534E+02 -0.27138302255E+02  0.50528862259E+02  0.30000007323E+02 0.  0.
         12    1    1    2    0    0  0.43568020884E+01  0.29961580534E+02  0.27138302255E+02  0.40659137741E+02  0.00000000000E+00 0. -1.
         11    1    3    3    0    0 -0.77384697565E+00  0.33183978274E+01 -0.12599882153E+02  0.13052495309E+02  0.51100000000E-03 0. -1.
        -11    1    3    3    0    0 -0.25509191893E+01 -0.14898543376E+02 -0.11086294852E+02  0.18745125159E+02  0.51100000000E-03 0.  1.
         12    1    3    3    0    0 -0.10320359235E+01 -0.18381434985E+02 -0.34521252510E+01  0.18731241791E+02  0.00000000000E+00 0. -1.
</event>
<event>
 7    1  0.6889665E-012  0.5052880E+02  0.7816164E-02  0.1300439E+00
        -11   -1    0    0    0    0  0.00000000000E+00  0.00000000000E+00  0.45593999997E+02  0.45594000000E+02  0.51100000000E-03 0. -1.
         11   -1    0    0    0    0 -0.00000000000E+00 -0.00000000000E+00 -0.45593999997E+02  0.45594000000E+02  0.51100000000E-03 0.  1.
    9900012    2    1    2    0    0 -0.29335182259E+02 -0.21976370518E+02 -0.17597058278E+02  0.50528803754E+02  0.29999829491E+02 0.  0.
         12    1    1    2    0    0  0.29335182259E+02  0.21976370518E+02  0.17597058278E+02  0.40659196246E+02  0.00000000000E+00 0. -1.
         11    1    3    3    0    0 -0.63039845441E+00 -0.13685924083E+02  0.95354675118E+00  0.13733578263E+02  0.51100000000E-03 0. -1.
        -11    1    3    3    0    0 -0.14931110944E+02 -0.74768736709E+01 -0.49394031487E+01  0.17413770920E+02  0.51100000000E-03 0.  1.
         12    1    3    3    0    0 -0.13773672860E+02 -0.81357276406E+00 -0.13611201880E+02  0.19381454572E+02  0.00000000000E+00 0. -1.
</event>
<event>
 7    1  0.6889665E-012  0.5052886E+02  0.7816164E-02  0.1300439E+00
        -11   -1    0    0    0    0  0.00000000000E+00  0.00000000000E+00  0.45593999997E+02  0.45594000000E+02  0.51100000000E-03 0. -1.
         11   -1    0    0    0    0 -0.00000000000E+00 -0.00000000000E+00 -0.45593999997E+02  0.45594000000E+02  0.51100000000E-03 0.  1.
    9900012    2    1    2    0    0 -0.33033353913E+01  0.75309077212E+01  0.39818831605E+02  0.50528856548E+02  0.29999989964E+02 0.  0.
        -12    1    1    2    0    0  0.33033353913E+01 -0.75309077212E+01 -0.39818831605E+02  0.40659143452E+02  0.00000000000E+00 0.  1.
         11    1    3    3    0    0  0.19677637947E+01  0.17120454968E+01  0.17688746875E+02  0.17880015671E+02  0.51100000000E-03 0. -1.
        -11    1    3    3    0    0 -0.21738447902E+01 -0.35878753757E+01 -0.33134946258E+01  0.53458112368E+01  0.51100000000E-03 0.  1.
        -12    1    3    3    0    0 -0.30972543959E+01  0.94067376002E+01  0.25443579356E+02  0.27303029640E+02  0.00000000000E+00 0.  1.
</event>
<event>
 7    1  0.6889665E-012  0.5052887E+02  0.7816164E-02  0.1300439E+00
        -11   -1    0    0    0    0  0.00000000000E+00  0.00000000000E+00  0.45593999997E+02  0.45594000000E+02  0.51100000000E-03 0. -1.
         11   -1    0    0    0    0 -0.00000000000E+00 -0.00000000000E+00 -0.45593999997E+02  0.45594000000E+02  0.51100000000E-03 0.  1.
    9900012    2    1    2    0    0  0.21658494946E+02 -0.19353238813E+01 -0.34355921305E+02  0.50528865595E+02  0.30000017461E+02 0.  0.
         12    1    1    2    0    0 -0.21658494946E+02  0.19353238813E+01  0.34355921305E+02  0.40659134405E+02  0.00000000000E+00 0. -1.
         11    1    3    3    0    0 -0.98592496658E+00 -0.45335388173E+01 -0.26587683117E+00  0.46471187846E+01  0.51100000000E-03 0. -1.
        -11    1    3    3    0    0  0.13787671047E+02  0.74993714624E+01 -0.31860583449E+02  0.35516717517E+02  0.51100000000E-03 0.  1.
        -12    1    3    3    0    0  0.88567488662E+01 -0.49011565264E+01 -0.22294610250E+01  0.10365029293E+02  0.00000000000E+00 0.  1.
</event>
<event>
 7    1  0.6889665E-012  0.5052887E+02  0.7816164E-02  0.1300439E+00
        -11   -1    0    0    0    0  0.00000000000E+00  0.00000000000E+00  0.45593999997E+02  0.45594000000E+02  0.51100000000E-03 0.  1.
         11   -1    0    0    0    0 -0.00000000000E+00 -0.00000000000E+00 -0.45593999997E+02  0.45594000000E+02  0.51100000000E-03 0. -1.
    9900012    2    1    2    0    0  0.25861321989E+02 -0.20296978683E+02  0.23924661772E+02  0.50528871141E+02  0.30000034320E+02 0.  0.
        -12    1    1    2    0    0 -0.25861321989E+02  0.20296978683E+02 -0.23924661772E+02  0.40659128859E+02  0.00000000000E+00 0.  1.
         11    1    3    3    0    0  0.80628057969E+01 -0.99578741354E+01 -0.26337061697E+01  0.13080691995E+02  0.51100000000E-03 0. -1.
        -11    1    3    3    0    0  0.15622959739E+02 -0.14614342162E+02  0.23398386008E+02  0.31703948270E+02  0.51100000000E-03 0.  1.
        -12    1    3    3    0    0  0.21755564529E+01  0.42752376147E+01  0.31599819329E+01  0.57442308761E+01  0.00000000000E+00 0.  1.
</event>
<event>
 7    1  0.6889665E-012  0.5052886E+02  0.7816164E-02  0.1300439E+00
        -11   -1    0    0    0    0  0.00000000000E+00  0.00000000000E+00  0.45593999997E+02  0.45594000000E+02  0.51100000000E-03 0. -1.
         11   -1    0    0    0    0 -0.00000000000E+00 -0.00000000000E+00 -0.45593999997E+02  0.45594000000E+02  0.51100000000E-03 0.  1.
    9900012    2    1    2    0    0 -0.36194577341E+02  0.98829794202E+01  0.15666694201E+02  0.50528855662E+02  0.29999987270E+02 0.  0.
        -12    1    1    2    0    0  0.36194577341E+02 -0.98829794202E+01 -0.15666694201E+02  0.40659144338E+02  0.00000000000E+00 0.  1.
         11    1    3    3    0    0 -0.30100998614E+02  0.12773309558E+02  0.61853743024E+01  0.33278918404E+02  0.51100000000E-03 0. -1.
        -11    1    3    3    0    0 -0.17852420356E+01  0.45385849738E+01  0.65694198864E+01  0.81818775715E+01  0.51100000000E-03 0.  1.
         12    1    3    3    0    0 -0.43083366915E+01 -0.74289151120E+01  0.29119000120E+01  0.90680596860E+01  0.00000000000E+00 0. -1.
</event>
<event>
 7    1  0.6889665E-012  0.5052876E+02  0.7816164E-02  0.1300439E+00
        -11   -1    0    0    0    0  0.00000000000E+00  0.00000000000E+00  0.45593999997E+02  0.45594000000E+02  0.51100000000E-03 0. -1.
         11   -1    0    0    0    0 -0.00000000000E+00 -0.00000000000E+00 -0.45593999997E+02  0.45594000000E+02  0.51100000000E-03 0.  1.
    9900012    2    1    2    0    0  0.76303781909E+01 -0.21972505671E+02  0.33349059195E+02  0.50528764567E+02  0.29999710376E+02 0.  0.
        -12    1    1    2    0    0 -0.76303781909E+01  0.21972505671E+02 -0.33349059195E+02  0.40659235433E+02  0.00000000000E+00 0.  1.
         11    1    3    3    0    0  0.52566142134E+01  0.26711303520E+01  0.25274584844E+01  0.64152144935E+01  0.51100000000E-03 0. -1.
        -11    1    3    3    0    0 -0.43301463739E+01 -0.17527992412E+02  0.29011935887E+02  0.34171232196E+02  0.51100000000E-03 0.  1.
        -12    1    3    3    0    0  0.67039103514E+01 -0.71156436111E+01  0.18096648232E+01  0.99423178772E+01  0.00000000000E+00 0.  1.
</event>
<event>
 7    1  0.6889665E-012  0.5052886E+02  0.7816164E-02  0.1300439E+00
        -11   -1    0    0    0    0  0.00000000000E+00  0.00000000000E+00  0.45593999997E+02  0.45594000000E+02  0.51100000000E-03 0. -1.
         11   -1    0    0    0    0 -0.00000000000E+00 -0.00000000000E+00 -0.45593999997E+02  0.45594000000E+02  0.51100000000E-03 0.  1.
    9900012    2    1    2    0    0 -0.17380056070E+02 -0.29038650279E+02  0.22535659280E+02  0.50528862058E+02  0.30000006711E+02 0.  0.
        -12    1    1    2    0    0  0.17380056070E+02  0.29038650279E+02 -0.22535659280E+02  0.40659137942E+02  0.00000000000E+00 0.  1.
         11    1    3    3    0    0 -0.56439317435E+01 -0.20617688356E+02  0.26593679023E+02  0.34119888671E+02  0.51100000000E-03 0. -1.
        -11    1    3    3    0    0 -0.84721806286E+01 -0.23435897174E+01 -0.35885494702E+01  0.94946271611E+01  0.51100000000E-03 0.  1.
         12    1    3    3    0    0 -0.32639436979E+01 -0.60773722055E+01 -0.46947027301E+00  0.69143462254E+01  0.00000000000E+00 0. -1.
</event>
<event>
 7    1  0.6889665E-012  0.5052881E+02  0.7816164E-02  0.1300439E+00
        -11   -1    0    0    0    0  0.00000000000E+00  0.00000000000E+00  0.45593999997E+02  0.45594000000E+02  0.51100000000E-03 0. -1.
         11   -1    0    0    0    0 -0.00000000000E+00 -0.00000000000E+00 -0.45593999997E+02  0.45594000000E+02  0.51100000000E-03 0.  1.
    9900012    2    1    2    0    0 -0.27026017852E+02 -0.22554452145E+02  0.20348491280E+02  0.50528806084E+02  0.29999836574E+02 0.  0.
        -12    1    1    2    0    0  0.27026017852E+02  0.22554452145E+02 -0.20348491280E+02  0.40659193916E+02  0.00000000000E+00 0.  1.
         11    1    3    3    0    0 -0.82709971747E+01 -0.24833142272E+01  0.10846118020E+02  0.13864145130E+02  0.51100000000E-03 0. -1.
        -11    1    3    3    0    0 -0.20760804274E+02 -0.23196372826E+02  0.63003035331E+01  0.31761242596E+02  0.51100000000E-03 0.  1.
        -12    1    3    3    0    0  0.20057835962E+01  0.31252349082E+01  0.32020697264E+01  0.49034183586E+01  0.00000000000E+00 0.  1.
</event>
<event>
 7    1  0.6889665E-012  0.5052886E+02  0.7816164E-02  0.1300439E+00
        -11   -1    0    0    0    0  0.00000000000E+00  0.00000000000E+00  0.45593999997E+02  0.45594000000E+02  0.51100000000E-03 0. -1.
         11   -1    0    0    0    0 -0.00000000000E+00 -0.00000000000E+00 -0.45593999997E+02  0.45594000000E+02  0.51100000000E-03 0.  1.
    9900012    2    1    2    0    0  0.19692797806E+02 -0.29741181429E+02  0.19514645311E+02  0.50528861546E+02  0.30000005155E+02 0.  0.
        -12    1    1    2    0    0 -0.19692797806E+02  0.29741181429E+02 -0.19514645311E+02  0.40659138454E+02  0.00000000000E+00 0.  1.
         11    1    3    3    0    0  0.87576587009E+01  0.30354761165E+01  0.27320104851E+01  0.96630524539E+01  0.51100000000E-03 0. -1.
        -11    1    3    3    0    0 -0.30932203120E+01 -0.90801826663E+01  0.58616386319E+01  0.11241731933E+02  0.51100000000E-03 0.  1.
         12    1    3    3    0    0  0.14028359417E+02 -0.23696474879E+02  0.10920996194E+02  0.29624077159E+02  0.00000000000E+00 0. -1.
</event>
<event>
 7    1  0.6889665E-012  0.5052886E+02  0.7816164E-02  0.1300439E+00
        -11   -1    0    0    0    0  0.00000000000E+00  0.00000000000E+00  0.45593999997E+02  0.45594000000E+02  0.51100000000E-03 0. -1.
         11   -1    0    0    0    0 -0.00000000000E+00 -0.00000000000E+00 -0.45593999997E+02  0.45594000000E+02  0.51100000000E-03 0.  1.
    9900012    2    1    2    0    0 -0.17035745713E+02 -0.29904552230E+02  0.21648720605E+02  0.50528856134E+02  0.29999988705E+02 0.  0.
        -12    1    1    2    0    0  0.17035745713E+02  0.29904552230E+02 -0.21648720605E+02  0.40659143866E+02  0.00000000000E+00 0.  1.
         11    1    3    3    0    0 -0.11905409689E+02 -0.55831730604E+01 -0.23208632563E+01  0.13352790263E+02  0.51100000000E-03 0.  1.
        -11    1    3    3    0    0 -0.22358850232E+01 -0.15864368993E+02  0.23213689622E+02  0.28205545049E+02  0.51100000000E-03 0. -1.
         12    1    3    3    0    0 -0.28944510004E+01 -0.84570101767E+01  0.75589423962E+00  0.89705208224E+01  0.00000000000E+00 0. -1.
</event>
<event>
 7    1  0.6889665E-012  0.5052885E+02  0.7816164E-02  0.1300439E+00
        -11   -1    0    0    0    0  0.00000000000E+00  0.00000000000E+00  0.45593999997E+02  0.45594000000E+02  0.51100000000E-03 0. -1.
         11   -1    0    0    0    0 -0.00000000000E+00 -0.00000000000E+00 -0.45593999997E+02  0.45594000000E+02  0.51100000000E-03 0.  1.
    9900012    2    1    2    0    0  0.17889083905E+02  0.54886786205E+01 -0.36097385258E+02  0.50528854184E+02  0.29999982779E+02 0.  0.
         12    1    1    2    0    0 -0.17889083905E+02 -0.54886786205E+01  0.36097385258E+02  0.40659145816E+02  0.00000000000E+00 0. -1.
         11    1    3    3    0    0  0.15671794245E+02 -0.89690566219E+01 -0.17147850730E+02  0.24901764926E+02  0.51100000000E-03 0. -1.
        -11    1    3    3    0    0 -0.27520401211E+01  0.10618192199E+01 -0.28482896452E+01  0.41004803436E+01  0.51100000000E-03 0.  1.
         12    1    3    3    0    0  0.49693297816E+01  0.13395916022E+02 -0.16101244883E+02  0.21526608914E+02  0.00000000000E+00 0. -1.
</event>
<event>
 7    1  0.6889665E-012  0.5052885E+02  0.7816164E-02  0.1300439E+00
        -11   -1    0    0    0    0  0.00000000000E+00  0.00000000000E+00  0.45593999997E+02  0.45594000000E+02  0.51100000000E-03 0. -1.
         11   -1    0    0    0    0 -0.00000000000E+00 -0.00000000000E+00 -0.45593999997E+02  0.45594000000E+02  0.51100000000E-03 0.  1.
    9900012    2    1    2    0    0 -0.11683769400E+02 -0.15118315589E+01  0.38914913619E+02  0.50528848459E+02  0.29999965377E+02 0.  0.
        -12    1    1    2    0    0  0.11683769400E+02  0.15118315589E+01 -0.38914913619E+02  0.40659151541E+02  0.00000000000E+00 0.  1.
         11    1    3    3    0    0  0.28128772615E+01  0.63840717785E+00  0.31952910561E+02  0.32082835532E+02  0.51100000000E-03 0. -1.
        -11    1    3    3    0    0 -0.44255622975E+01 -0.49265963533E+01  0.30463102185E+01  0.72895102363E+01  0.51100000000E-03 0.  1.
         12    1    3    3    0    0 -0.10071084364E+02  0.27763576165E+01  0.39156928394E+01  0.11156502691E+02  0.00000000000E+00 0. -1.
</event>
<event>
 7    1  0.6889665E-012  0.5052886E+02  0.7816164E-02  0.1300439E+00
        -11   -1    0    0    0    0  0.00000000000E+00  0.00000000000E+00  0.45593999997E+02  0.45594000000E+02  0.51100000000E-03 0. -1.
         11   -1    0    0    0    0 -0.00000000000E+00 -0.00000000000E+00 -0.45593999997E+02  0.45594000000E+02  0.51100000000E-03 0.  1.
    9900012    2    1    2    0    0 -0.25562930524E+00 -0.17184130766E+02  0.36848413778E+02  0.50528864563E+02  0.30000014326E+02 0.  0.
        -12    1    1    2    0    0  0.25562930524E+00  0.17184130766E+02 -0.36848413778E+02  0.40659135437E+02  0.00000000000E+00 0.  1.
         11    1    3    3    0    0  0.32821588072E+01 -0.17765699340E+02  0.34990148443E+02  0.39378968089E+02  0.51100000000E-03 0. -1.
        -11    1    3    3    0    0 -0.44207878086E+01  0.35135464975E+01  0.44092291020E+01  0.71644731400E+01  0.51100000000E-03 0.  1.
         12    1    3    3    0    0  0.88299969618E+00 -0.29319779238E+01 -0.25509637671E+01  0.39854233338E+01  0.00000000000E+00 0. -1.
</event>
<event>
 7    1  0.6889665E-012  0.5052886E+02  0.7816164E-02  0.1300439E+00
        -11   -1    0    0    0    0  0.00000000000E+00  0.00000000000E+00  0.45593999997E+02  0.45594000000E+02  0.51100000000E-03 0.  1.
         11   -1    0    0    0    0 -0.00000000000E+00 -0.00000000000E+00 -0.45593999997E+02  0.45594000000E+02  0.51100000000E-03 0. -1.
    9900012    2    1    2    0    0  0.23577520157E+02 -0.17013527316E+02 -0.28421930202E+02  0.50528859763E+02  0.29999999734E+02 0.  0.
         12    1    1    2    0    0 -0.23577520157E+02  0.17013527316E+02  0.28421930202E+02  0.40659140237E+02  0.00000000000E+00 0. -1.
         11    1    3    3    0    0  0.61537442296E+01 -0.12315161783E+02 -0.84037982072E+01  0.16129339799E+02  0.51100000000E-03 0. -1.
        -11    1    3    3    0    0  0.20921811743E+02 -0.14905407733E+01 -0.20857072809E+02  0.29579746530E+02  0.51100000000E-03 0.  1.
        -12    1    3    3    0    0 -0.34980358156E+01 -0.32078247597E+01  0.83894081466E+00  0.48197734331E+01  0.00000000000E+00 0.  1.
</event>
<event>
 7    1  0.6889665E-012  0.5052885E+02  0.7816164E-02  0.1300439E+00
        -11   -1    0    0    0    0  0.00000000000E+00  0.00000000000E+00  0.45593999997E+02  0.45594000000E+02  0.51100000000E-03 0. -1.
         11   -1    0    0    0    0 -0.00000000000E+00 -0.00000000000E+00 -0.45593999997E+02  0.45594000000E+02  0.51100000000E-03 0.  1.
    9900012    2    1    2    0    0  0.65959621074E+00 -0.30921962682E+01 -0.40536027614E+02  0.50528852448E+02  0.29999977502E+02 0.  0.
         12    1    1    2    0    0 -0.65959621074E+00  0.30921962682E+01  0.40536027614E+02  0.40659147552E+02  0.00000000000E+00 0. -1.
         11    1    3    3    0    0 -0.44989531199E+01  0.68122826071E+00  0.33346499593E+01  0.56413244660E+01  0.51100000000E-03 0. -1.
        -11    1    3    3    0    0  0.35034833017E+01 -0.12802446137E+00 -0.72981998802E+01  0.80965737976E+01  0.51100000000E-03 0.  1.
         12    1    3    3    0    0  0.16550660289E+01 -0.36454000675E+01 -0.36572477693E+02  0.36790954185E+02  0.00000000000E+00 0. -1.
</event>
<event>
 7    1  0.6889665E-012  0.5052886E+02  0.7816164E-02  0.1300439E+00
        -11   -1    0    0    0    0  0.00000000000E+00  0.00000000000E+00  0.45593999997E+02  0.45594000000E+02  0.51100000000E-03 0. -1.
         11   -1    0    0    0    0 -0.00000000000E+00 -0.00000000000E+00 -0.45593999997E+02  0.45594000000E+02  0.51100000000E-03 0.  1.
    9900012    2    1    2    0    0 -0.21622550314E+02  0.48021993232E+00  0.34429639569E+02  0.50528863584E+02  0.30000011350E+02 0.  0.
        -12    1    1    2    0    0  0.21622550314E+02 -0.48021993232E+00 -0.34429639569E+02  0.40659136416E+02  0.00000000000E+00 0.  1.
         11    1    3    3    0    0  0.20420747222E+01  0.51817126914E+01  0.16070234146E+02  0.17008016973E+02  0.51100000000E-03 0. -1.
        -11    1    3    3    0    0 -0.17051455552E+02  0.17887254827E+01  0.61962220943E+01  0.18230327583E+02  0.51100000000E-03 0.  1.
        -12    1    3    3    0    0 -0.66131694844E+01 -0.64902182417E+01  0.12163183328E+02  0.15290519028E+02  0.00000000000E+00 0.  1.
</event>
<event>
 7    1  0.6889665E-012  0.5052886E+02  0.7816164E-02  0.1300439E+00
        -11   -1    0    0    0    0  0.00000000000E+00  0.00000000000E+00  0.45593999997E+02  0.45594000000E+02  0.51100000000E-03 0. -1.
         11   -1    0    0    0    0 -0.00000000000E+00 -0.00000000000E+00 -0.45593999997E+02  0.45594000000E+02  0.51100000000E-03 0.  1.
    9900012    2    1    2    0    0 -0.52912766785E+01  0.36744387846E+02 -0.16583677762E+02  0.50528855701E+02  0.29999987388E+02 0.  0.
         12    1    1    2    0    0  0.52912766785E+01 -0.36744387846E+02  0.16583677762E+02  0.40659144299E+02  0.00000000000E+00 0. -1.
         11    1    3    3    0    0 -0.12777496410E+01  0.27998006673E+01  0.57384613398E+01  0.65116408632E+01  0.51100000000E-03 0. -1.
        -11    1    3    3    0    0  0.65285105251E-01  0.16769884474E+02 -0.20174891755E+02  0.26234701161E+02  0.51100000000E-03 0.  1.
        -12    1    3    3    0    0 -0.40788121427E+01  0.17174702705E+02 -0.21472473461E+01  0.17782513677E+02  0.00000000000E+00 0.  1.
</event>
<event>
 7    1  0.6889665E-012  0.5052886E+02  0.7816164E-02  0.1300439E+00
        -11   -1    0    0    0    0  0.00000000000E+00  0.00000000000E+00  0.45593999997E+02  0.45594000000E+02  0.51100000000E-03 0. -1.
         11   -1    0    0    0    0 -0.00000000000E+00 -0.00000000000E+00 -0.45593999997E+02  0.45594000000E+02  0.51100000000E-03 0.  1.
    9900012    2    1    2    0    0  0.99482889376E+01  0.32194169703E+02 -0.22753741150E+02  0.50528858937E+02  0.29999997225E+02 0.  0.
         12    1    1    2    0    0 -0.99482889376E+01 -0.32194169703E+02  0.22753741150E+02  0.40659141063E+02  0.00000000000E+00 0. -1.
         11    1    3    3    0    0 -0.25610723240E+01  0.23343966159E+02 -0.19556327472E+02  0.30560592139E+02  0.51100000000E-03 0. -1.
        -11    1    3    3    0    0  0.55367438352E+01 -0.16591770329E+01 -0.44493813342E+01  0.72942028517E+01  0.51100000000E-03 0.  1.
         12    1    3    3    0    0  0.69726174264E+01  0.10509380577E+02  0.12519676562E+01  0.12674063946E+02  0.00000000000E+00 0. -1.
</event>
<event>
 7    1  0.6889665E-012  0.5052886E+02  0.7816164E-02  0.1300439E+00
        -11   -1    0    0    0    0  0.00000000000E+00  0.00000000000E+00  0.45593999997E+02  0.45594000000E+02  0.51100000000E-03 0.  1.
         11   -1    0    0    0    0 -0.00000000000E+00 -0.00000000000E+00 -0.45593999997E+02  0.45594000000E+02  0.51100000000E-03 0. -1.
    9900012    2    1    2    0    0 -0.38604088388E+02 -0.95369021569E+01  0.84816108040E+01  0.50528857549E+02  0.29999993006E+02 0.  0.
         12    1    1    2    0    0  0.38604088388E+02  0.95369021569E+01 -0.84816108040E+01  0.40659142451E+02  0.00000000000E+00 0. -1.
         11    1    3    3    0    0 -0.34500440112E+01 -0.98698979974E+01  0.18060826829E+01  0.10610354616E+02  0.51100000000E-03 0. -1.
        -11    1    3    3    0    0 -0.35077596958E+02 -0.37306971310E+01  0.56312275706E+01  0.35722074879E+02  0.51100000000E-03 0.  1.
        -12    1    3    3    0    0 -0.76447418732E-01  0.40636929715E+01  0.10443005505E+01  0.41964280542E+01  0.00000000000E+00 0.  1.
</event>
<event>
 7    1  0.6889665E-012  0.5052886E+02  0.7816164E-02  0.1300439E+00
        -11   -1    0    0    0    0  0.00000000000E+00  0.00000000000E+00  0.45593999997E+02  0.45594000000E+02  0.51100000000E-03 0. -1.
         11   -1    0    0    0    0 -0.00000000000E+00 -0.00000000000E+00 -0.45593999997E+02  0.45594000000E+02  0.51100000000E-03 0.  1.
    9900012    2    1    2    0    0  0.59842328447E+01 -0.35316016709E+02  0.19238859223E+02  0.50528858554E+02  0.29999996060E+02 0.  0.
        -12    1    1    2    0    0 -0.59842328447E+01  0.35316016709E+02 -0.19238859223E+02  0.40659141446E+02  0.00000000000E+00 0.  1.
         11    1    3    3    0    0  0.96477369115E+01 -0.13431639453E+02 -0.12587538685E+01  0.16585301549E+02  0.51100000000E-03 0. -1.
        -11    1    3    3    0    0 -0.39884718436E+01 -0.23721093139E+02  0.15515991571E+02  0.28624188408E+02  0.51100000000E-03 0.  1.
        -12    1    3    3    0    0  0.32496777673E+00  0.18367158823E+01  0.49816215210E+01  0.53193685966E+01  0.00000000000E+00 0.  1.
</event>
<event>
 7    1  0.6889665E-012  0.5052884E+02  0.7816164E-02  0.1300439E+00
        -11   -1    0    0    0    0  0.00000000000E+00  0.00000000000E+00  0.45593999997E+02  0.45594000000E+02  0.51100000000E-03 0. -1.
         11   -1    0    0    0    0 -0.00000000000E+00 -0.00000000000E+00 -0.45593999997E+02  0.45594000000E+02  0.51100000000E-03 0.  1.
    9900012    2    1    2    0    0  0.27913338489E+02  0.23843175172E+02 -0.17479006776E+02  0.50528841797E+02  0.29999945127E+02 0.  0.
         12    1    1    2    0    0 -0.27913338489E+02 -0.23843175172E+02  0.17479006776E+02  0.40659158203E+02  0.00000000000E+00 0. -1.
         11    1    3    3    0    0 -0.25795408054E+01  0.15857606885E+01 -0.69857550884E+01  0.76137666201E+01  0.51100000000E-03 0. -1.
        -11    1    3    3    0    0  0.24862380800E+02  0.20895014844E+02 -0.14806451556E+02  0.35692725201E+02  0.51100000000E-03 0.  1.
        -12    1    3    3    0    0  0.56304984943E+01  0.13623996400E+01  0.43131998683E+01  0.72223499761E+01  0.00000000000E+00 0.  1.
</event>
<event>
 7    1  0.6889665E-012  0.5052884E+02  0.7816164E-02  0.1300439E+00
        -11   -1    0    0    0    0  0.00000000000E+00  0.00000000000E+00  0.45593999997E+02  0.45594000000E+02  0.51100000000E-03 0. -1.
         11   -1    0    0    0    0 -0.00000000000E+00 -0.00000000000E+00 -0.45593999997E+02  0.45594000000E+02  0.51100000000E-03 0.  1.
    9900012    2    1    2    0    0  0.17314474211E+02 -0.22740285833E+02  0.28918086369E+02  0.50528839455E+02  0.29999938007E+02 0.  0.
        -12    1    1    2    0    0 -0.17314474211E+02  0.22740285833E+02 -0.28918086369E+02  0.40659160545E+02  0.00000000000E+00 0.  1.
         11    1    3    3    0    0 -0.29156840736E+01 -0.10156360614E+02  0.14415005655E+02  0.17873031719E+02  0.51100000000E-03 0. -1.
        -11    1    3    3    0    0  0.13969292158E+02  0.25396924592E+00  0.11416781609E+02  0.18042963347E+02  0.51100000000E-03 0.  1.
        -12    1    3    3    0    0  0.62608661267E+01 -0.12837894465E+02  0.30862991048E+01  0.14612844388E+02  0.00000000000E+00 0.  1.
</event>
<event>
 7    1  0.6889665E-012  0.5052886E+02  0.7816164E-02  0.1300439E+00
        -11   -1    0    0    0    0  0.00000000000E+00  0.00000000000E+00  0.45593999997E+02  0.45594000000E+02  0.51100000000E-03 0. -1.
         11   -1    0    0    0    0 -0.00000000000E+00 -0.00000000000E+00 -0.45593999997E+02  0.45594000000E+02  0.51100000000E-03 0.  1.
    9900012    2    1    2    0    0 -0.32709696050E+02 -0.11523851126E+02 -0.21223635409E+02  0.50528855144E+02  0.29999985694E+02 0.  0.
         12    1    1    2    0    0  0.32709696050E+02  0.11523851126E+02  0.21223635409E+02  0.40659144856E+02  0.00000000000E+00 0. -1.
         11    1    3    3    0    0 -0.14687578247E+02 -0.13853773493E+02 -0.16788484561E+01  0.20260072239E+02  0.51100000000E-03 0. -1.
        -11    1    3    3    0    0 -0.17499515710E+02 -0.22659965289E+01 -0.11733308375E+02  0.21190524204E+02  0.51100000000E-03 0.  1.
         12    1    3    3    0    0 -0.52260209301E+00  0.45959188958E+01 -0.78114785781E+01  0.90782586998E+01  0.00000000000E+00 0. -1.
</event>
<event>
 7    1  0.6889665E-012  0.5052887E+02  0.7816164E-02  0.1300439E+00
        -11   -1    0    0    0    0  0.00000000000E+00  0.00000000000E+00  0.45593999997E+02  0.45594000000E+02  0.51100000000E-03 0. -1.
         11   -1    0    0    0    0 -0.00000000000E+00 -0.00000000000E+00 -0.45593999997E+02  0.45594000000E+02  0.51100000000E-03 0.  1.
    9900012    2    1    2    0    0  0.25191818788E+02 -0.15829644589E+02 -0.27712080200E+02  0.50528871005E+02  0.30000033906E+02 0.  0.
         12    1    1    2    0    0 -0.25191818788E+02  0.15829644589E+02  0.27712080200E+02  0.40659128995E+02  0.00000000000E+00 0. -1.
         11    1    3    3    0    0 -0.21548235286E+00  0.73972601182E+01 -0.35423595671E+01  0.82045232320E+01  0.51100000000E-03 0. -1.
        -11    1    3    3    0    0  0.11158404571E+02 -0.12931831586E+02 -0.10432621357E+02  0.20014540949E+02  0.51100000000E-03 0.  1.
         12    1    3    3    0    0  0.14248896570E+02 -0.10295073121E+02 -0.13737099275E+02  0.22309806824E+02  0.00000000000E+00 0. -1.
</event>
<event>
 7    1  0.6889665E-012  0.5052886E+02  0.7816164E-02  0.1300439E+00
        -11   -1    0    0    0    0  0.00000000000E+00  0.00000000000E+00  0.45593999997E+02  0.45594000000E+02  0.51100000000E-03 0.  1.
         11   -1    0    0    0    0 -0.00000000000E+00 -0.00000000000E+00 -0.45593999997E+02  0.45594000000E+02  0.51100000000E-03 0. -1.
    9900012    2    1    2    0    0 -0.36654907217E+02  0.10887171552E+01 -0.17561279414E+02  0.50528855115E+02  0.29999985609E+02 0.  0.
         12    1    1    2    0    0  0.36654907217E+02 -0.10887171552E+01  0.17561279414E+02  0.40659144885E+02  0.00000000000E+00 0. -1.
         11    1    3    3    0    0 -0.23579787150E+01 -0.61412245543E+01 -0.10012575805E+02  0.11980249462E+02  0.51100000000E-03 0. -1.
        -11    1    3    3    0    0 -0.65995595171E+01  0.66832844760E+01  0.12654646129E+01  0.94774404854E+01  0.51100000000E-03 0.  1.
         12    1    3    3    0    0 -0.27697368985E+02  0.54665723349E+00 -0.88141682213E+01  0.29071165168E+02  0.00000000000E+00 0. -1.
</event>
<event>
 7    1  0.6889665E-012  0.5052886E+02  0.7816164E-02  0.1300439E+00
        -11   -1    0    0    0    0  0.00000000000E+00  0.00000000000E+00  0.45593999997E+02  0.45594000000E+02  0.51100000000E-03 0. -1.
         11   -1    0    0    0    0 -0.00000000000E+00 -0.00000000000E+00 -0.45593999997E+02  0.45594000000E+02  0.51100000000E-03 0.  1.
    9900012    2    1    2    0    0 -0.16241941554E+01 -0.38852978664E+02  0.11873247686E+02  0.50528856276E+02  0.29999989138E+02 0.  0.
        -12    1    1    2    0    0  0.16241941554E+01  0.38852978664E+02 -0.11873247686E+02  0.40659143724E+02  0.00000000000E+00 0.  1.
         11    1    3    3    0    0  0.11404442569E+00 -0.37061674077E+02  0.14133046614E+02  0.39665144628E+02  0.51100000000E-03 0. -1.
        -11    1    3    3    0    0 -0.39682672003E+01  0.22272288572E+01  0.16391821856E+01  0.48367976445E+01  0.51100000000E-03 0.  1.
         12    1    3    3    0    0  0.22300286192E+01 -0.40185334439E+01 -0.38989811135E+01  0.60269140035E+01  0.00000000000E+00 0. -1.
</event>
<event>
 7    1  0.6889665E-012  0.5052886E+02  0.7816164E-02  0.1300439E+00
        -11   -1    0    0    0    0  0.00000000000E+00  0.00000000000E+00  0.45593999997E+02  0.45594000000E+02  0.51100000000E-03 0. -1.
         11   -1    0    0    0    0 -0.00000000000E+00 -0.00000000000E+00 -0.45593999997E+02  0.45594000000E+02  0.51100000000E-03 0.  1.
    9900012    2    1    2    0    0 -0.14762960445E+01  0.38099729174E+02 -0.14120798392E+02  0.50528858834E+02  0.29999996911E+02 0.  0.
         12    1    1    2    0    0  0.14762960445E+01 -0.38099729174E+02  0.14120798392E+02  0.40659141166E+02  0.00000000000E+00 0. -1.
         11    1    3    3    0    0  0.71654829383E+01  0.18576871174E+01  0.23537474237E+01  0.77675784104E+01  0.51100000000E-03 0. -1.
        -11    1    3    3    0    0 -0.11958446780E+02  0.29766706914E+02 -0.12182990909E+02  0.34314524004E+02  0.51100000000E-03 0.  1.
         12    1    3    3    0    0  0.33166677969E+01  0.64753351426E+01 -0.42915549071E+01  0.84467564192E+01  0.00000000000E+00 0. -1.
</event>
<event>
 7    1  0.6889665E-012  0.5052888E+02  0.7816164E-02  0.1300439E+00
        -11   -1    0    0    0    0  0.00000000000E+00  0.00000000000E+00  0.45593999997E+02  0.45594000000E+02  0.51100000000E-03 0. -1.
         11   -1    0    0    0    0 -0.00000000000E+00 -0.00000000000E+00 -0.45593999997E+02  0.45594000000E+02  0.51100000000E-03 0.  1.
    9900012    2    1    2    0    0 -0.31469332450E+02  0.15137157600E+02 -0.20825752535E+02  0.50528875640E+02  0.30000047997E+02 0.  0.
         12    1    1    2    0    0  0.31469332450E+02 -0.15137157600E+02  0.20825752535E+02  0.40659124360E+02  0.00000000000E+00 0. -1.
         11    1    3    3    0    0  0.46062311739E+01  0.61849953419E-01 -0.16692315522E+01  0.48997474711E+01  0.51100000000E-03 0. -1.
        -11    1    3    3    0    0 -0.37238833145E+02  0.14372153557E+02 -0.17787558551E+02  0.43699962601E+02  0.51100000000E-03 0.  1.
        -12    1    3    3    0    0  0.11632695208E+01  0.70315408970E+00 -0.13689624319E+01  0.19291655688E+01  0.00000000000E+00 0.  1.
</event>
<event>
 7    1  0.6889665E-012  0.5052886E+02  0.7816164E-02  0.1300439E+00
        -11   -1    0    0    0    0  0.00000000000E+00  0.00000000000E+00  0.45593999997E+02  0.45594000000E+02  0.51100000000E-03 0. -1.
         11   -1    0    0    0    0 -0.00000000000E+00 -0.00000000000E+00 -0.45593999997E+02  0.45594000000E+02  0.51100000000E-03 0.  1.
    9900012    2    1    2    0    0 -0.10421552880E+01  0.16392857810E+02 -0.37193467052E+02  0.50528857533E+02  0.29999992957E+02 0.  0.
         12    1    1    2    0    0  0.10421552880E+01 -0.16392857810E+02  0.37193467052E+02  0.40659142467E+02  0.00000000000E+00 0. -1.
         11    1    3    3    0    0 -0.30930715115E+01 -0.67883389588E+00 -0.37701901282E+01  0.49236410000E+01  0.51100000000E-03 0. -1.
        -11    1    3    3    0    0  0.76486842138E+01  0.15428522751E+02 -0.35464670687E+02  0.39424415680E+02  0.51100000000E-03 0.  1.
        -12    1    3    3    0    0 -0.55977679904E+01  0.16431689545E+01  0.20413937636E+01  0.61808008530E+01  0.00000000000E+00 0.  1.
</event>
<event>
 7    1  0.6889665E-012  0.5052887E+02  0.7816164E-02  0.1300439E+00
        -11   -1    0    0    0    0  0.00000000000E+00  0.00000000000E+00  0.45593999997E+02  0.45594000000E+02  0.51100000000E-03 0. -1.
         11   -1    0    0    0    0 -0.00000000000E+00 -0.00000000000E+00 -0.45593999997E+02  0.45594000000E+02  0.51100000000E-03 0.  1.
    9900012    2    1    2    0    0 -0.19037242460E+02  0.35053578619E+02 -0.78737047253E+01  0.50528865718E+02  0.30000017836E+02 0.  0.
         12    1    1    2    0    0  0.19037242460E+02 -0.35053578619E+02  0.78737047253E+01  0.40659134282E+02  0.00000000000E+00 0. -1.
         11    1    3    3    0    0 -0.79086297244E+01  0.21018754463E+02  0.66520345712E+01  0.23421870709E+02  0.51100000000E-03 0. -1.
        -11    1    3    3    0    0 -0.16592939587E+01  0.83215646714E+01 -0.13572414144E+02  0.16006627408E+02  0.51100000000E-03 0.  1.
         12    1    3    3    0    0 -0.94693187771E+01  0.57132594845E+01 -0.95332515280E+00  0.11100367601E+02  0.00000000000E+00 0. -1.
</event>
<event>
 7    1  0.6889665E-012  0.5052886E+02  0.7816164E-02  0.1300439E+00
        -11   -1    0    0    0    0  0.00000000000E+00  0.00000000000E+00  0.45593999997E+02  0.45594000000E+02  0.51100000000E-03 0. -1.
         11   -1    0    0    0    0 -0.00000000000E+00 -0.00000000000E+00 -0.45593999997E+02  0.45594000000E+02  0.51100000000E-03 0.  1.
    9900012    2    1    2    0    0  0.31495334956E+02  0.19426440163E+02 -0.16847058080E+02  0.50528855059E+02  0.29999985437E+02 0.  0.
         12    1    1    2    0    0 -0.31495334956E+02 -0.19426440163E+02  0.16847058080E+02  0.40659144941E+02  0.00000000000E+00 0. -1.
         11    1    3    3    0    0  0.11129934317E+02 -0.13215048516E+01 -0.16043386165E+02  0.19570693725E+02  0.51100000000E-03 0. -1.
        -11    1    3    3    0    0  0.67909933221E+01  0.11615906483E+02  0.37645511668E+01  0.13972069262E+02  0.51100000000E-03 0.  1.
         12    1    3    3    0    0  0.13574407317E+02  0.91320385312E+01 -0.45682230825E+01  0.16986092072E+02  0.00000000000E+00 0. -1.
</event>
<event>
 7    1  0.6889665E-012  0.5052885E+02  0.7816164E-02  0.1300439E+00
        -11   -1    0    0    0    0  0.00000000000E+00  0.00000000000E+00  0.45593999997E+02  0.45594000000E+02  0.51100000000E-03 0. -1.
         11   -1    0    0    0    0 -0.00000000000E+00 -0.00000000000E+00 -0.45593999997E+02  0.45594000000E+02  0.51100000000E-03 0.  1.
    9900012    2    1    2    0    0  0.11157188840E+01 -0.11757235005E+02  0.38906157313E+02  0.50528849979E+02  0.29999969995E+02 0.  0.
        -12    1    1    2    0    0 -0.11157188840E+01  0.11757235005E+02 -0.38906157313E+02  0.40659150021E+02  0.00000000000E+00 0.  1.
         11    1    3    3    0    0  0.85362305558E+01  0.36903487185E+01  0.27384678518E+02  0.28920693691E+02  0.51100000000E-03 0. -1.
        -11    1    3    3    0    0 -0.35380154670E+01 -0.81239394953E+01  0.21916051191E+01  0.91279285507E+01  0.51100000000E-03 0.  1.
         12    1    3    3    0    0 -0.38824962048E+01 -0.73236442287E+01  0.93298736757E+01  0.12480227737E+02  0.00000000000E+00 0. -1.
</event>
<event>
 7    1  0.6889665E-012  0.5052885E+02  0.7816164E-02  0.1300439E+00
        -11   -1    0    0    0    0  0.00000000000E+00  0.00000000000E+00  0.45593999997E+02  0.45594000000E+02  0.51100000000E-03 0. -1.
         11   -1    0    0    0    0 -0.00000000000E+00 -0.00000000000E+00 -0.45593999997E+02  0.45594000000E+02  0.51100000000E-03 0.  1.
    9900012    2    1    2    0    0  0.20383901878E+02 -0.12481419006E+02 -0.32891906428E+02  0.50528846238E+02  0.29999958625E+02 0.  0.
         12    1    1    2    0    0 -0.20383901878E+02  0.12481419006E+02  0.32891906428E+02  0.40659153762E+02  0.00000000000E+00 0. -1.
         11    1    3    3    0    0 -0.10481055795E+01 -0.52171483198E+01 -0.14437569349E+02  0.15387026056E+02  0.51100000000E-03 0. -1.
        -11    1    3    3    0    0  0.24178530199E+02 -0.34469602294E+01 -0.18151136753E+02  0.30429371060E+02  0.51100000000E-03 0.  1.
        -12    1    3    3    0    0 -0.27465227416E+01 -0.38173104563E+01 -0.30320032654E+00  0.47124491221E+01  0.00000000000E+00 0.  1.
</event>
<event>
 7    1  0.6889665E-012  0.5052886E+02  0.7816164E-02  0.1300439E+00
        -11   -1    0    0    0    0  0.00000000000E+00  0.00000000000E+00  0.45593999997E+02  0.45594000000E+02  0.51100000000E-03 0. -1.
         11   -1    0    0    0    0 -0.00000000000E+00 -0.00000000000E+00 -0.45593999997E+02  0.45594000000E+02  0.51100000000E-03 0.  1.
    9900012    2    1    2    0    0 -0.29732379873E+02  0.19562960894E+02  0.19658115945E+02  0.50528863580E+02  0.30000011339E+02 0.  0.
        -12    1    1    2    0    0  0.29732379873E+02 -0.19562960894E+02 -0.19658115945E+02  0.40659136420E+02  0.00000000000E+00 0.  1.
         11    1    3    3    0    0 -0.10438164641E+02  0.17428494104E+02  0.14901929940E+02  0.25194745563E+02  0.51100000000E-03 0. -1.
        -11    1    3    3    0    0 -0.19876570300E+02 -0.19175938830E+01  0.13601013978E+01  0.20015121516E+02  0.51100000000E-03 0.  1.
        -12    1    3    3    0    0  0.58235506763E+00  0.40520606734E+01  0.33960846072E+01  0.53189965017E+01  0.00000000000E+00 0.  1.
</event>
<event>
 7    1  0.9210253E-012  0.5052886E+02  0.7816164E-02  0.1300439E+00
        -11   -1    0    0    0    0  0.00000000000E+00  0.00000000000E+00  0.45593999997E+02  0.45594000000E+02  0.51100000000E-03 0. -1.
         11   -1    0    0    0    0 -0.00000000000E+00 -0.00000000000E+00 -0.45593999997E+02  0.45594000000E+02  0.51100000000E-03 0.  1.
    9900012    2    1    2    0    0  0.16820200619E+02  0.48347613648E+01 -0.36699745648E+02  0.50528863303E+02  0.30000010495E+02 0.  0.
         12    1    1    2    0    0 -0.16820200619E+02 -0.48347613648E+01  0.36699745648E+02  0.40659136697E+02  0.00000000000E+00 0. -1.
         11    1    3    3    0    0 -0.33339730784E+01 -0.34593438871E+01  0.22052137413E-01  0.48044690835E+01  0.51100000000E-03 0. -1.
        -11    1    3    3    0    0  0.19976461937E+02  0.10774541580E+01 -0.26207415354E+02  0.32970419451E+02  0.51100000000E-03 0.  1.
        -12    1    3    3    0    0  0.17771176124E+00  0.72166510939E+01 -0.10514382431E+02  0.12753974768E+02  0.00000000000E+00 0.  1.
</event>
<event>
 7    1  0.6889665E-012  0.5052886E+02  0.7816164E-02  0.1300439E+00
        -11   -1    0    0    0    0  0.00000000000E+00  0.00000000000E+00  0.45593999997E+02  0.45594000000E+02  0.51100000000E-03 0. -1.
         11   -1    0    0    0    0 -0.00000000000E+00 -0.00000000000E+00 -0.45593999997E+02  0.45594000000E+02  0.51100000000E-03 0.  1.
    9900012    2    1    2    0    0  0.22310401258E+02 -0.12066112052E+02 -0.31777670650E+02  0.50528863065E+02  0.30000009773E+02 0.  0.
         12    1    1    2    0    0 -0.22310401258E+02  0.12066112052E+02  0.31777670650E+02  0.40659136935E+02  0.00000000000E+00 0. -1.
         11    1    3    3    0    0 -0.32141030514E+01 -0.25958108163E+01 -0.15954394772E+02  0.16480637276E+02  0.51100000000E-03 0. -1.
        -11    1    3    3    0    0  0.23775715742E+02 -0.12311686819E+02 -0.13521870349E+02  0.29995054082E+02  0.51100000000E-03 0.  1.
         12    1    3    3    0    0  0.17487885676E+01  0.28413855824E+01 -0.23014055287E+01  0.40531717074E+01  0.00000000000E+00 0. -1.
</event>
<event>
 7    1  0.6889665E-012  0.5052886E+02  0.7816164E-02  0.1300439E+00
        -11   -1    0    0    0    0  0.00000000000E+00  0.00000000000E+00  0.45593999997E+02  0.45594000000E+02  0.51100000000E-03 0.  1.
         11   -1    0    0    0    0 -0.00000000000E+00 -0.00000000000E+00 -0.45593999997E+02  0.45594000000E+02  0.51100000000E-03 0. -1.
    9900012    2    1    2    0    0 -0.37447126169E+01 -0.37436295703E+02 -0.15416444021E+02  0.50528857672E+02  0.29999993381E+02 0.  0.
         12    1    1    2    0    0  0.37447126169E+01  0.37436295703E+02  0.15416444021E+02  0.40659142328E+02  0.00000000000E+00 0. -1.
         11    1    3    3    0    0 -0.15591004020E+02 -0.18307181868E+02 -0.99896762573E+01  0.26038931358E+02  0.51100000000E-03 0. -1.
        -11    1    3    3    0    0  0.55535409123E+01 -0.15755665254E+02 -0.31881929332E+01  0.17007274288E+02  0.51100000000E-03 0.  1.
         12    1    3    3    0    0  0.62927504911E+01 -0.33734485814E+01 -0.22385748306E+01  0.74826520263E+01  0.00000000000E+00 0. -1.
</event>
<event>
 7    1  0.6889665E-012  0.5052886E+02  0.7816164E-02  0.1300439E+00
        -11   -1    0    0    0    0  0.00000000000E+00  0.00000000000E+00  0.45593999997E+02  0.45594000000E+02  0.51100000000E-03 0. -1.
         11   -1    0    0    0    0 -0.00000000000E+00 -0.00000000000E+00 -0.45593999997E+02  0.45594000000E+02  0.51100000000E-03 0.  1.
    9900012    2    1    2    0    0  0.16968431128E+02  0.34991808141E+02  0.11866391872E+02  0.50528861446E+02  0.30000004850E+02 0.  0.
        -12    1    1    2    0    0 -0.16968431128E+02 -0.34991808141E+02 -0.11866391872E+02  0.40659138554E+02  0.00000000000E+00 0.  1.
         11    1    3    3    0    0  0.59140146539E+01  0.14982226279E+02  0.10946388427E+02  0.19474755286E+02  0.51100000000E-03 0. -1.
        -11    1    3    3    0    0  0.22575127276E+01 -0.21805244562E+01 -0.55027444432E+01  0.63349228320E+01  0.51100000000E-03 0.  1.
        -12    1    3    3    0    0  0.87969037461E+01  0.22190106319E+02  0.64227478883E+01  0.24719183328E+02  0.00000000000E+00 0.  1.
</event>
<event>
 7    1  0.6889665E-012  0.5052884E+02  0.7816164E-02  0.1300439E+00
        -11   -1    0    0    0    0  0.00000000000E+00  0.00000000000E+00  0.45593999997E+02  0.45594000000E+02  0.51100000000E-03 0.  1.
         11   -1    0    0    0    0 -0.00000000000E+00 -0.00000000000E+00 -0.45593999997E+02  0.45594000000E+02  0.51100000000E-03 0. -1.
    9900012    2    1    2    0    0 -0.39496848984E+02 -0.30891364139E+01 -0.91445688385E+01  0.50528843803E+02  0.29999951223E+02 0.  0.
        -12    1    1    2    0    0  0.39496848984E+02  0.30891364139E+01  0.91445688385E+01  0.40659156197E+02  0.00000000000E+00 0.  1.
         11    1    3    3    0    0 -0.25713747220E+02  0.45625726149E+01 -0.17015273070E+02  0.31169430262E+02  0.51100000000E-03 0. -1.
        -11    1    3    3    0    0  0.47712327745E+00 -0.24645254230E+01  0.12343098240E+01  0.27973296526E+01  0.51100000000E-03 0.  1.
         12    1    3    3    0    0 -0.14260225041E+02 -0.51871836057E+01  0.66363944076E+01  0.16562083888E+02  0.00000000000E+00 0. -1.
</event>
<event>
 7    1  0.6889665E-012  0.5052886E+02  0.7816164E-02  0.1300439E+00
        -11   -1    0    0    0    0  0.00000000000E+00  0.00000000000E+00  0.45593999997E+02  0.45594000000E+02  0.51100000000E-03 0. -1.
         11   -1    0    0    0    0 -0.00000000000E+00 -0.00000000000E+00 -0.45593999997E+02  0.45594000000E+02  0.51100000000E-03 0.  1.
    9900012    2    1    2    0    0 -0.21236091174E+02  0.88295437472E+01 -0.33529589674E+02  0.50528858410E+02  0.29999995623E+02 0.  0.
         12    1    1    2    0    0  0.21236091174E+02 -0.88295437472E+01  0.33529589674E+02  0.40659141590E+02  0.00000000000E+00 0. -1.
         11    1    3    3    0    0 -0.70349234044E+00 -0.62531322959E+01 -0.13805979795E+02  0.15172397415E+02  0.51100000000E-03 0. -1.
        -11    1    3    3    0    0 -0.11276418177E+02  0.10027508588E+02 -0.26986002194E+01  0.15329415475E+02  0.51100000000E-03 0.  1.
         12    1    3    3    0    0 -0.92561806563E+01  0.50551674555E+01 -0.17025009660E+02  0.20027045520E+02  0.00000000000E+00 0. -1.
</event>
<event>
 7    1  0.6889665E-012  0.5052886E+02  0.7816164E-02  0.1300439E+00
        -11   -1    0    0    0    0  0.00000000000E+00  0.00000000000E+00  0.45593999997E+02  0.45594000000E+02  0.51100000000E-03 0. -1.
         11   -1    0    0    0    0 -0.00000000000E+00 -0.00000000000E+00 -0.45593999997E+02  0.45594000000E+02  0.51100000000E-03 0.  1.
    9900012    2    1    2    0    0 -0.23885528253E+01  0.24567866410E+02 -0.32309137994E+02  0.50528860284E+02  0.30000001318E+02 0.  0.
         12    1    1    2    0    0  0.23885528253E+01 -0.24567866410E+02  0.32309137994E+02  0.40659139716E+02  0.00000000000E+00 0. -1.
         11    1    3    3    0    0 -0.12536617220E+02  0.11209809033E+02 -0.13944444016E+02  0.21846604062E+02  0.51100000000E-03 0. -1.
        -11    1    3    3    0    0  0.96807575367E+01  0.80568567296E+01 -0.37690721137E+01  0.13146707257E+02  0.51100000000E-03 0.  1.
         12    1    3    3    0    0  0.46730685823E+00  0.53012006480E+01 -0.14595621864E+02  0.15535548964E+02  0.00000000000E+00 0. -1.
</event>
<event>
 7    1  0.6889665E-012  0.5052886E+02  0.7816164E-02  0.1300439E+00
        -11   -1    0    0    0    0  0.00000000000E+00  0.00000000000E+00  0.45593999997E+02  0.45594000000E+02  0.51100000000E-03 0. -1.
         11   -1    0    0    0    0 -0.00000000000E+00 -0.00000000000E+00 -0.45593999997E+02  0.45594000000E+02  0.51100000000E-03 0.  1.
    9900012    2    1    2    0    0  0.71420656604E+01 -0.85382726872E+01  0.39105680100E+02  0.50528863039E+02  0.30000009692E+02 0.  0.
        -12    1    1    2    0    0 -0.71420656604E+01  0.85382726872E+01 -0.39105680100E+02  0.40659136961E+02  0.00000000000E+00 0.  1.
         11    1    3    3    0    0 -0.14558813380E+01 -0.27875784749E+01  0.13293231114E+02  0.13660167566E+02  0.51100000000E-03 0. -1.
        -11    1    3    3    0    0  0.16381252579E+02  0.11046808533E+00  0.18332050059E+02  0.24584989299E+02  0.51100000000E-03 0.  1.
        -12    1    3    3    0    0 -0.77833055801E+01 -0.58611622977E+01  0.74803989270E+01  0.12283706173E+02  0.00000000000E+00 0.  1.
</event>
<event>
 7    1  0.6889665E-012  0.5052885E+02  0.7816164E-02  0.1300439E+00
        -11   -1    0    0    0    0  0.00000000000E+00  0.00000000000E+00  0.45593999997E+02  0.45594000000E+02  0.51100000000E-03 0. -1.
         11   -1    0    0    0    0 -0.00000000000E+00 -0.00000000000E+00 -0.45593999997E+02  0.45594000000E+02  0.51100000000E-03 0.  1.
    9900012    2    1    2    0    0  0.22333481585E+02 -0.28512851504E+02 -0.18476997770E+02  0.50528849158E+02  0.29999967502E+02 0.  0.
         12    1    1    2    0    0 -0.22333481585E+02  0.28512851504E+02  0.18476997770E+02  0.40659150842E+02  0.00000000000E+00 0. -1.
         11    1    3    3    0    0  0.17366356003E+01 -0.15194777933E+02  0.22355857218E+01  0.15456229276E+02  0.51100000000E-03 0. -1.
        -11    1    3    3    0    0  0.22541933443E+02 -0.13294541444E+02 -0.20204460033E+02  0.33062120335E+02  0.51100000000E-03 0.  1.
         12    1    3    3    0    0 -0.19450874583E+01 -0.23532126619E-01 -0.50812345861E+00  0.20104995476E+01  0.00000000000E+00 0. -1.
</event>
<event>
 7    1  0.6889665E-012  0.5052886E+02  0.7816164E-02  0.1300439E+00
        -11   -1    0    0    0    0  0.00000000000E+00  0.00000000000E+00  0.45593999997E+02  0.45594000000E+02  0.51100000000E-03 0. -1.
         11   -1    0    0    0    0 -0.00000000000E+00 -0.00000000000E+00 -0.45593999997E+02  0.45594000000E+02  0.51100000000E-03 0.  1.
    9900012    2    1    2    0    0 -0.11177232582E+02 -0.68816813537E+01 -0.38482171427E+02  0.50528861000E+02  0.30000003496E+02 0.  0.
         12    1    1    2    0    0  0.11177232582E+02  0.68816813537E+01  0.38482171427E+02  0.40659139000E+02  0.00000000000E+00 0. -1.
         11    1    3    3    0    0  0.56185204938E+01  0.23889976625E+01 -0.28198430963E+01  0.67250723208E+01  0.51100000000E-03 0. -1.
        -11    1    3    3    0    0 -0.19189452338E+02 -0.47390040559E+01 -0.24188825751E+02  0.31237678082E+02  0.51100000000E-03 0.  1.
        -12    1    3    3    0    0  0.23936992614E+01 -0.45316749603E+01 -0.11473502580E+02  0.12566110597E+02  0.00000000000E+00 0.  1.
</event>
<event>
 7    1  0.6889665E-012  0.5052886E+02  0.7816164E-02  0.1300439E+00
        -11   -1    0    0    0    0  0.00000000000E+00  0.00000000000E+00  0.45593999997E+02  0.45594000000E+02  0.51100000000E-03 0.  1.
         11   -1    0    0    0    0 -0.00000000000E+00 -0.00000000000E+00 -0.45593999997E+02  0.45594000000E+02  0.51100000000E-03 0. -1.
    9900012    2    1    2    0    0  0.32402140407E+02  0.24473498878E+02  0.20772737729E+01  0.50528856912E+02  0.29999991071E+02 0.  0.
        -12    1    1    2    0    0 -0.32402140407E+02 -0.24473498878E+02 -0.20772737729E+01  0.40659143088E+02  0.00000000000E+00 0.  1.
         11    1    3    3    0    0  0.20576830371E+02  0.20805955019E+02 -0.67477461370E+01  0.30030414426E+02  0.51100000000E-03 0. -1.
        -11    1    3    3    0    0  0.11132696482E+02 -0.30717450514E+01  0.41698413044E+01  0.12278441489E+02  0.51100000000E-03 0.  1.
        -12    1    3    3    0    0  0.69261355322E+00  0.67392889103E+01  0.46551786056E+01  0.82200009976E+01  0.00000000000E+00 0.  1.
</event>
<event>
 7    1  0.6889665E-012  0.5052886E+02  0.7816164E-02  0.1300439E+00
        -11   -1    0    0    0    0  0.00000000000E+00  0.00000000000E+00  0.45593999997E+02  0.45594000000E+02  0.51100000000E-03 0. -1.
         11   -1    0    0    0    0 -0.00000000000E+00 -0.00000000000E+00 -0.45593999997E+02  0.45594000000E+02  0.51100000000E-03 0.  1.
    9900012    2    1    2    0    0 -0.38790643916E+01 -0.19600949321E+02  0.35410755763E+02  0.50528856151E+02  0.29999988756E+02 0.  0.
        -12    1    1    2    0    0  0.38790643916E+01  0.19600949321E+02 -0.35410755763E+02  0.40659143849E+02  0.00000000000E+00 0.  1.
         11    1    3    3    0    0 -0.16706231936E+01 -0.88972386811E+00  0.32314905471E+01  0.37450129283E+01  0.51100000000E-03 0. -1.
        -11    1    3    3    0    0  0.93402415492E+01 -0.90829826957E+01  0.28451808850E+02  0.31292908365E+02  0.51100000000E-03 0.  1.
        -12    1    3    3    0    0 -0.11548682747E+02 -0.96282427575E+01  0.37274563654E+01  0.15490934857E+02  0.00000000000E+00 0.  1.
</event>
<event>
 7    1  0.6889665E-012  0.5052886E+02  0.7816164E-02  0.1300439E+00
        -11   -1    0    0    0    0  0.00000000000E+00  0.00000000000E+00  0.45593999997E+02  0.45594000000E+02  0.51100000000E-03 0. -1.
         11   -1    0    0    0    0 -0.00000000000E+00 -0.00000000000E+00 -0.45593999997E+02  0.45594000000E+02  0.51100000000E-03 0.  1.
    9900012    2    1    2    0    0  0.36068788049E+01  0.60249481923E+01 -0.40048170489E+02  0.50528861606E+02  0.30000005336E+02 0.  0.
         12    1    1    2    0    0 -0.36068788049E+01 -0.60249481923E+01  0.40048170489E+02  0.40659138394E+02  0.00000000000E+00 0. -1.
         11    1    3    3    0    0 -0.11991116112E+01 -0.95577760570E+01 -0.12470313599E+02  0.15757464051E+02  0.51100000000E-03 0. -1.
        -11    1    3    3    0    0  0.91560932765E+01  0.13136313485E+02 -0.22809665618E+02  0.27868936505E+02  0.51100000000E-03 0.  1.
        -12    1    3    3    0    0 -0.43501028604E+01  0.24464107641E+01 -0.47681912728E+01  0.69024610492E+01  0.00000000000E+00 0.  1.
</event>
<event>
 7    1  0.6889665E-012  0.5052887E+02  0.7816164E-02  0.1300439E+00
        -11   -1    0    0    0    0  0.00000000000E+00  0.00000000000E+00  0.45593999997E+02  0.45594000000E+02  0.51100000000E-03 0.  1.
         11   -1    0    0    0    0 -0.00000000000E+00 -0.00000000000E+00 -0.45593999997E+02  0.45594000000E+02  0.51100000000E-03 0. -1.
    9900012    2    1    2    0    0 -0.14057938610E+02 -0.12674800585E+02  0.35984557944E+02  0.50528872879E+02  0.30000039603E+02 0.  0.
        -12    1    1    2    0    0  0.14057938610E+02  0.12674800585E+02 -0.35984557944E+02  0.40659127121E+02  0.00000000000E+00 0.  1.
         11    1    3    3    0    0 -0.50572309728E+01 -0.12410184112E+02  0.10176287927E+02  0.16826915672E+02  0.51100000000E-03 0. -1.
        -11    1    3    3    0    0 -0.12585939218E+02  0.63843003070E+01  0.16390647915E+02  0.21629112228E+02  0.51100000000E-03 0.  1.
        -12    1    3    3    0    0  0.35852315813E+01 -0.66489167797E+01  0.94176221017E+01  0.12072844979E+02  0.00000000000E+00 0.  1.
</event>
<event>
 7    1  0.6889665E-012  0.5052887E+02  0.7816164E-02  0.1300439E+00
        -11   -1    0    0    0    0  0.00000000000E+00  0.00000000000E+00  0.45593999997E+02  0.45594000000E+02  0.51100000000E-03 0. -1.
         11   -1    0    0    0    0 -0.00000000000E+00 -0.00000000000E+00 -0.45593999997E+02  0.45594000000E+02  0.51100000000E-03 0.  1.
    9900012    2    1    2    0    0 -0.20022797607E+02  0.33294057360E+02  0.11989925318E+02  0.50528868324E+02  0.30000025759E+02 0.  0.
        -12    1    1    2    0    0  0.20022797607E+02 -0.33294057360E+02 -0.11989925318E+02  0.40659131676E+02  0.00000000000E+00 0.  1.
         11    1    3    3    0    0 -0.15513861323E+02  0.10769619056E+02  0.10119468664E+02  0.21425877673E+02  0.51100000000E-03 0. -1.
        -11    1    3    3    0    0  0.45267082385E+01  0.18511785032E+02  0.23688162389E+01  0.19203868443E+02  0.51100000000E-03 0.  1.
        -12    1    3    3    0    0 -0.90356445224E+01  0.40126532719E+01 -0.49835958483E+00  0.98991222082E+01  0.00000000000E+00 0.  1.
</event>
<event>
 7    1  0.6889665E-012  0.5052885E+02  0.7816164E-02  0.1300439E+00
        -11   -1    0    0    0    0  0.00000000000E+00  0.00000000000E+00  0.45593999997E+02  0.45594000000E+02  0.51100000000E-03 0. -1.
         11   -1    0    0    0    0 -0.00000000000E+00 -0.00000000000E+00 -0.45593999997E+02  0.45594000000E+02  0.51100000000E-03 0.  1.
    9900012    2    1    2    0    0 -0.19800782775E+02 -0.34856321310E+02  0.67920672347E+01  0.50528852061E+02  0.29999976324E+02 0.  0.
        -12    1    1    2    0    0  0.19800782775E+02  0.34856321310E+02 -0.67920672347E+01  0.40659147939E+02  0.00000000000E+00 0.  1.
         11    1    3    3    0    0  0.32363563689E+01 -0.16495271942E+02  0.96612960018E+01  0.19388363512E+02  0.51100000000E-03 0. -1.
        -11    1    3    3    0    0 -0.60112743627E+01 -0.19016508065E+00 -0.15176469056E+01  0.62028086068E+01  0.51100000000E-03 0.  1.
         12    1    3    3    0    0 -0.17025864782E+02 -0.18170884288E+02 -0.13515818615E+01  0.24937679942E+02  0.00000000000E+00 0. -1.
</event>
<event>
 7    1  0.6889665E-012  0.5052886E+02  0.7816164E-02  0.1300439E+00
        -11   -1    0    0    0    0  0.00000000000E+00  0.00000000000E+00  0.45593999997E+02  0.45594000000E+02  0.51100000000E-03 0. -1.
         11   -1    0    0    0    0 -0.00000000000E+00 -0.00000000000E+00 -0.45593999997E+02  0.45594000000E+02  0.51100000000E-03 0.  1.
    9900012    2    1    2    0    0  0.91792508345E+01 -0.17409940651E+02 -0.35578092554E+02  0.50528863891E+02  0.30000012284E+02 0.  0.
         12    1    1    2    0    0 -0.91792508345E+01  0.17409940651E+02  0.35578092554E+02  0.40659136109E+02  0.00000000000E+00 0. -1.
         11    1    3    3    0    0  0.10004941672E+02  0.32632558700E+01 -0.67989899020E+01  0.12528924961E+02  0.51100000000E-03 0. -1.
        -11    1    3    3    0    0 -0.58127269729E+01 -0.52086651676E+01 -0.52533605412E+01  0.94082827831E+01  0.51100000000E-03 0.  1.
         12    1    3    3    0    0  0.49870361356E+01 -0.15464531354E+02 -0.23525742110E+02  0.28591656147E+02  0.00000000000E+00 0. -1.
</event>
<event>
 7    1  0.6889665E-012  0.5052887E+02  0.7816164E-02  0.1300439E+00
        -11   -1    0    0    0    0  0.00000000000E+00  0.00000000000E+00  0.45593999997E+02  0.45594000000E+02  0.51100000000E-03 0. -1.
         11   -1    0    0    0    0 -0.00000000000E+00 -0.00000000000E+00 -0.45593999997E+02  0.45594000000E+02  0.51100000000E-03 0.  1.
    9900012    2    1    2    0    0 -0.37293083230E+02  0.72757364386E+01 -0.14472554040E+02  0.50528865504E+02  0.30000017186E+02 0.  0.
         12    1    1    2    0    0  0.37293083230E+02 -0.72757364386E+01  0.14472554040E+02  0.40659134496E+02  0.00000000000E+00 0. -1.
         11    1    3    3    0    0  0.83964976302E+00  0.50454893039E+01  0.26933727191E+01  0.57806773743E+01  0.51100000000E-03 0. -1.
        -11    1    3    3    0    0 -0.37439680074E+02  0.28409684120E+00 -0.12214041123E+02  0.39382650443E+02  0.51100000000E-03 0.  1.
        -12    1    3    3    0    0 -0.69305291828E+00  0.19461502935E+01 -0.49518856365E+01  0.53655376869E+01  0.00000000000E+00 0.  1.
</event>
<event>
 7    1  0.7030326E-012  0.5052886E+02  0.7816164E-02  0.1300439E+00
        -11   -1    0    0    0    0  0.00000000000E+00  0.00000000000E+00  0.45593999997E+02  0.45594000000E+02  0.51100000000E-03 0. -1.
         11   -1    0    0    0    0 -0.00000000000E+00 -0.00000000000E+00 -0.45593999997E+02  0.45594000000E+02  0.51100000000E-03 0.  1.
    9900012    2    1    2    0    0  0.29184106970E+02 -0.11618245645E+02 -0.25816079427E+02  0.50528859718E+02  0.29999999599E+02 0.  0.
         12    1    1    2    0    0 -0.29184106970E+02  0.11618245645E+02  0.25816079427E+02  0.40659140282E+02  0.00000000000E+00 0. -1.
         11    1    3    3    0    0  0.86712134441E+01 -0.15958022804E+02 -0.37860045109E+01  0.18552149871E+02  0.51100000000E-03 0. -1.
        -11    1    3    3    0    0  0.10852809305E+02  0.61143598412E+01 -0.78379047985E+01  0.14717391683E+02  0.51100000000E-03 0.  1.
        -12    1    3    3    0    0  0.96600842207E+01 -0.17745826827E+01 -0.14192170117E+02  0.17259318164E+02  0.00000000000E+00 0.  1.
</event>
<event>
 7    1  0.6889665E-012  0.5052886E+02  0.7816164E-02  0.1300439E+00
        -11   -1    0    0    0    0  0.00000000000E+00  0.00000000000E+00  0.45593999997E+02  0.45594000000E+02  0.51100000000E-03 0. -1.
         11   -1    0    0    0    0 -0.00000000000E+00 -0.00000000000E+00 -0.45593999997E+02  0.45594000000E+02  0.51100000000E-03 0.  1.
    9900012    2    1    2    0    0  0.11876042769E+02  0.27667627103E+02 -0.27324495863E+02  0.50528855204E+02  0.29999985878E+02 0.  0.
         12    1    1    2    0    0 -0.11876042769E+02 -0.27667627103E+02  0.27324495863E+02  0.40659144796E+02  0.00000000000E+00 0. -1.
         11    1    3    3    0    0  0.21931773384E+01  0.17495621040E+01 -0.50728603771E+01  0.57969739572E+01  0.51100000000E-03 0. -1.
        -11    1    3    3    0    0  0.83950150057E+01 -0.35693767124E+01 -0.35413253359E+01  0.97855869756E+01  0.51100000000E-03 0.  1.
        -12    1    3    3    0    0  0.12878504254E+01  0.29487441711E+02 -0.18710310150E+02  0.34946294271E+02  0.00000000000E+00 0.  1.
</event>
<event>
 7    1  0.6889665E-012  0.5052887E+02  0.7816164E-02  0.1300439E+00
        -11   -1    0    0    0    0  0.00000000000E+00  0.00000000000E+00  0.45593999997E+02  0.45594000000E+02  0.51100000000E-03 0. -1.
         11   -1    0    0    0    0 -0.00000000000E+00 -0.00000000000E+00 -0.45593999997E+02  0.45594000000E+02  0.51100000000E-03 0.  1.
    9900012    2    1    2    0    0 -0.26048776844E+02 -0.15820121030E+02  0.26913755729E+02  0.50528865087E+02  0.30000015917E+02 0.  0.
        -12    1    1    2    0    0  0.26048776844E+02  0.15820121030E+02 -0.26913755729E+02  0.40659134913E+02  0.00000000000E+00 0.  1.
         11    1    3    3    0    0  0.57542448155E+00 -0.47177559765E+01  0.16274411760E+02  0.16954197509E+02  0.51100000000E-03 0. -1.
        -11    1    3    3    0    0 -0.11197202659E+02 -0.71472712867E+01 -0.17480535595E+01  0.13398377728E+02  0.51100000000E-03 0.  1.
        -12    1    3    3    0    0 -0.15426998666E+02 -0.39550937665E+01  0.12387397529E+02  0.20176289850E+02  0.00000000000E+00 0.  1.
</event>
<event>
 7    1  0.6889665E-012  0.5052890E+02  0.7816164E-02  0.1300439E+00
        -11   -1    0    0    0    0  0.00000000000E+00  0.00000000000E+00  0.45593999997E+02  0.45594000000E+02  0.51100000000E-03 0.  1.
         11   -1    0    0    0    0 -0.00000000000E+00 -0.00000000000E+00 -0.45593999997E+02  0.45594000000E+02  0.51100000000E-03 0. -1.
    9900012    2    1    2    0    0  0.32589494880E+02  0.63693061310E+01  0.23463144397E+02  0.50528900378E+02  0.30000123187E+02 0.  0.
        -12    1    1    2    0    0 -0.32589494880E+02 -0.63693061310E+01 -0.23463144397E+02  0.40659099622E+02  0.00000000000E+00 0.  1.
         11    1    3    3    0    0  0.17982677333E+02 -0.51833101906E+00 -0.25829245107E+00  0.17992000066E+02  0.51100000000E-03 0. -1.
        -11    1    3    3    0    0  0.50967677812E+01 -0.11148965959E+01  0.18206427494E+02  0.18939219588E+02  0.51100000000E-03 0.  1.
        -12    1    3    3    0    0  0.95100497655E+01  0.80025337460E+01  0.55150093536E+01  0.13597680724E+02  0.00000000000E+00 0.  1.
</event>
<event>
 7    1  0.6889665E-012  0.5052884E+02  0.7816164E-02  0.1300439E+00
        -11   -1    0    0    0    0  0.00000000000E+00  0.00000000000E+00  0.45593999997E+02  0.45594000000E+02  0.51100000000E-03 0. -1.
         11   -1    0    0    0    0 -0.00000000000E+00 -0.00000000000E+00 -0.45593999997E+02  0.45594000000E+02  0.51100000000E-03 0.  1.
    9900012    2    1    2    0    0  0.79828857632E+01  0.98987084984E+00 -0.39855503113E+02  0.50528838206E+02  0.29999934210E+02 0.  0.
         12    1    1    2    0    0 -0.79828857632E+01 -0.98987084984E+00  0.39855503113E+02  0.40659161794E+02  0.00000000000E+00 0. -1.
         11    1    3    3    0    0  0.24371133431E+01 -0.12188058549E+02 -0.67255165474E+01  0.14132263292E+02  0.51100000000E-03 0. -1.
        -11    1    3    3    0    0  0.62734465821E+01  0.11919240436E+02 -0.28112639924E+02  0.31172823875E+02  0.51100000000E-03 0.  1.
        -12    1    3    3    0    0 -0.72767416198E+00  0.12586889634E+01 -0.50173466421E+01  0.52237510392E+01  0.00000000000E+00 0.  1.
</event>
<event>
 7    1  0.6889665E-012  0.5052886E+02  0.7816164E-02  0.1300439E+00
        -11   -1    0    0    0    0  0.00000000000E+00  0.00000000000E+00  0.45593999997E+02  0.45594000000E+02  0.51100000000E-03 0.  1.
         11   -1    0    0    0    0 -0.00000000000E+00 -0.00000000000E+00 -0.45593999997E+02  0.45594000000E+02  0.51100000000E-03 0. -1.
    9900012    2    1    2    0    0 -0.19627152658E+02 -0.15874695504E+02  0.31873722709E+02  0.50528864764E+02  0.30000014938E+02 0.  0.
        -12    1    1    2    0    0  0.19627152658E+02  0.15874695504E+02 -0.31873722709E+02  0.40659135236E+02  0.00000000000E+00 0.  1.
         11    1    3    3    0    0 -0.34453233968E+01 -0.72539238852E+01  0.42973523025E+00  0.80420356671E+01  0.51100000000E-03 0. -1.
        -11    1    3    3    0    0 -0.33987304439E+01 -0.13343163495E+02  0.21828830485E+02  0.25808704371E+02  0.51100000000E-03 0.  1.
        -12    1    3    3    0    0 -0.12783098817E+02  0.47223918759E+01  0.96151569934E+01  0.16678124727E+02  0.00000000000E+00 0.  1.
</event>
<event>
 7    1  0.6889665E-012  0.5052886E+02  0.7816164E-02  0.1300439E+00
        -11   -1    0    0    0    0  0.00000000000E+00  0.00000000000E+00  0.45593999997E+02  0.45594000000E+02  0.51100000000E-03 0. -1.
         11   -1    0    0    0    0 -0.00000000000E+00 -0.00000000000E+00 -0.45593999997E+02  0.45594000000E+02  0.51100000000E-03 0.  1.
    9900012    2    1    2    0    0  0.12936206862E+02  0.32735241767E+02 -0.20352495493E+02  0.50528861121E+02  0.30000003865E+02 0.  0.
         12    1    1    2    0    0 -0.12936206862E+02 -0.32735241767E+02  0.20352495493E+02  0.40659138879E+02  0.00000000000E+00 0. -1.
         11    1    3    3    0    0 -0.75456117582E+01  0.15460845694E+01 -0.53205233210E+01  0.93613355336E+01  0.51100000000E-03 0. -1.
        -11    1    3    3    0    0  0.62449603920E+01  0.99315212130E+01 -0.92446428719E+01  0.14936467654E+02  0.51100000000E-03 0.  1.
         12    1    3    3    0    0  0.14236858229E+02  0.21257635985E+02 -0.57873293006E+01  0.26231057933E+02  0.00000000000E+00 0. -1.
</event>
<event>
 7    1  0.6889665E-012  0.5052886E+02  0.7816164E-02  0.1300439E+00
        -11   -1    0    0    0    0  0.00000000000E+00  0.00000000000E+00  0.45593999997E+02  0.45594000000E+02  0.51100000000E-03 0. -1.
         11   -1    0    0    0    0 -0.00000000000E+00 -0.00000000000E+00 -0.45593999997E+02  0.45594000000E+02  0.51100000000E-03 0.  1.
    9900012    2    1    2    0    0  0.96800922154E+01  0.17011218318E+02 -0.35638182521E+02  0.50528858502E+02  0.29999995902E+02 0.  0.
         12    1    1    2    0    0 -0.96800922154E+01 -0.17011218318E+02  0.35638182521E+02  0.40659141498E+02  0.00000000000E+00 0. -1.
         11    1    3    3    0    0  0.57459014165E+00  0.22788011787E+01 -0.19461619300E+02  0.19603002696E+02  0.51100000000E-03 0. -1.
        -11    1    3    3    0    0  0.85130781079E+01  0.63093609643E+01  0.20915297402E+01  0.10800695883E+02  0.51100000000E-03 0.  1.
        -12    1    3    3    0    0  0.59242396584E+00  0.84230561754E+01 -0.18268092961E+02  0.20125159923E+02  0.00000000000E+00 0.  1.
</event>
<event>
 7    1  0.6889665E-012  0.5052886E+02  0.7816164E-02  0.1300439E+00
        -11   -1    0    0    0    0  0.00000000000E+00  0.00000000000E+00  0.45593999997E+02  0.45594000000E+02  0.51100000000E-03 0.  1.
         11   -1    0    0    0    0 -0.00000000000E+00 -0.00000000000E+00 -0.45593999997E+02  0.45594000000E+02  0.51100000000E-03 0. -1.
    9900012    2    1    2    0    0  0.18767344316E+01 -0.40344404471E+02  0.46875164757E+01  0.50528856933E+02  0.29999991133E+02 0.  0.
        -12    1    1    2    0    0 -0.18767344316E+01  0.40344404471E+02 -0.46875164757E+01  0.40659143067E+02  0.00000000000E+00 0.  1.
         11    1    3    3    0    0  0.66831999380E+01 -0.31555287104E+02 -0.41444573791E+01  0.32520421781E+02  0.51100000000E-03 0. -1.
        -11    1    3    3    0    0 -0.33107802871E+01 -0.11332259807E+02  0.92898678529E+01  0.15022750195E+02  0.51100000000E-03 0.  1.
         12    1    3    3    0    0 -0.14956852192E+01  0.25431424398E+01 -0.45789399812E+00  0.29856849562E+01  0.00000000000E+00 0. -1.
</event>
<event>
 7    1  0.6889665E-012  0.5052886E+02  0.7816164E-02  0.1300439E+00
        -11   -1    0    0    0    0  0.00000000000E+00  0.00000000000E+00  0.45593999997E+02  0.45594000000E+02  0.51100000000E-03 0. -1.
         11   -1    0    0    0    0 -0.00000000000E+00 -0.00000000000E+00 -0.45593999997E+02  0.45594000000E+02  0.51100000000E-03 0.  1.
    9900012    2    1    2    0    0  0.28664386203E+02 -0.27379776722E+02  0.90480028355E+01  0.50528861236E+02  0.30000004212E+02 0.  0.
        -12    1    1    2    0    0 -0.28664386203E+02  0.27379776722E+02 -0.90480028355E+01  0.40659138764E+02  0.00000000000E+00 0.  1.
         11    1    3    3    0    0  0.28632463183E+02 -0.19320393944E+02  0.14070358785E+02  0.37297058419E+02  0.51100000000E-03 0. -1.
        -11    1    3    3    0    0  0.32404910516E+01 -0.23704634769E+01 -0.53538241187E+01  0.66920334956E+01  0.51100000000E-03 0.  1.
         12    1    3    3    0    0 -0.32085680320E+01 -0.56889193012E+01  0.33146816972E+00  0.65397693215E+01  0.00000000000E+00 0. -1.
</event>
<event>
 7    1  0.1014715E-011  0.5052886E+02  0.7816164E-02  0.1300439E+00
        -11   -1    0    0    0    0  0.00000000000E+00  0.00000000000E+00  0.45593999997E+02  0.45594000000E+02  0.51100000000E-03 0. -1.
         11   -1    0    0    0    0 -0.00000000000E+00 -0.00000000000E+00 -0.45593999997E+02  0.45594000000E+02  0.51100000000E-03 0.  1.
    9900012    2    1    2    0    0  0.12104900159E+02 -0.10550855798E+02 -0.37353935054E+02  0.50528860438E+02  0.30000001787E+02 0.  0.
         12    1    1    2    0    0 -0.12104900159E+02  0.10550855798E+02  0.37353935054E+02  0.40659139562E+02  0.00000000000E+00 0. -1.
         11    1    3    3    0    0 -0.54673150163E+01  0.20032002163E+01 -0.16399367252E+02  0.17402401878E+02  0.51100000000E-03 0. -1.
        -11    1    3    3    0    0  0.87597592473E+01 -0.12411301842E+02 -0.18577616795E+02  0.23997950778E+02  0.51100000000E-03 0.  1.
         12    1    3    3    0    0  0.88124559278E+01 -0.14275417172E+00 -0.23769510064E+01  0.91285077816E+01  0.00000000000E+00 0. -1.
</event>
<event>
 7    1  0.6889665E-012  0.5052885E+02  0.7816164E-02  0.1300439E+00
        -11   -1    0    0    0    0  0.00000000000E+00  0.00000000000E+00  0.45593999997E+02  0.45594000000E+02  0.51100000000E-03 0. -1.
         11   -1    0    0    0    0 -0.00000000000E+00 -0.00000000000E+00 -0.45593999997E+02  0.45594000000E+02  0.51100000000E-03 0.  1.
    9900012    2    1    2    0    0  0.17662166370E+02 -0.31869460810E+02 -0.18043061052E+02  0.50528847214E+02  0.29999961590E+02 0.  0.
         12    1    1    2    0    0 -0.17662166370E+02  0.31869460810E+02  0.18043061052E+02  0.40659152786E+02  0.00000000000E+00 0. -1.
         11    1    3    3    0    0  0.13497037311E+01 -0.56919860021E+01  0.14875869464E+01  0.60360019876E+01  0.51100000000E-03 0. -1.
        -11    1    3    3    0    0  0.22179543210E+02 -0.24504456702E+02 -0.19532968063E+02  0.38391892072E+02  0.51100000000E-03 0.  1.
        -12    1    3    3    0    0 -0.58670805709E+01 -0.16730181056E+01  0.23200640227E-02  0.61009531542E+01  0.00000000000E+00 0.  1.
</event>
<event>
 7    1  0.6889665E-012  0.5052886E+02  0.7816164E-02  0.1300439E+00
        -11   -1    0    0    0    0  0.00000000000E+00  0.00000000000E+00  0.45593999997E+02  0.45594000000E+02  0.51100000000E-03 0. -1.
         11   -1    0    0    0    0 -0.00000000000E+00 -0.00000000000E+00 -0.45593999997E+02  0.45594000000E+02  0.51100000000E-03 0.  1.
    9900012    2    1    2    0    0 -0.17253752666E+02 -0.10244526264E+02 -0.35362735347E+02  0.50528863872E+02  0.30000012227E+02 0.  0.
         12    1    1    2    0    0  0.17253752666E+02  0.10244526264E+02  0.35362735347E+02  0.40659136128E+02  0.00000000000E+00 0. -1.
         11    1    3    3    0    0  0.27916445998E+01 -0.11304936382E+02 -0.23481150978E+02  0.26209908769E+02  0.51100000000E-03 0. -1.
        -11    1    3    3    0    0 -0.19034482233E+02  0.12531800525E+01 -0.12773223248E+02  0.22957290923E+02  0.51100000000E-03 0.  1.
         12    1    3    3    0    0 -0.10109150327E+01 -0.19276993447E+00  0.89163887858E+00  0.13616641806E+01  0.00000000000E+00 0. -1.
</event>
<event>
 7    1  0.6889665E-012  0.5052886E+02  0.7816164E-02  0.1300439E+00
        -11   -1    0    0    0    0  0.00000000000E+00  0.00000000000E+00  0.45593999997E+02  0.45594000000E+02  0.51100000000E-03 0. -1.
         11   -1    0    0    0    0 -0.00000000000E+00 -0.00000000000E+00 -0.45593999997E+02  0.45594000000E+02  0.51100000000E-03 0.  1.
    9900012    2    1    2    0    0 -0.16389658856E+01 -0.39083250811E+02 -0.11089605394E+02  0.50528855261E+02  0.29999986050E+02 0.  0.
         12    1    1    2    0    0  0.16389658856E+01  0.39083250811E+02  0.11089605394E+02  0.40659144739E+02  0.00000000000E+00 0. -1.
         11    1    3    3    0    0 -0.79286124292E+01 -0.10626925586E+02  0.34912831090E+01  0.13710707512E+02  0.51100000000E-03 0. -1.
        -11    1    3    3    0    0  0.10727293995E+02 -0.26429563629E+02 -0.10295878057E+02  0.30324936526E+02  0.51100000000E-03 0.  1.
        -12    1    3    3    0    0 -0.44376474514E+01 -0.20267615968E+01 -0.42850104455E+01  0.64932112234E+01  0.00000000000E+00 0.  1.
</event>
<event>
 7    1  0.6889665E-012  0.5052889E+02  0.7816164E-02  0.1300439E+00
        -11   -1    0    0    0    0  0.00000000000E+00  0.00000000000E+00  0.45593999997E+02  0.45594000000E+02  0.51100000000E-03 0. -1.
         11   -1    0    0    0    0 -0.00000000000E+00 -0.00000000000E+00 -0.45593999997E+02  0.45594000000E+02  0.51100000000E-03 0.  1.
    9900012    2    1    2    0    0  0.13370906410E+02  0.85370096003E+01 -0.37436632705E+02  0.50528891065E+02  0.30000094880E+02 0.  0.
         12    1    1    2    0    0 -0.13370906410E+02 -0.85370096003E+01  0.37436632705E+02  0.40659108935E+02  0.00000000000E+00 0. -1.
         11    1    3    3    0    0  0.53719839370E+00 -0.32688787788E+01 -0.30733686680E+01  0.45188212861E+01  0.51100000000E-03 0. -1.
        -11    1    3    3    0    0  0.18667507928E+02  0.14180874697E+02 -0.31010932061E+02  0.38874811472E+02  0.51100000000E-03 0.  1.
        -12    1    3    3    0    0 -0.58337999121E+01 -0.23749863179E+01 -0.33523319760E+01  0.71352583066E+01  0.00000000000E+00 0.  1.
</event>
<event>
 7    1  0.6889665E-012  0.5052884E+02  0.7816164E-02  0.1300439E+00
        -11   -1    0    0    0    0  0.00000000000E+00  0.00000000000E+00  0.45593999997E+02  0.45594000000E+02  0.51100000000E-03 0. -1.
         11   -1    0    0    0    0 -0.00000000000E+00 -0.00000000000E+00 -0.45593999997E+02  0.45594000000E+02  0.51100000000E-03 0.  1.
    9900012    2    1    2    0    0 -0.25024594527E+02 -0.31640277905E+02  0.50822873300E+01  0.50528841602E+02  0.29999944532E+02 0.  0.
         12    1    1    2    0    0  0.25024594527E+02  0.31640277905E+02 -0.50822873300E+01  0.40659158398E+02  0.00000000000E+00 0. -1.
         11    1    3    3    0    0  0.21209182372E+01 -0.65754001612E+00  0.13523627150E+01  0.25999111938E+01  0.51100000000E-03 0. -1.
        -11    1    3    3    0    0 -0.19924579641E+02 -0.27917273504E+02 -0.66309821563E+01  0.34933264354E+02  0.51100000000E-03 0.  1.
        -12    1    3    3    0    0 -0.72209331236E+01 -0.30654643844E+01  0.10360906771E+02  0.12995666054E+02  0.00000000000E+00 0.  1.
</event>
<event>
 7    1  0.6889665E-012  0.5052886E+02  0.7816164E-02  0.1300439E+00
        -11   -1    0    0    0    0  0.00000000000E+00  0.00000000000E+00  0.45593999997E+02  0.45594000000E+02  0.51100000000E-03 0. -1.
         11   -1    0    0    0    0 -0.00000000000E+00 -0.00000000000E+00 -0.45593999997E+02  0.45594000000E+02  0.51100000000E-03 0.  1.
    9900012    2    1    2    0    0  0.26284334384E+02  0.20017448732E+02  0.23698121278E+02  0.50528862775E+02  0.30000008892E+02 0.  0.
        -12    1    1    2    0    0 -0.26284334384E+02 -0.20017448732E+02 -0.23698121278E+02  0.40659137225E+02  0.00000000000E+00 0.  1.
         11    1    3    3    0    0  0.43888519661E+01  0.12509732384E+02  0.21289119817E+02  0.25079514524E+02  0.51100000000E-03 0. -1.
        -11    1    3    3    0    0  0.49086861924E+00 -0.18922018286E+01  0.28265946586E+00  0.19751649036E+01  0.51100000000E-03 0.  1.
         12    1    3    3    0    0  0.21404613799E+02  0.93999181764E+01  0.21263419952E+01  0.23474183348E+02  0.00000000000E+00 0. -1.
</event>
<event>
 7    1  0.6889665E-012  0.5052886E+02  0.7816164E-02  0.1300439E+00
        -11   -1    0    0    0    0  0.00000000000E+00  0.00000000000E+00  0.45593999997E+02  0.45594000000E+02  0.51100000000E-03 0. -1.
         11   -1    0    0    0    0 -0.00000000000E+00 -0.00000000000E+00 -0.45593999997E+02  0.45594000000E+02  0.51100000000E-03 0.  1.
    9900012    2    1    2    0    0  0.22513505597E+02  0.80647795104E+01  0.32882624094E+02  0.50528861174E+02  0.30000004023E+02 0.  0.
        -12    1    1    2    0    0 -0.22513505597E+02 -0.80647795104E+01 -0.32882624094E+02  0.40659138826E+02  0.00000000000E+00 0.  1.
         11    1    3    3    0    0 -0.65077573560E+00 -0.59002817648E+00  0.15384993216E+02  0.15410050578E+02  0.51100000000E-03 0.  1.
        -11    1    3    3    0    0  0.81381137885E+01  0.12035142947E+02  0.52743901120E+01  0.15456155832E+02  0.51100000000E-03 0. -1.
        -12    1    3    3    0    0  0.15026167544E+02 -0.33803352600E+01  0.12223240766E+02  0.19662654764E+02  0.00000000000E+00 0.  1.
</event>
<event>
 7    1  0.6889665E-012  0.5052885E+02  0.7816164E-02  0.1300439E+00
        -11   -1    0    0    0    0  0.00000000000E+00  0.00000000000E+00  0.45593999997E+02  0.45594000000E+02  0.51100000000E-03 0. -1.
         11   -1    0    0    0    0 -0.00000000000E+00 -0.00000000000E+00 -0.45593999997E+02  0.45594000000E+02  0.51100000000E-03 0.  1.
    9900012    2    1    2    0    0 -0.17045936386E+02 -0.16446591529E+02 -0.33047119372E+02  0.50528850734E+02  0.29999972291E+02 0.  0.
         12    1    1    2    0    0  0.17045936386E+02  0.16446591529E+02  0.33047119372E+02  0.40659149266E+02  0.00000000000E+00 0. -1.
         11    1    3    3    0    0 -0.10332944437E+02  0.12052682857E+01 -0.94168764508E+01  0.14032105143E+02  0.51100000000E-03 0. -1.
        -11    1    3    3    0    0  0.71683422542E+01 -0.81429884751E+01 -0.75056822091E+01  0.13191992179E+02  0.51100000000E-03 0.  1.
        -12    1    3    3    0    0 -0.13881334203E+02 -0.95088713399E+01 -0.16124560713E+02  0.23304753412E+02  0.00000000000E+00 0.  1.
</event>
<event>
 7    1  0.6889665E-012  0.5052886E+02  0.7816164E-02  0.1300439E+00
        -11   -1    0    0    0    0  0.00000000000E+00  0.00000000000E+00  0.45593999997E+02  0.45594000000E+02  0.51100000000E-03 0. -1.
         11   -1    0    0    0    0 -0.00000000000E+00 -0.00000000000E+00 -0.45593999997E+02  0.45594000000E+02  0.51100000000E-03 0.  1.
    9900012    2    1    2    0    0  0.11655019651E+02  0.27729312827E+01  0.38854051350E+02  0.50528856659E+02  0.29999990301E+02 0.  0.
        -12    1    1    2    0    0 -0.11655019651E+02 -0.27729312827E+01 -0.38854051350E+02  0.40659143341E+02  0.00000000000E+00 0.  1.
         11    1    3    3    0    0  0.95365387794E+01 -0.24375758740E+00  0.42386698671E+02  0.43446947121E+02  0.51100000000E-03 0. -1.
        -11    1    3    3    0    0  0.31847401392E+01  0.34258832340E+01 -0.18109514201E+01  0.50158539647E+01  0.51100000000E-03 0.  1.
         12    1    3    3    0    0 -0.10662592679E+01 -0.40919436386E+00 -0.17216959015E+01  0.20660555731E+01  0.00000000000E+00 0. -1.
</event>
<event>
 7    1  0.6889665E-012  0.5052884E+02  0.7816164E-02  0.1300439E+00
        -11   -1    0    0    0    0  0.00000000000E+00  0.00000000000E+00  0.45593999997E+02  0.45594000000E+02  0.51100000000E-03 0.  1.
         11   -1    0    0    0    0 -0.00000000000E+00 -0.00000000000E+00 -0.45593999997E+02  0.45594000000E+02  0.51100000000E-03 0. -1.
    9900012    2    1    2    0    0 -0.13459673618E+02  0.36765156669E+02  0.10969386231E+02  0.50528843675E+02  0.29999950834E+02 0.  0.
        -12    1    1    2    0    0  0.13459673618E+02 -0.36765156669E+02 -0.10969386231E+02  0.40659156325E+02  0.00000000000E+00 0.  1.
         11    1    3    3    0    0 -0.14277453508E+02  0.19408582611E+01  0.21323838436E+01  0.14565701857E+02  0.51100000000E-03 0. -1.
        -11    1    3    3    0    0  0.23632476818E+00  0.27013647653E+02  0.64301166054E+01  0.27769396982E+02  0.51100000000E-03 0.  1.
         12    1    3    3    0    0  0.58145512161E+00  0.78106507546E+01  0.24068857820E+01  0.81937448359E+01  0.00000000000E+00 0. -1.
</event>
<event>
 7    1  0.6889665E-012  0.5052885E+02  0.7816164E-02  0.1300439E+00
        -11   -1    0    0    0    0  0.00000000000E+00  0.00000000000E+00  0.45593999997E+02  0.45594000000E+02  0.51100000000E-03 0. -1.
         11   -1    0    0    0    0 -0.00000000000E+00 -0.00000000000E+00 -0.45593999997E+02  0.45594000000E+02  0.51100000000E-03 0.  1.
    9900012    2    1    2    0    0 -0.21989991036E+02 -0.28112557119E+02 -0.19475385128E+02  0.50528853435E+02  0.29999980500E+02 0.  0.
         12    1    1    2    0    0  0.21989991036E+02  0.28112557119E+02  0.19475385128E+02  0.40659146565E+02  0.00000000000E+00 0. -1.
         11    1    3    3    0    0 -0.21189719292E+02 -0.87348124694E+01 -0.12269788785E+01  0.22952268515E+02  0.51100000000E-03 0. -1.
        -11    1    3    3    0    0 -0.74196410299E+00 -0.15248813928E+02 -0.17757660090E+02  0.23418183727E+02  0.51100000000E-03 0.  1.
         12    1    3    3    0    0 -0.58307641429E-01 -0.41289307216E+01 -0.49074615927E+00  0.41584011925E+01  0.00000000000E+00 0. -1.
</event>
<event>
 7    1  0.6889665E-012  0.5052886E+02  0.7816164E-02  0.1300439E+00
        -11   -1    0    0    0    0  0.00000000000E+00  0.00000000000E+00  0.45593999997E+02  0.45594000000E+02  0.51100000000E-03 0.  1.
         11   -1    0    0    0    0 -0.00000000000E+00 -0.00000000000E+00 -0.45593999997E+02  0.45594000000E+02  0.51100000000E-03 0. -1.
    9900012    2    1    2    0    0 -0.15641169619E+02  0.29202655741E+02 -0.23573810631E+02  0.50528857891E+02  0.29999994044E+02 0.  0.
         12    1    1    2    0    0  0.15641169619E+02 -0.29202655741E+02  0.23573810631E+02  0.40659142109E+02  0.00000000000E+00 0. -1.
         11    1    3    3    0    0 -0.98059653976E+01  0.73957299520E-01  0.17535860977E+01  0.99618016204E+01  0.51100000000E-03 0. -1.
        -11    1    3    3    0    0 -0.67081205155E+00  0.14954824384E+02 -0.61907812933E+01  0.16199460931E+02  0.51100000000E-03 0.  1.
         12    1    3    3    0    0 -0.51643921701E+01  0.14173874057E+02 -0.19136615436E+02  0.24367595339E+02  0.00000000000E+00 0. -1.
</event>
<event>
 7    1  0.6889665E-012  0.5052886E+02  0.7816164E-02  0.1300439E+00
        -11   -1    0    0    0    0  0.00000000000E+00  0.00000000000E+00  0.45593999997E+02  0.45594000000E+02  0.51100000000E-03 0. -1.
         11   -1    0    0    0    0 -0.00000000000E+00 -0.00000000000E+00 -0.45593999997E+02  0.45594000000E+02  0.51100000000E-03 0.  1.
    9900012    2    1    2    0    0 -0.15262253120E+02 -0.12001892963E+02 -0.35723717658E+02  0.50528858244E+02  0.29999995118E+02 0.  0.
         12    1    1    2    0    0  0.15262253120E+02  0.12001892963E+02  0.35723717658E+02  0.40659141756E+02  0.00000000000E+00 0. -1.
         11    1    3    3    0    0 -0.52022955297E+00 -0.12204096139E+02 -0.30537450746E+02  0.32889914862E+02  0.51100000000E-03 0. -1.
        -11    1    3    3    0    0 -0.71063033309E+01  0.30807323060E+01 -0.54561920486E+01  0.94742013122E+01  0.51100000000E-03 0.  1.
         12    1    3    3    0    0 -0.76357202363E+01 -0.28785291304E+01  0.26992513571E+00  0.81647420694E+01  0.00000000000E+00 0. -1.
</event>
<event>
 7    1  0.6889665E-012  0.5052886E+02  0.7816164E-02  0.1300439E+00
        -11   -1    0    0    0    0  0.00000000000E+00  0.00000000000E+00  0.45593999997E+02  0.45594000000E+02  0.51100000000E-03 0. -1.
         11   -1    0    0    0    0 -0.00000000000E+00 -0.00000000000E+00 -0.45593999997E+02  0.45594000000E+02  0.51100000000E-03 0.  1.
    9900012    2    1    2    0    0 -0.23455891082E+02  0.15921365971E+02  0.29146130522E+02  0.50528860250E+02  0.30000001217E+02 0.  0.
        -12    1    1    2    0    0  0.23455891082E+02 -0.15921365971E+02 -0.29146130522E+02  0.40659139750E+02  0.00000000000E+00 0.  1.
         11    1    3    3    0    0  0.31623167114E+01  0.43524309907E+01  0.14117748170E+02  0.15108101011E+02  0.51100000000E-03 0. -1.
        -11    1    3    3    0    0 -0.96578834132E+01 -0.20539201767E+01  0.20336924411E+01  0.10081131153E+02  0.51100000000E-03 0.  1.
         12    1    3    3    0    0 -0.16960324380E+02  0.13622855157E+02  0.12994689911E+02  0.25339628086E+02  0.00000000000E+00 0. -1.
</event>
<event>
 7    1  0.6889665E-012  0.5052886E+02  0.7816164E-02  0.1300439E+00
        -11   -1    0    0    0    0  0.00000000000E+00  0.00000000000E+00  0.45593999997E+02  0.45594000000E+02  0.51100000000E-03 0. -1.
         11   -1    0    0    0    0 -0.00000000000E+00 -0.00000000000E+00 -0.45593999997E+02  0.45594000000E+02  0.51100000000E-03 0.  1.
    9900012    2    1    2    0    0 -0.12624589405E+02 -0.14460332456E+02  0.35842486511E+02  0.50528864352E+02  0.30000013684E+02 0.  0.
        -12    1    1    2    0    0  0.12624589405E+02  0.14460332456E+02 -0.35842486511E+02  0.40659135648E+02  0.00000000000E+00 0.  1.
         11    1    3    3    0    0  0.23489321238E+00  0.24794674435E+01  0.42635900092E+01  0.49377255545E+01  0.51100000000E-03 0. -1.
        -11    1    3    3    0    0 -0.13265332376E+02 -0.22555766520E+02  0.29861542972E+02  0.39704450573E+02  0.51100000000E-03 0.  1.
        -12    1    3    3    0    0  0.40584975853E+00  0.56159666203E+01  0.17173535294E+01  0.58866882244E+01  0.00000000000E+00 0.  1.
</event>
<event>
 7    1  0.7831862E-012  0.5052885E+02  0.7816164E-02  0.1300439E+00
        -11   -1    0    0    0    0  0.00000000000E+00  0.00000000000E+00  0.45593999997E+02  0.45594000000E+02  0.51100000000E-03 0. -1.
         11   -1    0    0    0    0 -0.00000000000E+00 -0.00000000000E+00 -0.45593999997E+02  0.45594000000E+02  0.51100000000E-03 0.  1.
    9900012    2    1    2    0    0  0.10500437739E+02 -0.54453803055E+01 -0.38900580015E+02  0.50528849924E+02  0.29999969829E+02 0.  0.
         12    1    1    2    0    0 -0.10500437739E+02  0.54453803055E+01  0.38900580015E+02  0.40659150076E+02  0.00000000000E+00 0. -1.
         11    1    3    3    0    0  0.54792309037E+00  0.10388491042E+02 -0.10070299891E+02  0.14478670726E+02  0.51100000000E-03 0. -1.
        -11    1    3    3    0    0  0.72144071800E+01 -0.39268270248E+01 -0.17741244991E+02  0.19550432618E+02  0.51100000000E-03 0.  1.
         12    1    3    3    0    0  0.27381074686E+01 -0.11907044323E+02 -0.11089035134E+02  0.16499746580E+02  0.00000000000E+00 0. -1.
</event>
<event>
 7    1  0.6889665E-012  0.5052891E+02  0.7816164E-02  0.1300439E+00
        -11   -1    0    0    0    0  0.00000000000E+00  0.00000000000E+00  0.45593999997E+02  0.45594000000E+02  0.51100000000E-03 0. -1.
         11   -1    0    0    0    0 -0.00000000000E+00 -0.00000000000E+00 -0.45593999997E+02  0.45594000000E+02  0.51100000000E-03 0.  1.
    9900012    2    1    2    0    0 -0.12279722671E+02 -0.12092602057E+02 -0.36825797645E+02  0.50528905254E+02  0.30000138009E+02 0.  0.
         12    1    1    2    0    0  0.12279722671E+02  0.12092602057E+02  0.36825797645E+02  0.40659094746E+02  0.00000000000E+00 0. -1.
         11    1    3    3    0    0 -0.14441989684E+02 -0.89660068138E+01 -0.10262669069E+02  0.19856553601E+02  0.51100000000E-03 0. -1.
        -11    1    3    3    0    0  0.25990858384E+01 -0.10276595570E+01 -0.27969197900E+02  0.28108492717E+02  0.51100000000E-03 0.  1.
         12    1    3    3    0    0 -0.43681882527E+00 -0.20989356863E+01  0.14060693239E+01  0.25638589363E+01  0.00000000000E+00 0. -1.
</event>
<event>
 7    1  0.6889665E-012  0.5052886E+02  0.7816164E-02  0.1300439E+00
        -11   -1    0    0    0    0  0.00000000000E+00  0.00000000000E+00  0.45593999997E+02  0.45594000000E+02  0.51100000000E-03 0. -1.
         11   -1    0    0    0    0 -0.00000000000E+00 -0.00000000000E+00 -0.45593999997E+02  0.45594000000E+02  0.51100000000E-03 0.  1.
    9900012    2    1    2    0    0 -0.72997609505E+01  0.38722770046E+01  0.39810606184E+02  0.50528863218E+02  0.30000010237E+02 0.  0.
        -12    1    1    2    0    0  0.72997609505E+01 -0.38722770046E+01 -0.39810606184E+02  0.40659136782E+02  0.00000000000E+00 0.  1.
         11    1    3    3    0    0 -0.35791884314E+01 -0.28359030309E+01  0.30725774659E+02  0.31063260687E+02  0.51100000000E-03 0. -1.
        -11    1    3    3    0    0 -0.12344527287E+01  0.83455532389E+00 -0.43475744699E+01  0.45958416161E+01  0.51100000000E-03 0.  1.
         12    1    3    3    0    0 -0.24861197904E+01  0.58736247116E+01  0.13432405995E+02  0.14869760915E+02  0.00000000000E+00 0. -1.
</event>
<event>
 7    1  0.6889665E-012  0.5052885E+02  0.7816164E-02  0.1300439E+00
        -11   -1    0    0    0    0  0.00000000000E+00  0.00000000000E+00  0.45593999997E+02  0.45594000000E+02  0.51100000000E-03 0.  1.
         11   -1    0    0    0    0 -0.00000000000E+00 -0.00000000000E+00 -0.45593999997E+02  0.45594000000E+02  0.51100000000E-03 0. -1.
    9900012    2    1    2    0    0  0.35087756750E+02 -0.18164164957E+02  0.95957559838E+01  0.50528854716E+02  0.29999984394E+02 0.  0.
        -12    1    1    2    0    0 -0.35087756750E+02  0.18164164957E+02 -0.95957559838E+01  0.40659145284E+02  0.00000000000E+00 0.  1.
         11    1    3    3    0    0  0.39833520395E+00  0.35256627434E+01 -0.14276866236E+01  0.38245598533E+01  0.51100000000E-03 0.  1.
        -11    1    3    3    0    0  0.12660708159E+02 -0.18450476225E+02  0.97317585713E+01  0.24401244418E+02  0.51100000000E-03 0. -1.
        -12    1    3    3    0    0  0.22028713387E+02 -0.32393514763E+01  0.12916840361E+01  0.22303050444E+02  0.00000000000E+00 0.  1.
</event>
<event>
 7    1  0.6889665E-012  0.5052882E+02  0.7816164E-02  0.1300439E+00
        -11   -1    0    0    0    0  0.00000000000E+00  0.00000000000E+00  0.45593999997E+02  0.45594000000E+02  0.51100000000E-03 0. -1.
         11   -1    0    0    0    0 -0.00000000000E+00 -0.00000000000E+00 -0.45593999997E+02  0.45594000000E+02  0.51100000000E-03 0.  1.
    9900012    2    1    2    0    0 -0.15258006532E+02 -0.37192827055E+02  0.60873450871E+01  0.50528820005E+02  0.29999878887E+02 0.  0.
        -12    1    1    2    0    0  0.15258006532E+02  0.37192827055E+02 -0.60873450871E+01  0.40659179995E+02  0.00000000000E+00 0.  1.
         11    1    3    3    0    0 -0.54492018761E+01 -0.30339052290E+02  0.82160640162E+01  0.31900714775E+02  0.51100000000E-03 0. -1.
        -11    1    3    3    0    0  0.51701342710E+00  0.35586599001E+01 -0.16487246181E+01  0.39559646480E+01  0.51100000000E-03 0.  1.
         12    1    3    3    0    0 -0.10325818083E+02 -0.10412434664E+02 -0.47999431105E+00  0.14672140582E+02  0.00000000000E+00 0. -1.
</event>
<event>
 7    1  0.8578637E-012  0.5052886E+02  0.7816164E-02  0.1300439E+00
        -11   -1    0    0    0    0  0.00000000000E+00  0.00000000000E+00  0.45593999997E+02  0.45594000000E+02  0.51100000000E-03 0. -1.
         11   -1    0    0    0    0 -0.00000000000E+00 -0.00000000000E+00 -0.45593999997E+02  0.45594000000E+02  0.51100000000E-03 0.  1.
    9900012    2    1    2    0    0 -0.22130217903E+02 -0.10105978123E+02 -0.32577423111E+02  0.50528857918E+02  0.29999994129E+02 0.  0.
         12    1    1    2    0    0  0.22130217903E+02  0.10105978123E+02  0.32577423111E+02  0.40659142082E+02  0.00000000000E+00 0. -1.
         11    1    3    3    0    0 -0.26015494708E+01 -0.11848210358E+02 -0.80667994872E+01  0.14567820790E+02  0.51100000000E-03 0. -1.
        -11    1    3    3    0    0 -0.12890665120E+02  0.58808780370E+01 -0.51429521664E+01  0.15073285341E+02  0.51100000000E-03 0.  1.
        -12    1    3    3    0    0 -0.66380033121E+01 -0.41386458020E+01 -0.19367671457E+02  0.20887751787E+02  0.00000000000E+00 0.  1.
</event>
<event>
 7    1  0.6889665E-012  0.5052886E+02  0.7816164E-02  0.1300439E+00
        -11   -1    0    0    0    0  0.00000000000E+00  0.00000000000E+00  0.45593999997E+02  0.45594000000E+02  0.51100000000E-03 0.  1.
         11   -1    0    0    0    0 -0.00000000000E+00 -0.00000000000E+00 -0.45593999997E+02  0.45594000000E+02  0.51100000000E-03 0. -1.
    9900012    2    1    2    0    0 -0.20436398797E+02 -0.33935767509E+02 -0.91587582194E+01  0.50528861244E+02  0.30000004239E+02 0.  0.
        -12    1    1    2    0    0  0.20436398797E+02  0.33935767509E+02  0.91587582194E+01  0.40659138756E+02  0.00000000000E+00 0.  1.
         11    1    3    3    0    0 -0.29090743603E+01 -0.20908937390E+02 -0.16248996477E+02  0.26639749684E+02  0.51100000000E-03 0. -1.
        -11    1    3    3    0    0 -0.11288421573E+02 -0.11818728569E+02  0.61634948922E+01  0.17467096959E+02  0.51100000000E-03 0.  1.
         12    1    3    3    0    0 -0.62389028629E+01 -0.12081015497E+01  0.92674336559E+00  0.64220146023E+01  0.00000000000E+00 0. -1.
</event>
<event>
 7    1  0.6889665E-012  0.5052883E+02  0.7816164E-02  0.1300439E+00
        -11   -1    0    0    0    0  0.00000000000E+00  0.00000000000E+00  0.45593999997E+02  0.45594000000E+02  0.51100000000E-03 0. -1.
         11   -1    0    0    0    0 -0.00000000000E+00 -0.00000000000E+00 -0.45593999997E+02  0.45594000000E+02  0.51100000000E-03 0.  1.
    9900012    2    1    2    0    0  0.15942936739E+02  0.33296990493E+01 -0.37254579067E+02  0.50528833887E+02  0.29999921081E+02 0.  0.
         12    1    1    2    0    0 -0.15942936739E+02 -0.33296990493E+01  0.37254579067E+02  0.40659166113E+02  0.00000000000E+00 0. -1.
         11    1    3    3    0    0 -0.21552039606E+01  0.13713830356E+01 -0.30970343863E+01  0.40146254860E+01  0.51100000000E-03 0. -1.
        -11    1    3    3    0    0  0.21786291188E+02 -0.61148505668E+01 -0.23120606452E+02  0.32351141003E+02  0.51100000000E-03 0.  1.
        -12    1    3    3    0    0 -0.36881504890E+01  0.80731665806E+01 -0.11036938228E+02  0.14163067398E+02  0.00000000000E+00 0.  1.
</event>
<event>
 7    1  0.6889665E-012  0.5052886E+02  0.7816164E-02  0.1300439E+00
        -11   -1    0    0    0    0  0.00000000000E+00  0.00000000000E+00  0.45593999997E+02  0.45594000000E+02  0.51100000000E-03 0. -1.
         11   -1    0    0    0    0 -0.00000000000E+00 -0.00000000000E+00 -0.45593999997E+02  0.45594000000E+02  0.51100000000E-03 0.  1.
    9900012    2    1    2    0    0 -0.26801036506E+02 -0.82856295591E+01 -0.29431594877E+02  0.50528855985E+02  0.29999988253E+02 0.  0.
         12    1    1    2    0    0  0.26801036506E+02  0.82856295591E+01  0.29431594877E+02  0.40659144015E+02  0.00000000000E+00 0. -1.
         11    1    3    3    0    0 -0.20334223116E+02 -0.13477404017E+02 -0.28417766847E+02  0.37452510217E+02  0.51100000000E-03 0.  1.
        -11    1    3    3    0    0 -0.34691814725E+01 -0.26411719672E+01  0.95021551389E+00  0.44625014547E+01  0.51100000000E-03 0. -1.
         12    1    3    3    0    0 -0.29976319180E+01  0.78329464248E+01 -0.19640435443E+01  0.86138443132E+01  0.00000000000E+00 0. -1.
</event>
<event>
 7    1  0.6889665E-012  0.5052886E+02  0.7816164E-02  0.1300439E+00
        -11   -1    0    0    0    0  0.00000000000E+00  0.00000000000E+00  0.45593999997E+02  0.45594000000E+02  0.51100000000E-03 0. -1.
         11   -1    0    0    0    0 -0.00000000000E+00 -0.00000000000E+00 -0.45593999997E+02  0.45594000000E+02  0.51100000000E-03 0.  1.
    9900012    2    1    2    0    0 -0.65832560297E+01 -0.36434450681E+02  0.16803480652E+02  0.50528863039E+02  0.30000009694E+02 0.  0.
        -12    1    1    2    0    0  0.65832560297E+01  0.36434450681E+02 -0.16803480652E+02  0.40659136961E+02  0.00000000000E+00 0.  1.
         11    1    3    3    0    0  0.17254945813E+01 -0.25087490026E+02  0.36503119939E+01  0.25410318087E+02  0.51100000000E-03 0. -1.
        -11    1    3    3    0    0 -0.11254678764E+02 -0.41956321671E+01  0.12533042633E+02  0.17359385970E+02  0.51100000000E-03 0.  1.
        -12    1    3    3    0    0  0.29459281527E+01 -0.71513284877E+01  0.62012602492E+00  0.77591589820E+01  0.00000000000E+00 0.  1.
</event>
<event>
 7    1  0.6889665E-012  0.5052886E+02  0.7816164E-02  0.1300439E+00
        -11   -1    0    0    0    0  0.00000000000E+00  0.00000000000E+00  0.45593999997E+02  0.45594000000E+02  0.51100000000E-03 0. -1.
         11   -1    0    0    0    0 -0.00000000000E+00 -0.00000000000E+00 -0.45593999997E+02  0.45594000000E+02  0.51100000000E-03 0.  1.
    9900012    2    1    2    0    0  0.22190753636E+01 -0.21904910461E+02  0.34182107475E+02  0.50528857495E+02  0.29999992843E+02 0.  0.
        -12    1    1    2    0    0 -0.22190753636E+01  0.21904910461E+02 -0.34182107475E+02  0.40659142505E+02  0.00000000000E+00 0.  1.
         11    1    3    3    0    0  0.22649730084E+01 -0.23529219249E+02  0.35490408349E+02  0.42641802802E+02  0.51100000000E-03 0. -1.
        -11    1    3    3    0    0  0.10133179204E+01  0.23387778788E+01  0.26803434221E+01  0.36987749723E+01  0.51100000000E-03 0.  1.
         12    1    3    3    0    0 -0.10592155653E+01 -0.71446909117E+00 -0.39886442964E+01  0.41882797207E+01  0.00000000000E+00 0. -1.
</event>
<event>
 7    1  0.6889665E-012  0.5052886E+02  0.7816164E-02  0.1300439E+00
        -11   -1    0    0    0    0  0.00000000000E+00  0.00000000000E+00  0.45593999997E+02  0.45594000000E+02  0.51100000000E-03 0. -1.
         11   -1    0    0    0    0 -0.00000000000E+00 -0.00000000000E+00 -0.45593999997E+02  0.45594000000E+02  0.51100000000E-03 0.  1.
    9900012    2    1    2    0    0 -0.28749743172E+01  0.76080350435E+01  0.39837397904E+02  0.50528856548E+02  0.29999989962E+02 0.  0.
        -12    1    1    2    0    0  0.28749743172E+01 -0.76080350435E+01 -0.39837397904E+02  0.40659143452E+02  0.00000000000E+00 0.  1.
         11    1    3    3    0    0 -0.57075988830E+01 -0.69496719460E+01  0.29690760708E+02  0.31022828640E+02  0.51100000000E-03 0. -1.
        -11    1    3    3    0    0  0.18998682843E+01  0.95512428565E+01  0.10598761531E+02  0.14393383405E+02  0.51100000000E-03 0.  1.
         12    1    3    3    0    0  0.93275628152E+00  0.50064641330E+01 -0.45212433479E+00  0.51126445026E+01  0.00000000000E+00 0. -1.
</event>
<event>
 7    1  0.6889665E-012  0.5052886E+02  0.7816164E-02  0.1300439E+00
        -11   -1    0    0    0    0  0.00000000000E+00  0.00000000000E+00  0.45593999997E+02  0.45594000000E+02  0.51100000000E-03 0.  1.
         11   -1    0    0    0    0 -0.00000000000E+00 -0.00000000000E+00 -0.45593999997E+02  0.45594000000E+02  0.51100000000E-03 0. -1.
    9900012    2    1    2    0    0  0.21314829226E+02  0.30165700261E+02  0.16996303562E+02  0.50528858938E+02  0.29999997227E+02 0.  0.
        -12    1    1    2    0    0 -0.21314829226E+02 -0.30165700261E+02 -0.16996303562E+02  0.40659141062E+02  0.00000000000E+00 0.  1.
         11    1    3    3    0    0  0.24406686309E+02  0.23547566232E+02  0.50324662074E+01  0.34285564432E+02  0.51100000000E-03 0. -1.
        -11    1    3    3    0    0 -0.28696450457E+01  0.42496486399E+00  0.88390244496E+01  0.93028926311E+01  0.51100000000E-03 0.  1.
         12    1    3    3    0    0 -0.22221203664E+00  0.61931691651E+01  0.31248129048E+01  0.69404018750E+01  0.00000000000E+00 0. -1.
</event>
<event>
 7    1  0.6889665E-012  0.5052888E+02  0.7816164E-02  0.1300439E+00
        -11   -1    0    0    0    0  0.00000000000E+00  0.00000000000E+00  0.45593999997E+02  0.45594000000E+02  0.51100000000E-03 0. -1.
         11   -1    0    0    0    0 -0.00000000000E+00 -0.00000000000E+00 -0.45593999997E+02  0.45594000000E+02  0.51100000000E-03 0.  1.
    9900012    2    1    2    0    0 -0.79194140811E+01  0.18524332777E+02  0.35317072594E+02  0.50528884899E+02  0.30000076139E+02 0.  0.
        -12    1    1    2    0    0  0.79194140811E+01 -0.18524332777E+02 -0.35317072594E+02  0.40659115101E+02  0.00000000000E+00 0.  1.
         11    1    3    3    0    0 -0.95415906827E+01  0.51715314930E+01  0.87254984327E+00  0.10887976590E+02  0.51100000000E-03 0. -1.
        -11    1    3    3    0    0  0.33893202727E+01 -0.17303388604E+01  0.11608404056E+02  0.12216243673E+02  0.51100000000E-03 0.  1.
         12    1    3    3    0    0 -0.17671436710E+01  0.15083140144E+02  0.22836118695E+02  0.27424664636E+02  0.00000000000E+00 0. -1.
</event>
<event>
 7    1  0.6889665E-012  0.5052885E+02  0.7816164E-02  0.1300439E+00
        -11   -1    0    0    0    0  0.00000000000E+00  0.00000000000E+00  0.45593999997E+02  0.45594000000E+02  0.51100000000E-03 0. -1.
         11   -1    0    0    0    0 -0.00000000000E+00 -0.00000000000E+00 -0.45593999997E+02  0.45594000000E+02  0.51100000000E-03 0.  1.
    9900012    2    1    2    0    0 -0.63837803875E+01  0.73312349346E+01  0.39479959098E+02  0.50528845704E+02  0.29999957003E+02 0.  0.
        -12    1    1    2    0    0  0.63837803875E+01 -0.73312349346E+01 -0.39479959098E+02  0.40659154296E+02  0.00000000000E+00 0.  1.
         11    1    3    3    0    0 -0.10799745197E+02 -0.60927624400E+01  0.61365960963E+01  0.13835247102E+02  0.51100000000E-03 0. -1.
        -11    1    3    3    0    0  0.10032842660E+01  0.60927057585E+01  0.80909662805E+01  0.10177984987E+02  0.51100000000E-03 0.  1.
         12    1    3    3    0    0  0.34126805434E+01  0.73312916161E+01  0.25252396721E+02  0.26515613615E+02  0.00000000000E+00 0. -1.
</event>
<event>
 7    1  0.6889665E-012  0.5052886E+02  0.7816164E-02  0.1300439E+00
        -11   -1    0    0    0    0  0.00000000000E+00  0.00000000000E+00  0.45593999997E+02  0.45594000000E+02  0.51100000000E-03 0. -1.
         11   -1    0    0    0    0 -0.00000000000E+00 -0.00000000000E+00 -0.45593999997E+02  0.45594000000E+02  0.51100000000E-03 0.  1.
    9900012    2    1    2    0    0 -0.19173490989E+02 -0.17954829038E+02 -0.31034932029E+02  0.50528860209E+02  0.30000001092E+02 0.  0.
         12    1    1    2    0    0  0.19173490989E+02  0.17954829038E+02  0.31034932029E+02  0.40659139791E+02  0.00000000000E+00 0. -1.
         11    1    3    3    0    0 -0.52222854913E+00 -0.11837178273E+02 -0.11997322924E+00  0.11849299809E+02  0.51100000000E-03 0. -1.
        -11    1    3    3    0    0 -0.14101454939E+02 -0.58560726521E+01 -0.30493542708E+02  0.34102797033E+02  0.51100000000E-03 0.  1.
         12    1    3    3    0    0 -0.45498075006E+01 -0.26157811343E+00 -0.42141609154E+00  0.45767633677E+01  0.00000000000E+00 0. -1.
</event>
<event>
 7    1  0.6889665E-012  0.5052886E+02  0.7816164E-02  0.1300439E+00
        -11   -1    0    0    0    0  0.00000000000E+00  0.00000000000E+00  0.45593999997E+02  0.45594000000E+02  0.51100000000E-03 0. -1.
         11   -1    0    0    0    0 -0.00000000000E+00 -0.00000000000E+00 -0.45593999997E+02  0.45594000000E+02  0.51100000000E-03 0.  1.
    9900012    2    1    2    0    0  0.14340025797E+02  0.11744141411E+02 -0.36188457795E+02  0.50528859885E+02  0.30000000106E+02 0.  0.
         12    1    1    2    0    0 -0.14340025797E+02 -0.11744141411E+02  0.36188457795E+02  0.40659140115E+02  0.00000000000E+00 0. -1.
         11    1    3    3    0    0 -0.38507517613E+01 -0.45696667237E+01 -0.91924560402E+01  0.10964095558E+02  0.51100000000E-03 0. -1.
        -11    1    3    3    0    0  0.91600412528E+01  0.16467070269E+02 -0.22875750289E+02  0.29637319558E+02  0.51100000000E-03 0.  1.
        -12    1    3    3    0    0  0.90307363059E+01 -0.15326213455E+00 -0.41202514653E+01  0.99274447692E+01  0.00000000000E+00 0.  1.
</event>
<event>
 7    1  0.6889665E-012  0.5052886E+02  0.7816164E-02  0.1300439E+00
        -11   -1    0    0    0    0  0.00000000000E+00  0.00000000000E+00  0.45593999997E+02  0.45594000000E+02  0.51100000000E-03 0. -1.
         11   -1    0    0    0    0 -0.00000000000E+00 -0.00000000000E+00 -0.45593999997E+02  0.45594000000E+02  0.51100000000E-03 0.  1.
    9900012    2    1    2    0    0  0.10278143686E+02  0.13092324626E+02 -0.37096047137E+02  0.50528856933E+02  0.29999991134E+02 0.  0.
         12    1    1    2    0    0 -0.10278143686E+02 -0.13092324626E+02  0.37096047137E+02  0.40659143067E+02  0.00000000000E+00 0. -1.
         11    1    3    3    0    0 -0.52138615310E+01  0.12977217911E+01  0.85329305275E+00  0.54402705085E+01  0.51100000000E-03 0. -1.
        -11    1    3    3    0    0  0.13730027415E+02  0.18789398549E+01 -0.17761071449E+02  0.22527754595E+02  0.51100000000E-03 0.  1.
         12    1    3    3    0    0  0.17619778011E+01  0.99156629804E+01 -0.20188268740E+02  0.22560831830E+02  0.00000000000E+00 0. -1.
</event>
<event>
 7    1  0.6889665E-012  0.5052886E+02  0.7816164E-02  0.1300439E+00
        -11   -1    0    0    0    0  0.00000000000E+00  0.00000000000E+00  0.45593999997E+02  0.45594000000E+02  0.51100000000E-03 0. -1.
         11   -1    0    0    0    0 -0.00000000000E+00 -0.00000000000E+00 -0.45593999997E+02  0.45594000000E+02  0.51100000000E-03 0.  1.
    9900012    2    1    2    0    0  0.85402789543E+01 -0.21617227724E+02 -0.33360531388E+02  0.50528856458E+02  0.29999989690E+02 0.  0.
         12    1    1    2    0    0 -0.85402789543E+01  0.21617227724E+02  0.33360531388E+02  0.40659143542E+02  0.00000000000E+00 0. -1.
         11    1    3    3    0    0  0.94177563762E+01 -0.13402575543E+02 -0.11002524449E+01  0.16417482208E+02  0.51100000000E-03 0. -1.
        -11    1    3    3    0    0  0.14365822661E+01 -0.86005665679E-01 -0.12986338427E+02  0.13065839107E+02  0.51100000000E-03 0.  1.
         12    1    3    3    0    0 -0.23140596879E+01 -0.81286465150E+01 -0.19273940516E+02  0.21045535142E+02  0.00000000000E+00 0. -1.
</event>
<event>
 7    1  0.6889665E-012  0.5052885E+02  0.7816164E-02  0.1300439E+00
        -11   -1    0    0    0    0  0.00000000000E+00  0.00000000000E+00  0.45593999997E+02  0.45594000000E+02  0.51100000000E-03 0. -1.
         11   -1    0    0    0    0 -0.00000000000E+00 -0.00000000000E+00 -0.45593999997E+02  0.45594000000E+02  0.51100000000E-03 0.  1.
    9900012    2    1    2    0    0 -0.66153325292E+01  0.26800615268E+02 -0.29851814340E+02  0.50528850690E+02  0.29999972157E+02 0.  0.
         12    1    1    2    0    0  0.66153325292E+01 -0.26800615268E+02  0.29851814340E+02  0.40659149310E+02  0.00000000000E+00 0. -1.
         11    1    3    3    0    0  0.93783621490E+01  0.36729595707E+01 -0.59025036210E+01  0.11674067751E+02  0.51100000000E-03 0. -1.
        -11    1    3    3    0    0 -0.14512038547E+02  0.11307767861E+02 -0.11897539066E+02  0.21909274586E+02  0.51100000000E-03 0.  1.
         12    1    3    3    0    0 -0.14816561309E+01  0.11819887837E+02 -0.12051771653E+02  0.16945508353E+02  0.00000000000E+00 0. -1.
</event>
<event>
 7    1  0.6889665E-012  0.5052885E+02  0.7816164E-02  0.1300439E+00
        -11   -1    0    0    0    0  0.00000000000E+00  0.00000000000E+00  0.45593999997E+02  0.45594000000E+02  0.51100000000E-03 0. -1.
         11   -1    0    0    0    0 -0.00000000000E+00 -0.00000000000E+00 -0.45593999997E+02  0.45594000000E+02  0.51100000000E-03 0.  1.
    9900012    2    1    2    0    0 -0.80416687564E+01 -0.28540420161E+02  0.27819824257E+02  0.50528848004E+02  0.29999963992E+02 0.  0.
        -12    1    1    2    0    0  0.80416687564E+01  0.28540420161E+02 -0.27819824257E+02  0.40659151996E+02  0.00000000000E+00 0.  1.
         11    1    3    3    0    0  0.58086204574E+00 -0.30773651049E+01  0.81714234897E+01  0.87509850197E+01  0.51100000000E-03 0. -1.
        -11    1    3    3    0    0 -0.90856207726E+01 -0.25260012263E+02  0.52280633241E+01  0.27348663052E+02  0.51100000000E-03 0.  1.
        -12    1    3    3    0    0  0.46308997038E+00 -0.20304279331E+00  0.14420337443E+02  0.14429199932E+02  0.00000000000E+00 0.  1.
</event>
<event>
 7    1  0.6889665E-012  0.5052885E+02  0.7816164E-02  0.1300439E+00
        -11   -1    0    0    0    0  0.00000000000E+00  0.00000000000E+00  0.45593999997E+02  0.45594000000E+02  0.51100000000E-03 0.  1.
         11   -1    0    0    0    0 -0.00000000000E+00 -0.00000000000E+00 -0.45593999997E+02  0.45594000000E+02  0.51100000000E-03 0. -1.
    9900012    2    1    2    0    0 -0.14803347825E+02  0.34154442705E+02  0.16355478636E+02  0.50528846729E+02  0.29999960118E+02 0.  0.
        -12    1    1    2    0    0  0.14803347825E+02 -0.34154442705E+02 -0.16355478636E+02  0.40659153271E+02  0.00000000000E+00 0.  1.
         11    1    3    3    0    0 -0.79492919820E+01  0.27471645629E+02  0.11914992650E+02  0.30981439713E+02  0.51100000000E-03 0. -1.
        -11    1    3    3    0    0 -0.11313857052E+01  0.23185196129E+00 -0.59406062119E+01  0.60518254578E+01  0.51100000000E-03 0.  1.
        -12    1    3    3    0    0 -0.57226701374E+01  0.64509451145E+01  0.10381092198E+02  0.13495581558E+02  0.00000000000E+00 0.  1.
</event>
<event>
 7    1  0.6889665E-012  0.5052887E+02  0.7816164E-02  0.1300439E+00
        -11   -1    0    0    0    0  0.00000000000E+00  0.00000000000E+00  0.45593999997E+02  0.45594000000E+02  0.51100000000E-03 0. -1.
         11   -1    0    0    0    0 -0.00000000000E+00 -0.00000000000E+00 -0.45593999997E+02  0.45594000000E+02  0.51100000000E-03 0.  1.
    9900012    2    1    2    0    0 -0.27366897014E+02 -0.49115382585E+01 -0.29666394321E+02  0.50528865575E+02  0.30000017400E+02 0.  0.
         12    1    1    2    0    0  0.27366897014E+02  0.49115382585E+01  0.29666394321E+02  0.40659134425E+02  0.00000000000E+00 0. -1.
         11    1    3    3    0    0  0.29692782116E+01 -0.18468426510E+01 -0.39835087940E+00  0.35193926408E+01  0.51100000000E-03 0. -1.
        -11    1    3    3    0    0 -0.18495065690E+02  0.41340523408E+01 -0.59126807640E+01  0.19852396272E+02  0.51100000000E-03 0.  1.
        -12    1    3    3    0    0 -0.11841109535E+02 -0.71987479483E+01 -0.23355362677E+02  0.27157076662E+02  0.00000000000E+00 0.  1.
</event>
<event>
 7    1  0.6889665E-012  0.5052886E+02  0.7816164E-02  0.1300439E+00
        -11   -1    0    0    0    0  0.00000000000E+00  0.00000000000E+00  0.45593999997E+02  0.45594000000E+02  0.51100000000E-03 0. -1.
         11   -1    0    0    0    0 -0.00000000000E+00 -0.00000000000E+00 -0.45593999997E+02  0.45594000000E+02  0.51100000000E-03 0.  1.
    9900012    2    1    2    0    0 -0.48820797730E+01  0.11817263665E+02  0.38596415169E+02  0.50528859732E+02  0.29999999642E+02 0.  0.
        -12    1    1    2    0    0  0.48820797730E+01 -0.11817263665E+02 -0.38596415169E+02  0.40659140268E+02  0.00000000000E+00 0.  1.
         11    1    3    3    0    0  0.26474315059E+01 -0.56554677626E+01  0.23679155866E+02  0.24488683754E+02  0.51100000000E-03 0. -1.
        -11    1    3    3    0    0  0.11454263134E+01 -0.31666905721E+00 -0.10486577776E+00  0.11930120803E+01  0.51100000000E-03 0.  1.
         12    1    3    3    0    0 -0.86749375923E+01  0.17789400485E+02  0.15022125080E+02  0.24847163898E+02  0.00000000000E+00 0. -1.
</event>
<event>
 7    1  0.6889665E-012  0.5052887E+02  0.7816164E-02  0.1300439E+00
        -11   -1    0    0    0    0  0.00000000000E+00  0.00000000000E+00  0.45593999997E+02  0.45594000000E+02  0.51100000000E-03 0. -1.
         11   -1    0    0    0    0 -0.00000000000E+00 -0.00000000000E+00 -0.45593999997E+02  0.45594000000E+02  0.51100000000E-03 0.  1.
    9900012    2    1    2    0    0 -0.16179757085E+02 -0.13021213054E+02 -0.34954665062E+02  0.50528866483E+02  0.30000020163E+02 0.  0.
         12    1    1    2    0    0  0.16179757085E+02  0.13021213054E+02  0.34954665062E+02  0.40659133517E+02  0.00000000000E+00 0. -1.
         11    1    3    3    0    0  0.13293383295E+01  0.21736562801E+01 -0.10130534247E+02  0.10446034961E+02  0.51100000000E-03 0. -1.
        -11    1    3    3    0    0 -0.21712535174E+02 -0.16247580982E+02 -0.20916727273E+02  0.34248029892E+02  0.51100000000E-03 0.  1.
        -12    1    3    3    0    0  0.42034397589E+01  0.10527116478E+01 -0.39074035415E+01  0.58348016295E+01  0.00000000000E+00 0.  1.
</event>
<event>
 7    1  0.1094795E-011  0.5052887E+02  0.7816164E-02  0.1300439E+00
        -11   -1    0    0    0    0  0.00000000000E+00  0.00000000000E+00  0.45593999997E+02  0.45594000000E+02  0.51100000000E-03 0. -1.
         11   -1    0    0    0    0 -0.00000000000E+00 -0.00000000000E+00 -0.45593999997E+02  0.45594000000E+02  0.51100000000E-03 0.  1.
    9900012    2    1    2    0    0  0.62724190587E+01 -0.58270106785E+01  0.39747543147E+02  0.50528874573E+02  0.30000044752E+02 0.  0.
        -12    1    1    2    0    0 -0.62724190587E+01  0.58270106785E+01 -0.39747543147E+02  0.40659125427E+02  0.00000000000E+00 0.  1.
         11    1    3    3    0    0 -0.46844967110E+01 -0.58324031450E+01  0.26980817868E+02  0.27998677986E+02  0.51100000000E-03 0. -1.
        -11    1    3    3    0    0  0.11127857768E+02 -0.50585518248E+01  0.48920381296E+01  0.13166252405E+02  0.51100000000E-03 0.  1.
         12    1    3    3    0    0 -0.17094199824E+00  0.50639442913E+01  0.78746871494E+01  0.93639441825E+01  0.00000000000E+00 0. -1.
</event>
<event>
 7    1  0.6889665E-012  0.5052886E+02  0.7816164E-02  0.1300439E+00
        -11   -1    0    0    0    0  0.00000000000E+00  0.00000000000E+00  0.45593999997E+02  0.45594000000E+02  0.51100000000E-03 0. -1.
         11   -1    0    0    0    0 -0.00000000000E+00 -0.00000000000E+00 -0.45593999997E+02  0.45594000000E+02  0.51100000000E-03 0.  1.
    9900012    2    1    2    0    0  0.18297728778E+02 -0.96244921711E+01  0.35010395147E+02  0.50528862081E+02  0.30000006782E+02 0.  0.
        -12    1    1    2    0    0 -0.18297728778E+02  0.96244921711E+01 -0.35010395147E+02  0.40659137919E+02  0.00000000000E+00 0.  1.
         11    1    3    3    0    0 -0.24184875190E+01 -0.13326994656E+02  0.18526017831E+02  0.22949318189E+02  0.51100000000E-03 0. -1.
        -11    1    3    3    0    0  0.37476969427E+01  0.12073967261E+01  0.22083927328E+00  0.39435782577E+01  0.51100000000E-03 0.  1.
         12    1    3    3    0    0  0.16968519354E+02  0.24951057583E+01  0.16263538043E+02  0.23635965634E+02  0.00000000000E+00 0. -1.
</event>
<event>
 7    1  0.6889665E-012  0.5052887E+02  0.7816164E-02  0.1300439E+00
        -11   -1    0    0    0    0  0.00000000000E+00  0.00000000000E+00  0.45593999997E+02  0.45594000000E+02  0.51100000000E-03 0. -1.
         11   -1    0    0    0    0 -0.00000000000E+00 -0.00000000000E+00 -0.45593999997E+02  0.45594000000E+02  0.51100000000E-03 0.  1.
    9900012    2    1    2    0    0 -0.10219014806E+02  0.33835073708E+01 -0.39208265987E+02  0.50528874242E+02  0.30000043745E+02 0.  0.
         12    1    1    2    0    0  0.10219014806E+02 -0.33835073708E+01  0.39208265987E+02  0.40659125758E+02  0.00000000000E+00 0. -1.
         11    1    3    3    0    0 -0.41990608264E+01  0.12758518742E+02 -0.25581682691E+02  0.28893501032E+02  0.51100000000E-03 0.  1.
        -11    1    3    3    0    0 -0.37621879331E+01 -0.98644500710E+01 -0.15435864319E+02  0.18700998390E+02  0.51100000000E-03 0. -1.
         12    1    3    3    0    0 -0.22577660465E+01  0.48943869944E+00  0.18092810233E+01  0.29343748197E+01  0.00000000000E+00 0. -1.
</event>
<event>
 7    1  0.6889665E-012  0.5052886E+02  0.7816164E-02  0.1300439E+00
        -11   -1    0    0    0    0  0.00000000000E+00  0.00000000000E+00  0.45593999997E+02  0.45594000000E+02  0.51100000000E-03 0. -1.
         11   -1    0    0    0    0 -0.00000000000E+00 -0.00000000000E+00 -0.45593999997E+02  0.45594000000E+02  0.51100000000E-03 0.  1.
    9900012    2    1    2    0    0 -0.32156419052E+02 -0.19576969055E+02 -0.15358149402E+02  0.50528858879E+02  0.29999997048E+02 0.  0.
         12    1    1    2    0    0  0.32156419052E+02  0.19576969055E+02  0.15358149402E+02  0.40659141121E+02  0.00000000000E+00 0. -1.
         11    1    3    3    0    0 -0.17219925405E+02 -0.53351980848E+01 -0.21053107987E+02  0.27716845523E+02  0.51100000000E-03 0. -1.
        -11    1    3    3    0    0 -0.96144571041E+01 -0.76413273516E+01 -0.53131326080E+00  0.12292679250E+02  0.51100000000E-03 0.  1.
         12    1    3    3    0    0 -0.53220365430E+01 -0.66004436188E+01  0.62262718461E+01  0.10519334106E+02  0.00000000000E+00 0. -1.
</event>
<event>
 7    1  0.6889665E-012  0.5052885E+02  0.7816164E-02  0.1300439E+00
        -11   -1    0    0    0    0  0.00000000000E+00  0.00000000000E+00  0.45593999997E+02  0.45594000000E+02  0.51100000000E-03 0. -1.
         11   -1    0    0    0    0 -0.00000000000E+00 -0.00000000000E+00 -0.45593999997E+02  0.45594000000E+02  0.51100000000E-03 0.  1.
    9900012    2    1    2    0    0 -0.36284084900E-01  0.10375382125E+02  0.39313054698E+02  0.50528854159E+02  0.29999982703E+02 0.  0.
        -12    1    1    2    0    0  0.36284084900E-01 -0.10375382125E+02 -0.39313054698E+02  0.40659145841E+02  0.00000000000E+00 0.  1.
         11    1    3    3    0    0 -0.20093126725E+01  0.99640698572E+01  0.57263412840E+01  0.11666662346E+02  0.51100000000E-03 0. -1.
        -11    1    3    3    0    0  0.85300074002E+01 -0.58563752900E+01  0.20134915600E+02  0.22637866160E+02  0.51100000000E-03 0.  1.
        -12    1    3    3    0    0 -0.65569788126E+01  0.62676875578E+01  0.13451797814E+02  0.16224325653E+02  0.00000000000E+00 0.  1.
</event>
<event>
 7    1  0.6889665E-012  0.5052886E+02  0.7816164E-02  0.1300439E+00
        -11   -1    0    0    0    0  0.00000000000E+00  0.00000000000E+00  0.45593999997E+02  0.45594000000E+02  0.51100000000E-03 0. -1.
         11   -1    0    0    0    0 -0.00000000000E+00 -0.00000000000E+00 -0.45593999997E+02  0.45594000000E+02  0.51100000000E-03 0.  1.
    9900012    2    1    2    0    0  0.22985939411E+02 -0.19744723178E+02 -0.27110112739E+02  0.50528859370E+02  0.29999998542E+02 0.  0.
         12    1    1    2    0    0 -0.22985939411E+02  0.19744723178E+02  0.27110112739E+02  0.40659140630E+02  0.00000000000E+00 0. -1.
         11    1    3    3    0    0 -0.30581559332E+01 -0.11282616796E+01  0.32326442772E+01  0.45907822224E+01  0.51100000000E-03 0. -1.
        -11    1    3    3    0    0  0.85377542570E+01 -0.12451643578E+01 -0.13682426355E+02  0.16175675357E+02  0.51100000000E-03 0.  1.
         12    1    3    3    0    0  0.17506341088E+02 -0.17371297141E+02 -0.16660330662E+02  0.29762401791E+02  0.00000000000E+00 0. -1.
</event>
<event>
 7    1  0.6889665E-012  0.5052887E+02  0.7816164E-02  0.1300439E+00
        -11   -1    0    0    0    0  0.00000000000E+00  0.00000000000E+00  0.45593999997E+02  0.45594000000E+02  0.51100000000E-03 0. -1.
         11   -1    0    0    0    0 -0.00000000000E+00 -0.00000000000E+00 -0.45593999997E+02  0.45594000000E+02  0.51100000000E-03 0.  1.
    9900012    2    1    2    0    0 -0.23408426149E+02  0.30694952906E+02  0.12768338554E+02  0.50528867961E+02  0.30000024656E+02 0.  0.
        -12    1    1    2    0    0  0.23408426149E+02 -0.30694952906E+02 -0.12768338554E+02  0.40659132039E+02  0.00000000000E+00 0.  1.
         11    1    3    3    0    0 -0.56379381868E+01  0.36374167390E+01 -0.82562297665E+01  0.10638725382E+02  0.51100000000E-03 0. -1.
        -11    1    3    3    0    0 -0.37286748350E+01  0.14075406579E+02  0.68824599504E+01  0.16105537607E+02  0.51100000000E-03 0.  1.
         12    1    3    3    0    0 -0.14041813127E+02  0.12982129589E+02  0.14142108370E+02  0.23784604973E+02  0.00000000000E+00 0. -1.
</event>
<event>
 7    1  0.6889665E-012  0.5052887E+02  0.7816164E-02  0.1300439E+00
        -11   -1    0    0    0    0  0.00000000000E+00  0.00000000000E+00  0.45593999997E+02  0.45594000000E+02  0.51100000000E-03 0. -1.
         11   -1    0    0    0    0 -0.00000000000E+00 -0.00000000000E+00 -0.45593999997E+02  0.45594000000E+02  0.51100000000E-03 0.  1.
    9900012    2    1    2    0    0 -0.38834894703E+02  0.11635524097E+02 -0.31032851390E+01  0.50528870075E+02  0.30000031080E+02 0.  0.
         12    1    1    2    0    0  0.38834894703E+02 -0.11635524097E+02  0.31032851390E+01  0.40659129925E+02  0.00000000000E+00 0. -1.
         11    1    3    3    0    0 -0.36608355646E+02  0.47085696847E+01  0.18896367924E+01  0.36958261039E+02  0.51100000000E-03 0.  1.
        -11    1    3    3    0    0  0.10758350085E+01  0.34572942182E+01 -0.73787869145E+01  0.82192944264E+01  0.51100000000E-03 0. -1.
        -12    1    3    3    0    0 -0.33023740650E+01  0.34696601945E+01  0.23858649831E+01  0.53513146093E+01  0.00000000000E+00 0.  1.
</event>
<event>
 7    1  0.6889665E-012  0.5052885E+02  0.7816164E-02  0.1300439E+00
        -11   -1    0    0    0    0  0.00000000000E+00  0.00000000000E+00  0.45593999997E+02  0.45594000000E+02  0.51100000000E-03 0. -1.
         11   -1    0    0    0    0 -0.00000000000E+00 -0.00000000000E+00 -0.45593999997E+02  0.45594000000E+02  0.51100000000E-03 0.  1.
    9900012    2    1    2    0    0  0.60236505002E+01  0.75137182491E+01  0.39502226433E+02  0.50528853176E+02  0.29999979714E+02 0.  0.
        -12    1    1    2    0    0 -0.60236505002E+01 -0.75137182491E+01 -0.39502226433E+02  0.40659146824E+02  0.00000000000E+00 0.  1.
         11    1    3    3    0    0  0.32747992851E+01 -0.10012112371E+02  0.76160228582E+01  0.12998865678E+02  0.51100000000E-03 0. -1.
        -11    1    3    3    0    0 -0.16784065797E+01  0.14087787690E+02  0.22756344398E+02  0.26816674314E+02  0.51100000000E-03 0.  1.
         12    1    3    3    0    0  0.44272577949E+01  0.34380429297E+01  0.91298591769E+01  0.10713313183E+02  0.00000000000E+00 0. -1.
</event>
<event>
 7    1  0.6889665E-012  0.5052898E+02  0.7816164E-02  0.1300438E+00
        -11   -1    0    0    0    0  0.00000000000E+00  0.00000000000E+00  0.45593999997E+02  0.45594000000E+02  0.51100000000E-03 0. -1.
         11   -1    0    0    0    0 -0.00000000000E+00 -0.00000000000E+00 -0.45593999997E+02  0.45594000000E+02  0.51100000000E-03 0.  1.
    9900012    2    1    2    0    0 -0.94969216356E+01 -0.18485302393E+02 -0.34946507333E+02  0.50528975173E+02  0.30000350533E+02 0.  0.
         12    1    1    2    0    0  0.94969216356E+01  0.18485302393E+02  0.34946507333E+02  0.40659024827E+02  0.00000000000E+00 0. -1.
         11    1    3    3    0    0  0.30936881020E+01 -0.16429358860E+01 -0.27238929764E+00  0.35134513784E+01  0.51100000000E-03 0. -1.
        -11    1    3    3    0    0 -0.11253128527E+02 -0.22342575112E+02 -0.32355232158E+02  0.40898467117E+02  0.51100000000E-03 0.  1.
        -12    1    3    3    0    0 -0.13374812107E+01  0.55002086043E+01 -0.23188858774E+01  0.61170566772E+01  0.00000000000E+00 0.  1.
</event>
<event>
 7    1  0.6889665E-012  0.5052882E+02  0.7816164E-02  0.1300439E+00
        -11   -1    0    0    0    0  0.00000000000E+00  0.00000000000E+00  0.45593999997E+02  0.45594000000E+02  0.51100000000E-03 0. -1.
         11   -1    0    0    0    0 -0.00000000000E+00 -0.00000000000E+00 -0.45593999997E+02  0.45594000000E+02  0.51100000000E-03 0.  1.
    9900012    2    1    2    0    0 -0.28186811376E+02 -0.55837432925E+01  0.28766206536E+02  0.50528816988E+02  0.29999869717E+02 0.  0.
        -12    1    1    2    0    0  0.28186811376E+02  0.55837432925E+01 -0.28766206536E+02  0.40659183012E+02  0.00000000000E+00 0.  1.
         11    1    3    3    0    0 -0.15310482944E+01 -0.10285728460E+02  0.15180506100E+02  0.18400763151E+02  0.51100000000E-03 0. -1.
        -11    1    3    3    0    0 -0.23452452368E+02  0.66175929773E+01  0.14404039254E+02  0.28307002772E+02  0.51100000000E-03 0.  1.
         12    1    3    3    0    0 -0.32033107144E+01 -0.19156078102E+01 -0.81833881846E+00  0.38210510645E+01  0.00000000000E+00 0. -1.
</event>
<event>
 7    1  0.6889665E-012  0.5052886E+02  0.7816164E-02  0.1300439E+00
        -11   -1    0    0    0    0  0.00000000000E+00  0.00000000000E+00  0.45593999997E+02  0.45594000000E+02  0.51100000000E-03 0. -1.
         11   -1    0    0    0    0 -0.00000000000E+00 -0.00000000000E+00 -0.45593999997E+02  0.45594000000E+02  0.51100000000E-03 0.  1.
    9900012    2    1    2    0    0  0.27383935184E+02  0.54469351225E+01 -0.29557010876E+02  0.50528857113E+02  0.29999991679E+02 0.  0.
         12    1    1    2    0    0 -0.27383935184E+02 -0.54469351225E+01  0.29557010876E+02  0.40659142887E+02  0.00000000000E+00 0. -1.
         11    1    3    3    0    0  0.21883583962E+02  0.16519764750E+02 -0.20724733897E+02  0.34370168312E+02  0.51100000000E-03 0. -1.
        -11    1    3    3    0    0 -0.78588079858E+00 -0.39447238238E+01 -0.28275262280E+01  0.49166410797E+01  0.51100000000E-03 0.  1.
         12    1    3    3    0    0  0.62862320212E+01 -0.71281058040E+01 -0.60047507508E+01  0.11242047721E+02  0.00000000000E+00 0. -1.
</event>
<event>
 7    1  0.6889665E-012  0.5052885E+02  0.7816164E-02  0.1300439E+00
        -11   -1    0    0    0    0  0.00000000000E+00  0.00000000000E+00  0.45593999997E+02  0.45594000000E+02  0.51100000000E-03 0. -1.
         11   -1    0    0    0    0 -0.00000000000E+00 -0.00000000000E+00 -0.45593999997E+02  0.45594000000E+02  0.51100000000E-03 0.  1.
    9900012    2    1    2    0    0  0.14552970127E+02  0.15835464755E+02 -0.34505300010E+02  0.50528848358E+02  0.29999965068E+02 0.  0.
         12    1    1    2    0    0 -0.14552970127E+02 -0.15835464755E+02  0.34505300010E+02  0.40659151642E+02  0.00000000000E+00 0. -1.
         11    1    3    3    0    0  0.12098295141E+02  0.65648417572E+01 -0.41067773581E+01  0.14364244260E+02  0.51100000000E-03 0.  1.
        -11    1    3    3    0    0 -0.43089031698E+01  0.10033673038E+02 -0.25614631844E+02  0.27845118171E+02  0.51100000000E-03 0. -1.
         12    1    3    3    0    0  0.67635781559E+01 -0.76305004073E+00 -0.47838908073E+01  0.83194859271E+01  0.00000000000E+00 0. -1.
</event>
<event>
 7    1  0.6889665E-012  0.5052886E+02  0.7816164E-02  0.1300439E+00
        -11   -1    0    0    0    0  0.00000000000E+00  0.00000000000E+00  0.45593999997E+02  0.45594000000E+02  0.51100000000E-03 0. -1.
         11   -1    0    0    0    0 -0.00000000000E+00 -0.00000000000E+00 -0.45593999997E+02  0.45594000000E+02  0.51100000000E-03 0.  1.
    9900012    2    1    2    0    0 -0.11179190594E+02 -0.56296507803E+01  0.38684600085E+02  0.50528861372E+02  0.30000004626E+02 0.  0.
        -12    1    1    2    0    0  0.11179190594E+02  0.56296507803E+01 -0.38684600085E+02  0.40659138628E+02  0.00000000000E+00 0.  1.
         11    1    3    3    0    0 -0.16918509799E+01 -0.57655889940E+00  0.85060884463E+01  0.86918537045E+01  0.51100000000E-03 0. -1.
        -11    1    3    3    0    0 -0.50546872987E+01 -0.76313369226E+01 -0.19021588222E+01  0.93490841990E+01  0.51100000000E-03 0.  1.
        -12    1    3    3    0    0 -0.44326523151E+01  0.25782450418E+01  0.32080670461E+02  0.32487923468E+02  0.00000000000E+00 0.  1.
</event>
<event>
 7    1  0.6889665E-012  0.5052886E+02  0.7816164E-02  0.1300439E+00
        -11   -1    0    0    0    0  0.00000000000E+00  0.00000000000E+00  0.45593999997E+02  0.45594000000E+02  0.51100000000E-03 0.  1.
         11   -1    0    0    0    0 -0.00000000000E+00 -0.00000000000E+00 -0.45593999997E+02  0.45594000000E+02  0.51100000000E-03 0. -1.
    9900012    2    1    2    0    0  0.34641466427E+02  0.85007904201E+01 -0.19515916511E+02  0.50528860422E+02  0.30000001737E+02 0.  0.
         12    1    1    2    0    0 -0.34641466427E+02 -0.85007904201E+01  0.19515916511E+02  0.40659139578E+02  0.00000000000E+00 0. -1.
         11    1    3    3    0    0  0.17182263418E+02 -0.79258374566E+01 -0.10742934611E+02  0.21759129575E+02  0.51100000000E-03 0. -1.
        -11    1    3    3    0    0  0.16027999017E+02  0.12960574493E+02 -0.15984810842E+01  0.20674341240E+02  0.51100000000E-03 0.  1.
         12    1    3    3    0    0  0.14312039929E+01  0.34660533836E+01 -0.71745008158E+01  0.80953896066E+01  0.00000000000E+00 0. -1.
</event>
<event>
 7    1  0.6889665E-012  0.5052886E+02  0.7816164E-02  0.1300439E+00
        -11   -1    0    0    0    0  0.00000000000E+00  0.00000000000E+00  0.45593999997E+02  0.45594000000E+02  0.51100000000E-03 0. -1.
         11   -1    0    0    0    0 -0.00000000000E+00 -0.00000000000E+00 -0.45593999997E+02  0.45594000000E+02  0.51100000000E-03 0.  1.
    9900012    2    1    2    0    0  0.54403262701E+01 -0.39612811414E+01  0.40098340233E+02  0.50528858498E+02  0.29999995892E+02 0.  0.
        -12    1    1    2    0    0 -0.54403262701E+01  0.39612811414E+01 -0.40098340233E+02  0.40659141502E+02  0.00000000000E+00 0.  1.
         11    1    3    3    0    0  0.27216190243E+01 -0.28844383516E+01  0.53918636189E+01  0.66932345143E+01  0.51100000000E-03 0. -1.
        -11    1    3    3    0    0 -0.93222980734E+01 -0.56098391250E+01  0.61103674798E+01  0.12478466548E+02  0.51100000000E-03 0.  1.
        -12    1    3    3    0    0  0.12041005319E+02  0.45329963353E+01  0.28596109134E+02  0.31357157436E+02  0.00000000000E+00 0.  1.
</event>
<event>
 7    1  0.6889665E-012  0.5052886E+02  0.7816164E-02  0.1300439E+00
        -11   -1    0    0    0    0  0.00000000000E+00  0.00000000000E+00  0.45593999997E+02  0.45594000000E+02  0.51100000000E-03 0. -1.
         11   -1    0    0    0    0 -0.00000000000E+00 -0.00000000000E+00 -0.45593999997E+02  0.45594000000E+02  0.51100000000E-03 0.  1.
    9900012    2    1    2    0    0  0.17421463889E+02  0.21505938900E+02  0.29785107801E+02  0.50528862543E+02  0.30000008186E+02 0.  0.
        -12    1    1    2    0    0 -0.17421463889E+02 -0.21505938900E+02 -0.29785107801E+02  0.40659137457E+02  0.00000000000E+00 0.  1.
         11    1    3    3    0    0  0.19838388444E+02  0.11949199770E+02  0.16309887761E+02  0.28325915170E+02  0.51100000000E-03 0. -1.
        -11    1    3    3    0    0 -0.10934358704E+01  0.51643150573E+01  0.16082241321E+02  0.16926436074E+02  0.51100000000E-03 0.  1.
        -12    1    3    3    0    0 -0.13234886841E+01  0.43924240721E+01 -0.26070212808E+01  0.52765112986E+01  0.00000000000E+00 0.  1.
</event>
<event>
 7    1  0.6889665E-012  0.5052885E+02  0.7816164E-02  0.1300439E+00
        -11   -1    0    0    0    0  0.00000000000E+00  0.00000000000E+00  0.45593999997E+02  0.45594000000E+02  0.51100000000E-03 0.  1.
         11   -1    0    0    0    0 -0.00000000000E+00 -0.00000000000E+00 -0.45593999997E+02  0.45594000000E+02  0.51100000000E-03 0. -1.
    9900012    2    1    2    0    0  0.35306802151E+02  0.18346610083E+02  0.83664692050E+01  0.50528853592E+02  0.29999980978E+02 0.  0.
        -12    1    1    2    0    0 -0.35306802151E+02 -0.18346610083E+02 -0.83664692050E+01  0.40659146408E+02  0.00000000000E+00 0.  1.
         11    1    3    3    0    0  0.21086154878E+02  0.19240492082E+01  0.10468627576E+02  0.23620331422E+02  0.51100000000E-03 0. -1.
        -11    1    3    3    0    0  0.25219308013E+01 -0.14300381562E+01 -0.45805144827E+01  0.54209092671E+01  0.51100000000E-03 0.  1.
         12    1    3    3    0    0  0.11698716472E+02  0.17852599031E+02  0.24783561115E+01  0.21487612903E+02  0.00000000000E+00 0. -1.
</event>
<event>
 7    1  0.6889665E-012  0.5052886E+02  0.7816164E-02  0.1300439E+00
        -11   -1    0    0    0    0  0.00000000000E+00  0.00000000000E+00  0.45593999997E+02  0.45594000000E+02  0.51100000000E-03 0. -1.
         11   -1    0    0    0    0 -0.00000000000E+00 -0.00000000000E+00 -0.45593999997E+02  0.45594000000E+02  0.51100000000E-03 0.  1.
    9900012    2    1    2    0    0  0.34239286439E+01  0.24086648672E+02  0.32577230279E+02  0.50528857556E+02  0.29999993027E+02 0.  0.
        -12    1    1    2    0    0 -0.34239286439E+01 -0.24086648672E+02 -0.32577230279E+02  0.40659142444E+02  0.00000000000E+00 0.  1.
         11    1    3    3    0    0  0.75470863249E-01  0.12444071933E+02  0.18279085165E+02  0.22113018267E+02  0.51100000000E-03 0. -1.
        -11    1    3    3    0    0  0.73533900678E+01  0.13018596822E+02  0.16082884026E+01  0.15038045104E+02  0.51100000000E-03 0.  1.
        -12    1    3    3    0    0 -0.40049322871E+01 -0.13760200830E+01  0.12689856711E+02  0.13377794185E+02  0.00000000000E+00 0.  1.
</event>
<event>
 7    1  0.6889665E-012  0.5052881E+02  0.7816164E-02  0.1300439E+00
        -11   -1    0    0    0    0  0.00000000000E+00  0.00000000000E+00  0.45593999997E+02  0.45594000000E+02  0.51100000000E-03 0. -1.
         11   -1    0    0    0    0 -0.00000000000E+00 -0.00000000000E+00 -0.45593999997E+02  0.45594000000E+02  0.51100000000E-03 0.  1.
    9900012    2    1    2    0    0 -0.22454393264E+02  0.46732230204E+01 -0.33572766293E+02  0.50528813747E+02  0.29999859864E+02 0.  0.
         12    1    1    2    0    0  0.22454393264E+02 -0.46732230204E+01  0.33572766293E+02  0.40659186253E+02  0.00000000000E+00 0. -1.
         11    1    3    3    0    0 -0.72282187853E+01  0.87836283020E+01 -0.16555927956E+01  0.11495227737E+02  0.51100000000E-03 0. -1.
        -11    1    3    3    0    0 -0.46378940779E+01 -0.90597640107E+01 -0.19401300761E+02  0.21908899034E+02  0.51100000000E-03 0.  1.
        -12    1    3    3    0    0 -0.10588280400E+02  0.49493587292E+01 -0.12515872737E+02  0.17124686976E+02  0.00000000000E+00 0.  1.
</event>
<event>
 7    1  0.6889665E-012  0.5052886E+02  0.7816164E-02  0.1300439E+00
        -11   -1    0    0    0    0  0.00000000000E+00  0.00000000000E+00  0.45593999997E+02  0.45594000000E+02  0.51100000000E-03 0. -1.
         11   -1    0    0    0    0 -0.00000000000E+00 -0.00000000000E+00 -0.45593999997E+02  0.45594000000E+02  0.51100000000E-03 0.  1.
    9900012    2    1    2    0    0 -0.39087174493E+02 -0.33950343743E+01 -0.10669225726E+02  0.50528857783E+02  0.29999993716E+02 0.  0.
         12    1    1    2    0    0  0.39087174493E+02  0.33950343743E+01  0.10669225726E+02  0.40659142217E+02  0.00000000000E+00 0. -1.
         11    1    3    3    0    0 -0.40945762837E+01  0.19027742861E+01 -0.96120326721E+01  0.10619664650E+02  0.51100000000E-03 0. -1.
        -11    1    3    3    0    0 -0.30491709158E+02 -0.23715804820E+01  0.58732888281E+01  0.31142643485E+02  0.51100000000E-03 0.  1.
        -12    1    3    3    0    0 -0.45008890517E+01 -0.29262281783E+01 -0.69304818817E+01  0.87665496473E+01  0.00000000000E+00 0.  1.
</event>
<event>
 7    1  0.6889665E-012  0.5052888E+02  0.7816164E-02  0.1300439E+00
        -11   -1    0    0    0    0  0.00000000000E+00  0.00000000000E+00  0.45593999997E+02  0.45594000000E+02  0.51100000000E-03 0. -1.
         11   -1    0    0    0    0 -0.00000000000E+00 -0.00000000000E+00 -0.45593999997E+02  0.45594000000E+02  0.51100000000E-03 0.  1.
    9900012    2    1    2    0    0 -0.96815754160E+01  0.14130105370E+02  0.36875079554E+02  0.50528877131E+02  0.30000052529E+02 0.  0.
        -12    1    1    2    0    0  0.96815754160E+01 -0.14130105370E+02 -0.36875079554E+02  0.40659122869E+02  0.00000000000E+00 0.  1.
         11    1    3    3    0    0 -0.10612501837E+02  0.96581691681E+00  0.53157529160E+01  0.11908619856E+02  0.51100000000E-03 0. -1.
        -11    1    3    3    0    0  0.44705706085E+01 -0.17659632454E+01  0.16245997554E+02  0.16942168236E+02  0.51100000000E-03 0.  1.
         12    1    3    3    0    0 -0.35396441878E+01  0.14930251698E+02  0.15313329085E+02  0.21678089040E+02  0.00000000000E+00 0. -1.
</event>
<event>
 7    1  0.6889665E-012  0.5052886E+02  0.7816164E-02  0.1300439E+00
        -11   -1    0    0    0    0  0.00000000000E+00  0.00000000000E+00  0.45593999997E+02  0.45594000000E+02  0.51100000000E-03 0.  1.
         11   -1    0    0    0    0 -0.00000000000E+00 -0.00000000000E+00 -0.45593999997E+02  0.45594000000E+02  0.51100000000E-03 0. -1.
    9900012    2    1    2    0    0  0.27690672244E+02  0.13918717472E+02  0.26318464895E+02  0.50528860562E+02  0.30000002164E+02 0.  0.
        -12    1    1    2    0    0 -0.27690672244E+02 -0.13918717472E+02 -0.26318464895E+02  0.40659139438E+02  0.00000000000E+00 0.  1.
         11    1    3    3    0    0  0.15537208563E+02  0.18713041093E+02  0.18187754502E+02  0.30370662998E+02  0.51100000000E-03 0. -1.
        -11    1    3    3    0    0  0.11919896468E+02 -0.85094324245E+01  0.57182124780E+01  0.15722351167E+02  0.51100000000E-03 0.  1.
         12    1    3    3    0    0  0.23356721276E+00  0.37151088032E+01  0.24124979156E+01  0.44358463968E+01  0.00000000000E+00 0. -1.
</event>
<event>
 7    1  0.6889665E-012  0.5052886E+02  0.7816164E-02  0.1300439E+00
        -11   -1    0    0    0    0  0.00000000000E+00  0.00000000000E+00  0.45593999997E+02  0.45594000000E+02  0.51100000000E-03 0.  1.
         11   -1    0    0    0    0 -0.00000000000E+00 -0.00000000000E+00 -0.45593999997E+02  0.45594000000E+02  0.51100000000E-03 0. -1.
    9900012    2    1    2    0    0 -0.55754064625E-01 -0.18625606572E+02  0.36142070326E+02  0.50528861099E+02  0.30000003798E+02 0.  0.
        -12    1    1    2    0    0  0.55754064625E-01  0.18625606572E+02 -0.36142070326E+02  0.40659138901E+02  0.00000000000E+00 0.  1.
         11    1    3    3    0    0 -0.22370682411E+01  0.64693640922E+01  0.14357263066E+01  0.69941730291E+01  0.51100000000E-03 0. -1.
        -11    1    3    3    0    0  0.30350266282E+01 -0.23555833347E+02  0.28579992884E+02  0.37160525627E+02  0.51100000000E-03 0.  1.
        -12    1    3    3    0    0 -0.85371245171E+00 -0.15391373173E+01  0.61263511349E+01  0.63741624438E+01  0.00000000000E+00 0.  1.
</event>
<event>
 7    1  0.6889665E-012  0.5052885E+02  0.7816164E-02  0.1300439E+00
        -11   -1    0    0    0    0  0.00000000000E+00  0.00000000000E+00  0.45593999997E+02  0.45594000000E+02  0.51100000000E-03 0. -1.
         11   -1    0    0    0    0 -0.00000000000E+00 -0.00000000000E+00 -0.45593999997E+02  0.45594000000E+02  0.51100000000E-03 0.  1.
    9900012    2    1    2    0    0  0.27644108026E+02 -0.50370543372E+01  0.29387036541E+02  0.50528849227E+02  0.29999967711E+02 0.  0.
        -12    1    1    2    0    0 -0.27644108026E+02  0.50370543372E+01 -0.29387036541E+02  0.40659150773E+02  0.00000000000E+00 0.  1.
         11    1    3    3    0    0  0.27195082223E+02  0.26996411190E+01  0.29405432000E+02  0.40143990717E+02  0.51100000000E-03 0. -1.
        -11    1    3    3    0    0  0.17642482752E+00 -0.47708194226E+01 -0.34132125643E+01  0.58687191067E+01  0.51100000000E-03 0.  1.
         12    1    3    3    0    0  0.27260097514E+00 -0.29658760335E+01  0.33948171046E+01  0.45161394034E+01  0.00000000000E+00 0. -1.
</event>
<event>
 7    1  0.6889665E-012  0.5052882E+02  0.7816164E-02  0.1300439E+00
        -11   -1    0    0    0    0  0.00000000000E+00  0.00000000000E+00  0.45593999997E+02  0.45594000000E+02  0.51100000000E-03 0. -1.
         11   -1    0    0    0    0 -0.00000000000E+00 -0.00000000000E+00 -0.45593999997E+02  0.45594000000E+02  0.51100000000E-03 0.  1.
    9900012    2    1    2    0    0  0.28444834511E+01 -0.37991708220E+01  0.40381237313E+02  0.50528817618E+02  0.29999871632E+02 0.  0.
        -12    1    1    2    0    0 -0.28444834511E+01  0.37991708220E+01 -0.40381237313E+02  0.40659182382E+02  0.00000000000E+00 0.  1.
         11    1    3    3    0    0  0.21829836072E+01 -0.92005126800E+01  0.14562975536E+02  0.17363614477E+02  0.51100000000E-03 0. -1.
        -11    1    3    3    0    0  0.55297847320E+01  0.96569578499E+01  0.67147552773E+01  0.12997049388E+02  0.51100000000E-03 0.  1.
        -12    1    3    3    0    0 -0.48682848881E+01 -0.42556159919E+01  0.19103506500E+02  0.20168153753E+02  0.00000000000E+00 0.  1.
</event>
<event>
 7    1  0.6889665E-012  0.5052884E+02  0.7816164E-02  0.1300439E+00
        -11   -1    0    0    0    0  0.00000000000E+00  0.00000000000E+00  0.45593999997E+02  0.45594000000E+02  0.51100000000E-03 0. -1.
         11   -1    0    0    0    0 -0.00000000000E+00 -0.00000000000E+00 -0.45593999997E+02  0.45594000000E+02  0.51100000000E-03 0.  1.
    9900012    2    1    2    0    0 -0.23524398666E+02  0.24572363379E+01  0.33071619632E+02  0.50528839063E+02  0.29999936815E+02 0.  0.
        -12    1    1    2    0    0  0.23524398666E+02 -0.24572363379E+01 -0.33071619632E+02  0.40659160937E+02  0.00000000000E+00 0.  1.
         11    1    3    3    0    0 -0.81111694174E+01 -0.38668852095E+01 -0.11599120690E+01  0.90603127325E+01  0.51100000000E-03 0. -1.
        -11    1    3    3    0    0 -0.36183471591E+01 -0.33791698726E+01  0.19961179328E+02  0.20565989051E+02  0.51100000000E-03 0.  1.
         12    1    3    3    0    0 -0.11794882089E+02  0.97032914200E+01  0.14270352373E+02  0.20902537280E+02  0.00000000000E+00 0. -1.
</event>
<event>
 7    1  0.6889665E-012  0.5052887E+02  0.7816164E-02  0.1300439E+00
        -11   -1    0    0    0    0  0.00000000000E+00  0.00000000000E+00  0.45593999997E+02  0.45594000000E+02  0.51100000000E-03 0. -1.
         11   -1    0    0    0    0 -0.00000000000E+00 -0.00000000000E+00 -0.45593999997E+02  0.45594000000E+02  0.51100000000E-03 0.  1.
    9900012    2    1    2    0    0  0.30169646445E+02  0.53780387032E+00 -0.27251939019E+02  0.50528868432E+02  0.30000026086E+02 0.  0.
         12    1    1    2    0    0 -0.30169646445E+02 -0.53780387032E+00  0.27251939019E+02  0.40659131568E+02  0.00000000000E+00 0. -1.
         11    1    3    3    0    0  0.18244250132E+02 -0.11637318368E+02 -0.79182607425E+01  0.23042974963E+02  0.51100000000E-03 0. -1.
        -11    1    3    3    0    0  0.43130085708E+01  0.10852678333E+02 -0.13170998644E+02  0.17602780333E+02  0.51100000000E-03 0.  1.
         12    1    3    3    0    0  0.76123877412E+01  0.13224439055E+01 -0.61626796326E+01  0.98831131361E+01  0.00000000000E+00 0. -1.
</event>
<event>
 7    1  0.6889665E-012  0.5052886E+02  0.7816164E-02  0.1300439E+00
        -11   -1    0    0    0    0  0.00000000000E+00  0.00000000000E+00  0.45593999997E+02  0.45594000000E+02  0.51100000000E-03 0. -1.
         11   -1    0    0    0    0 -0.00000000000E+00 -0.00000000000E+00 -0.45593999997E+02  0.45594000000E+02  0.51100000000E-03 0.  1.
    9900012    2    1    2    0    0 -0.20042013562E+02 -0.21211101481E+02 -0.28312050817E+02  0.50528863817E+02  0.30000012058E+02 0.  0.
         12    1    1    2    0    0  0.20042013562E+02  0.21211101481E+02  0.28312050817E+02  0.40659136183E+02  0.00000000000E+00 0. -1.
         11    1    3    3    0    0 -0.17558934659E+02 -0.16108982234E+00 -0.14817476362E+02  0.22976068905E+02  0.51100000000E-03 0. -1.
        -11    1    3    3    0    0  0.26508588275E+00 -0.19680218015E+02 -0.14358632416E+02  0.24362913962E+02  0.51100000000E-03 0.  1.
        -12    1    3    3    0    0 -0.27481647858E+01 -0.13697936436E+01  0.86405796051E+00  0.31898809500E+01  0.00000000000E+00 0.  1.
</event>
<event>
 7    1  0.6889665E-012  0.5052887E+02  0.7816164E-02  0.1300439E+00
        -11   -1    0    0    0    0  0.00000000000E+00  0.00000000000E+00  0.45593999997E+02  0.45594000000E+02  0.51100000000E-03 0. -1.
         11   -1    0    0    0    0 -0.00000000000E+00 -0.00000000000E+00 -0.45593999997E+02  0.45594000000E+02  0.51100000000E-03 0.  1.
    9900012    2    1    2    0    0  0.35119470828E+00 -0.15970254107E+02 -0.37389742343E+02  0.50528865891E+02  0.30000018363E+02 0.  0.
         12    1    1    2    0    0 -0.35119470828E+00  0.15970254107E+02  0.37389742343E+02  0.40659134109E+02  0.00000000000E+00 0. -1.
         11    1    3    3    0    0  0.97963045094E+01 -0.13956084877E+02 -0.19280595439E+02  0.25738711076E+02  0.51100000000E-03 0. -1.
        -11    1    3    3    0    0 -0.25200923828E+01  0.58942217718E+01 -0.72171885254E+01  0.96530060802E+01  0.51100000000E-03 0.  1.
        -12    1    3    3    0    0 -0.69250174184E+01 -0.79083910022E+01 -0.10891958379E+02  0.15137148735E+02  0.00000000000E+00 0.  1.
</event>
<event>
 7    1  0.9296236E-012  0.5052886E+02  0.7816164E-02  0.1300439E+00
        -11   -1    0    0    0    0  0.00000000000E+00  0.00000000000E+00  0.45593999997E+02  0.45594000000E+02  0.51100000000E-03 0. -1.
         11   -1    0    0    0    0 -0.00000000000E+00 -0.00000000000E+00 -0.45593999997E+02  0.45594000000E+02  0.51100000000E-03 0.  1.
    9900012    2    1    2    0    0 -0.22194070631E+02  0.12830059100E+02  0.31559127110E+02  0.50528859680E+02  0.29999999482E+02 0.  0.
        -12    1    1    2    0    0  0.22194070631E+02 -0.12830059100E+02 -0.31559127110E+02  0.40659140320E+02  0.00000000000E+00 0.  1.
         11    1    3    3    0    0 -0.93418553078E+01  0.11930986792E+02  0.29189915591E+02  0.32888750035E+02  0.51100000000E-03 0. -1.
        -11    1    3    3    0    0  0.18231817993E+00 -0.13325025119E+01 -0.30617792328E+01  0.33441434172E+01  0.51100000000E-03 0.  1.
         12    1    3    3    0    0 -0.13034533503E+02  0.22315748208E+01  0.54309907512E+01  0.14295966227E+02  0.00000000000E+00 0. -1.
</event>
<event>
 7    1  0.1260963E-011  0.5052886E+02  0.7816164E-02  0.1300439E+00
        -11   -1    0    0    0    0  0.00000000000E+00  0.00000000000E+00  0.45593999997E+02  0.45594000000E+02  0.51100000000E-03 0. -1.
         11   -1    0    0    0    0 -0.00000000000E+00 -0.00000000000E+00 -0.45593999997E+02  0.45594000000E+02  0.51100000000E-03 0.  1.
    9900012    2    1    2    0    0 -0.26780942816E+02  0.22131547104E+02 -0.21122054356E+02  0.50528862582E+02  0.30000008305E+02 0.  0.
         12    1    1    2    0    0  0.26780942816E+02 -0.22131547104E+02  0.21122054356E+02  0.40659137418E+02  0.00000000000E+00 0. -1.
         11    1    3    3    0    0  0.54989388501E+01  0.46073862015E+01 -0.16417136247E+01  0.73594537823E+01  0.51100000000E-03 0. -1.
        -11    1    3    3    0    0 -0.19117988373E+02  0.12101313939E+02 -0.17892602797E+02  0.28845875158E+02  0.51100000000E-03 0.  1.
         12    1    3    3    0    0 -0.13161893293E+02  0.54228469632E+01 -0.15877379339E+01  0.14323533642E+02  0.00000000000E+00 0. -1.
</event>
<event>
 7    1  0.6889665E-012  0.5052886E+02  0.7816164E-02  0.1300439E+00
        -11   -1    0    0    0    0  0.00000000000E+00  0.00000000000E+00  0.45593999997E+02  0.45594000000E+02  0.51100000000E-03 0. -1.
         11   -1    0    0    0    0 -0.00000000000E+00 -0.00000000000E+00 -0.45593999997E+02  0.45594000000E+02  0.51100000000E-03 0.  1.
    9900012    2    1    2    0    0  0.77509085010E+00 -0.11551392686E+02  0.38976019875E+02  0.50528861248E+02  0.30000004248E+02 0.  0.
        -12    1    1    2    0    0 -0.77509085010E+00  0.11551392686E+02 -0.38976019875E+02  0.40659138752E+02  0.00000000000E+00 0.  1.
         11    1    3    3    0    0  0.32380752845E+00 -0.15575720146E+02  0.38277645096E+02  0.41326577692E+02  0.51100000000E-03 0. -1.
        -11    1    3    3    0    0  0.32026057697E+01  0.43867203179E+01  0.24097166570E+01  0.59419469445E+01  0.51100000000E-03 0.  1.
         12    1    3    3    0    0 -0.27513224480E+01 -0.36239285714E+00 -0.17113418777E+01  0.32603366112E+01  0.00000000000E+00 0. -1.
</event>
<event>
 7    1  0.6889665E-012  0.5052887E+02  0.7816164E-02  0.1300439E+00
        -11   -1    0    0    0    0  0.00000000000E+00  0.00000000000E+00  0.45593999997E+02  0.45594000000E+02  0.51100000000E-03 0.  1.
         11   -1    0    0    0    0 -0.00000000000E+00 -0.00000000000E+00 -0.45593999997E+02  0.45594000000E+02  0.51100000000E-03 0. -1.
    9900012    2    1    2    0    0  0.27653483168E+02 -0.29455705540E+02  0.45618805503E+01  0.50528874648E+02  0.30000044981E+02 0.  0.
        -12    1    1    2    0    0 -0.27653483168E+02  0.29455705540E+02 -0.45618805503E+01  0.40659125352E+02  0.00000000000E+00 0.  1.
         11    1    3    3    0    0  0.15390342727E+02 -0.31193009052E+02 -0.75998559077E+00  0.34791436322E+02  0.51100000000E-03 0. -1.
        -11    1    3    3    0    0  0.62137036829E+01  0.12710809237E+01 -0.15916874135E+01  0.65390541561E+01  0.51100000000E-03 0.  1.
         12    1    3    3    0    0  0.60494367581E+01  0.46622258821E+00  0.69135535545E+01  0.91983841702E+01  0.00000000000E+00 0. -1.
</event>
<event>
 7    1  0.6889665E-012  0.5052884E+02  0.7816164E-02  0.1300439E+00
        -11   -1    0    0    0    0  0.00000000000E+00  0.00000000000E+00  0.45593999997E+02  0.45594000000E+02  0.51100000000E-03 0.  1.
         11   -1    0    0    0    0 -0.00000000000E+00 -0.00000000000E+00 -0.45593999997E+02  0.45594000000E+02  0.51100000000E-03 0. -1.
    9900012    2    1    2    0    0 -0.32112607857E+02  0.21575857513E+02 -0.12507188340E+02  0.50528843946E+02  0.29999951659E+02 0.  0.
         12    1    1    2    0    0  0.32112607857E+02 -0.21575857513E+02  0.12507188340E+02  0.40659156054E+02  0.00000000000E+00 0. -1.
         11    1    3    3    0    0 -0.49970533370E+01  0.20550397679E+00 -0.13573219746E+02  0.14465305682E+02  0.51100000000E-03 0. -1.
        -11    1    3    3    0    0 -0.94091841842E+01  0.94014609250E+01 -0.43883238052E+01  0.14006341443E+02  0.51100000000E-03 0.  1.
         12    1    3    3    0    0 -0.17706370336E+02  0.11968892611E+02  0.54543552114E+01  0.22057196821E+02  0.00000000000E+00 0. -1.
</event>
<event>
 7    1  0.6889665E-012  0.5052886E+02  0.7816164E-02  0.1300439E+00
        -11   -1    0    0    0    0  0.00000000000E+00  0.00000000000E+00  0.45593999997E+02  0.45594000000E+02  0.51100000000E-03 0. -1.
         11   -1    0    0    0    0 -0.00000000000E+00 -0.00000000000E+00 -0.45593999997E+02  0.45594000000E+02  0.51100000000E-03 0.  1.
    9900012    2    1    2    0    0 -0.10744641547E+02  0.14781082007E+02 -0.36321312070E+02  0.50528863047E+02  0.30000009716E+02 0.  0.
         12    1    1    2    0    0  0.10744641547E+02 -0.14781082007E+02  0.36321312070E+02  0.40659136953E+02  0.00000000000E+00 0. -1.
         11    1    3    3    0    0  0.14322392968E+01 -0.25366476788E+01 -0.91403138781E+01  0.95932908274E+01  0.51100000000E-03 0. -1.
        -11    1    3    3    0    0 -0.17445803721E+02  0.18062413831E+02 -0.23998538714E+02  0.34735237462E+02  0.51100000000E-03 0.  1.
        -12    1    3    3    0    0  0.52689228780E+01 -0.74468414444E+00 -0.31824594788E+01  0.62003347573E+01  0.00000000000E+00 0.  1.
</event>
<event>
 7    1  0.6889665E-012  0.5052886E+02  0.7816164E-02  0.1300439E+00
        -11   -1    0    0    0    0  0.00000000000E+00  0.00000000000E+00  0.45593999997E+02  0.45594000000E+02  0.51100000000E-03 0. -1.
         11   -1    0    0    0    0 -0.00000000000E+00 -0.00000000000E+00 -0.45593999997E+02  0.45594000000E+02  0.51100000000E-03 0.  1.
    9900012    2    1    2    0    0  0.88665680293E+01 -0.31036693494E+02 -0.24723935807E+02  0.50528863592E+02  0.30000011375E+02 0.  0.
         12    1    1    2    0    0 -0.88665680293E+01  0.31036693494E+02  0.24723935807E+02  0.40659136408E+02  0.00000000000E+00 0. -1.
         11    1    3    3    0    0 -0.15271992232E+01  0.13822744071E+01  0.15551943248E+01  0.25810171741E+01  0.51100000000E-03 0. -1.
        -11    1    3    3    0    0  0.13703010653E+02 -0.32677060412E+02 -0.19609956280E+02  0.40498310628E+02  0.51100000000E-03 0.  1.
        -12    1    3    3    0    0 -0.33092434001E+01  0.25809251175E+00 -0.66691738515E+01  0.74495357901E+01  0.00000000000E+00 0.  1.
</event>
<event>
 7    1  0.6889665E-012  0.5052886E+02  0.7816164E-02  0.1300439E+00
        -11   -1    0    0    0    0  0.00000000000E+00  0.00000000000E+00  0.45593999997E+02  0.45594000000E+02  0.51100000000E-03 0. -1.
         11   -1    0    0    0    0 -0.00000000000E+00 -0.00000000000E+00 -0.45593999997E+02  0.45594000000E+02  0.51100000000E-03 0.  1.
    9900012    2    1    2    0    0  0.24709040576E+02  0.21413168753E+02  0.24168274435E+02  0.50528856238E+02  0.29999989022E+02 0.  0.
        -12    1    1    2    0    0 -0.24709040576E+02 -0.21413168753E+02 -0.24168274435E+02  0.40659143762E+02  0.00000000000E+00 0.  1.
         11    1    3    3    0    0  0.21077591549E+02  0.13532228130E+01  0.10315960219E+02  0.23505640025E+02  0.51100000000E-03 0.  1.
        -11    1    3    3    0    0 -0.35542673103E+01  0.11065938649E+02  0.59254477135E+01  0.13046024114E+02  0.51100000000E-03 0. -1.
         12    1    3    3    0    0  0.71857163375E+01  0.89940072910E+01  0.79268665023E+01  0.13977192099E+02  0.00000000000E+00 0. -1.
</event>
<event>
 7    1  0.6889665E-012  0.5052884E+02  0.7816164E-02  0.1300439E+00
        -11   -1    0    0    0    0  0.00000000000E+00  0.00000000000E+00  0.45593999997E+02  0.45594000000E+02  0.51100000000E-03 0. -1.
         11   -1    0    0    0    0 -0.00000000000E+00 -0.00000000000E+00 -0.45593999997E+02  0.45594000000E+02  0.51100000000E-03 0.  1.
    9900012    2    1    2    0    0 -0.54571478391E+01  0.29387577684E+01  0.40183956810E+02  0.50528841810E+02  0.29999945167E+02 0.  0.
        -12    1    1    2    0    0  0.54571478391E+01 -0.29387577684E+01 -0.40183956810E+02  0.40659158190E+02  0.00000000000E+00 0.  1.
         11    1    3    3    0    0 -0.99940424201E+01 -0.69333976324E+01  0.17572962261E+02  0.21371988432E+02  0.51100000000E-03 0. -1.
        -11    1    3    3    0    0  0.81159700217E+01  0.10775352749E+02  0.21352741121E+02  0.25257013876E+02  0.51100000000E-03 0.  1.
        -12    1    3    3    0    0 -0.35790754406E+01 -0.90319734859E+00  0.12582534277E+01  0.38998395029E+01  0.00000000000E+00 0.  1.
</event>
<event>
 7    1  0.6889665E-012  0.5052886E+02  0.7816164E-02  0.1300439E+00
        -11   -1    0    0    0    0  0.00000000000E+00  0.00000000000E+00  0.45593999997E+02  0.45594000000E+02  0.51100000000E-03 0. -1.
         11   -1    0    0    0    0 -0.00000000000E+00 -0.00000000000E+00 -0.45593999997E+02  0.45594000000E+02  0.51100000000E-03 0.  1.
    9900012    2    1    2    0    0  0.20372771395E+02  0.29024257157E+02 -0.19892428063E+02  0.50528855739E+02  0.29999987505E+02 0.  0.
         12    1    1    2    0    0 -0.20372771395E+02 -0.29024257157E+02  0.19892428063E+02  0.40659144261E+02  0.00000000000E+00 0. -1.
         11    1    3    3    0    0  0.82519874643E+01 -0.30238153620E+01  0.23827617291E+01  0.91058393448E+01  0.51100000000E-03 0. -1.
        -11    1    3    3    0    0  0.19432963798E+01  0.11150345771E+02 -0.45809685208E+01  0.12210318771E+02  0.51100000000E-03 0.  1.
         12    1    3    3    0    0  0.10177487550E+02  0.20897726748E+02 -0.17694221271E+02  0.29212697623E+02  0.00000000000E+00 0. -1.
</event>
<event>
 7    1  0.6889665E-012  0.5052886E+02  0.7816164E-02  0.1300439E+00
        -11   -1    0    0    0    0  0.00000000000E+00  0.00000000000E+00  0.45593999997E+02  0.45594000000E+02  0.51100000000E-03 0. -1.
         11   -1    0    0    0    0 -0.00000000000E+00 -0.00000000000E+00 -0.45593999997E+02  0.45594000000E+02  0.51100000000E-03 0.  1.
    9900012    2    1    2    0    0 -0.54813487980E+01 -0.65864768065E+01 -0.39745931247E+02  0.50528856968E+02  0.29999991241E+02 0.  0.
         12    1    1    2    0    0  0.54813487980E+01  0.65864768065E+01  0.39745931247E+02  0.40659143032E+02  0.00000000000E+00 0. -1.
         11    1    3    3    0    0 -0.13135200776E+02 -0.13489184012E+02 -0.29716233239E+02  0.35178773471E+02  0.51100000000E-03 0. -1.
        -11    1    3    3    0    0  0.43643686769E+01  0.64691677998E+01 -0.89193997774E+01  0.11851309574E+02  0.51100000000E-03 0.  1.
         12    1    3    3    0    0  0.32894833012E+01  0.43353940619E+00 -0.11102982303E+01  0.34987739232E+01  0.00000000000E+00 0. -1.
</event>
<event>
 7    1  0.6889665E-012  0.5052886E+02  0.7816164E-02  0.1300439E+00
        -11   -1    0    0    0    0  0.00000000000E+00  0.00000000000E+00  0.45593999997E+02  0.45594000000E+02  0.51100000000E-03 0. -1.
         11   -1    0    0    0    0 -0.00000000000E+00 -0.00000000000E+00 -0.45593999997E+02  0.45594000000E+02  0.51100000000E-03 0.  1.
    9900012    2    1    2    0    0 -0.28432466893E+02  0.12062279856E+02 -0.26443557381E+02  0.50528862086E+02  0.30000006798E+02 0.  0.
         12    1    1    2    0    0  0.28432466893E+02 -0.12062279856E+02  0.26443557381E+02  0.40659137914E+02  0.00000000000E+00 0. -1.
         11    1    3    3    0    0 -0.23688549999E+02  0.10042189431E+02 -0.10162460136E+02  0.27663487956E+02  0.51100000000E-03 0. -1.
        -11    1    3    3    0    0 -0.82230842422E+01 -0.38086090585E+01 -0.11078586492E+02  0.14312920608E+02  0.51100000000E-03 0.  1.
         12    1    3    3    0    0  0.34791673488E+01  0.58286994839E+01 -0.52025107527E+01  0.85524535220E+01  0.00000000000E+00 0. -1.
</event>
<event>
 7    1  0.6889665E-012  0.5052886E+02  0.7816164E-02  0.1300439E+00
        -11   -1    0    0    0    0  0.00000000000E+00  0.00000000000E+00  0.45593999997E+02  0.45594000000E+02  0.51100000000E-03 0. -1.
         11   -1    0    0    0    0 -0.00000000000E+00 -0.00000000000E+00 -0.45593999997E+02  0.45594000000E+02  0.51100000000E-03 0.  1.
    9900012    2    1    2    0    0  0.84234157762E+01 -0.32729526081E+02  0.22605083549E+02  0.50528860645E+02  0.30000002418E+02 0.  0.
        -12    1    1    2    0    0 -0.84234157762E+01  0.32729526081E+02 -0.22605083549E+02  0.40659139355E+02  0.00000000000E+00 0.  1.
         11    1    3    3    0    0  0.12495849332E+02 -0.19434164422E+02  0.10027864428E+02  0.25187120966E+02  0.51100000000E-03 0. -1.
        -11    1    3    3    0    0 -0.83649394693E+01 -0.13709686704E+02  0.13442347955E+02  0.20943362688E+02  0.51100000000E-03 0.  1.
        -12    1    3    3    0    0  0.42925059135E+01  0.41432504534E+00 -0.86512883468E+00  0.43983769917E+01  0.00000000000E+00 0.  1.
</event>
<event>
 7    1  0.6889665E-012  0.5052886E+02  0.7816164E-02  0.1300439E+00
        -11   -1    0    0    0    0  0.00000000000E+00  0.00000000000E+00  0.45593999997E+02  0.45594000000E+02  0.51100000000E-03 0. -1.
         11   -1    0    0    0    0 -0.00000000000E+00 -0.00000000000E+00 -0.45593999997E+02  0.45594000000E+02  0.51100000000E-03 0.  1.
    9900012    2    1    2    0    0 -0.15567530442E+01  0.40579821408E+01  0.40426169162E+02  0.50528857705E+02  0.29999993479E+02 0.  0.
        -12    1    1    2    0    0  0.15567530442E+01 -0.40579821408E+01 -0.40426169162E+02  0.40659142295E+02  0.00000000000E+00 0.  1.
         11    1    3    3    0    0 -0.24218740883E+00 -0.95148164695E+01  0.13826096853E+02  0.16785450296E+02  0.51100000000E-03 0. -1.
        -11    1    3    3    0    0 -0.25715211924E+01  0.14543005133E+02  0.11923207365E+02  0.18980900760E+02  0.51100000000E-03 0.  1.
        -12    1    3    3    0    0  0.12569555571E+01 -0.97020652289E+00  0.14676864943E+02  0.14762506648E+02  0.00000000000E+00 0.  1.
</event>
<event>
 7    1  0.6889665E-012  0.5052886E+02  0.7816164E-02  0.1300439E+00
        -11   -1    0    0    0    0  0.00000000000E+00  0.00000000000E+00  0.45593999997E+02  0.45594000000E+02  0.51100000000E-03 0. -1.
         11   -1    0    0    0    0 -0.00000000000E+00 -0.00000000000E+00 -0.45593999997E+02  0.45594000000E+02  0.51100000000E-03 0.  1.
    9900012    2    1    2    0    0 -0.15853745047E+02 -0.39268731075E+01 -0.37234445917E+02  0.50528861702E+02  0.30000005630E+02 0.  0.
         12    1    1    2    0    0  0.15853745047E+02  0.39268731075E+01  0.37234445917E+02  0.40659138298E+02  0.00000000000E+00 0. -1.
         11    1    3    3    0    0  0.48423175503E+01 -0.15719060586E+01 -0.22851036617E+02  0.23411296475E+02  0.51100000000E-03 0. -1.
        -11    1    3    3    0    0 -0.12697256444E+02 -0.26064494426E+01 -0.14038443122E+02  0.19107375159E+02  0.51100000000E-03 0.  1.
         12    1    3    3    0    0 -0.79988061528E+01  0.25148239367E+00 -0.34496617786E+00  0.80101900682E+01  0.00000000000E+00 0. -1.
</event>
<event>
 7    1  0.6889665E-012  0.5052886E+02  0.7816164E-02  0.1300439E+00
        -11   -1    0    0    0    0  0.00000000000E+00  0.00000000000E+00  0.45593999997E+02  0.45594000000E+02  0.51100000000E-03 0. -1.
         11   -1    0    0    0    0 -0.00000000000E+00 -0.00000000000E+00 -0.45593999997E+02  0.45594000000E+02  0.51100000000E-03 0.  1.
    9900012    2    1    2    0    0  0.14092465080E+02 -0.36076356249E+02 -0.12371928637E+02  0.50528859940E+02  0.30000000274E+02 0.  0.
         12    1    1    2    0    0 -0.14092465080E+02  0.36076356249E+02  0.12371928637E+02  0.40659140060E+02  0.00000000000E+00 0. -1.
         11    1    3    3    0    0  0.99383814239E+01 -0.29112795625E+01 -0.10354757325E+02  0.14644725110E+02  0.51100000000E-03 0.  1.
        -11    1    3    3    0    0  0.77522146189E+01 -0.28095923532E+02  0.56884892978E+00  0.29151352284E+02  0.51100000000E-03 0. -1.
         12    1    3    3    0    0 -0.35981309629E+01 -0.50691531542E+01 -0.25860202420E+01  0.67327825466E+01  0.00000000000E+00 0. -1.
</event>
<event>
 7    1  0.6889665E-012  0.5052886E+02  0.7816164E-02  0.1300439E+00
        -11   -1    0    0    0    0  0.00000000000E+00  0.00000000000E+00  0.45593999997E+02  0.45594000000E+02  0.51100000000E-03 0. -1.
         11   -1    0    0    0    0 -0.00000000000E+00 -0.00000000000E+00 -0.45593999997E+02  0.45594000000E+02  0.51100000000E-03 0.  1.
    9900012    2    1    2    0    0  0.17610193381E+02 -0.29783326117E+01 -0.36526381262E+02  0.50528857066E+02  0.29999991538E+02 0.  0.
         12    1    1    2    0    0 -0.17610193381E+02  0.29783326117E+01  0.36526381262E+02  0.40659142934E+02  0.00000000000E+00 0. -1.
         11    1    3    3    0    0  0.77794597753E+01  0.74372603691E+01 -0.27966009501E+02  0.29965488881E+02  0.51100000000E-03 0.  1.
        -11    1    3    3    0    0  0.75103885322E+01 -0.13019836941E+02 -0.80113415391E+01  0.17032430343E+02  0.51100000000E-03 0. -1.
        -12    1    3    3    0    0  0.23203450735E+01  0.26042439598E+01 -0.54903022136E+00  0.35309378423E+01  0.00000000000E+00 0.  1.
</event>
<event>
 7    1  0.6889665E-012  0.5052886E+02  0.7816164E-02  0.1300439E+00
        -11   -1    0    0    0    0  0.00000000000E+00  0.00000000000E+00  0.45593999997E+02  0.45594000000E+02  0.51100000000E-03 0. -1.
         11   -1    0    0    0    0 -0.00000000000E+00 -0.00000000000E+00 -0.45593999997E+02  0.45594000000E+02  0.51100000000E-03 0.  1.
    9900012    2    1    2    0    0  0.49012820401E+01 -0.12729394845E+02 -0.38302816118E+02  0.50528858577E+02  0.29999996129E+02 0.  0.
         12    1    1    2    0    0 -0.49012820401E+01  0.12729394845E+02  0.38302816118E+02  0.40659141423E+02  0.00000000000E+00 0. -1.
         11    1    3    3    0    0  0.10876800205E+02 -0.52529445490E+00 -0.12542778836E+01  0.10961474820E+02  0.51100000000E-03 0. -1.
        -11    1    3    3    0    0 -0.12419355268E+01 -0.19002396782E+01 -0.96845195519E+01  0.99470213581E+01  0.51100000000E-03 0.  1.
         12    1    3    3    0    0 -0.47335826382E+01 -0.10303860712E+02 -0.27364018682E+02  0.29620362398E+02  0.00000000000E+00 0. -1.
</event>
<event>
 7    1  0.6889665E-012  0.5052886E+02  0.7816164E-02  0.1300439E+00
        -11   -1    0    0    0    0  0.00000000000E+00  0.00000000000E+00  0.45593999997E+02  0.45594000000E+02  0.51100000000E-03 0. -1.
         11   -1    0    0    0    0 -0.00000000000E+00 -0.00000000000E+00 -0.45593999997E+02  0.45594000000E+02  0.51100000000E-03 0.  1.
    9900012    2    1    2    0    0  0.30538364211E+02  0.17968531270E+02 -0.19942569159E+02  0.50528857494E+02  0.29999992839E+02 0.  0.
         12    1    1    2    0    0 -0.30538364211E+02 -0.17968531270E+02  0.19942569159E+02  0.40659142506E+02  0.00000000000E+00 0. -1.
         11    1    3    3    0    0  0.23824493541E+02  0.34243966867E+01 -0.18624082519E+02  0.30433360562E+02  0.51100000000E-03 0.  1.
        -11    1    3    3    0    0 -0.30617685919E+01  0.54278968063E+01 -0.24159523582E+01  0.66838100443E+01  0.51100000000E-03 0. -1.
        -12    1    3    3    0    0  0.97756392614E+01  0.91162377769E+01  0.10974657179E+01  0.13411686888E+02  0.00000000000E+00 0.  1.
</event>
<event>
 7    1  0.6889665E-012  0.5052886E+02  0.7816164E-02  0.1300439E+00
        -11   -1    0    0    0    0  0.00000000000E+00  0.00000000000E+00  0.45593999997E+02  0.45594000000E+02  0.51100000000E-03 0. -1.
         11   -1    0    0    0    0 -0.00000000000E+00 -0.00000000000E+00 -0.45593999997E+02  0.45594000000E+02  0.51100000000E-03 0.  1.
    9900012    2    1    2    0    0 -0.24049330658E+02  0.16745346629E+02 -0.28184903722E+02  0.50528859125E+02  0.29999997797E+02 0.  0.
         12    1    1    2    0    0  0.24049330658E+02 -0.16745346629E+02  0.28184903722E+02  0.40659140875E+02  0.00000000000E+00 0. -1.
         11    1    3    3    0    0  0.48706477839E+01  0.76585739047E+01 -0.57668770927E+01  0.10753317430E+02  0.51100000000E-03 0. -1.
        -11    1    3    3    0    0 -0.18244971548E+02 -0.64856430668E+00 -0.10604134143E+02  0.21112728001E+02  0.51100000000E-03 0.  1.
         12    1    3    3    0    0 -0.10675006894E+02  0.97353370314E+01 -0.11813892487E+02  0.18662813694E+02  0.00000000000E+00 0. -1.
</event>
<event>
 7    1  0.6889665E-012  0.5052885E+02  0.7816164E-02  0.1300439E+00
        -11   -1    0    0    0    0  0.00000000000E+00  0.00000000000E+00  0.45593999997E+02  0.45594000000E+02  0.51100000000E-03 0. -1.
         11   -1    0    0    0    0 -0.00000000000E+00 -0.00000000000E+00 -0.45593999997E+02  0.45594000000E+02  0.51100000000E-03 0.  1.
    9900012    2    1    2    0    0 -0.30854202811E+02 -0.99113256951E+01  0.24555051216E+02  0.50528846684E+02  0.29999959982E+02 0.  0.
        -12    1    1    2    0    0  0.30854202811E+02  0.99113256951E+01 -0.24555051216E+02  0.40659153316E+02  0.00000000000E+00 0.  1.
         11    1    3    3    0    0 -0.31635777884E+01 -0.33274126340E+01 -0.11869429624E+01  0.47422287078E+01  0.51100000000E-03 0. -1.
        -11    1    3    3    0    0  0.20029277542E+01  0.49745902578E+01  0.70049719136E+01  0.88220122191E+01  0.51100000000E-03 0.  1.
        -12    1    3    3    0    0 -0.29693552776E+02 -0.11558503319E+02  0.18737022265E+02  0.36964605758E+02  0.00000000000E+00 0.  1.
</event>
<event>
 7    1  0.6889665E-012  0.5052886E+02  0.7816164E-02  0.1300439E+00
        -11   -1    0    0    0    0  0.00000000000E+00  0.00000000000E+00  0.45593999997E+02  0.45594000000E+02  0.51100000000E-03 0. -1.
         11   -1    0    0    0    0 -0.00000000000E+00 -0.00000000000E+00 -0.45593999997E+02  0.45594000000E+02  0.51100000000E-03 0.  1.
    9900012    2    1    2    0    0 -0.92638436561E+01  0.25537067476E+02  0.30252357496E+02  0.50528858978E+02  0.29999997350E+02 0.  0.
        -12    1    1    2    0    0  0.92638436561E+01 -0.25537067476E+02 -0.30252357496E+02  0.40659141022E+02  0.00000000000E+00 0.  1.
         11    1    3    3    0    0 -0.91725346380E+01  0.14253549723E+01  0.14297158727E+02  0.17046283361E+02  0.51100000000E-03 0. -1.
        -11    1    3    3    0    0  0.74865347289E+01  0.64316705989E+01  0.78419273981E+01  0.12605967417E+02  0.51100000000E-03 0.  1.
        -12    1    3    3    0    0 -0.75778437470E+01  0.17680041905E+02  0.81132713711E+01  0.20876608200E+02  0.00000000000E+00 0.  1.
</event>
<event>
 7    1  0.6889665E-012  0.5052886E+02  0.7816164E-02  0.1300439E+00
        -11   -1    0    0    0    0  0.00000000000E+00  0.00000000000E+00  0.45593999997E+02  0.45594000000E+02  0.51100000000E-03 0.  1.
         11   -1    0    0    0    0 -0.00000000000E+00 -0.00000000000E+00 -0.45593999997E+02  0.45594000000E+02  0.51100000000E-03 0. -1.
    9900012    2    1    2    0    0  0.87282631583E+01 -0.39465933487E+02  0.44071992428E+01  0.50528857253E+02  0.29999992106E+02 0.  0.
         12    1    1    2    0    0 -0.87282631583E+01  0.39465933487E+02 -0.44071992428E+01  0.40659142747E+02  0.00000000000E+00 0. -1.
         11    1    3    3    0    0  0.15159215447E+02 -0.28491500951E+02  0.46773708803E+01  0.32610508092E+02  0.51100000000E-03 0.  1.
        -11    1    3    3    0    0 -0.30783255091E+01 -0.13292560487E+02 -0.13236533807E+01  0.13708402926E+02  0.51100000000E-03 0. -1.
         12    1    3    3    0    0 -0.33526267796E+01  0.23181279510E+01  0.10534817432E+01  0.42099462352E+01  0.00000000000E+00 0. -1.
</event>
<event>
 7    1  0.6889665E-012  0.5052885E+02  0.7816164E-02  0.1300439E+00
        -11   -1    0    0    0    0  0.00000000000E+00  0.00000000000E+00  0.45593999997E+02  0.45594000000E+02  0.51100000000E-03 0. -1.
         11   -1    0    0    0    0 -0.00000000000E+00 -0.00000000000E+00 -0.45593999997E+02  0.45594000000E+02  0.51100000000E-03 0.  1.
    9900012    2    1    2    0    0 -0.30996071377E+01 -0.15924504339E+02  0.37282285403E+02  0.50528853332E+02  0.29999980188E+02 0.  0.
        -12    1    1    2    0    0  0.30996071377E+01  0.15924504339E+02 -0.37282285403E+02  0.40659146668E+02  0.00000000000E+00 0.  1.
         11    1    3    3    0    0  0.79188999524E+00 -0.13829771093E+01  0.17453262876E+02  0.17525869472E+02  0.51100000000E-03 0. -1.
        -11    1    3    3    0    0 -0.50153479482E+01 -0.80519347585E+00 -0.33153693328E+01  0.60657831851E+01  0.51100000000E-03 0.  1.
        -12    1    3    3    0    0  0.11238508152E+01 -0.13736333754E+02  0.23144391860E+02  0.26937200675E+02  0.00000000000E+00 0.  1.
</event>
<event>
 7    1  0.6889665E-012  0.5052886E+02  0.7816164E-02  0.1300439E+00
        -11   -1    0    0    0    0  0.00000000000E+00  0.00000000000E+00  0.45593999997E+02  0.45594000000E+02  0.51100000000E-03 0. -1.
         11   -1    0    0    0    0 -0.00000000000E+00 -0.00000000000E+00 -0.45593999997E+02  0.45594000000E+02  0.51100000000E-03 0.  1.
    9900012    2    1    2    0    0  0.34957915201E+02  0.49797888241E+01  0.20157173168E+02  0.50528858813E+02  0.29999996847E+02 0.  0.
        -12    1    1    2    0    0 -0.34957915201E+02 -0.49797888241E+01 -0.20157173168E+02  0.40659141187E+02  0.00000000000E+00 0.  1.
         11    1    3    3    0    0  0.15200099319E+02  0.15664407705E+02  0.13980780218E+02  0.25920626995E+02  0.51100000000E-03 0. -1.
        -11    1    3    3    0    0  0.39562840796E+01 -0.45233372608E+01 -0.11751924907E+01  0.61232214842E+01  0.51100000000E-03 0.  1.
         12    1    3    3    0    0  0.15801531803E+02 -0.61612816203E+01  0.73515854409E+01  0.18485010333E+02  0.00000000000E+00 0. -1.
</event>
<event>
 7    1  0.6889665E-012  0.5052886E+02  0.7816164E-02  0.1300439E+00
        -11   -1    0    0    0    0  0.00000000000E+00  0.00000000000E+00  0.45593999997E+02  0.45594000000E+02  0.51100000000E-03 0.  1.
         11   -1    0    0    0    0 -0.00000000000E+00 -0.00000000000E+00 -0.45593999997E+02  0.45594000000E+02  0.51100000000E-03 0. -1.
    9900012    2    1    2    0    0 -0.71247246133E+01  0.19065662310E+02 -0.35198078606E+02  0.50528856900E+02  0.29999991032E+02 0.  0.
         12    1    1    2    0    0  0.71247246133E+01 -0.19065662310E+02  0.35198078606E+02  0.40659143100E+02  0.00000000000E+00 0. -1.
         11    1    3    3    0    0 -0.57252335875E+01 -0.26762269324E+01 -0.25517448808E+02  0.26288413497E+02  0.51100000000E-03 0. -1.
        -11    1    3    3    0    0 -0.78649798435E+00  0.17303558571E+02 -0.95017984071E+01  0.19756413934E+02  0.51100000000E-03 0.  1.
         12    1    3    3    0    0 -0.61299304138E+00  0.44383306710E+01 -0.17883139053E+00  0.44840294692E+01  0.00000000000E+00 0. -1.
</event>
<event>
 7    1  0.6889665E-012  0.5052886E+02  0.7816164E-02  0.1300439E+00
        -11   -1    0    0    0    0  0.00000000000E+00  0.00000000000E+00  0.45593999997E+02  0.45594000000E+02  0.51100000000E-03 0. -1.
         11   -1    0    0    0    0 -0.00000000000E+00 -0.00000000000E+00 -0.45593999997E+02  0.45594000000E+02  0.51100000000E-03 0.  1.
    9900012    2    1    2    0    0  0.98321307589E+01 -0.33045124481E+02 -0.21552605284E+02  0.50528857834E+02  0.29999993871E+02 0.  0.
         12    1    1    2    0    0 -0.98321307589E+01  0.33045124481E+02  0.21552605284E+02  0.40659142166E+02  0.00000000000E+00 0. -1.
         11    1    3    3    0    0  0.84719589700E+01 -0.33871955062E+02 -0.77050367704E+01  0.35755433439E+02  0.51100000000E-03 0. -1.
        -11    1    3    3    0    0  0.10179587402E+01  0.28558373264E+01 -0.71315842922E+01  0.77492929748E+01  0.51100000000E-03 0.  1.
        -12    1    3    3    0    0  0.34221304867E+00 -0.20290067449E+01 -0.67159842213E+01  0.70241314197E+01  0.00000000000E+00 0.  1.
</event>
<event>
 7    1  0.6889665E-012  0.5052889E+02  0.7816164E-02  0.1300439E+00
        -11   -1    0    0    0    0  0.00000000000E+00  0.00000000000E+00  0.45593999997E+02  0.45594000000E+02  0.51100000000E-03 0. -1.
         11   -1    0    0    0    0 -0.00000000000E+00 -0.00000000000E+00 -0.45593999997E+02  0.45594000000E+02  0.51100000000E-03 0.  1.
    9900012    2    1    2    0    0 -0.10627087973E+02  0.25613099400E+01  0.39162076416E+02  0.50528886180E+02  0.30000080032E+02 0.  0.
        -12    1    1    2    0    0  0.10627087973E+02 -0.25613099400E+01 -0.39162076416E+02  0.40659113820E+02  0.00000000000E+00 0.  1.
         11    1    3    3    0    0 -0.19525641521E+02  0.34938625899E+01  0.15946405708E+02  0.25450846899E+02  0.51100000000E-03 0. -1.
        -11    1    3    3    0    0  0.57644783134E+01 -0.19681174870E+01  0.16653435719E+02  0.17732445353E+02  0.51100000000E-03 0.  1.
         12    1    3    3    0    0  0.31340752343E+01  0.10355648371E+01  0.65622349888E+01  0.73455939280E+01  0.00000000000E+00 0. -1.
</event>
<event>
 7    1  0.6889665E-012  0.5052888E+02  0.7816164E-02  0.1300439E+00
        -11   -1    0    0    0    0  0.00000000000E+00  0.00000000000E+00  0.45593999997E+02  0.45594000000E+02  0.51100000000E-03 0. -1.
         11   -1    0    0    0    0 -0.00000000000E+00 -0.00000000000E+00 -0.45593999997E+02  0.45594000000E+02  0.51100000000E-03 0.  1.
    9900012    2    1    2    0    0 -0.26783082610E+02 -0.26360674554E+02 -0.15522426947E+02  0.50528875374E+02  0.30000047188E+02 0.  0.
         12    1    1    2    0    0  0.26783082610E+02  0.26360674554E+02  0.15522426947E+02  0.40659124626E+02  0.00000000000E+00 0. -1.
         11    1    3    3    0    0  0.35824416069E+01 -0.54113118469E+01  0.16566032373E+01  0.66977995132E+01  0.51100000000E-03 0. -1.
        -11    1    3    3    0    0 -0.21918405635E+02 -0.65107144514E+01 -0.13979240584E+02  0.26799721562E+02  0.51100000000E-03 0.  1.
        -12    1    3    3    0    0 -0.84471185817E+01 -0.14438648255E+02 -0.31997895998E+01  0.17031354299E+02  0.00000000000E+00 0.  1.
</event>
<event>
 7    1  0.6889665E-012  0.5052886E+02  0.7816164E-02  0.1300439E+00
        -11   -1    0    0    0    0  0.00000000000E+00  0.00000000000E+00  0.45593999997E+02  0.45594000000E+02  0.51100000000E-03 0. -1.
         11   -1    0    0    0    0 -0.00000000000E+00 -0.00000000000E+00 -0.45593999997E+02  0.45594000000E+02  0.51100000000E-03 0.  1.
    9900012    2    1    2    0    0 -0.29733289586E+01  0.44028244119E+01 -0.40310544029E+02  0.50528861940E+02  0.30000006352E+02 0.  0.
         12    1    1    2    0    0  0.29733289586E+01 -0.44028244119E+01  0.40310544029E+02  0.40659138060E+02  0.00000000000E+00 0. -1.
         11    1    3    3    0    0 -0.60964471679E+01  0.93662799367E+01 -0.37375576736E+01  0.11784023318E+02  0.51100000000E-03 0. -1.
        -11    1    3    3    0    0  0.36051569988E+00 -0.48543541418E+01 -0.35414019202E+02  0.35746992629E+02  0.51100000000E-03 0.  1.
         12    1    3    3    0    0  0.27626025094E+01 -0.10910138308E+00 -0.11589671535E+01  0.29978459933E+01  0.00000000000E+00 0. -1.
</event>
<event>
 7    1  0.6889665E-012  0.5052887E+02  0.7816164E-02  0.1300439E+00
        -11   -1    0    0    0    0  0.00000000000E+00  0.00000000000E+00  0.45593999997E+02  0.45594000000E+02  0.51100000000E-03 0. -1.
         11   -1    0    0    0    0 -0.00000000000E+00 -0.00000000000E+00 -0.45593999997E+02  0.45594000000E+02  0.51100000000E-03 0.  1.
    9900012    2    1    2    0    0  0.29985325254E+02  0.30842422078E+01  0.27286127299E+02  0.50528867895E+02  0.30000024452E+02 0.  0.
        -12    1    1    2    0    0 -0.29985325254E+02 -0.30842422078E+01 -0.27286127299E+02  0.40659132105E+02  0.00000000000E+00 0.  1.
         11    1    3    3    0    0  0.81599271273E+01 -0.97044680101E+01  0.93411561259E+00  0.12713523600E+02  0.51100000000E-03 0. -1.
        -11    1    3    3    0    0  0.32836402924E+01  0.59874674589E+01  0.10333938655E+02  0.12386377538E+02  0.51100000000E-03 0.  1.
         12    1    3    3    0    0  0.18541757834E+02  0.68012427590E+01  0.16018073032E+02  0.25428966757E+02  0.00000000000E+00 0. -1.
</event>
<event>
 7    1  0.6889665E-012  0.5052886E+02  0.7816164E-02  0.1300439E+00
        -11   -1    0    0    0    0  0.00000000000E+00  0.00000000000E+00  0.45593999997E+02  0.45594000000E+02  0.51100000000E-03 0. -1.
         11   -1    0    0    0    0 -0.00000000000E+00 -0.00000000000E+00 -0.45593999997E+02  0.45594000000E+02  0.51100000000E-03 0.  1.
    9900012    2    1    2    0    0 -0.89984744640E+00  0.68117291886E+01  0.40074389434E+02  0.50528855045E+02  0.29999985395E+02 0.  0.
        -12    1    1    2    0    0  0.89984744640E+00 -0.68117291886E+01 -0.40074389434E+02  0.40659144955E+02  0.00000000000E+00 0.  1.
         11    1    3    3    0    0  0.10435441279E+01  0.64204610240E+01  0.30592872788E+02  0.31276751267E+02  0.51100000000E-03 0. -1.
        -11    1    3    3    0    0  0.31550551981E+01 -0.19656775766E+01 -0.35011323799E+01  0.51064850769E+01  0.51100000000E-03 0.  1.
        -12    1    3    3    0    0 -0.50984467724E+01  0.23569457412E+01  0.12982649026E+02  0.14145618701E+02  0.00000000000E+00 0.  1.
</event>
<event>
 7    1  0.6889665E-012  0.5052886E+02  0.7816164E-02  0.1300439E+00
        -11   -1    0    0    0    0  0.00000000000E+00  0.00000000000E+00  0.45593999997E+02  0.45594000000E+02  0.51100000000E-03 0. -1.
         11   -1    0    0    0    0 -0.00000000000E+00 -0.00000000000E+00 -0.45593999997E+02  0.45594000000E+02  0.51100000000E-03 0.  1.
    9900012    2    1    2    0    0 -0.18264200239E+02 -0.14340316658E+02  0.33375743318E+02  0.50528856695E+02  0.29999990411E+02 0.  0.
        -12    1    1    2    0    0  0.18264200239E+02  0.14340316658E+02 -0.33375743318E+02  0.40659143305E+02  0.00000000000E+00 0.  1.
         11    1    3    3    0    0 -0.77871726516E+01 -0.21912535639E+02  0.20884812566E+02  0.31256594060E+02  0.51100000000E-03 0. -1.
        -11    1    3    3    0    0 -0.30018523211E+01  0.44228058598E+01  0.13891971989E+01  0.55228795161E+01  0.51100000000E-03 0.  1.
         12    1    3    3    0    0 -0.74751752664E+01  0.31494131212E+01  0.11101733553E+02  0.13749383119E+02  0.00000000000E+00 0. -1.
</event>
<event>
 7    1  0.6889665E-012  0.5052887E+02  0.7816164E-02  0.1300439E+00
        -11   -1    0    0    0    0  0.00000000000E+00  0.00000000000E+00  0.45593999997E+02  0.45594000000E+02  0.51100000000E-03 0. -1.
         11   -1    0    0    0    0 -0.00000000000E+00 -0.00000000000E+00 -0.45593999997E+02  0.45594000000E+02  0.51100000000E-03 0.  1.
    9900012    2    1    2    0    0 -0.10582990125E+01  0.92452015541E+01 -0.39579935716E+02  0.50528867448E+02  0.30000023095E+02 0.  0.
         12    1    1    2    0    0  0.10582990125E+01 -0.92452015541E+01  0.39579935716E+02  0.40659132552E+02  0.00000000000E+00 0. -1.
         11    1    3    3    0    0 -0.31931983915E+01  0.11514790680E+02 -0.36554232969E+02  0.38457754336E+02  0.51100000000E-03 0. -1.
        -11    1    3    3    0    0 -0.16960554989E+01  0.32082597086E+01 -0.39027803824E+01  0.53292804005E+01  0.51100000000E-03 0.  1.
         12    1    3    3    0    0  0.38309548778E+01 -0.54778488348E+01  0.87707763455E+00  0.67418327115E+01  0.00000000000E+00 0. -1.
</event>
<event>
 7    1  0.6889665E-012  0.5052886E+02  0.7816164E-02  0.1300439E+00
        -11   -1    0    0    0    0  0.00000000000E+00  0.00000000000E+00  0.45593999997E+02  0.45594000000E+02  0.51100000000E-03 0. -1.
         11   -1    0    0    0    0 -0.00000000000E+00 -0.00000000000E+00 -0.45593999997E+02  0.45594000000E+02  0.51100000000E-03 0.  1.
    9900012    2    1    2    0    0 -0.32438373301E+02  0.16843571552E+02 -0.17810435576E+02  0.50528861046E+02  0.30000003636E+02 0.  0.
         12    1    1    2    0    0  0.32438373301E+02 -0.16843571552E+02  0.17810435576E+02  0.40659138954E+02  0.00000000000E+00 0. -1.
         11    1    3    3    0    0 -0.21396858832E+02 -0.34095317613E+01 -0.10599581657E+02  0.24120563971E+02  0.51100000000E-03 0. -1.
        -11    1    3    3    0    0 -0.59786643592E+01  0.12542000567E+02 -0.95893232515E+01  0.16881982302E+02  0.51100000000E-03 0.  1.
         12    1    3    3    0    0 -0.50628501092E+01  0.77111027462E+01  0.23784693327E+01  0.95263147732E+01  0.00000000000E+00 0. -1.
</event>
<event>
 7    1  0.6889665E-012  0.5052887E+02  0.7816164E-02  0.1300439E+00
        -11   -1    0    0    0    0  0.00000000000E+00  0.00000000000E+00  0.45593999997E+02  0.45594000000E+02  0.51100000000E-03 0. -1.
         11   -1    0    0    0    0 -0.00000000000E+00 -0.00000000000E+00 -0.45593999997E+02  0.45594000000E+02  0.51100000000E-03 0.  1.
    9900012    2    1    2    0    0 -0.39793270502E+01 -0.26803211860E+02  0.30313660059E+02  0.50528865774E+02  0.30000018007E+02 0.  0.
        -12    1    1    2    0    0  0.39793270502E+01  0.26803211860E+02 -0.30313660059E+02  0.40659134226E+02  0.00000000000E+00 0.  1.
         11    1    3    3    0    0 -0.27643697776E+01 -0.24570406082E+02  0.21277529321E+02  0.32620236811E+02  0.51100000000E-03 0. -1.
        -11    1    3    3    0    0 -0.79964445860E+01 -0.22975233153E+01  0.30454790859E+01  0.88598353554E+01  0.51100000000E-03 0.  1.
        -12    1    3    3    0    0  0.67814873135E+01  0.64717536914E-01  0.59906516524E+01  0.90487936082E+01  0.00000000000E+00 0.  1.
</event>
<event>
 7    1  0.6889665E-012  0.5052887E+02  0.7816164E-02  0.1300439E+00
        -11   -1    0    0    0    0  0.00000000000E+00  0.00000000000E+00  0.45593999997E+02  0.45594000000E+02  0.51100000000E-03 0. -1.
         11   -1    0    0    0    0 -0.00000000000E+00 -0.00000000000E+00 -0.45593999997E+02  0.45594000000E+02  0.51100000000E-03 0.  1.
    9900012    2    1    2    0    0 -0.35609411754E+01 -0.10269560595E+02  0.39179343661E+02  0.50528866382E+02  0.30000019855E+02 0.  0.
        -12    1    1    2    0    0  0.35609411754E+01  0.10269560595E+02 -0.39179343661E+02  0.40659133618E+02  0.00000000000E+00 0.  1.
         11    1    3    3    0    0  0.13487961044E+01 -0.31017561247E+01  0.37316325362E+02  0.37469297842E+02  0.51100000000E-03 0. -1.
        -11    1    3    3    0    0 -0.66745830838E+01 -0.81133255139E+01  0.27647612312E+01  0.10863701725E+02  0.51100000000E-03 0.  1.
         12    1    3    3    0    0  0.17648458040E+01  0.94552104324E+00 -0.90174293235E+00  0.21958668154E+01  0.00000000000E+00 0. -1.
</event>
<event>
 7    1  0.6889665E-012  0.5052887E+02  0.7816164E-02  0.1300439E+00
        -11   -1    0    0    0    0  0.00000000000E+00  0.00000000000E+00  0.45593999997E+02  0.45594000000E+02  0.51100000000E-03 0. -1.
         11   -1    0    0    0    0 -0.00000000000E+00 -0.00000000000E+00 -0.45593999997E+02  0.45594000000E+02  0.51100000000E-03 0.  1.
    9900012    2    1    2    0    0 -0.24238235401E+02 -0.21996574213E+02  0.24121016089E+02  0.50528871263E+02  0.30000034691E+02 0.  0.
        -12    1    1    2    0    0  0.24238235401E+02  0.21996574213E+02 -0.24121016089E+02  0.40659128737E+02  0.00000000000E+00 0.  1.
         11    1    3    3    0    0 -0.23631464475E+02 -0.24771672951E+02  0.24744592046E+02  0.42241883597E+02  0.51100000000E-03 0. -1.
        -11    1    3    3    0    0  0.42081922373E+00 -0.24904428588E+01  0.94621013170E+00  0.26971667221E+01  0.51100000000E-03 0.  1.
         12    1    3    3    0    0 -0.10275901494E+01  0.52655415971E+01 -0.15697860879E+01  0.55898209441E+01  0.00000000000E+00 0. -1.
</event>
<event>
 7    1  0.6889665E-012  0.5052885E+02  0.7816164E-02  0.1300439E+00
        -11   -1    0    0    0    0  0.00000000000E+00  0.00000000000E+00  0.45593999997E+02  0.45594000000E+02  0.51100000000E-03 0. -1.
         11   -1    0    0    0    0 -0.00000000000E+00 -0.00000000000E+00 -0.45593999997E+02  0.45594000000E+02  0.51100000000E-03 0.  1.
    9900012    2    1    2    0    0 -0.21598869992E+02  0.19486099057E+02 -0.28406815235E+02  0.50528851052E+02  0.29999973259E+02 0.  0.
         12    1    1    2    0    0  0.21598869992E+02 -0.19486099057E+02  0.28406815235E+02  0.40659148948E+02  0.00000000000E+00 0. -1.
         11    1    3    3    0    0 -0.86625055363E+01  0.12766034911E+02 -0.85586480445E+01  0.17642593521E+02  0.51100000000E-03 0. -1.
        -11    1    3    3    0    0 -0.11500508393E+02 -0.51215283800E+01 -0.15986402560E+02  0.20348386013E+02  0.51100000000E-03 0.  1.
        -12    1    3    3    0    0 -0.14358560621E+01  0.11841592525E+02 -0.38617646298E+01  0.12537871519E+02  0.00000000000E+00 0.  1.
</event>
<event>
 7    1  0.6889665E-012  0.5052885E+02  0.7816164E-02  0.1300439E+00
        -11   -1    0    0    0    0  0.00000000000E+00  0.00000000000E+00  0.45593999997E+02  0.45594000000E+02  0.51100000000E-03 0. -1.
         11   -1    0    0    0    0 -0.00000000000E+00 -0.00000000000E+00 -0.45593999997E+02  0.45594000000E+02  0.51100000000E-03 0.  1.
    9900012    2    1    2    0    0 -0.73980439590E+01  0.33844951704E+01  0.39836930101E+02  0.50528845289E+02  0.29999955739E+02 0.  0.
        -12    1    1    2    0    0  0.73980439590E+01 -0.33844951704E+01 -0.39836930101E+02  0.40659154711E+02  0.00000000000E+00 0.  1.
         11    1    3    3    0    0 -0.92783219277E+01  0.61633695821E+01  0.30206153379E+02  0.32194503950E+02  0.51100000000E-03 0. -1.
        -11    1    3    3    0    0  0.12399364993E+01  0.53858216643E+01 -0.21097317769E+00  0.55307348033E+01  0.51100000000E-03 0.  1.
        -12    1    3    3    0    0  0.64034146942E+00 -0.81646960759E+01  0.98417499002E+01  0.12803606535E+02  0.00000000000E+00 0.  1.
</event>
<event>
 7    1  0.9325558E-012  0.5052886E+02  0.7816164E-02  0.1300439E+00
        -11   -1    0    0    0    0  0.00000000000E+00  0.00000000000E+00  0.45593999997E+02  0.45594000000E+02  0.51100000000E-03 0. -1.
         11   -1    0    0    0    0 -0.00000000000E+00 -0.00000000000E+00 -0.45593999997E+02  0.45594000000E+02  0.51100000000E-03 0.  1.
    9900012    2    1    2    0    0  0.88652215211E+01  0.97415123490E+00  0.39668937665E+02  0.50528859100E+02  0.29999997721E+02 0.  0.
        -12    1    1    2    0    0 -0.88652215211E+01 -0.97415123490E+00 -0.39668937665E+02  0.40659140900E+02  0.00000000000E+00 0.  1.
         11    1    3    3    0    0  0.18351895041E+01  0.15980972086E+01  0.31668097966E+02  0.31761458787E+02  0.51100000000E-03 0. -1.
        -11    1    3    3    0    0 -0.38028142877E+01 -0.17245042722E+01 -0.13773540082E+01  0.43968643164E+01  0.51100000000E-03 0.  1.
         12    1    3    3    0    0  0.10832846305E+02  0.11005582985E+01  0.93781937067E+01  0.14370535997E+02  0.00000000000E+00 0. -1.
</event>
<event>
 7    1  0.6889665E-012  0.5052886E+02  0.7816164E-02  0.1300439E+00
        -11   -1    0    0    0    0  0.00000000000E+00  0.00000000000E+00  0.45593999997E+02  0.45594000000E+02  0.51100000000E-03 0. -1.
         11   -1    0    0    0    0 -0.00000000000E+00 -0.00000000000E+00 -0.45593999997E+02  0.45594000000E+02  0.51100000000E-03 0.  1.
    9900012    2    1    2    0    0  0.24834749206E+02 -0.23532061393E+02 -0.21969135266E+02  0.50528860980E+02  0.30000003435E+02 0.  0.
         12    1    1    2    0    0 -0.24834749206E+02  0.23532061393E+02  0.21969135266E+02  0.40659139020E+02  0.00000000000E+00 0. -1.
         11    1    3    3    0    0  0.11525573268E+02 -0.13694373422E+02 -0.28823018052E+01  0.18129599183E+02  0.51100000000E-03 0.  1.
        -11    1    3    3    0    0  0.11264175628E+01 -0.45793143939E+01 -0.18527602645E+02  0.19118341897E+02  0.51100000000E-03 0. -1.
         12    1    3    3    0    0  0.12182758375E+02 -0.52583735773E+01 -0.55923081511E+00  0.13280919900E+02  0.00000000000E+00 0. -1.
</event>
<event>
 7    1  0.6889665E-012  0.5052887E+02  0.7816164E-02  0.1300439E+00
        -11   -1    0    0    0    0  0.00000000000E+00  0.00000000000E+00  0.45593999997E+02  0.45594000000E+02  0.51100000000E-03 0.  1.
         11   -1    0    0    0    0 -0.00000000000E+00 -0.00000000000E+00 -0.45593999997E+02  0.45594000000E+02  0.51100000000E-03 0. -1.
    9900012    2    1    2    0    0 -0.37688018552E+02  0.11512585911E+02  0.10011936304E+02  0.50528865168E+02  0.30000016163E+02 0.  0.
         12    1    1    2    0    0  0.37688018552E+02 -0.11512585911E+02 -0.10011936304E+02  0.40659134832E+02  0.00000000000E+00 0. -1.
         11    1    3    3    0    0 -0.19987093246E+02  0.18468831136E+02  0.15149977915E+01  0.27255767069E+02  0.51100000000E-03 0. -1.
        -11    1    3    3    0    0 -0.17893019663E+02 -0.58246786455E+01  0.48249911722E+01  0.19425951046E+02  0.51100000000E-03 0.  1.
         12    1    3    3    0    0  0.19209435683E+00 -0.11315665796E+01  0.36719473407E+01  0.38471470519E+01  0.00000000000E+00 0. -1.
</event>
<event>
 7    1  0.6889665E-012  0.5052886E+02  0.7816164E-02  0.1300439E+00
        -11   -1    0    0    0    0  0.00000000000E+00  0.00000000000E+00  0.45593999997E+02  0.45594000000E+02  0.51100000000E-03 0. -1.
         11   -1    0    0    0    0 -0.00000000000E+00 -0.00000000000E+00 -0.45593999997E+02  0.45594000000E+02  0.51100000000E-03 0.  1.
    9900012    2    1    2    0    0 -0.43395126970E+01  0.29155068194E+02 -0.28005642893E+02  0.50528863196E+02  0.30000010169E+02 0.  0.
         12    1    1    2    0    0  0.43395126970E+01 -0.29155068194E+02  0.28005642893E+02  0.40659136804E+02  0.00000000000E+00 0. -1.
         11    1    3    3    0    0  0.36911983789E+01  0.16671989092E+02 -0.10753735289E+02  0.20179766815E+02  0.51100000000E-03 0. -1.
        -11    1    3    3    0    0 -0.33574094442E+01 -0.30956099257E+01 -0.12645484929E+02  0.13444823849E+02  0.51100000000E-03 0.  1.
        -12    1    3    3    0    0 -0.46733016318E+01  0.15578689028E+02 -0.46064226740E+01  0.16904272532E+02  0.00000000000E+00 0.  1.
</event>
<event>
 7    1  0.6889665E-012  0.5052885E+02  0.7816164E-02  0.1300439E+00
        -11   -1    0    0    0    0  0.00000000000E+00  0.00000000000E+00  0.45593999997E+02  0.45594000000E+02  0.51100000000E-03 0. -1.
         11   -1    0    0    0    0 -0.00000000000E+00 -0.00000000000E+00 -0.45593999997E+02  0.45594000000E+02  0.51100000000E-03 0.  1.
    9900012    2    1    2    0    0 -0.26338607001E+02 -0.96955098627E+01 -0.29418383724E+02  0.50528850585E+02  0.29999971838E+02 0.  0.
         12    1    1    2    0    0  0.26338607001E+02  0.96955098627E+01  0.29418383724E+02  0.40659149415E+02  0.00000000000E+00 0. -1.
         11    1    3    3    0    0 -0.47994049277E+01  0.42933756247E+01  0.17811956264E+01  0.66813187348E+01  0.51100000000E-03 0. -1.
        -11    1    3    3    0    0 -0.12364179292E+02 -0.14116950680E+02 -0.11226934797E+02  0.21867905507E+02  0.51100000000E-03 0.  1.
        -12    1    3    3    0    0 -0.91750227809E+01  0.12806519248E+00 -0.19972644554E+02  0.21979626343E+02  0.00000000000E+00 0.  1.
</event>
<event>
 7    1  0.6889665E-012  0.5052884E+02  0.7816164E-02  0.1300439E+00
        -11   -1    0    0    0    0  0.00000000000E+00  0.00000000000E+00  0.45593999997E+02  0.45594000000E+02  0.51100000000E-03 0. -1.
         11   -1    0    0    0    0 -0.00000000000E+00 -0.00000000000E+00 -0.45593999997E+02  0.45594000000E+02  0.51100000000E-03 0.  1.
    9900012    2    1    2    0    0  0.14033739463E+02  0.33914310064E+02 -0.17494028256E+02  0.50528839961E+02  0.29999939546E+02 0.  0.
         12    1    1    2    0    0 -0.14033739463E+02 -0.33914310064E+02  0.17494028256E+02  0.40659160039E+02  0.00000000000E+00 0. -1.
         11    1    3    3    0    0 -0.52744855395E+01  0.79023874545E+01 -0.20811985041E+01  0.97262177984E+01  0.51100000000E-03 0. -1.
        -11    1    3    3    0    0  0.17143256813E+02  0.25982889116E+02 -0.67222068475E+01  0.31846347454E+02  0.51100000000E-03 0.  1.
        -12    1    3    3    0    0  0.21649681897E+01  0.29033493833E-01 -0.86906229040E+01  0.89562747091E+01  0.00000000000E+00 0.  1.
</event>
<event>
 7    1  0.6889665E-012  0.5052886E+02  0.7816164E-02  0.1300439E+00
        -11   -1    0    0    0    0  0.00000000000E+00  0.00000000000E+00  0.45593999997E+02  0.45594000000E+02  0.51100000000E-03 0. -1.
         11   -1    0    0    0    0 -0.00000000000E+00 -0.00000000000E+00 -0.45593999997E+02  0.45594000000E+02  0.51100000000E-03 0.  1.
    9900012    2    1    2    0    0  0.18031344583E+02 -0.20119072418E+01  0.36386648610E+02  0.50528863816E+02  0.30000012054E+02 0.  0.
        -12    1    1    2    0    0 -0.18031344583E+02  0.20119072418E+01 -0.36386648610E+02  0.40659136184E+02  0.00000000000E+00 0.  1.
         11    1    3    3    0    0  0.30220610728E+01  0.21529015955E+01  0.17520985962E+02  0.17909572517E+02  0.51100000000E-03 0. -1.
        -11    1    3    3    0    0  0.19589714946E+02 -0.58171915012E+01  0.10587104357E+02  0.23014852326E+02  0.51100000000E-03 0.  1.
        -12    1    3    3    0    0 -0.45804314367E+01  0.16523826639E+01  0.82785582906E+01  0.96044389730E+01  0.00000000000E+00 0.  1.
</event>
<event>
 7    1  0.6889665E-012  0.5052887E+02  0.7816164E-02  0.1300439E+00
        -11   -1    0    0    0    0  0.00000000000E+00  0.00000000000E+00  0.45593999997E+02  0.45594000000E+02  0.51100000000E-03 0. -1.
         11   -1    0    0    0    0 -0.00000000000E+00 -0.00000000000E+00 -0.45593999997E+02  0.45594000000E+02  0.51100000000E-03 0.  1.
    9900012    2    1    2    0    0  0.26264862845E+01 -0.15270310803E+02  0.37591011289E+02  0.50528868776E+02  0.30000027130E+02 0.  0.
        -12    1    1    2    0    0 -0.26264862845E+01  0.15270310803E+02 -0.37591011289E+02  0.40659131224E+02  0.00000000000E+00 0.  1.
         11    1    3    3    0    0  0.10114567660E+02 -0.50621907182E+01  0.14099641117E+02  0.18075677960E+02  0.51100000000E-03 0. -1.
        -11    1    3    3    0    0 -0.99934392698E+01 -0.50584551877E+01  0.24215846030E+02  0.26680779534E+02  0.51100000000E-03 0.  1.
        -12    1    3    3    0    0  0.25053578939E+01 -0.51496648972E+01 -0.72447585907E+00  0.57724112813E+01  0.00000000000E+00 0.  1.
</event>
<event>
 7    1  0.6889665E-012  0.5052886E+02  0.7816164E-02  0.1300439E+00
        -11   -1    0    0    0    0  0.00000000000E+00  0.00000000000E+00  0.45593999997E+02  0.45594000000E+02  0.51100000000E-03 0.  1.
         11   -1    0    0    0    0 -0.00000000000E+00 -0.00000000000E+00 -0.45593999997E+02  0.45594000000E+02  0.51100000000E-03 0. -1.
    9900012    2    1    2    0    0  0.34301909900E+02  0.16257435162E+02  0.14568482064E+02  0.50528857233E+02  0.29999992046E+02 0.  0.
        -12    1    1    2    0    0 -0.34301909900E+02 -0.16257435162E+02 -0.14568482064E+02  0.40659142767E+02  0.00000000000E+00 0.  1.
         11    1    3    3    0    0  0.30131014957E+02  0.10739699702E+02  0.98183985534E+01  0.33460725672E+02  0.51100000000E-03 0. -1.
        -11    1    3    3    0    0  0.39124811918E+01  0.77739170002E+01  0.88304966244E+01  0.12398345273E+02  0.51100000000E-03 0.  1.
         12    1    3    3    0    0  0.25841375119E+00 -0.22561815403E+01 -0.40804131135E+01  0.46697862892E+01  0.00000000000E+00 0. -1.
</event>
<event>
 7    1  0.6889665E-012  0.5052886E+02  0.7816164E-02  0.1300439E+00
        -11   -1    0    0    0    0  0.00000000000E+00  0.00000000000E+00  0.45593999997E+02  0.45594000000E+02  0.51100000000E-03 0. -1.
         11   -1    0    0    0    0 -0.00000000000E+00 -0.00000000000E+00 -0.45593999997E+02  0.45594000000E+02  0.51100000000E-03 0.  1.
    9900012    2    1    2    0    0  0.21035193354E+01 -0.53529334819E+01  0.40250308438E+02  0.50528855643E+02  0.29999987214E+02 0.  0.
        -12    1    1    2    0    0 -0.21035193354E+01  0.53529334819E+01 -0.40250308438E+02  0.40659144357E+02  0.00000000000E+00 0.  1.
         11    1    3    3    0    0 -0.84608537667E+01  0.41997074508E+01  0.25909625474E+02  0.27577749756E+02  0.51100000000E-03 0. -1.
        -11    1    3    3    0    0  0.75602042790E+01 -0.10487760420E+02  0.14930260615E+02  0.19749999738E+02  0.51100000000E-03 0.  1.
         12    1    3    3    0    0  0.30041688230E+01  0.93511948743E+00 -0.58957765089E+00  0.32011061494E+01  0.00000000000E+00 0. -1.
</event>
<event>
 7    1  0.6889665E-012  0.5052887E+02  0.7816164E-02  0.1300439E+00
        -11   -1    0    0    0    0  0.00000000000E+00  0.00000000000E+00  0.45593999997E+02  0.45594000000E+02  0.51100000000E-03 0. -1.
         11   -1    0    0    0    0 -0.00000000000E+00 -0.00000000000E+00 -0.45593999997E+02  0.45594000000E+02  0.51100000000E-03 0.  1.
    9900012    2    1    2    0    0  0.83651040409E+01 -0.58970151232E+01 -0.39349910015E+02  0.50528866079E+02  0.30000018934E+02 0.  0.
         12    1    1    2    0    0 -0.83651040409E+01  0.58970151232E+01  0.39349910015E+02  0.40659133921E+02  0.00000000000E+00 0. -1.
         11    1    3    3    0    0  0.10859970588E+02 -0.59365099312E+01 -0.16041703745E+01  0.12480163227E+02  0.51100000000E-03 0. -1.
        -11    1    3    3    0    0 -0.35503871646E+01  0.22091672985E-01 -0.32797022056E+02  0.32988640364E+02  0.51100000000E-03 0.  1.
        -12    1    3    3    0    0  0.10555206175E+01  0.17403135070E-01 -0.49487175852E+01  0.50600624879E+01  0.00000000000E+00 0.  1.
</event>
<event>
 7    1  0.6889665E-012  0.5052887E+02  0.7816164E-02  0.1300439E+00
        -11   -1    0    0    0    0  0.00000000000E+00  0.00000000000E+00  0.45593999997E+02  0.45594000000E+02  0.51100000000E-03 0. -1.
         11   -1    0    0    0    0 -0.00000000000E+00 -0.00000000000E+00 -0.45593999997E+02  0.45594000000E+02  0.51100000000E-03 0.  1.
    9900012    2    1    2    0    0  0.18497931552E+02  0.32627126896E+02 -0.15699112051E+02  0.50528868179E+02  0.30000025318E+02 0.  0.
         12    1    1    2    0    0 -0.18497931552E+02 -0.32627126896E+02  0.15699112051E+02  0.40659131821E+02  0.00000000000E+00 0. -1.
         11    1    3    3    0    0 -0.36784910463E+01  0.68826818321E+01 -0.10028035288E+02  0.12706852386E+02  0.51100000000E-03 0. -1.
        -11    1    3    3    0    0  0.20396923060E+02  0.18109716637E+02  0.13339246194E+01  0.27308893463E+02  0.51100000000E-03 0.  1.
         12    1    3    3    0    0  0.17794995387E+01  0.76347284270E+01 -0.70050013824E+01  0.10513122330E+02  0.00000000000E+00 0. -1.
</event>
<event>
 7    1  0.6889665E-012  0.5052886E+02  0.7816164E-02  0.1300439E+00
        -11   -1    0    0    0    0  0.00000000000E+00  0.00000000000E+00  0.45593999997E+02  0.45594000000E+02  0.51100000000E-03 0. -1.
         11   -1    0    0    0    0 -0.00000000000E+00 -0.00000000000E+00 -0.45593999997E+02  0.45594000000E+02  0.51100000000E-03 0.  1.
    9900012    2    1    2    0    0 -0.10208354974E+02 -0.16856605538E+02 -0.35564171464E+02  0.50528856459E+02  0.29999989693E+02 0.  0.
         12    1    1    2    0    0  0.10208354974E+02  0.16856605538E+02  0.35564171464E+02  0.40659143541E+02  0.00000000000E+00 0. -1.
         11    1    3    3    0    0 -0.14140088289E+02 -0.13762635031E+02 -0.78542868491E+01  0.21237750398E+02  0.51100000000E-03 0. -1.
        -11    1    3    3    0    0 -0.26510938271E+00 -0.44014756114E+01 -0.19349011594E+02  0.19845088069E+02  0.51100000000E-03 0.  1.
         12    1    3    3    0    0  0.41968426973E+01  0.13075051046E+01 -0.83608730207E+01  0.94460179913E+01  0.00000000000E+00 0. -1.
</event>
<event>
 7    1  0.6889665E-012  0.5052882E+02  0.7816164E-02  0.1300439E+00
        -11   -1    0    0    0    0  0.00000000000E+00  0.00000000000E+00  0.45593999997E+02  0.45594000000E+02  0.51100000000E-03 0. -1.
         11   -1    0    0    0    0 -0.00000000000E+00 -0.00000000000E+00 -0.45593999997E+02  0.45594000000E+02  0.51100000000E-03 0.  1.
    9900012    2    1    2    0    0  0.22108934735E+02  0.32467273423E+02  0.10499511359E+02  0.50528824191E+02  0.29999891611E+02 0.  0.
        -12    1    1    2    0    0 -0.22108934735E+02 -0.32467273423E+02 -0.10499511359E+02  0.40659175809E+02  0.00000000000E+00 0.  1.
         11    1    3    3    0    0  0.79681010247E+01  0.13428876138E+02  0.10796916782E+02  0.18984171315E+02  0.51100000000E-03 0. -1.
        -11    1    3    3    0    0  0.10844875021E+02  0.55397200547E+01 -0.90057695707E+01  0.15146078645E+02  0.51100000000E-03 0.  1.
        -12    1    3    3    0    0  0.32959586900E+01  0.13498677231E+02  0.87083641481E+01  0.16398574231E+02  0.00000000000E+00 0.  1.
</event>
<event>
 7    1  0.6889665E-012  0.5052887E+02  0.7816164E-02  0.1300439E+00
        -11   -1    0    0    0    0  0.00000000000E+00  0.00000000000E+00  0.45593999997E+02  0.45594000000E+02  0.51100000000E-03 0. -1.
         11   -1    0    0    0    0 -0.00000000000E+00 -0.00000000000E+00 -0.45593999997E+02  0.45594000000E+02  0.51100000000E-03 0.  1.
    9900012    2    1    2    0    0 -0.98510999695E+01  0.12672913180E+02 -0.37356636052E+02  0.50528866263E+02  0.30000019494E+02 0.  0.
         12    1    1    2    0    0  0.98510999695E+01 -0.12672913180E+02  0.37356636052E+02  0.40659133737E+02  0.00000000000E+00 0. -1.
         11    1    3    3    0    0  0.23951124557E+01 -0.20768260298E+01 -0.32796614706E+01  0.45613539280E+01  0.51100000000E-03 0. -1.
        -11    1    3    3    0    0 -0.71721423982E+01  0.48840726032E+01 -0.33772388546E+02  0.34869299106E+02  0.51100000000E-03 0.  1.
        -12    1    3    3    0    0 -0.50740700271E+01  0.98656666068E+01 -0.30458603559E+00  0.11098213230E+02  0.00000000000E+00 0.  1.
</event>
<event>
 7    1  0.6889665E-012  0.5052886E+02  0.7816164E-02  0.1300439E+00
        -11   -1    0    0    0    0  0.00000000000E+00  0.00000000000E+00  0.45593999997E+02  0.45594000000E+02  0.51100000000E-03 0. -1.
         11   -1    0    0    0    0 -0.00000000000E+00 -0.00000000000E+00 -0.45593999997E+02  0.45594000000E+02  0.51100000000E-03 0.  1.
    9900012    2    1    2    0    0  0.51976484320E+00 -0.16463810032E+02  0.37173089738E+02  0.50528858385E+02  0.29999995546E+02 0.  0.
        -12    1    1    2    0    0 -0.51976484320E+00  0.16463810032E+02 -0.37173089738E+02  0.40659141615E+02  0.00000000000E+00 0.  1.
         11    1    3    3    0    0 -0.59499161381E+01 -0.19448183413E+02  0.27867967225E+02  0.34500100545E+02  0.51100000000E-03 0. -1.
        -11    1    3    3    0    0  0.92926196375E+01  0.79743048180E+00  0.55801629051E+01  0.10868619664E+02  0.51100000000E-03 0.  1.
        -12    1    3    3    0    0 -0.28229386562E+01  0.21869428997E+01  0.37249596078E+01  0.51601381748E+01  0.00000000000E+00 0.  1.
</event>
<event>
 7    1  0.9273160E-012  0.5052883E+02  0.7816164E-02  0.1300439E+00
        -11   -1    0    0    0    0  0.00000000000E+00  0.00000000000E+00  0.45593999997E+02  0.45594000000E+02  0.51100000000E-03 0. -1.
         11   -1    0    0    0    0 -0.00000000000E+00 -0.00000000000E+00 -0.45593999997E+02  0.45594000000E+02  0.51100000000E-03 0.  1.
    9900012    2    1    2    0    0 -0.18751109501E+02 -0.30156124018E+01  0.35950942438E+02  0.50528827753E+02  0.29999902437E+02 0.  0.
        -12    1    1    2    0    0  0.18751109501E+02  0.30156124018E+01 -0.35950942438E+02  0.40659172247E+02  0.00000000000E+00 0.  1.
         11    1    3    3    0    0 -0.14999950628E+02 -0.10772054261E+02  0.22123875781E+02  0.28818423824E+02  0.51100000000E-03 0. -1.
        -11    1    3    3    0    0  0.76336861430E+00  0.19491018450E+01 -0.28192161232E+01  0.35113686013E+01  0.51100000000E-03 0.  1.
         12    1    3    3    0    0 -0.45145274872E+01  0.58073400138E+01  0.16646282780E+02  0.18199035328E+02  0.00000000000E+00 0. -1.
</event>
<event>
 7    1  0.6889665E-012  0.5052888E+02  0.7816164E-02  0.1300439E+00
        -11   -1    0    0    0    0  0.00000000000E+00  0.00000000000E+00  0.45593999997E+02  0.45594000000E+02  0.51100000000E-03 0. -1.
         11   -1    0    0    0    0 -0.00000000000E+00 -0.00000000000E+00 -0.45593999997E+02  0.45594000000E+02  0.51100000000E-03 0.  1.
    9900012    2    1    2    0    0 -0.18763768325E+02  0.57968928625E+01 -0.35601702285E+02  0.50528878339E+02  0.30000056200E+02 0.  0.
         12    1    1    2    0    0  0.18763768325E+02 -0.57968928625E+01  0.35601702285E+02  0.40659121661E+02  0.00000000000E+00 0. -1.
         11    1    3    3    0    0  0.16256064037E+01 -0.22343787194E+01 -0.79057591738E+00  0.28740311382E+01  0.51100000000E-03 0. -1.
        -11    1    3    3    0    0 -0.24816001014E+02  0.18581893871E+01 -0.25376377000E+02  0.35542190198E+02  0.51100000000E-03 0.  1.
        -12    1    3    3    0    0  0.44266262852E+01  0.61730821947E+01 -0.94347493677E+01  0.12112657003E+02  0.00000000000E+00 0.  1.
</event>
<event>
 7    1  0.6889665E-012  0.5052886E+02  0.7816164E-02  0.1300439E+00
        -11   -1    0    0    0    0  0.00000000000E+00  0.00000000000E+00  0.45593999997E+02  0.45594000000E+02  0.51100000000E-03 0.  1.
         11   -1    0    0    0    0 -0.00000000000E+00 -0.00000000000E+00 -0.45593999997E+02  0.45594000000E+02  0.51100000000E-03 0. -1.
    9900012    2    1    2    0    0 -0.13706828523E+02  0.37475763353E+02 -0.78010024207E+01  0.50528860489E+02  0.30000001942E+02 0.  0.
         12    1    1    2    0    0  0.13706828523E+02 -0.37475763353E+02  0.78010024207E+01  0.40659139511E+02  0.00000000000E+00 0. -1.
         11    1    3    3    0    0  0.66813790702E+01  0.76929009694E+01 -0.21003103644E+01  0.10403502078E+02  0.51100000000E-03 0. -1.
        -11    1    3    3    0    0 -0.19828546200E+02  0.31804684005E+02 -0.46129152946E+01  0.37762258365E+02  0.51100000000E-03 0.  1.
         12    1    3    3    0    0 -0.55966139324E+00 -0.20218216212E+01 -0.10877767616E+01  0.23631000457E+01  0.00000000000E+00 0. -1.
</event>
<event>
 7    1  0.6889665E-012  0.5052886E+02  0.7816164E-02  0.1300439E+00
        -11   -1    0    0    0    0  0.00000000000E+00  0.00000000000E+00  0.45593999997E+02  0.45594000000E+02  0.51100000000E-03 0. -1.
         11   -1    0    0    0    0 -0.00000000000E+00 -0.00000000000E+00 -0.45593999997E+02  0.45594000000E+02  0.51100000000E-03 0.  1.
    9900012    2    1    2    0    0 -0.19951000612E+02 -0.29749473994E+02 -0.19237775869E+02  0.50528860207E+02  0.30000001085E+02 0.  0.
         12    1    1    2    0    0  0.19951000612E+02  0.29749473994E+02  0.19237775869E+02  0.40659139793E+02  0.00000000000E+00 0. -1.
         11    1    3    3    0    0 -0.13502386444E+02 -0.27016580141E+01 -0.28742155981E+01  0.14066787525E+02  0.51100000000E-03 0. -1.
        -11    1    3    3    0    0  0.13697186905E+00 -0.88886461288E+01 -0.14563001786E+02  0.17061881859E+02  0.51100000000E-03 0.  1.
        -12    1    3    3    0    0 -0.65855860371E+01 -0.18159169851E+02 -0.18005584852E+01  0.19400190823E+02  0.00000000000E+00 0.  1.
</event>
<event>
 7    1  0.6889665E-012  0.5052887E+02  0.7816164E-02  0.1300439E+00
        -11   -1    0    0    0    0  0.00000000000E+00  0.00000000000E+00  0.45593999997E+02  0.45594000000E+02  0.51100000000E-03 0.  1.
         11   -1    0    0    0    0 -0.00000000000E+00 -0.00000000000E+00 -0.45593999997E+02  0.45594000000E+02  0.51100000000E-03 0. -1.
    9900012    2    1    2    0    0 -0.57649555147E+01 -0.38507292640E+02 -0.11709746367E+02  0.50528874843E+02  0.30000045573E+02 0.  0.
         12    1    1    2    0    0  0.57649555147E+01  0.38507292640E+02  0.11709746367E+02  0.40659125157E+02  0.00000000000E+00 0. -1.
         11    1    3    3    0    0 -0.81864261928E+01 -0.16233845510E+02 -0.40024672556E+01  0.18616526482E+02  0.51100000000E-03 0.  1.
        -11    1    3    3    0    0  0.38375265833E+00  0.40060296490E+01  0.10112833994E+01  0.41494859954E+01  0.51100000000E-03 0. -1.
        -12    1    3    3    0    0  0.20377180198E+01 -0.26279476779E+02 -0.87185625105E+01  0.27762862366E+02  0.00000000000E+00 0.  1.
</event>
<event>
 7    1  0.6889665E-012  0.5052883E+02  0.7816164E-02  0.1300439E+00
        -11   -1    0    0    0    0  0.00000000000E+00  0.00000000000E+00  0.45593999997E+02  0.45594000000E+02  0.51100000000E-03 0. -1.
         11   -1    0    0    0    0 -0.00000000000E+00 -0.00000000000E+00 -0.45593999997E+02  0.45594000000E+02  0.51100000000E-03 0.  1.
    9900012    2    1    2    0    0 -0.18917941684E+01  0.32967135673E+02  0.23722497122E+02  0.50528833883E+02  0.29999921070E+02 0.  0.
        -12    1    1    2    0    0  0.18917941684E+01 -0.32967135673E+02 -0.23722497122E+02  0.40659166117E+02  0.00000000000E+00 0.  1.
         11    1    3    3    0    0 -0.38194381299E+01  0.21956158074E+02  0.29015295319E+02  0.36586177003E+02  0.51100000000E-03 0. -1.
        -11    1    3    3    0    0  0.32411440133E+01  0.25400271658E+01 -0.29201750429E+01  0.50481853234E+01  0.51100000000E-03 0.  1.
         12    1    3    3    0    0 -0.13135000518E+01  0.84709504339E+01 -0.23726231543E+01  0.88944715566E+01  0.00000000000E+00 0. -1.
</event>
<event>
 7    1  0.6889665E-012  0.5052885E+02  0.7816164E-02  0.1300439E+00
        -11   -1    0    0    0    0  0.00000000000E+00  0.00000000000E+00  0.45593999997E+02  0.45594000000E+02  0.51100000000E-03 0. -1.
         11   -1    0    0    0    0 -0.00000000000E+00 -0.00000000000E+00 -0.45593999997E+02  0.45594000000E+02  0.51100000000E-03 0.  1.
    9900012    2    1    2    0    0  0.15754433583E+02  0.29271925656E+01  0.37368375859E+02  0.50528854065E+02  0.29999982416E+02 0.  0.
        -12    1    1    2    0    0 -0.15754433583E+02 -0.29271925656E+01 -0.37368375859E+02  0.40659145935E+02  0.00000000000E+00 0.  1.
         11    1    3    3    0    0 -0.35717154807E+01 -0.53289390663E+01  0.28073582475E+01  0.70025712162E+01  0.51100000000E-03 0. -1.
        -11    1    3    3    0    0  0.17063875517E+02  0.11208858337E+02  0.34145328832E+02  0.39783386409E+02  0.51100000000E-03 0.  1.
        -12    1    3    3    0    0  0.22622735464E+01 -0.29527267052E+01  0.41568877934E+00  0.37428964393E+01  0.00000000000E+00 0.  1.
</event>
<event>
 7    1  0.6889665E-012  0.5052886E+02  0.7816164E-02  0.1300439E+00
        -11   -1    0    0    0    0  0.00000000000E+00  0.00000000000E+00  0.45593999997E+02  0.45594000000E+02  0.51100000000E-03 0. -1.
         11   -1    0    0    0    0 -0.00000000000E+00 -0.00000000000E+00 -0.45593999997E+02  0.45594000000E+02  0.51100000000E-03 0.  1.
    9900012    2    1    2    0    0 -0.31080434354E+02  0.11222310246E+02 -0.23690337491E+02  0.50528859118E+02  0.29999997774E+02 0.  0.
         12    1    1    2    0    0  0.31080434354E+02 -0.11222310246E+02  0.23690337491E+02  0.40659140882E+02  0.00000000000E+00 0. -1.
         11    1    3    3    0    0 -0.98551978200E+01  0.10825614486E+02 -0.10371761091E+02  0.17941356734E+02  0.51100000000E-03 0. -1.
        -11    1    3    3    0    0 -0.17843748728E+02 -0.12623534038E+01  0.86803573120E+00  0.17909393934E+02  0.51100000000E-03 0.  1.
        -12    1    3    3    0    0 -0.33814878059E+01  0.16590491639E+01 -0.14186612131E+02  0.14678108450E+02  0.00000000000E+00 0.  1.
</event>
<event>
 7    1  0.6889665E-012  0.5052885E+02  0.7816164E-02  0.1300439E+00
        -11   -1    0    0    0    0  0.00000000000E+00  0.00000000000E+00  0.45593999997E+02  0.45594000000E+02  0.51100000000E-03 0. -1.
         11   -1    0    0    0    0 -0.00000000000E+00 -0.00000000000E+00 -0.45593999997E+02  0.45594000000E+02  0.51100000000E-03 0.  1.
    9900012    2    1    2    0    0 -0.23567597877E+02 -0.25484734688E+02 -0.21172222295E+02  0.50528851353E+02  0.29999974172E+02 0.  0.
         12    1    1    2    0    0  0.23567597877E+02  0.25484734688E+02  0.21172222295E+02  0.40659148647E+02  0.00000000000E+00 0. -1.
         11    1    3    3    0    0 -0.18975003121E+02 -0.26736355540E+02 -0.79211416627E+01  0.33728740512E+02  0.51100000000E-03 0. -1.
        -11    1    3    3    0    0 -0.25837476021E+01 -0.39412575265E+01 -0.68746205675E+01  0.83348467754E+01  0.51100000000E-03 0.  1.
         12    1    3    3    0    0 -0.20088471536E+01  0.51928783787E+01 -0.63764600645E+01  0.84652640654E+01  0.00000000000E+00 0. -1.
</event>
<event>
 7    1  0.6889665E-012  0.5052887E+02  0.7816164E-02  0.1300439E+00
        -11   -1    0    0    0    0  0.00000000000E+00  0.00000000000E+00  0.45593999997E+02  0.45594000000E+02  0.51100000000E-03 0. -1.
         11   -1    0    0    0    0 -0.00000000000E+00 -0.00000000000E+00 -0.45593999997E+02  0.45594000000E+02  0.51100000000E-03 0.  1.
    9900012    2    1    2    0    0  0.35043004363E+01  0.39602173677E+02 -0.85177722331E+01  0.50528871563E+02  0.30000035602E+02 0.  0.
         12    1    1    2    0    0 -0.35043004363E+01 -0.39602173677E+02  0.85177722331E+01  0.40659128437E+02  0.00000000000E+00 0. -1.
         11    1    3    3    0    0  0.11098671901E+02  0.59127201974E+01 -0.68983721279E+01  0.14343232424E+02  0.51100000000E-03 0. -1.
        -11    1    3    3    0    0  0.47533299387E+00  0.16257406144E+02  0.27254287198E+01  0.16491123611E+02  0.51100000000E-03 0.  1.
         12    1    3    3    0    0 -0.80697044585E+01  0.17432047335E+02 -0.43448288250E+01  0.19694515527E+02  0.00000000000E+00 0. -1.
</event>
<event>
 7    1  0.6889665E-012  0.5052886E+02  0.7816164E-02  0.1300439E+00
        -11   -1    0    0    0    0  0.00000000000E+00  0.00000000000E+00  0.45593999997E+02  0.45594000000E+02  0.51100000000E-03 0. -1.
         11   -1    0    0    0    0 -0.00000000000E+00 -0.00000000000E+00 -0.45593999997E+02  0.45594000000E+02  0.51100000000E-03 0.  1.
    9900012    2    1    2    0    0  0.54571905932E+01 -0.23421449959E+02 -0.32784456794E+02  0.50528857675E+02  0.29999993388E+02 0.  0.
         12    1    1    2    0    0 -0.54571905932E+01  0.23421449959E+02  0.32784456794E+02  0.40659142325E+02  0.00000000000E+00 0. -1.
         11    1    3    3    0    0 -0.30597294097E+01 -0.11042818803E+02 -0.18153001649E+02  0.21467120448E+02  0.51100000000E-03 0. -1.
        -11    1    3    3    0    0 -0.89634268497E+00 -0.63469729775E+01  0.38387316294E+01  0.74715029927E+01  0.51100000000E-03 0.  1.
        -12    1    3    3    0    0  0.94132626880E+01 -0.60316581783E+01 -0.18470186774E+02  0.21590234234E+02  0.00000000000E+00 0.  1.
</event>
<event>
 7    1  0.7793112E-012  0.5052886E+02  0.7816164E-02  0.1300439E+00
        -11   -1    0    0    0    0  0.00000000000E+00  0.00000000000E+00  0.45593999997E+02  0.45594000000E+02  0.51100000000E-03 0. -1.
         11   -1    0    0    0    0 -0.00000000000E+00 -0.00000000000E+00 -0.45593999997E+02  0.45594000000E+02  0.51100000000E-03 0.  1.
    9900012    2    1    2    0    0  0.22785078993E+02 -0.28191031478E+01 -0.33556793608E+02  0.50528861242E+02  0.30000004232E+02 0.  0.
         12    1    1    2    0    0 -0.22785078993E+02  0.28191031478E+01  0.33556793608E+02  0.40659138758E+02  0.00000000000E+00 0. -1.
         11    1    3    3    0    0 -0.46072260328E+01 -0.25224860283E+01 -0.12763870101E+01  0.54054261202E+01  0.51100000000E-03 0. -1.
        -11    1    3    3    0    0  0.16509898442E+02 -0.13281721552E+01 -0.29519767086E+02  0.33849038936E+02  0.51100000000E-03 0.  1.
         12    1    3    3    0    0  0.10882406583E+02  0.10315550357E+01 -0.27606395120E+01  0.11274396186E+02  0.00000000000E+00 0. -1.
</event>
<event>
 7    1  0.6889665E-012  0.5052887E+02  0.7816164E-02  0.1300439E+00
        -11   -1    0    0    0    0  0.00000000000E+00  0.00000000000E+00  0.45593999997E+02  0.45594000000E+02  0.51100000000E-03 0. -1.
         11   -1    0    0    0    0 -0.00000000000E+00 -0.00000000000E+00 -0.45593999997E+02  0.45594000000E+02  0.51100000000E-03 0.  1.
    9900012    2    1    2    0    0  0.21582096646E+02  0.34124391102E+02 -0.47858316451E+01  0.50528866361E+02  0.30000019791E+02 0.  0.
         12    1    1    2    0    0 -0.21582096646E+02 -0.34124391102E+02  0.47858316451E+01  0.40659133639E+02  0.00000000000E+00 0. -1.
         11    1    3    3    0    0  0.11603488190E+02  0.12771368659E+02 -0.11575260405E+02  0.20778244616E+02  0.51100000000E-03 0.  1.
        -11    1    3    3    0    0  0.95605826312E+01  0.24181825587E+02  0.68505897514E+01  0.26890444570E+02  0.51100000000E-03 0. -1.
         12    1    3    3    0    0  0.41802582424E+00 -0.28288031429E+01 -0.61160991304E-01  0.28601771760E+01  0.00000000000E+00 0. -1.
</event>
<event>
 7    1  0.6889665E-012  0.5052887E+02  0.7816164E-02  0.1300439E+00
        -11   -1    0    0    0    0  0.00000000000E+00  0.00000000000E+00  0.45593999997E+02  0.45594000000E+02  0.51100000000E-03 0.  1.
         11   -1    0    0    0    0 -0.00000000000E+00 -0.00000000000E+00 -0.45593999997E+02  0.45594000000E+02  0.51100000000E-03 0. -1.
    9900012    2    1    2    0    0  0.10645420807E+02  0.37810902932E+02  0.10496460072E+02  0.50528867708E+02  0.30000023885E+02 0.  0.
        -12    1    1    2    0    0 -0.10645420807E+02 -0.37810902932E+02 -0.10496460072E+02  0.40659132292E+02  0.00000000000E+00 0.  1.
         11    1    3    3    0    0 -0.52777244761E+01  0.13947043173E+01  0.13855599844E+01  0.56319936532E+01  0.51100000000E-03 0.  1.
        -11    1    3    3    0    0  0.53076229524E+01  0.30998649544E+02  0.98493979576E+01  0.32955997563E+02  0.51100000000E-03 0. -1.
         12    1    3    3    0    0  0.10615522331E+02  0.54175490705E+01 -0.73849786976E+00  0.11940876492E+02  0.00000000000E+00 0. -1.
</event>
<event>
 7    1  0.6889665E-012  0.5052889E+02  0.7816164E-02  0.1300439E+00
        -11   -1    0    0    0    0  0.00000000000E+00  0.00000000000E+00  0.45593999997E+02  0.45594000000E+02  0.51100000000E-03 0. -1.
         11   -1    0    0    0    0 -0.00000000000E+00 -0.00000000000E+00 -0.45593999997E+02  0.45594000000E+02  0.51100000000E-03 0.  1.
    9900012    2    1    2    0    0  0.37608463009E+02  0.67274480853E+01  0.13910716131E+02  0.50528891906E+02  0.30000097439E+02 0.  0.
        -12    1    1    2    0    0 -0.37608463009E+02 -0.67274480853E+01 -0.13910716131E+02  0.40659108094E+02  0.00000000000E+00 0.  1.
         11    1    3    3    0    0  0.18902641712E+02  0.13375424570E+02  0.72619470758E+01  0.24268245130E+02  0.51100000000E-03 0. -1.
        -11    1    3    3    0    0 -0.53935125221E+00 -0.36745530663E+01 -0.27659091293E+01  0.46307119953E+01  0.51100000000E-03 0.  1.
         12    1    3    3    0    0  0.19245172550E+02 -0.29734234182E+01  0.94146781849E+01  0.21629934781E+02  0.00000000000E+00 0. -1.
</event>
<event>
 7    1  0.6889665E-012  0.5052884E+02  0.7816164E-02  0.1300439E+00
        -11   -1    0    0    0    0  0.00000000000E+00  0.00000000000E+00  0.45593999997E+02  0.45594000000E+02  0.51100000000E-03 0. -1.
         11   -1    0    0    0    0 -0.00000000000E+00 -0.00000000000E+00 -0.45593999997E+02  0.45594000000E+02  0.51100000000E-03 0.  1.
    9900012    2    1    2    0    0 -0.17379077091E+01 -0.17941654075E+02 -0.36445079765E+02  0.50528842197E+02  0.29999946343E+02 0.  0.
         12    1    1    2    0    0  0.17379077091E+01  0.17941654075E+02  0.36445079765E+02  0.40659157803E+02  0.00000000000E+00 0. -1.
         11    1    3    3    0    0  0.11852034949E+01  0.74535442987E+01 -0.41465693331E+01  0.86112755984E+01  0.51100000000E-03 0. -1.
        -11    1    3    3    0    0  0.43292704461E+00 -0.93430958763E+01 -0.66564243836E+01  0.11479932588E+02  0.51100000000E-03 0.  1.
         12    1    3    3    0    0 -0.33560382486E+01 -0.16052102497E+02 -0.25642086048E+02  0.30437634011E+02  0.00000000000E+00 0. -1.
</event>
<event>
 7    1  0.6889665E-012  0.5052884E+02  0.7816164E-02  0.1300439E+00
        -11   -1    0    0    0    0  0.00000000000E+00  0.00000000000E+00  0.45593999997E+02  0.45594000000E+02  0.51100000000E-03 0. -1.
         11   -1    0    0    0    0 -0.00000000000E+00 -0.00000000000E+00 -0.45593999997E+02  0.45594000000E+02  0.51100000000E-03 0.  1.
    9900012    2    1    2    0    0  0.71081472862E+00 -0.24781762272E+02 -0.32226170076E+02  0.50528843139E+02  0.29999949205E+02 0.  0.
         12    1    1    2    0    0 -0.71081472862E+00  0.24781762272E+02  0.32226170076E+02  0.40659156861E+02  0.00000000000E+00 0. -1.
         11    1    3    3    0    0 -0.25538507472E+01 -0.96970604558E+01  0.24485381051E+01  0.10322328915E+02  0.51100000000E-03 0. -1.
        -11    1    3    3    0    0 -0.30453739229E+01 -0.11857961322E+02 -0.15421459270E+02  0.19690275654E+02  0.51100000000E-03 0.  1.
         12    1    3    3    0    0  0.63100393987E+01 -0.32267404944E+01 -0.19253248911E+02  0.20516238570E+02  0.00000000000E+00 0. -1.
</event>
<event>
 7    1  0.6889665E-012  0.5052886E+02  0.7816164E-02  0.1300439E+00
        -11   -1    0    0    0    0  0.00000000000E+00  0.00000000000E+00  0.45593999997E+02  0.45594000000E+02  0.51100000000E-03 0. -1.
         11   -1    0    0    0    0 -0.00000000000E+00 -0.00000000000E+00 -0.45593999997E+02  0.45594000000E+02  0.51100000000E-03 0.  1.
    9900012    2    1    2    0    0 -0.23596845643E+02  0.22894831696E+02 -0.23920309238E+02  0.50528860354E+02  0.30000001532E+02 0.  0.
         12    1    1    2    0    0  0.23596845643E+02 -0.22894831696E+02  0.23920309238E+02  0.40659139646E+02  0.00000000000E+00 0. -1.
         11    1    3    3    0    0  0.34510825161E+01  0.14605320778E+02 -0.61095311879E+01  0.16203448311E+02  0.51100000000E-03 0. -1.
        -11    1    3    3    0    0 -0.79570274684E+01 -0.79586003191E+00 -0.31385009036E+01  0.85905685206E+01  0.51100000000E-03 0.  1.
         12    1    3    3    0    0 -0.19090900691E+02  0.90853709505E+01 -0.14672277146E+02  0.25734843523E+02  0.00000000000E+00 0. -1.
</event>
<event>
 7    1  0.7163346E-012  0.5052887E+02  0.7816164E-02  0.1300439E+00
        -11   -1    0    0    0    0  0.00000000000E+00  0.00000000000E+00  0.45593999997E+02  0.45594000000E+02  0.51100000000E-03 0. -1.
         11   -1    0    0    0    0 -0.00000000000E+00 -0.00000000000E+00 -0.45593999997E+02  0.45594000000E+02  0.51100000000E-03 0.  1.
    9900012    2    1    2    0    0 -0.15270895712E+02 -0.16781926578E+02 -0.33739173645E+02  0.50528866293E+02  0.30000019585E+02 0.  0.
         12    1    1    2    0    0  0.15270895712E+02  0.16781926578E+02  0.33739173645E+02  0.40659133707E+02  0.00000000000E+00 0. -1.
         11    1    3    3    0    0  0.12911887368E+01  0.15560232243E+01  0.21461796661E+01  0.29486376599E+01  0.51100000000E-03 0. -1.
        -11    1    3    3    0    0 -0.20751831132E+02 -0.13138344259E+02 -0.27895608084E+02  0.37167452641E+02  0.51100000000E-03 0.  1.
        -12    1    3    3    0    0  0.41897466829E+01 -0.51996055432E+01 -0.79897452275E+01  0.10412775993E+02  0.00000000000E+00 0.  1.
</event>
<event>
 7    1  0.6889665E-012  0.5052886E+02  0.7816164E-02  0.1300439E+00
        -11   -1    0    0    0    0  0.00000000000E+00  0.00000000000E+00  0.45593999997E+02  0.45594000000E+02  0.51100000000E-03 0.  1.
         11   -1    0    0    0    0 -0.00000000000E+00 -0.00000000000E+00 -0.45593999997E+02  0.45594000000E+02  0.51100000000E-03 0. -1.
    9900012    2    1    2    0    0  0.44434343484E+01 -0.37848027924E+02  0.14175615004E+02  0.50528863422E+02  0.30000010856E+02 0.  0.
        -12    1    1    2    0    0 -0.44434343484E+01  0.37848027924E+02 -0.14175615004E+02  0.40659136578E+02  0.00000000000E+00 0.  1.
         11    1    3    3    0    0  0.90809438350E+01 -0.28081523604E+02  0.99589394250E+01  0.31148290219E+02  0.51100000000E-03 0. -1.
        -11    1    3    3    0    0  0.12934692475E+01  0.38478675508E+01  0.69470104635E+00  0.41184653923E+01  0.51100000000E-03 0.  1.
        -12    1    3    3    0    0 -0.59309787341E+01 -0.13614371871E+02  0.35219745324E+01  0.15262107810E+02  0.00000000000E+00 0.  1.
</event>
<event>
 7    1  0.6889665E-012  0.5052886E+02  0.7816164E-02  0.1300439E+00
        -11   -1    0    0    0    0  0.00000000000E+00  0.00000000000E+00  0.45593999997E+02  0.45594000000E+02  0.51100000000E-03 0. -1.
         11   -1    0    0    0    0 -0.00000000000E+00 -0.00000000000E+00 -0.45593999997E+02  0.45594000000E+02  0.51100000000E-03 0.  1.
    9900012    2    1    2    0    0 -0.12640215777E+02 -0.23391624211E+02 -0.30760724389E+02  0.50528864458E+02  0.30000014006E+02 0.  0.
         12    1    1    2    0    0  0.12640215777E+02  0.23391624211E+02  0.30760724389E+02  0.40659135542E+02  0.00000000000E+00 0. -1.
         11    1    3    3    0    0 -0.16843085528E+02 -0.13711640713E+02 -0.95571167683E+01  0.23728402860E+02  0.51100000000E-03 0. -1.
        -11    1    3    3    0    0  0.65616641593E+01 -0.60809553877E+01 -0.20595499188E+02  0.22454577307E+02  0.51100000000E-03 0.  1.
        -12    1    3    3    0    0 -0.23587944084E+01 -0.35990281109E+01 -0.60810843285E+00  0.43458842910E+01  0.00000000000E+00 0.  1.
</event>
<event>
 7    1  0.6889665E-012  0.5052886E+02  0.7816164E-02  0.1300439E+00
        -11   -1    0    0    0    0  0.00000000000E+00  0.00000000000E+00  0.45593999997E+02  0.45594000000E+02  0.51100000000E-03 0. -1.
         11   -1    0    0    0    0 -0.00000000000E+00 -0.00000000000E+00 -0.45593999997E+02  0.45594000000E+02  0.51100000000E-03 0.  1.
    9900012    2    1    2    0    0 -0.17483844472E+02 -0.17108043303E+02 -0.32477613680E+02  0.50528863837E+02  0.30000012119E+02 0.  0.
         12    1    1    2    0    0  0.17483844472E+02  0.17108043303E+02  0.32477613680E+02  0.40659136163E+02  0.00000000000E+00 0. -1.
         11    1    3    3    0    0  0.75308147390E+00  0.46747366344E+01 -0.13571049197E+02  0.14373366720E+02  0.51100000000E-03 0. -1.
        -11    1    3    3    0    0 -0.11863694621E+01  0.10327459656E+01 -0.33509247222E+01  0.37017203413E+01  0.51100000000E-03 0.  1.
         12    1    3    3    0    0 -0.17050556484E+02 -0.22815525903E+02 -0.15555639761E+02  0.32453776776E+02  0.00000000000E+00 0. -1.
</event>
<event>
 7    1  0.6889665E-012  0.5052887E+02  0.7816164E-02  0.1300439E+00
        -11   -1    0    0    0    0  0.00000000000E+00  0.00000000000E+00  0.45593999997E+02  0.45594000000E+02  0.51100000000E-03 0. -1.
         11   -1    0    0    0    0 -0.00000000000E+00 -0.00000000000E+00 -0.45593999997E+02  0.45594000000E+02  0.51100000000E-03 0.  1.
    9900012    2    1    2    0    0  0.14086385226E+02  0.22181552793E+01  0.38076483690E+02  0.50528867302E+02  0.30000022651E+02 0.  0.
        -12    1    1    2    0    0 -0.14086385226E+02 -0.22181552793E+01 -0.38076483690E+02  0.40659132698E+02  0.00000000000E+00 0.  1.
         11    1    3    3    0    0  0.73833342249E+01  0.21553702978E+01  0.30909172726E+01  0.82893314112E+01  0.51100000000E-03 0. -1.
        -11    1    3    3    0    0  0.20358421837E+01  0.10140746937E+02  0.25905394324E+02  0.27893885659E+02  0.51100000000E-03 0.  1.
        -12    1    3    3    0    0  0.46672088174E+01 -0.10077961955E+02  0.90801720936E+01  0.14345650232E+02  0.00000000000E+00 0.  1.
</event>
<event>
 7    1  0.6889665E-012  0.5052887E+02  0.7816164E-02  0.1300439E+00
        -11   -1    0    0    0    0  0.00000000000E+00  0.00000000000E+00  0.45593999997E+02  0.45594000000E+02  0.51100000000E-03 0. -1.
         11   -1    0    0    0    0 -0.00000000000E+00 -0.00000000000E+00 -0.45593999997E+02  0.45594000000E+02  0.51100000000E-03 0.  1.
    9900012    2    1    2    0    0  0.62424206721E+01 -0.30136620252E+02  0.26570311045E+02  0.50528866646E+02  0.30000020658E+02 0.  0.
        -12    1    1    2    0    0 -0.62424206721E+01  0.30136620252E+02 -0.26570311045E+02  0.40659133354E+02  0.00000000000E+00 0.  1.
         11    1    3    3    0    0  0.23507863166E+01 -0.25037574274E+02  0.27603521868E+02  0.37341140069E+02  0.51100000000E-03 0. -1.
        -11    1    3    3    0    0  0.39957282174E+01 -0.23627909935E+01 -0.59579854467E+01  0.75528945518E+01  0.51100000000E-03 0.  1.
        -12    1    3    3    0    0 -0.10409386200E+00 -0.27362549848E+01  0.49247746230E+01  0.56348320260E+01  0.00000000000E+00 0.  1.
</event>
<event>
 7    1  0.6889665E-012  0.5052885E+02  0.7816164E-02  0.1300439E+00
        -11   -1    0    0    0    0  0.00000000000E+00  0.00000000000E+00  0.45593999997E+02  0.45594000000E+02  0.51100000000E-03 0. -1.
         11   -1    0    0    0    0 -0.00000000000E+00 -0.00000000000E+00 -0.45593999997E+02  0.45594000000E+02  0.51100000000E-03 0.  1.
    9900012    2    1    2    0    0 -0.10569803257E+02  0.14517362688E+01  0.39234405699E+02  0.50528845193E+02  0.29999955448E+02 0.  0.
        -12    1    1    2    0    0  0.10569803257E+02 -0.14517362688E+01 -0.39234405699E+02  0.40659154807E+02  0.00000000000E+00 0.  1.
         11    1    3    3    0    0 -0.15011457750E+02  0.10129066884E+02  0.35878607657E+02  0.40189754259E+02  0.51100000000E-03 0. -1.
        -11    1    3    3    0    0  0.38136366799E+01 -0.68007244751E+01  0.27854147091E+01  0.82796264091E+01  0.51100000000E-03 0.  1.
         12    1    3    3    0    0  0.62801781383E+00 -0.18766061406E+01  0.57038333334E+00  0.20594645247E+01  0.00000000000E+00 0. -1.
</event>
<event>
 7    1  0.6889665E-012  0.5052886E+02  0.7816164E-02  0.1300439E+00
        -11   -1    0    0    0    0  0.00000000000E+00  0.00000000000E+00  0.45593999997E+02  0.45594000000E+02  0.51100000000E-03 0. -1.
         11   -1    0    0    0    0 -0.00000000000E+00 -0.00000000000E+00 -0.45593999997E+02  0.45594000000E+02  0.51100000000E-03 0.  1.
    9900012    2    1    2    0    0  0.29646489096E+02  0.13967480078E+01 -0.27790296276E+02  0.50528858496E+02  0.29999995885E+02 0.  0.
         12    1    1    2    0    0 -0.29646489096E+02 -0.13967480078E+01  0.27790296276E+02  0.40659141504E+02  0.00000000000E+00 0. -1.
         11    1    3    3    0    0  0.21283679834E+02 -0.10624525686E+02 -0.20427205911E+02  0.31355164087E+02  0.51100000000E-03 0. -1.
        -11    1    3    3    0    0  0.44025697795E+01  0.11579762736E+02 -0.85069040473E+01  0.15028005271E+02  0.51100000000E-03 0.  1.
         12    1    3    3    0    0  0.39602394830E+01  0.44151095803E+00  0.11438136827E+01  0.41456891381E+01  0.00000000000E+00 0. -1.
</event>
<event>
 7    1  0.6889665E-012  0.5052885E+02  0.7816164E-02  0.1300439E+00
        -11   -1    0    0    0    0  0.00000000000E+00  0.00000000000E+00  0.45593999997E+02  0.45594000000E+02  0.51100000000E-03 0. -1.
         11   -1    0    0    0    0 -0.00000000000E+00 -0.00000000000E+00 -0.45593999997E+02  0.45594000000E+02  0.51100000000E-03 0.  1.
    9900012    2    1    2    0    0 -0.16801272557E+02 -0.33768148153E+02  0.15185380670E+02  0.50528851271E+02  0.29999973924E+02 0.  0.
        -12    1    1    2    0    0  0.16801272557E+02  0.33768148153E+02 -0.15185380670E+02  0.40659148729E+02  0.00000000000E+00 0.  1.
         11    1    3    3    0    0 -0.77953606220E+01 -0.47144561250E+00 -0.42746540219E+01  0.89029531877E+01  0.51100000000E-03 0. -1.
        -11    1    3    3    0    0 -0.51679441265E+01 -0.14086541467E+02  0.15627633591E+02  0.21664746223E+02  0.51100000000E-03 0.  1.
         12    1    3    3    0    0 -0.38379678084E+01 -0.19210161074E+02  0.38324011010E+01  0.19961151860E+02  0.00000000000E+00 0. -1.
</event>
<event>
 7    1  0.6889665E-012  0.5052883E+02  0.7816164E-02  0.1300439E+00
        -11   -1    0    0    0    0  0.00000000000E+00  0.00000000000E+00  0.45593999997E+02  0.45594000000E+02  0.51100000000E-03 0.  1.
         11   -1    0    0    0    0 -0.00000000000E+00 -0.00000000000E+00 -0.45593999997E+02  0.45594000000E+02  0.51100000000E-03 0. -1.
    9900012    2    1    2    0    0 -0.36921778416E+02 -0.12054068145E+00 -0.17027502159E+02  0.50528830293E+02  0.29999910158E+02 0.  0.
        -12    1    1    2    0    0  0.36921778416E+02  0.12054068145E+00  0.17027502159E+02  0.40659169707E+02  0.00000000000E+00 0.  1.
         11    1    3    3    0    0 -0.29327925967E+02 -0.70297233988E+00 -0.19694906871E+02  0.35334271869E+02  0.51100000000E-03 0. -1.
        -11    1    3    3    0    0 -0.11005964016E+02  0.20897338907E+01  0.16125169906E+01  0.11318058268E+02  0.51100000000E-03 0.  1.
         12    1    3    3    0    0  0.34121115660E+01 -0.15073022323E+01  0.10548877205E+01  0.38765001562E+01  0.00000000000E+00 0. -1.
</event>
<event>
 7    1  0.6889665E-012  0.5052886E+02  0.7816164E-02  0.1300439E+00
        -11   -1    0    0    0    0  0.00000000000E+00  0.00000000000E+00  0.45593999997E+02  0.45594000000E+02  0.51100000000E-03 0. -1.
         11   -1    0    0    0    0 -0.00000000000E+00 -0.00000000000E+00 -0.45593999997E+02  0.45594000000E+02  0.51100000000E-03 0.  1.
    9900012    2    1    2    0    0  0.25814876969E+02 -0.19254463476E+02 -0.24819820577E+02  0.50528859205E+02  0.29999998040E+02 0.  0.
         12    1    1    2    0    0 -0.25814876969E+02  0.19254463476E+02  0.24819820577E+02  0.40659140795E+02  0.00000000000E+00 0. -1.
         11    1    3    3    0    0  0.21588958019E+02 -0.22667004650E+02 -0.83585684504E+01  0.32399720292E+02  0.51100000000E-03 0. -1.
        -11    1    3    3    0    0  0.35608993474E+01  0.38338861424E+01 -0.16530475987E+02  0.17338838593E+02  0.51100000000E-03 0.  1.
        -12    1    3    3    0    0  0.66501960257E+00 -0.42134496839E+00  0.69223860620E-01  0.79030032081E+00  0.00000000000E+00 0.  1.
</event>
<event>
 7    1  0.6889665E-012  0.5052886E+02  0.7816164E-02  0.1300439E+00
        -11   -1    0    0    0    0  0.00000000000E+00  0.00000000000E+00  0.45593999997E+02  0.45594000000E+02  0.51100000000E-03 0.  1.
         11   -1    0    0    0    0 -0.00000000000E+00 -0.00000000000E+00 -0.45593999997E+02  0.45594000000E+02  0.51100000000E-03 0. -1.
    9900012    2    1    2    0    0  0.28685515968E+02  0.10154429358E+02  0.26966546619E+02  0.50528857135E+02  0.29999991748E+02 0.  0.
        -12    1    1    2    0    0 -0.28685515968E+02 -0.10154429358E+02 -0.26966546619E+02  0.40659142865E+02  0.00000000000E+00 0.  1.
         11    1    3    3    0    0  0.10863191439E+02  0.23121730953E+01  0.20896854194E+00  0.11108498583E+02  0.51100000000E-03 0. -1.
        -11    1    3    3    0    0  0.64270651962E+01  0.14187451159E+02  0.11579260924E+02  0.19407993745E+02  0.51100000000E-03 0.  1.
        -12    1    3    3    0    0  0.11395259333E+02 -0.63451948961E+01  0.15178317153E+02  0.20012364807E+02  0.00000000000E+00 0.  1.
</event>
<event>
 7    1  0.6889665E-012  0.5052887E+02  0.7816164E-02  0.1300439E+00
        -11   -1    0    0    0    0  0.00000000000E+00  0.00000000000E+00  0.45593999997E+02  0.45594000000E+02  0.51100000000E-03 0. -1.
         11   -1    0    0    0    0 -0.00000000000E+00 -0.00000000000E+00 -0.45593999997E+02  0.45594000000E+02  0.51100000000E-03 0.  1.
    9900012    2    1    2    0    0  0.19459223917E+02 -0.10173461816E+02  0.34219936609E+02  0.50528870861E+02  0.30000033471E+02 0.  0.
        -12    1    1    2    0    0 -0.19459223917E+02  0.10173461816E+02 -0.34219936609E+02  0.40659129139E+02  0.00000000000E+00 0.  1.
         11    1    3    3    0    0  0.14275875560E+02 -0.17016109440E+01  0.43121957855E+01  0.15009701381E+02  0.51100000000E-03 0. -1.
        -11    1    3    3    0    0  0.11654914676E+01 -0.12658928397E+02  0.24427645497E+02  0.27537550786E+02  0.51100000000E-03 0.  1.
        -12    1    3    3    0    0  0.40178568894E+01  0.41870775250E+01  0.54800953268E+01  0.79816186939E+01  0.00000000000E+00 0.  1.
</event>
<event>
 7    1  0.7642695E-012  0.5052887E+02  0.7816164E-02  0.1300439E+00
        -11   -1    0    0    0    0  0.00000000000E+00  0.00000000000E+00  0.45593999997E+02  0.45594000000E+02  0.51100000000E-03 0. -1.
         11   -1    0    0    0    0 -0.00000000000E+00 -0.00000000000E+00 -0.45593999997E+02  0.45594000000E+02  0.51100000000E-03 0.  1.
    9900012    2    1    2    0    0 -0.22775463889E+02  0.23018370860E+02  0.24588569265E+02  0.50528869526E+02  0.30000029412E+02 0.  0.
        -12    1    1    2    0    0  0.22775463889E+02 -0.23018370860E+02 -0.24588569265E+02  0.40659130474E+02  0.00000000000E+00 0.  1.
         11    1    3    3    0    0 -0.10267893175E+02  0.19789529541E+02  0.14064370703E+02  0.26360228247E+02  0.51100000000E-03 0. -1.
        -11    1    3    3    0    0 -0.12754244271E+02 -0.14420708171E+01  0.20309478153E+00  0.12837116612E+02  0.51100000000E-03 0.  1.
         12    1    3    3    0    0  0.24667355732E+00  0.46709121357E+01  0.10321103781E+02  0.11331524667E+02  0.00000000000E+00 0. -1.
</event>
<event>
 7    1  0.6889665E-012  0.5052887E+02  0.7816164E-02  0.1300439E+00
        -11   -1    0    0    0    0  0.00000000000E+00  0.00000000000E+00  0.45593999997E+02  0.45594000000E+02  0.51100000000E-03 0. -1.
         11   -1    0    0    0    0 -0.00000000000E+00 -0.00000000000E+00 -0.45593999997E+02  0.45594000000E+02  0.51100000000E-03 0.  1.
    9900012    2    1    2    0    0 -0.23389365888E+02 -0.43407806052E+01  0.32973632258E+02  0.50528865268E+02  0.30000016468E+02 0.  0.
        -12    1    1    2    0    0  0.23389365888E+02  0.43407806052E+01 -0.32973632258E+02  0.40659134732E+02  0.00000000000E+00 0.  1.
         11    1    3    3    0    0  0.12799133714E+00  0.51429533874E+01  0.14748601668E+02  0.15620102521E+02  0.51100000000E-03 0.  1.
        -11    1    3    3    0    0 -0.24564106790E+02 -0.55995677879E+01  0.17833108095E+02  0.30866976632E+02  0.51100000000E-03 0. -1.
        -12    1    3    3    0    0  0.10467495653E+01 -0.38841662047E+01  0.39192249492E+00  0.40417861152E+01  0.00000000000E+00 0.  1.
</event>
<event>
 7    1  0.6889665E-012  0.5052886E+02  0.7816164E-02  0.1300439E+00
        -11   -1    0    0    0    0  0.00000000000E+00  0.00000000000E+00  0.45593999997E+02  0.45594000000E+02  0.51100000000E-03 0. -1.
         11   -1    0    0    0    0 -0.00000000000E+00 -0.00000000000E+00 -0.45593999997E+02  0.45594000000E+02  0.51100000000E-03 0.  1.
    9900012    2    1    2    0    0 -0.14935102464E+02  0.33087679444E+02  0.18311579464E+02  0.50528858850E+02  0.29999996959E+02 0.  0.
        -12    1    1    2    0    0  0.14935102464E+02 -0.33087679444E+02 -0.18311579464E+02  0.40659141150E+02  0.00000000000E+00 0.  1.
         11    1    3    3    0    0 -0.16853435073E+02  0.10630621424E+02  0.93484193606E+01  0.22010027952E+02  0.51100000000E-03 0. -1.
        -11    1    3    3    0    0  0.54522185105E+01  0.21041930584E+02  0.37408580231E+01  0.22056372059E+02  0.51100000000E-03 0.  1.
        -12    1    3    3    0    0 -0.35338859015E+01  0.14151274357E+01  0.52223020804E+01  0.64624588388E+01  0.00000000000E+00 0.  1.
</event>
<event>
 7    1  0.6889665E-012  0.5052886E+02  0.7816164E-02  0.1300439E+00
        -11   -1    0    0    0    0  0.00000000000E+00  0.00000000000E+00  0.45593999997E+02  0.45594000000E+02  0.51100000000E-03 0. -1.
         11   -1    0    0    0    0 -0.00000000000E+00 -0.00000000000E+00 -0.45593999997E+02  0.45594000000E+02  0.51100000000E-03 0.  1.
    9900012    2    1    2    0    0  0.10951161382E+02 -0.88488616098E+01  0.38143617380E+02  0.50528857926E+02  0.29999994150E+02 0.  0.
        -12    1    1    2    0    0 -0.10951161382E+02  0.88488616098E+01 -0.38143617380E+02  0.40659142074E+02  0.00000000000E+00 0.  1.
         11    1    3    3    0    0  0.10493676316E+02 -0.76445257025E+01  0.69415912868E+01  0.14722150172E+02  0.51100000000E-03 0. -1.
        -11    1    3    3    0    0 -0.75809416951E+01 -0.30439618681E+01  0.21909089029E+02  0.23382569644E+02  0.51100000000E-03 0.  1.
         12    1    3    3    0    0  0.80384267609E+01  0.18396259609E+01  0.92929370646E+01  0.12424138109E+02  0.00000000000E+00 0. -1.
</event>
<event>
 7    1  0.6889665E-012  0.5052886E+02  0.7816164E-02  0.1300439E+00
        -11   -1    0    0    0    0  0.00000000000E+00  0.00000000000E+00  0.45593999997E+02  0.45594000000E+02  0.51100000000E-03 0. -1.
         11   -1    0    0    0    0 -0.00000000000E+00 -0.00000000000E+00 -0.45593999997E+02  0.45594000000E+02  0.51100000000E-03 0.  1.
    9900012    2    1    2    0    0  0.83585814132E+01 -0.97325597497E+01  0.38582085470E+02  0.50528856850E+02  0.29999990880E+02 0.  0.
        -12    1    1    2    0    0 -0.83585814132E+01  0.97325597497E+01 -0.38582085470E+02  0.40659143150E+02  0.00000000000E+00 0.  1.
         11    1    3    3    0    0 -0.88602434696E+01 -0.48101225504E+01  0.24534222862E+02  0.26524880490E+02  0.51100000000E-03 0.  1.
        -11    1    3    3    0    0  0.12458344581E+02 -0.12290796212E+00  0.72392219059E+01  0.14409434067E+02  0.51100000000E-03 0. -1.
        -12    1    3    3    0    0  0.47604803014E+01 -0.47995292372E+01  0.68086407017E+01  0.95945422926E+01  0.00000000000E+00 0.  1.
</event>
<event>
 7    1  0.6889665E-012  0.5052886E+02  0.7816164E-02  0.1300439E+00
        -11   -1    0    0    0    0  0.00000000000E+00  0.00000000000E+00  0.45593999997E+02  0.45594000000E+02  0.51100000000E-03 0. -1.
         11   -1    0    0    0    0 -0.00000000000E+00 -0.00000000000E+00 -0.45593999997E+02  0.45594000000E+02  0.51100000000E-03 0.  1.
    9900012    2    1    2    0    0 -0.33414070297E+02  0.90556014235E+01  0.21322801247E+02  0.50528857560E+02  0.29999993039E+02 0.  0.
        -12    1    1    2    0    0  0.33414070297E+02 -0.90556014235E+01 -0.21322801247E+02  0.40659142440E+02  0.00000000000E+00 0.  1.
         11    1    3    3    0    0 -0.13660677839E+02  0.53064801204E+01  0.16949475240E+02  0.22406641013E+02  0.51100000000E-03 0. -1.
        -11    1    3    3    0    0 -0.19962050054E+01 -0.67645689087E+01  0.12974832964E+00  0.70541520989E+01  0.51100000000E-03 0.  1.
        -12    1    3    3    0    0 -0.17757187452E+02  0.10513690212E+02  0.42435776769E+01  0.21068064448E+02  0.00000000000E+00 0.  1.
</event>
<event>
 7    1  0.6889665E-012  0.5052886E+02  0.7816164E-02  0.1300439E+00
        -11   -1    0    0    0    0  0.00000000000E+00  0.00000000000E+00  0.45593999997E+02  0.45594000000E+02  0.51100000000E-03 0.  1.
         11   -1    0    0    0    0 -0.00000000000E+00 -0.00000000000E+00 -0.45593999997E+02  0.45594000000E+02  0.51100000000E-03 0. -1.
    9900012    2    1    2    0    0 -0.32538675858E+02  0.15233334309E+02  0.19035384998E+02  0.50528858558E+02  0.29999996072E+02 0.  0.
        -12    1    1    2    0    0  0.32538675858E+02 -0.15233334309E+02 -0.19035384998E+02  0.40659141442E+02  0.00000000000E+00 0.  1.
         11    1    3    3    0    0 -0.30732213878E+01  0.70334019969E+01 -0.62143887121E+01  0.98758321511E+01  0.51100000000E-03 0. -1.
        -11    1    3    3    0    0 -0.20227052467E+02  0.16707962888E+01  0.13707176825E+02  0.24491057725E+02  0.51100000000E-03 0.  1.
         12    1    3    3    0    0 -0.92384020038E+01  0.65291360237E+01  0.11542596885E+02  0.16161968681E+02  0.00000000000E+00 0. -1.
</event>
<event>
 7    1  0.7346396E-012  0.5052886E+02  0.7816164E-02  0.1300439E+00
        -11   -1    0    0    0    0  0.00000000000E+00  0.00000000000E+00  0.45593999997E+02  0.45594000000E+02  0.51100000000E-03 0. -1.
         11   -1    0    0    0    0 -0.00000000000E+00 -0.00000000000E+00 -0.45593999997E+02  0.45594000000E+02  0.51100000000E-03 0.  1.
    9900012    2    1    2    0    0 -0.11910999992E+02 -0.21858327921E+02 -0.32148204109E+02  0.50528862678E+02  0.30000008597E+02 0.  0.
         12    1    1    2    0    0  0.11910999992E+02  0.21858327921E+02  0.32148204109E+02  0.40659137322E+02  0.00000000000E+00 0. -1.
         11    1    3    3    0    0 -0.77243392230E+01 -0.51667216033E-01 -0.24207496451E+01  0.80949437947E+01  0.51100000000E-03 0. -1.
        -11    1    3    3    0    0 -0.74401433514E+01 -0.24671495689E+02 -0.26940024992E+02  0.37280066784E+02  0.51100000000E-03 0.  1.
        -12    1    3    3    0    0  0.32534825826E+01  0.28648349840E+01 -0.27874294718E+01  0.51538520992E+01  0.00000000000E+00 0.  1.
</event>
<event>
 7    1  0.6889665E-012  0.5052886E+02  0.7816164E-02  0.1300439E+00
        -11   -1    0    0    0    0  0.00000000000E+00  0.00000000000E+00  0.45593999997E+02  0.45594000000E+02  0.51100000000E-03 0. -1.
         11   -1    0    0    0    0 -0.00000000000E+00 -0.00000000000E+00 -0.45593999997E+02  0.45594000000E+02  0.51100000000E-03 0.  1.
    9900012    2    1    2    0    0 -0.27379004996E+02 -0.54045017187E+01 -0.29569363122E+02  0.50528858484E+02  0.29999995848E+02 0.  0.
         12    1    1    2    0    0  0.27379004996E+02  0.54045017187E+01  0.29569363122E+02  0.40659141516E+02  0.00000000000E+00 0. -1.
         11    1    3    3    0    0 -0.10014861766E+02 -0.10330791517E+02 -0.75730344139E+01  0.16259568262E+02  0.51100000000E-03 0. -1.
        -11    1    3    3    0    0 -0.41321486606E+01  0.91436731993E+01 -0.25147753117E+01  0.10344346633E+02  0.51100000000E-03 0.  1.
        -12    1    3    3    0    0 -0.13231994569E+02 -0.42173834006E+01 -0.19481553396E+02  0.23924943589E+02  0.00000000000E+00 0.  1.
</event>
<event>
 7    1  0.6889665E-012  0.5052885E+02  0.7816164E-02  0.1300439E+00
        -11   -1    0    0    0    0  0.00000000000E+00  0.00000000000E+00  0.45593999997E+02  0.45594000000E+02  0.51100000000E-03 0.  1.
         11   -1    0    0    0    0 -0.00000000000E+00 -0.00000000000E+00 -0.45593999997E+02  0.45594000000E+02  0.51100000000E-03 0. -1.
    9900012    2    1    2    0    0 -0.24013474647E+01  0.37290252229E+02 -0.16026149582E+02  0.50528845418E+02  0.29999956131E+02 0.  0.
         12    1    1    2    0    0  0.24013474647E+01 -0.37290252229E+02  0.16026149582E+02  0.40659154582E+02  0.00000000000E+00 0. -1.
         11    1    3    3    0    0 -0.13258673550E+02  0.15710955630E+02 -0.91648496003E+01  0.22508243370E+02  0.51100000000E-03 0. -1.
        -11    1    3    3    0    0  0.11674287992E+02  0.15409859857E+02 -0.82428014446E+00  0.19350251134E+02  0.51100000000E-03 0.  1.
        -12    1    3    3    0    0 -0.81696190617E+00  0.61694367410E+01 -0.60370198372E+01  0.86703509140E+01  0.00000000000E+00 0.  1.
</event>
<event>
 7    1  0.6889665E-012  0.5052886E+02  0.7816164E-02  0.1300439E+00
        -11   -1    0    0    0    0  0.00000000000E+00  0.00000000000E+00  0.45593999997E+02  0.45594000000E+02  0.51100000000E-03 0. -1.
         11   -1    0    0    0    0 -0.00000000000E+00 -0.00000000000E+00 -0.45593999997E+02  0.45594000000E+02  0.51100000000E-03 0.  1.
    9900012    2    1    2    0    0  0.26110742598E+02  0.85974850762E+01 -0.29957934027E+02  0.50528862776E+02  0.30000008893E+02 0.  0.
         12    1    1    2    0    0 -0.26110742598E+02 -0.85974850762E+01  0.29957934027E+02  0.40659137224E+02  0.00000000000E+00 0. -1.
         11    1    3    3    0    0  0.12467754413E+01  0.14069370313E+02 -0.65368005278E+01  0.15563784611E+02  0.51100000000E-03 0. -1.
        -11    1    3    3    0    0  0.15090072290E+02 -0.94937448521E+00 -0.14952325055E+02  0.21264609530E+02  0.51100000000E-03 0.  1.
         12    1    3    3    0    0  0.97738948667E+01 -0.45225107519E+01 -0.84688084440E+01  0.13700468635E+02  0.00000000000E+00 0. -1.
</event>
<event>
 7    1  0.6889665E-012  0.5052887E+02  0.7816164E-02  0.1300439E+00
        -11   -1    0    0    0    0  0.00000000000E+00  0.00000000000E+00  0.45593999997E+02  0.45594000000E+02  0.51100000000E-03 0. -1.
         11   -1    0    0    0    0 -0.00000000000E+00 -0.00000000000E+00 -0.45593999997E+02  0.45594000000E+02  0.51100000000E-03 0.  1.
    9900012    2    1    2    0    0 -0.23374691948E+01  0.23377242157E+02  0.33184416308E+02  0.50528871888E+02  0.30000036591E+02 0.  0.
        -12    1    1    2    0    0  0.23374691948E+01 -0.23377242157E+02 -0.33184416308E+02  0.40659128112E+02  0.00000000000E+00 0.  1.
         11    1    3    3    0    0  0.44685934202E+01  0.62893062640E+01  0.79123094861E+01  0.11051169264E+02  0.51100000000E-03 0. -1.
        -11    1    3    3    0    0 -0.67519968700E+01 -0.17658252589E-01 -0.22120500537E+01  0.71051347100E+01  0.51100000000E-03 0.  1.
        -12    1    3    3    0    0 -0.54065744988E-01  0.17105594146E+02  0.27484156875E+02  0.32372567914E+02  0.00000000000E+00 0.  1.
</event>
<event>
 7    1  0.6889665E-012  0.5052887E+02  0.7816164E-02  0.1300439E+00
        -11   -1    0    0    0    0  0.00000000000E+00  0.00000000000E+00  0.45593999997E+02  0.45594000000E+02  0.51100000000E-03 0. -1.
         11   -1    0    0    0    0 -0.00000000000E+00 -0.00000000000E+00 -0.45593999997E+02  0.45594000000E+02  0.51100000000E-03 0.  1.
    9900012    2    1    2    0    0 -0.32679997347E+02  0.45447158821E+01 -0.23759799632E+02  0.50528871289E+02  0.30000034769E+02 0.  0.
         12    1    1    2    0    0  0.32679997347E+02 -0.45447158821E+01  0.23759799632E+02  0.40659128711E+02  0.00000000000E+00 0. -1.
         11    1    3    3    0    0 -0.16022154543E+02 -0.10102413480E+02 -0.67950767415E+01  0.20123152399E+02  0.51100000000E-03 0. -1.
        -11    1    3    3    0    0 -0.16864013331E+02  0.85161460093E+01 -0.14409682752E+02  0.23760442878E+02  0.51100000000E-03 0.  1.
         12    1    3    3    0    0  0.20617052705E+00  0.61309833527E+01 -0.25550401376E+01  0.66452760110E+01  0.00000000000E+00 0. -1.
</event>
<event>
 7    1  0.6889665E-012  0.5052890E+02  0.7816164E-02  0.1300439E+00
        -11   -1    0    0    0    0  0.00000000000E+00  0.00000000000E+00  0.45593999997E+02  0.45594000000E+02  0.51100000000E-03 0. -1.
         11   -1    0    0    0    0 -0.00000000000E+00 -0.00000000000E+00 -0.45593999997E+02  0.45594000000E+02  0.51100000000E-03 0.  1.
    9900012    2    1    2    0    0  0.20757311935E+02 -0.25167632038E+02 -0.24266993457E+02  0.50528896805E+02  0.30000112328E+02 0.  0.
         12    1    1    2    0    0 -0.20757311935E+02  0.25167632038E+02  0.24266993457E+02  0.40659103195E+02  0.00000000000E+00 0. -1.
         11    1    3    3    0    0 -0.57902990112E+01 -0.10091140936E+02 -0.47606638249E+01  0.12570704370E+02  0.51100000000E-03 0. -1.
        -11    1    3    3    0    0  0.22492930275E+02 -0.97256246314E+01 -0.10343371094E+02  0.26598966384E+02  0.51100000000E-03 0.  1.
        -12    1    3    3    0    0  0.40546806710E+01 -0.53508664709E+01 -0.91629585373E+01  0.11359226052E+02  0.00000000000E+00 0.  1.
</event>
<event>
 7    1  0.6889665E-012  0.5052886E+02  0.7816164E-02  0.1300439E+00
        -11   -1    0    0    0    0  0.00000000000E+00  0.00000000000E+00  0.45593999997E+02  0.45594000000E+02  0.51100000000E-03 0. -1.
         11   -1    0    0    0    0 -0.00000000000E+00 -0.00000000000E+00 -0.45593999997E+02  0.45594000000E+02  0.51100000000E-03 0.  1.
    9900012    2    1    2    0    0  0.49457339809E+01 -0.23201114550E+02 -0.33021409688E+02  0.50528862051E+02  0.30000006690E+02 0.  0.
         12    1    1    2    0    0 -0.49457339809E+01  0.23201114550E+02  0.33021409688E+02  0.40659137949E+02  0.00000000000E+00 0. -1.
         11    1    3    3    0    0  0.91011425070E+01 -0.27898550914E+02 -0.27047910338E+02  0.39909264487E+02  0.51100000000E-03 0. -1.
        -11    1    3    3    0    0  0.15788285218E+01  0.86851347013E+00 -0.67649465436E+00  0.19247494454E+01  0.51100000000E-03 0.  1.
         12    1    3    3    0    0 -0.57342370479E+01  0.38289228940E+01 -0.52970046962E+01  0.86948481183E+01  0.00000000000E+00 0. -1.
</event>
<event>
 7    1  0.6889665E-012  0.5052884E+02  0.7816164E-02  0.1300439E+00
        -11   -1    0    0    0    0  0.00000000000E+00  0.00000000000E+00  0.45593999997E+02  0.45594000000E+02  0.51100000000E-03 0.  1.
         11   -1    0    0    0    0 -0.00000000000E+00 -0.00000000000E+00 -0.45593999997E+02  0.45594000000E+02  0.51100000000E-03 0. -1.
    9900012    2    1    2    0    0 -0.20079169726E+02  0.24780511418E+02  0.25217468467E+02  0.50528837208E+02  0.29999931179E+02 0.  0.
        -12    1    1    2    0    0  0.20079169726E+02 -0.24780511418E+02 -0.25217468467E+02  0.40659162792E+02  0.00000000000E+00 0.  1.
         11    1    3    3    0    0 -0.53975591987E+01  0.81788049280E+01 -0.24470596485E+00  0.98023658687E+01  0.51100000000E-03 0. -1.
        -11    1    3    3    0    0 -0.20035834644E+02  0.10724874260E+02  0.23164951508E+02  0.32451079742E+02  0.51100000000E-03 0.  1.
        -12    1    3    3    0    0  0.53542241161E+01  0.58768322293E+01  0.22972229238E+01  0.82753915979E+01  0.00000000000E+00 0.  1.
</event>
<event>
 7    1  0.6889665E-012  0.5052886E+02  0.7816164E-02  0.1300439E+00
        -11   -1    0    0    0    0  0.00000000000E+00  0.00000000000E+00  0.45593999997E+02  0.45594000000E+02  0.51100000000E-03 0. -1.
         11   -1    0    0    0    0 -0.00000000000E+00 -0.00000000000E+00 -0.45593999997E+02  0.45594000000E+02  0.51100000000E-03 0.  1.
    9900012    2    1    2    0    0 -0.34734197598E+02 -0.89469819323E+01 -0.19148176018E+02  0.50528860642E+02  0.30000002407E+02 0.  0.
         12    1    1    2    0    0  0.34734197598E+02  0.89469819323E+01  0.19148176018E+02  0.40659139358E+02  0.00000000000E+00 0. -1.
         11    1    3    3    0    0  0.72370001876E+00  0.13749628087E+01  0.17068939607E+01  0.23081923006E+01  0.51100000000E-03 0. -1.
        -11    1    3    3    0    0 -0.36143250408E+02 -0.35338699345E+01 -0.15236744276E+02  0.39382498184E+02  0.51100000000E-03 0.  1.
        -12    1    3    3    0    0  0.68535279127E+00 -0.67880748065E+01 -0.56183257032E+01  0.88381701576E+01  0.00000000000E+00 0.  1.
</event>
<event>
 7    1  0.6889665E-012  0.5052887E+02  0.7816164E-02  0.1300439E+00
        -11   -1    0    0    0    0  0.00000000000E+00  0.00000000000E+00  0.45593999997E+02  0.45594000000E+02  0.51100000000E-03 0. -1.
         11   -1    0    0    0    0 -0.00000000000E+00 -0.00000000000E+00 -0.45593999997E+02  0.45594000000E+02  0.51100000000E-03 0.  1.
    9900012    2    1    2    0    0 -0.25858826689E+02  0.28712606637E+02  0.12651967119E+02  0.50528868558E+02  0.30000026469E+02 0.  0.
        -12    1    1    2    0    0  0.25858826689E+02 -0.28712606637E+02 -0.12651967119E+02  0.40659131442E+02  0.00000000000E+00 0.  1.
         11    1    3    3    0    0 -0.19068777422E+02  0.13979992460E+02  0.14105462397E+02  0.27532208978E+02  0.51100000000E-03 0. -1.
        -11    1    3    3    0    0 -0.40191659603E+01  0.53444159055E+00 -0.65125264056E+01  0.76715267890E+01  0.51100000000E-03 0.  1.
         12    1    3    3    0    0 -0.27708833072E+01  0.14198172587E+02  0.50590311276E+01  0.15325132791E+02  0.00000000000E+00 0. -1.
</event>
<event>
 7    1  0.6889665E-012  0.5052886E+02  0.7816164E-02  0.1300439E+00
        -11   -1    0    0    0    0  0.00000000000E+00  0.00000000000E+00  0.45593999997E+02  0.45594000000E+02  0.51100000000E-03 0. -1.
         11   -1    0    0    0    0 -0.00000000000E+00 -0.00000000000E+00 -0.45593999997E+02  0.45594000000E+02  0.51100000000E-03 0.  1.
    9900012    2    1    2    0    0 -0.12766267172E+02  0.30139326544E+02  0.24120720544E+02  0.50528859065E+02  0.29999997613E+02 0.  0.
        -12    1    1    2    0    0  0.12766267172E+02 -0.30139326544E+02 -0.24120720544E+02  0.40659140935E+02  0.00000000000E+00 0.  1.
         11    1    3    3    0    0 -0.19441672041E+02  0.23120028707E+02  0.15873533850E+02  0.34124528075E+02  0.51100000000E-03 0. -1.
        -11    1    3    3    0    0  0.34003141877E+01  0.46441094832E+01 -0.14168063049E+01  0.59276664746E+01  0.51100000000E-03 0.  1.
         12    1    3    3    0    0  0.32750906810E+01  0.23751883535E+01  0.96639929987E+01  0.10476664515E+02  0.00000000000E+00 0. -1.
</event>
<event>
 7    1  0.6889665E-012  0.5052886E+02  0.7816164E-02  0.1300439E+00
        -11   -1    0    0    0    0  0.00000000000E+00  0.00000000000E+00  0.45593999997E+02  0.45594000000E+02  0.51100000000E-03 0. -1.
         11   -1    0    0    0    0 -0.00000000000E+00 -0.00000000000E+00 -0.45593999997E+02  0.45594000000E+02  0.51100000000E-03 0.  1.
    9900012    2    1    2    0    0  0.76116065998E+01 -0.20802987871E+02  0.34094941983E+02  0.50528856770E+02  0.29999990638E+02 0.  0.
        -12    1    1    2    0    0 -0.76116065998E+01  0.20802987871E+02 -0.34094941983E+02  0.40659143230E+02  0.00000000000E+00 0.  1.
         11    1    3    3    0    0  0.74372437517E+01 -0.23638614177E+02  0.21480162901E+02  0.32794726304E+02  0.51100000000E-03 0. -1.
        -11    1    3    3    0    0 -0.39980627454E+01  0.68269397069E+00 -0.22567657316E+00  0.40622046908E+01  0.51100000000E-03 0.  1.
        -12    1    3    3    0    0  0.41724255934E+01  0.21529323354E+01  0.12840455655E+02  0.13671925775E+02  0.00000000000E+00 0.  1.
</event>
<event>
 7    1  0.6889665E-012  0.5052887E+02  0.7816164E-02  0.1300439E+00
        -11   -1    0    0    0    0  0.00000000000E+00  0.00000000000E+00  0.45593999997E+02  0.45594000000E+02  0.51100000000E-03 0.  1.
         11   -1    0    0    0    0 -0.00000000000E+00 -0.00000000000E+00 -0.45593999997E+02  0.45594000000E+02  0.51100000000E-03 0. -1.
    9900012    2    1    2    0    0  0.26560019562E+02  0.52894388251E+01 -0.30327420004E+02  0.50528865647E+02  0.30000017621E+02 0.  0.
         12    1    1    2    0    0 -0.26560019562E+02 -0.52894388251E+01  0.30327420004E+02  0.40659134353E+02  0.00000000000E+00 0. -1.
         11    1    3    3    0    0 -0.31318525586E+01 -0.34178526811E+00 -0.52594450786E+01  0.61308303201E+01  0.51100000000E-03 0. -1.
        -11    1    3    3    0    0  0.25838926627E+02 -0.18957618382E+01 -0.11354693946E+02  0.28287331388E+02  0.51100000000E-03 0.  1.
        -12    1    3    3    0    0  0.38529454930E+01  0.75269859314E+01 -0.13713280980E+02  0.16110703939E+02  0.00000000000E+00 0.  1.
</event>
<event>
 7    1  0.6889665E-012  0.5052887E+02  0.7816164E-02  0.1300439E+00
        -11   -1    0    0    0    0  0.00000000000E+00  0.00000000000E+00  0.45593999997E+02  0.45594000000E+02  0.51100000000E-03 0. -1.
         11   -1    0    0    0    0 -0.00000000000E+00 -0.00000000000E+00 -0.45593999997E+02  0.45594000000E+02  0.51100000000E-03 0.  1.
    9900012    2    1    2    0    0  0.13474795756E+02  0.28312344418E+01 -0.38256750412E+02  0.50528868661E+02  0.30000026783E+02 0.  0.
         12    1    1    2    0    0 -0.13474795756E+02 -0.28312344418E+01  0.38256750412E+02  0.40659131339E+02  0.00000000000E+00 0. -1.
         11    1    3    3    0    0 -0.57155721028E+01 -0.43091402800E+01 -0.22610989219E+00  0.71615347768E+01  0.51100000000E-03 0. -1.
        -11    1    3    3    0    0  0.13228986933E+02  0.29891914567E+01 -0.25550331704E+02  0.28926818202E+02  0.51100000000E-03 0.  1.
         12    1    3    3    0    0  0.59613809260E+01  0.41511832652E+01 -0.12480308815E+02  0.14440515682E+02  0.00000000000E+00 0. -1.
</event>
<event>
 7    1  0.6889665E-012  0.5052886E+02  0.7816164E-02  0.1300439E+00
        -11   -1    0    0    0    0  0.00000000000E+00  0.00000000000E+00  0.45593999997E+02  0.45594000000E+02  0.51100000000E-03 0. -1.
         11   -1    0    0    0    0 -0.00000000000E+00 -0.00000000000E+00 -0.45593999997E+02  0.45594000000E+02  0.51100000000E-03 0.  1.
    9900012    2    1    2    0    0  0.19309833447E+02  0.12721301068E+02 -0.33443451062E+02  0.50528860959E+02  0.30000003371E+02 0.  0.
         12    1    1    2    0    0 -0.19309833447E+02 -0.12721301068E+02  0.33443451062E+02  0.40659139041E+02  0.00000000000E+00 0. -1.
         11    1    3    3    0    0  0.17243597194E+01  0.25352692275E+01 -0.22160902940E+02  0.22372005406E+02  0.51100000000E-03 0. -1.
        -11    1    3    3    0    0  0.15035797349E+02  0.14391087649E+02 -0.83099168416E+01  0.22410562773E+02  0.51100000000E-03 0.  1.
         12    1    3    3    0    0  0.25496763781E+01 -0.42050558083E+01 -0.29726312802E+01  0.57462927799E+01  0.00000000000E+00 0. -1.
</event>
<event>
 7    1  0.6889665E-012  0.5052885E+02  0.7816164E-02  0.1300439E+00
        -11   -1    0    0    0    0  0.00000000000E+00  0.00000000000E+00  0.45593999997E+02  0.45594000000E+02  0.51100000000E-03 0. -1.
         11   -1    0    0    0    0 -0.00000000000E+00 -0.00000000000E+00 -0.45593999997E+02  0.45594000000E+02  0.51100000000E-03 0.  1.
    9900012    2    1    2    0    0  0.69914851898E+01  0.27559430828E+02  0.29064817968E+02  0.50528846834E+02  0.29999960435E+02 0.  0.
        -12    1    1    2    0    0 -0.69914851898E+01 -0.27559430828E+02 -0.29064817968E+02  0.40659153166E+02  0.00000000000E+00 0.  1.
         11    1    3    3    0    0  0.43032427504E+01 -0.50181855917E+01  0.18937275370E+01  0.68765026756E+01  0.51100000000E-03 0. -1.
        -11    1    3    3    0    0 -0.12239702041E+01  0.14476320850E+01  0.46784608212E+01  0.50479439013E+01  0.51100000000E-03 0.  1.
         12    1    3    3    0    0  0.39122126435E+01  0.31129984334E+02  0.22492629610E+02  0.38604400257E+02  0.00000000000E+00 0. -1.
</event>
<event>
 7    1  0.6889665E-012  0.5052880E+02  0.7816164E-02  0.1300439E+00
        -11   -1    0    0    0    0  0.00000000000E+00  0.00000000000E+00  0.45593999997E+02  0.45594000000E+02  0.51100000000E-03 0. -1.
         11   -1    0    0    0    0 -0.00000000000E+00 -0.00000000000E+00 -0.45593999997E+02  0.45594000000E+02  0.51100000000E-03 0.  1.
    9900012    2    1    2    0    0 -0.30195628745E+01  0.29837394970E+02  0.27455099957E+02  0.50528801629E+02  0.29999823030E+02 0.  0.
        -12    1    1    2    0    0  0.30195628745E+01 -0.29837394970E+02 -0.27455099957E+02  0.40659198371E+02  0.00000000000E+00 0.  1.
         11    1    3    3    0    0  0.43377503301E+01  0.78980205932E+01  0.20385427141E+01  0.92385314783E+01  0.51100000000E-03 0. -1.
        -11    1    3    3    0    0 -0.54802671442E+01  0.25618633135E+02  0.26239045217E+02  0.37078770015E+02  0.51100000000E-03 0.  1.
        -12    1    3    3    0    0 -0.18770460604E+01 -0.36792587580E+01 -0.82248797459E+00  0.42115001353E+01  0.00000000000E+00 0.  1.
</event>
<event>
 7    1  0.6889665E-012  0.5052886E+02  0.7816164E-02  0.1300439E+00
        -11   -1    0    0    0    0  0.00000000000E+00  0.00000000000E+00  0.45593999997E+02  0.45594000000E+02  0.51100000000E-03 0. -1.
         11   -1    0    0    0    0 -0.00000000000E+00 -0.00000000000E+00 -0.45593999997E+02  0.45594000000E+02  0.51100000000E-03 0.  1.
    9900012    2    1    2    0    0  0.28446822784E+02 -0.11113001189E+02  0.26841111084E+02  0.50528858763E+02  0.29999996696E+02 0.  0.
        -12    1    1    2    0    0 -0.28446822784E+02  0.11113001189E+02 -0.26841111084E+02  0.40659141237E+02  0.00000000000E+00 0.  1.
         11    1    3    3    0    0  0.16428637194E+02  0.57036291967E+01  0.17295566562E+02  0.24526885840E+02  0.51100000000E-03 0. -1.
        -11    1    3    3    0    0  0.10945669797E+02 -0.80090119360E+01  0.86691735407E+00  0.13590566782E+02  0.51100000000E-03 0.  1.
         12    1    3    3    0    0  0.10725157929E+01 -0.88076184495E+01  0.86786271680E+01  0.12411406141E+02  0.00000000000E+00 0. -1.
</event>
<event>
 7    1  0.6889665E-012  0.5052886E+02  0.7816164E-02  0.1300439E+00
        -11   -1    0    0    0    0  0.00000000000E+00  0.00000000000E+00  0.45593999997E+02  0.45594000000E+02  0.51100000000E-03 0. -1.
         11   -1    0    0    0    0 -0.00000000000E+00 -0.00000000000E+00 -0.45593999997E+02  0.45594000000E+02  0.51100000000E-03 0.  1.
    9900012    2    1    2    0    0  0.15812074440E+02 -0.30841942831E+02  0.21258378530E+02  0.50528858427E+02  0.29999995676E+02 0.  0.
        -12    1    1    2    0    0 -0.15812074440E+02  0.30841942831E+02 -0.21258378530E+02  0.40659141573E+02  0.00000000000E+00 0.  1.
         11    1    3    3    0    0  0.11570649419E+02  0.70103531369E+00  0.50197984780E+01  0.12632092286E+02  0.51100000000E-03 0.  1.
        -11    1    3    3    0    0  0.46075106404E+01 -0.19916680984E+02  0.36663778554E+01  0.20768862813E+02  0.51100000000E-03 0. -1.
         12    1    3    3    0    0 -0.36608561993E+00 -0.11626297161E+02  0.12572202197E+02  0.17127903329E+02  0.00000000000E+00 0. -1.
</event>
<event>
 7    1  0.6889665E-012  0.5052887E+02  0.7816164E-02  0.1300439E+00
        -11   -1    0    0    0    0  0.00000000000E+00  0.00000000000E+00  0.45593999997E+02  0.45594000000E+02  0.51100000000E-03 0. -1.
         11   -1    0    0    0    0 -0.00000000000E+00 -0.00000000000E+00 -0.45593999997E+02  0.45594000000E+02  0.51100000000E-03 0.  1.
    9900012    2    1    2    0    0  0.25874076370E+02 -0.89074467911E+01 -0.30072485834E+02  0.50528870145E+02  0.30000031292E+02 0.  0.
         12    1    1    2    0    0 -0.25874076370E+02  0.89074467911E+01  0.30072485834E+02  0.40659129855E+02  0.00000000000E+00 0. -1.
         11    1    3    3    0    0  0.20795622825E+01  0.24724194425E+01  0.23995950327E+01  0.40243625294E+01  0.51100000000E-03 0. -1.
        -11    1    3    3    0    0  0.64907892836E+01 -0.87881237104E+01 -0.25367923295E+02  0.27620517671E+02  0.51100000000E-03 0.  1.
        -12    1    3    3    0    0  0.17303724804E+02 -0.25917425231E+01 -0.71041575722E+01  0.18883989944E+02  0.00000000000E+00 0.  1.
</event>
<event>
 7    1  0.6889665E-012  0.5052886E+02  0.7816164E-02  0.1300439E+00
        -11   -1    0    0    0    0  0.00000000000E+00  0.00000000000E+00  0.45593999997E+02  0.45594000000E+02  0.51100000000E-03 0. -1.
         11   -1    0    0    0    0 -0.00000000000E+00 -0.00000000000E+00 -0.45593999997E+02  0.45594000000E+02  0.51100000000E-03 0.  1.
    9900012    2    1    2    0    0 -0.29656153355E+02  0.23224950178E+02 -0.15306201767E+02  0.50528861358E+02  0.30000004583E+02 0.  0.
         12    1    1    2    0    0  0.29656153355E+02 -0.23224950178E+02  0.15306201767E+02  0.40659138642E+02  0.00000000000E+00 0. -1.
         11    1    3    3    0    0  0.26779393481E+01 -0.53047045825E+00 -0.14327682131E+01  0.30831125625E+01  0.51100000000E-03 0. -1.
        -11    1    3    3    0    0 -0.18159156096E+02  0.24983893792E+02 -0.11818594619E+02  0.33070063171E+02  0.51100000000E-03 0.  1.
        -12    1    3    3    0    0 -0.14174936608E+02 -0.12284731554E+01 -0.20548389347E+01  0.14375685624E+02  0.00000000000E+00 0.  1.
</event>
<event>
 7    1  0.6889665E-012  0.5052886E+02  0.7816164E-02  0.1300439E+00
        -11   -1    0    0    0    0  0.00000000000E+00  0.00000000000E+00  0.45593999997E+02  0.45594000000E+02  0.51100000000E-03 0. -1.
         11   -1    0    0    0    0 -0.00000000000E+00 -0.00000000000E+00 -0.45593999997E+02  0.45594000000E+02  0.51100000000E-03 0.  1.
    9900012    2    1    2    0    0  0.20286988748E+02 -0.27122858038E+02 -0.22493422129E+02  0.50528863515E+02  0.30000011141E+02 0.  0.
         12    1    1    2    0    0 -0.20286988748E+02  0.27122858038E+02  0.22493422129E+02  0.40659136485E+02  0.00000000000E+00 0. -1.
         11    1    3    3    0    0  0.56345107079E+01 -0.91651590951E+01 -0.13894300440E+02  0.17572690094E+02  0.51100000000E-03 0. -1.
        -11    1    3    3    0    0  0.13953289551E+02 -0.57493376908E+01  0.37780805749E+01  0.15557090546E+02  0.51100000000E-03 0.  1.
        -12    1    3    3    0    0  0.69918848927E+00 -0.12208361252E+02 -0.12377202264E+02  0.17399082875E+02  0.00000000000E+00 0.  1.
</event>
<event>
 7    1  0.6889665E-012  0.5052886E+02  0.7816164E-02  0.1300439E+00
        -11   -1    0    0    0    0  0.00000000000E+00  0.00000000000E+00  0.45593999997E+02  0.45594000000E+02  0.51100000000E-03 0. -1.
         11   -1    0    0    0    0 -0.00000000000E+00 -0.00000000000E+00 -0.45593999997E+02  0.45594000000E+02  0.51100000000E-03 0.  1.
    9900012    2    1    2    0    0 -0.26434442108E+02 -0.21620197378E+02  0.22067013986E+02  0.50528858710E+02  0.29999996534E+02 0.  0.
        -12    1    1    2    0    0  0.26434442108E+02  0.21620197378E+02 -0.22067013986E+02  0.40659141290E+02  0.00000000000E+00 0.  1.
         11    1    3    3    0    0 -0.28017459037E+02 -0.99784205586E+01  0.15713032828E+02  0.33636977996E+02  0.51100000000E-03 0. -1.
        -11    1    3    3    0    0  0.26624634095E+01 -0.75070014190E+01  0.88791182804E+01  0.11928223816E+02  0.51100000000E-03 0.  1.
        -12    1    3    3    0    0 -0.10794464800E+01 -0.41347753999E+01 -0.25251371224E+01  0.49636568976E+01  0.00000000000E+00 0.  1.
</event>
<event>
 7    1  0.6889665E-012  0.5052890E+02  0.7816164E-02  0.1300439E+00
        -11   -1    0    0    0    0  0.00000000000E+00  0.00000000000E+00  0.45593999997E+02  0.45594000000E+02  0.51100000000E-03 0. -1.
         11   -1    0    0    0    0 -0.00000000000E+00 -0.00000000000E+00 -0.45593999997E+02  0.45594000000E+02  0.51100000000E-03 0.  1.
    9900012    2    1    2    0    0 -0.67736190846E+01 -0.60393607217E+01 -0.39633407447E+02  0.50528895494E+02  0.30000108343E+02 0.  0.
         12    1    1    2    0    0  0.67736190846E+01  0.60393607217E+01  0.39633407447E+02  0.40659104506E+02  0.00000000000E+00 0. -1.
         11    1    3    3    0    0  0.22363608931E+01  0.76311977423E+01 -0.84182358995E+01  0.11580292956E+02  0.51100000000E-03 0. -1.
        -11    1    3    3    0    0 -0.10610234831E+02 -0.20476655384E+01 -0.19922111124E+02  0.22664080154E+02  0.51100000000E-03 0.  1.
        -12    1    3    3    0    0  0.16002548532E+01 -0.11622892926E+02 -0.11293060423E+02  0.16284522384E+02  0.00000000000E+00 0.  1.
</event>
<event>
 7    1  0.6889665E-012  0.5052887E+02  0.7816164E-02  0.1300439E+00
        -11   -1    0    0    0    0  0.00000000000E+00  0.00000000000E+00  0.45593999997E+02  0.45594000000E+02  0.51100000000E-03 0. -1.
         11   -1    0    0    0    0 -0.00000000000E+00 -0.00000000000E+00 -0.45593999997E+02  0.45594000000E+02  0.51100000000E-03 0.  1.
    9900012    2    1    2    0    0  0.12660400762E+01  0.10331956765E+02  0.39304105751E+02  0.50528869206E+02  0.30000028439E+02 0.  0.
        -12    1    1    2    0    0 -0.12660400762E+01 -0.10331956765E+02 -0.39304105751E+02  0.40659130794E+02  0.00000000000E+00 0.  1.
         11    1    3    3    0    0  0.18342855393E+01  0.73702665224E+00  0.54198135520E+01  0.57690719292E+01  0.51100000000E-03 0. -1.
        -11    1    3    3    0    0  0.54256463211E+01 -0.85082122286E+01  0.10134635142E+02  0.14301683224E+02  0.51100000000E-03 0.  1.
        -12    1    3    3    0    0 -0.59938917841E+01  0.18103142341E+02  0.23749657056E+02  0.30458114052E+02  0.00000000000E+00 0.  1.
</event>
<event>
 7    1  0.6889665E-012  0.5052883E+02  0.7816164E-02  0.1300439E+00
        -11   -1    0    0    0    0  0.00000000000E+00  0.00000000000E+00  0.45593999997E+02  0.45594000000E+02  0.51100000000E-03 0. -1.
         11   -1    0    0    0    0 -0.00000000000E+00 -0.00000000000E+00 -0.45593999997E+02  0.45594000000E+02  0.51100000000E-03 0.  1.
    9900012    2    1    2    0    0  0.28269328972E+02 -0.18412882388E+01 -0.29165437170E+02  0.50528830945E+02  0.29999912140E+02 0.  0.
         12    1    1    2    0    0 -0.28269328972E+02  0.18412882388E+01  0.29165437170E+02  0.40659169055E+02  0.00000000000E+00 0. -1.
         11    1    3    3    0    0  0.81400052811E+01  0.99194577085E+01 -0.73040602814E+01  0.14764979650E+02  0.51100000000E-03 0. -1.
        -11    1    3    3    0    0  0.19590524063E+02 -0.96520275590E+01 -0.24180818029E+02  0.32583158685E+02  0.51100000000E-03 0.  1.
         12    1    3    3    0    0  0.53879962814E+00 -0.21087183883E+01  0.23194411398E+01  0.31806926103E+01  0.00000000000E+00 0. -1.
</event>
<event>
 7    1  0.6889665E-012  0.5052887E+02  0.7816164E-02  0.1300439E+00
        -11   -1    0    0    0    0  0.00000000000E+00  0.00000000000E+00  0.45593999997E+02  0.45594000000E+02  0.51100000000E-03 0. -1.
         11   -1    0    0    0    0 -0.00000000000E+00 -0.00000000000E+00 -0.45593999997E+02  0.45594000000E+02  0.51100000000E-03 0.  1.
    9900012    2    1    2    0    0 -0.21236008529E+02 -0.87725747543E+01 -0.33544574947E+02  0.50528872680E+02  0.30000038998E+02 0.  0.
         12    1    1    2    0    0  0.21236008529E+02  0.87725747543E+01  0.33544574947E+02  0.40659127320E+02  0.00000000000E+00 0. -1.
         11    1    3    3    0    0 -0.82005879999E+01  0.40886944938E+01 -0.60861022923E+01  0.11000350339E+02  0.51100000000E-03 0. -1.
        -11    1    3    3    0    0 -0.13468785620E+02 -0.18198487670E+02 -0.24694732535E+02  0.33502581316E+02  0.51100000000E-03 0.  1.
        -12    1    3    3    0    0  0.43336509127E+00  0.53372184223E+01 -0.27637401199E+01  0.60259410253E+01  0.00000000000E+00 0.  1.
</event>
<event>
 7    1  0.6889665E-012  0.5052887E+02  0.7816164E-02  0.1300439E+00
        -11   -1    0    0    0    0  0.00000000000E+00  0.00000000000E+00  0.45593999997E+02  0.45594000000E+02  0.51100000000E-03 0.  1.
         11   -1    0    0    0    0 -0.00000000000E+00 -0.00000000000E+00 -0.45593999997E+02  0.45594000000E+02  0.51100000000E-03 0. -1.
    9900012    2    1    2    0    0 -0.34945174804E+02 -0.12215405817E+02 -0.16816175723E+02  0.50528866372E+02  0.30000019826E+02 0.  0.
         12    1    1    2    0    0  0.34945174804E+02  0.12215405817E+02  0.16816175723E+02  0.40659133628E+02  0.00000000000E+00 0. -1.
         11    1    3    3    0    0 -0.98994749017E+00 -0.60738667306E+01 -0.87997409539E+01  0.10738123403E+02  0.51100000000E-03 0. -1.
        -11    1    3    3    0    0 -0.24635524598E+02 -0.33613329549E+01  0.30590388715E+01  0.25051254470E+02  0.51100000000E-03 0.  1.
        -12    1    3    3    0    0 -0.93197027162E+01 -0.27802061313E+01 -0.11075473641E+02  0.14739488499E+02  0.00000000000E+00 0.  1.
</event>
<event>
 7    1  0.6889665E-012  0.5052886E+02  0.7816164E-02  0.1300439E+00
        -11   -1    0    0    0    0  0.00000000000E+00  0.00000000000E+00  0.45593999997E+02  0.45594000000E+02  0.51100000000E-03 0. -1.
         11   -1    0    0    0    0 -0.00000000000E+00 -0.00000000000E+00 -0.45593999997E+02  0.45594000000E+02  0.51100000000E-03 0.  1.
    9900012    2    1    2    0    0  0.20944228220E+02 -0.21457135939E+02 -0.27460814909E+02  0.50528859159E+02  0.29999997900E+02 0.  0.
         12    1    1    2    0    0 -0.20944228220E+02  0.21457135939E+02  0.27460814909E+02  0.40659140841E+02  0.00000000000E+00 0. -1.
         11    1    3    3    0    0  0.15632383575E+02 -0.10482126050E+02 -0.13168287712E+01  0.18867443416E+02  0.51100000000E-03 0. -1.
        -11    1    3    3    0    0  0.62581513660E+00 -0.12464168066E+02 -0.15223707016E+02  0.19685232682E+02  0.51100000000E-03 0.  1.
         12    1    3    3    0    0  0.46860295082E+01  0.14891581769E+01 -0.10920279122E+02  0.11976183062E+02  0.00000000000E+00 0. -1.
</event>
<event>
 7    1  0.6889665E-012  0.5052885E+02  0.7816164E-02  0.1300439E+00
        -11   -1    0    0    0    0  0.00000000000E+00  0.00000000000E+00  0.45593999997E+02  0.45594000000E+02  0.51100000000E-03 0. -1.
         11   -1    0    0    0    0 -0.00000000000E+00 -0.00000000000E+00 -0.45593999997E+02  0.45594000000E+02  0.51100000000E-03 0.  1.
    9900012    2    1    2    0    0 -0.38030070954E+00 -0.23775449653E+02 -0.32981047020E+02  0.50528854690E+02  0.29999984316E+02 0.  0.
         12    1    1    2    0    0  0.38030070954E+00  0.23775449653E+02  0.32981047020E+02  0.40659145310E+02  0.00000000000E+00 0. -1.
         11    1    3    3    0    0 -0.89434266048E+01 -0.85599586883E+01 -0.63585695990E+01  0.13917226009E+02  0.51100000000E-03 0. -1.
        -11    1    3    3    0    0  0.14113715334E+02 -0.10304974944E+02 -0.16246420083E+02  0.23860755120E+02  0.51100000000E-03 0.  1.
        -12    1    3    3    0    0 -0.55505894382E+01 -0.49105160212E+01 -0.10376057337E+02  0.12750873561E+02  0.00000000000E+00 0.  1.
</event>
<event>
 7    1  0.6889665E-012  0.5052885E+02  0.7816164E-02  0.1300439E+00
        -11   -1    0    0    0    0  0.00000000000E+00  0.00000000000E+00  0.45593999997E+02  0.45594000000E+02  0.51100000000E-03 0. -1.
         11   -1    0    0    0    0 -0.00000000000E+00 -0.00000000000E+00 -0.45593999997E+02  0.45594000000E+02  0.51100000000E-03 0.  1.
    9900012    2    1    2    0    0 -0.18066782458E+02 -0.13571591312E+02 -0.33801922149E+02  0.50528847770E+02  0.29999963281E+02 0.  0.
         12    1    1    2    0    0  0.18066782458E+02  0.13571591312E+02  0.33801922149E+02  0.40659152230E+02  0.00000000000E+00 0. -1.
         11    1    3    3    0    0 -0.95263751021E+01 -0.19199848343E+01 -0.27503673118E+01  0.10099637863E+02  0.51100000000E-03 0. -1.
        -11    1    3    3    0    0 -0.47182039350E+01 -0.17577224644E+02 -0.26076413915E+02  0.31799365363E+02  0.51100000000E-03 0.  1.
        -12    1    3    3    0    0 -0.38222034208E+01  0.59256181670E+01 -0.49751409223E+01  0.86298445437E+01  0.00000000000E+00 0.  1.
</event>
<event>
 7    1  0.1188211E-011  0.5052886E+02  0.7816164E-02  0.1300439E+00
        -11   -1    0    0    0    0  0.00000000000E+00  0.00000000000E+00  0.45593999997E+02  0.45594000000E+02  0.51100000000E-03 0. -1.
         11   -1    0    0    0    0 -0.00000000000E+00 -0.00000000000E+00 -0.45593999997E+02  0.45594000000E+02  0.51100000000E-03 0.  1.
    9900012    2    1    2    0    0  0.13352470616E+02 -0.13811606309E+02 -0.35834578702E+02  0.50528856242E+02  0.29999989034E+02 0.  0.
         12    1    1    2    0    0 -0.13352470616E+02  0.13811606309E+02  0.35834578702E+02  0.40659143758E+02  0.00000000000E+00 0. -1.
         11    1    3    3    0    0  0.10721497947E+02 -0.16209664489E+01 -0.40005840551E+00  0.10850718752E+02  0.51100000000E-03 0. -1.
        -11    1    3    3    0    0 -0.46185245348E+01 -0.49772095429E+01 -0.20356491838E+02  0.21459034086E+02  0.51100000000E-03 0.  1.
        -12    1    3    3    0    0  0.72494972044E+01 -0.72134303171E+01 -0.15078028458E+02  0.18219103404E+02  0.00000000000E+00 0.  1.
</event>
<event>
 7    1  0.6889665E-012  0.5052884E+02  0.7816164E-02  0.1300439E+00
        -11   -1    0    0    0    0  0.00000000000E+00  0.00000000000E+00  0.45593999997E+02  0.45594000000E+02  0.51100000000E-03 0.  1.
         11   -1    0    0    0    0 -0.00000000000E+00 -0.00000000000E+00 -0.45593999997E+02  0.45594000000E+02  0.51100000000E-03 0. -1.
    9900012    2    1    2    0    0 -0.39694762720E+02  0.69215971997E+00 -0.87757485087E+01  0.50528843167E+02  0.29999949290E+02 0.  0.
         12    1    1    2    0    0  0.39694762720E+02 -0.69215971997E+00  0.87757485087E+01  0.40659156833E+02  0.00000000000E+00 0. -1.
         11    1    3    3    0    0 -0.18815219094E+02 -0.40159523420E+01 -0.15527021742E+02  0.24723040817E+02  0.51100000000E-03 0. -1.
        -11    1    3    3    0    0 -0.21547356523E+02  0.17541218622E+01  0.71060198405E+01  0.22756560261E+02  0.51100000000E-03 0.  1.
        -12    1    3    3    0    0  0.66781289777E+00  0.29539901998E+01 -0.35474660708E+00  0.30492420898E+01  0.00000000000E+00 0.  1.
</event>
<event>
 7    1  0.6889665E-012  0.5052884E+02  0.7816164E-02  0.1300439E+00
        -11   -1    0    0    0    0  0.00000000000E+00  0.00000000000E+00  0.45593999997E+02  0.45594000000E+02  0.51100000000E-03 0. -1.
         11   -1    0    0    0    0 -0.00000000000E+00 -0.00000000000E+00 -0.45593999997E+02  0.45594000000E+02  0.51100000000E-03 0.  1.
    9900012    2    1    2    0    0 -0.18417649276E+02  0.19727667859E+02 -0.30410134119E+02  0.50528844314E+02  0.29999952776E+02 0.  0.
         12    1    1    2    0    0  0.18417649276E+02 -0.19727667859E+02  0.30410134119E+02  0.40659155686E+02  0.00000000000E+00 0. -1.
         11    1    3    3    0    0  0.60227510786E+01  0.93074538361E+00 -0.14317939412E+02  0.15560951346E+02  0.51100000000E-03 0. -1.
        -11    1    3    3    0    0 -0.14475424281E+02  0.88597924986E+01 -0.86930223181E+01  0.19068363027E+02  0.51100000000E-03 0.  1.
         12    1    3    3    0    0 -0.99649760736E+01  0.99371299764E+01 -0.73991723884E+01  0.15899529941E+02  0.00000000000E+00 0. -1.
</event>
<event>
 7    1  0.6889665E-012  0.5052886E+02  0.7816164E-02  0.1300439E+00
        -11   -1    0    0    0    0  0.00000000000E+00  0.00000000000E+00  0.45593999997E+02  0.45594000000E+02  0.51100000000E-03 0. -1.
         11   -1    0    0    0    0 -0.00000000000E+00 -0.00000000000E+00 -0.45593999997E+02  0.45594000000E+02  0.51100000000E-03 0.  1.
    9900012    2    1    2    0    0 -0.12707325126E+01  0.34645951113E+02  0.21241679109E+02  0.50528860548E+02  0.30000002121E+02 0.  0.
        -12    1    1    2    0    0  0.12707325126E+01 -0.34645951113E+02 -0.21241679109E+02  0.40659139452E+02  0.00000000000E+00 0.  1.
         11    1    3    3    0    0  0.31528700987E+01  0.10436716735E+02  0.12908799247E+02  0.16896826457E+02  0.51100000000E-03 0. -1.
        -11    1    3    3    0    0 -0.12058023522E+02  0.74688732176E+01  0.37256855751E+01  0.14664949085E+02  0.51100000000E-03 0.  1.
        -12    1    3    3    0    0  0.76344209109E+01  0.16740361160E+02  0.46071942871E+01  0.18967085005E+02  0.00000000000E+00 0.  1.
</event>
<event>
 7    1  0.6889665E-012  0.5052886E+02  0.7816164E-02  0.1300439E+00
        -11   -1    0    0    0    0  0.00000000000E+00  0.00000000000E+00  0.45593999997E+02  0.45594000000E+02  0.51100000000E-03 0.  1.
         11   -1    0    0    0    0 -0.00000000000E+00 -0.00000000000E+00 -0.45593999997E+02  0.45594000000E+02  0.51100000000E-03 0. -1.
    9900012    2    1    2    0    0  0.36350662344E+02  0.12262291379E+02 -0.13469637097E+02  0.50528861221E+02  0.30000004168E+02 0.  0.
         12    1    1    2    0    0 -0.36350662344E+02 -0.12262291379E+02  0.13469637097E+02  0.40659138779E+02  0.00000000000E+00 0. -1.
         11    1    3    3    0    0  0.13066992245E+02 -0.44785857980E+01  0.40310330236E+01  0.14389344828E+02  0.51100000000E-03 0. -1.
        -11    1    3    3    0    0  0.22372492147E+01  0.85441747457E+01 -0.31364932054E+01  0.93726088163E+01  0.51100000000E-03 0.  1.
         12    1    3    3    0    0  0.21046420884E+02  0.81967024311E+01 -0.14364176915E+02  0.26766907577E+02  0.00000000000E+00 0. -1.
</event>
<event>
 7    1  0.6889665E-012  0.5052886E+02  0.7816164E-02  0.1300439E+00
        -11   -1    0    0    0    0  0.00000000000E+00  0.00000000000E+00  0.45593999997E+02  0.45594000000E+02  0.51100000000E-03 0. -1.
         11   -1    0    0    0    0 -0.00000000000E+00 -0.00000000000E+00 -0.45593999997E+02  0.45594000000E+02  0.51100000000E-03 0.  1.
    9900012    2    1    2    0    0 -0.66102674908E+01 -0.84946156012E+01 -0.39208569568E+02  0.50528855172E+02  0.29999985782E+02 0.  0.
         12    1    1    2    0    0  0.66102674908E+01  0.84946156012E+01  0.39208569568E+02  0.40659144828E+02  0.00000000000E+00 0. -1.
         11    1    3    3    0    0 -0.11349242440E+02 -0.14202370459E+02 -0.27626856211E+02  0.33071979302E+02  0.51100000000E-03 0. -1.
        -11    1    3    3    0    0  0.46861441752E+01  0.35348853297E+01 -0.13396037831E+02  0.14625634734E+02  0.51100000000E-03 0.  1.
        -12    1    3    3    0    0  0.52830774182E-01  0.21728695281E+01  0.18143244738E+01  0.28312411365E+01  0.00000000000E+00 0.  1.
</event>
<event>
 7    1  0.6889665E-012  0.5052886E+02  0.7816164E-02  0.1300439E+00
        -11   -1    0    0    0    0  0.00000000000E+00  0.00000000000E+00  0.45593999997E+02  0.45594000000E+02  0.51100000000E-03 0. -1.
         11   -1    0    0    0    0 -0.00000000000E+00 -0.00000000000E+00 -0.45593999997E+02  0.45594000000E+02  0.51100000000E-03 0.  1.
    9900012    2    1    2    0    0  0.17936278850E+02 -0.18851584769E+02 -0.31242172043E+02  0.50528860052E+02  0.30000000616E+02 0.  0.
         12    1    1    2    0    0 -0.17936278850E+02  0.18851584769E+02  0.31242172043E+02  0.40659139948E+02  0.00000000000E+00 0. -1.
         11    1    3    3    0    0  0.53620434764E+01 -0.32898910118E+01 -0.47073040874E-01  0.62910340362E+01  0.51100000000E-03 0. -1.
        -11    1    3    3    0    0 -0.65940023135E+01 -0.82904692810E+01 -0.79539707705E+01  0.13246825985E+02  0.51100000000E-03 0.  1.
        -12    1    3    3    0    0  0.19168237687E+02 -0.72712244759E+01 -0.23241128232E+02  0.30991000031E+02  0.00000000000E+00 0.  1.
</event>
<event>
 7    1  0.6889665E-012  0.5052886E+02  0.7816164E-02  0.1300439E+00
        -11   -1    0    0    0    0  0.00000000000E+00  0.00000000000E+00  0.45593999997E+02  0.45594000000E+02  0.51100000000E-03 0. -1.
         11   -1    0    0    0    0 -0.00000000000E+00 -0.00000000000E+00 -0.45593999997E+02  0.45594000000E+02  0.51100000000E-03 0.  1.
    9900012    2    1    2    0    0 -0.15045988769E+02 -0.29930395960E+02  0.23042470649E+02  0.50528857929E+02  0.29999994160E+02 0.  0.
        -12    1    1    2    0    0  0.15045988769E+02  0.29930395960E+02 -0.23042470649E+02  0.40659142071E+02  0.00000000000E+00 0.  1.
         11    1    3    3    0    0 -0.84115158727E+01 -0.13070588562E+02  0.24387850877E+02  0.28919909324E+02  0.51100000000E-03 0. -1.
        -11    1    3    3    0    0 -0.10092790808E+01 -0.19601033815E+01 -0.48269765548E+01  0.53066328732E+01  0.51100000000E-03 0.  1.
        -12    1    3    3    0    0 -0.56251938154E+01 -0.14899704016E+02  0.34815963271E+01  0.16302315732E+02  0.00000000000E+00 0.  1.
</event>
<event>
 7    1  0.6889665E-012  0.5052886E+02  0.7816164E-02  0.1300439E+00
        -11   -1    0    0    0    0  0.00000000000E+00  0.00000000000E+00  0.45593999997E+02  0.45594000000E+02  0.51100000000E-03 0. -1.
         11   -1    0    0    0    0 -0.00000000000E+00 -0.00000000000E+00 -0.45593999997E+02  0.45594000000E+02  0.51100000000E-03 0.  1.
    9900012    2    1    2    0    0 -0.36932714793E+02 -0.10058240334E+02  0.13710291339E+02  0.50528859464E+02  0.29999998826E+02 0.  0.
        -12    1    1    2    0    0  0.36932714793E+02  0.10058240334E+02 -0.13710291339E+02  0.40659140536E+02  0.00000000000E+00 0.  1.
         11    1    3    3    0    0 -0.52476426775E-01 -0.19072556037E+01  0.22126350241E+01  0.29216659160E+01  0.51100000000E-03 0. -1.
        -11    1    3    3    0    0  0.40240726929E+01 -0.28792014763E+01  0.97169904306E+00  0.50425352225E+01  0.51100000000E-03 0.  1.
        -12    1    3    3    0    0 -0.40904311059E+02 -0.52717832536E+01  0.10525957272E+02  0.42564658325E+02  0.00000000000E+00 0.  1.
</event>
<event>
 7    1  0.6889665E-012  0.5052886E+02  0.7816164E-02  0.1300439E+00
        -11   -1    0    0    0    0  0.00000000000E+00  0.00000000000E+00  0.45593999997E+02  0.45594000000E+02  0.51100000000E-03 0. -1.
         11   -1    0    0    0    0 -0.00000000000E+00 -0.00000000000E+00 -0.45593999997E+02  0.45594000000E+02  0.51100000000E-03 0.  1.
    9900012    2    1    2    0    0  0.93354765056E+01 -0.22866907279E+02  0.32297359697E+02  0.50528855721E+02  0.29999987449E+02 0.  0.
        -12    1    1    2    0    0 -0.93354765056E+01  0.22866907279E+02 -0.32297359697E+02  0.40659144279E+02  0.00000000000E+00 0.  1.
         11    1    3    3    0    0  0.94478910682E+01 -0.61425603879E+01  0.12908428067E+02  0.17135378875E+02  0.51100000000E-03 0. -1.
        -11    1    3    3    0    0 -0.10475913179E+02 -0.95590767912E+01  0.73766329864E+01  0.15985475298E+02  0.51100000000E-03 0.  1.
        -12    1    3    3    0    0  0.10363498617E+02 -0.71652701000E+01  0.12012298644E+02  0.17408001548E+02  0.00000000000E+00 0.  1.
</event>
<event>
 7    1  0.6889665E-012  0.5052885E+02  0.7816164E-02  0.1300439E+00
        -11   -1    0    0    0    0  0.00000000000E+00  0.00000000000E+00  0.45593999997E+02  0.45594000000E+02  0.51100000000E-03 0. -1.
         11   -1    0    0    0    0 -0.00000000000E+00 -0.00000000000E+00 -0.45593999997E+02  0.45594000000E+02  0.51100000000E-03 0.  1.
    9900012    2    1    2    0    0  0.24053013247E+02 -0.26958607901E+02  0.18650799871E+02  0.50528851927E+02  0.29999975917E+02 0.  0.
        -12    1    1    2    0    0 -0.24053013247E+02  0.26958607901E+02 -0.18650799871E+02  0.40659148073E+02  0.00000000000E+00 0.  1.
         11    1    3    3    0    0  0.93031578081E+01 -0.11168938852E+02  0.16662768007E+02  0.22112027908E+02  0.51100000000E-03 0. -1.
        -11    1    3    3    0    0  0.10729561320E+02 -0.24910960627E+01 -0.58430404132E+01  0.12468767671E+02  0.51100000000E-03 0.  1.
         12    1    3    3    0    0  0.40202941192E+01 -0.13298572986E+02  0.78310722767E+01  0.15948056348E+02  0.00000000000E+00 0. -1.
</event>
<event>
 7    1  0.6889665E-012  0.5052886E+02  0.7816164E-02  0.1300439E+00
        -11   -1    0    0    0    0  0.00000000000E+00  0.00000000000E+00  0.45593999997E+02  0.45594000000E+02  0.51100000000E-03 0. -1.
         11   -1    0    0    0    0 -0.00000000000E+00 -0.00000000000E+00 -0.45593999997E+02  0.45594000000E+02  0.51100000000E-03 0.  1.
    9900012    2    1    2    0    0 -0.26871481512E+00 -0.31448185053E+02  0.25770243847E+02  0.50528855657E+02  0.29999987256E+02 0.  0.
        -12    1    1    2    0    0  0.26871481512E+00  0.31448185053E+02 -0.25770243847E+02  0.40659144343E+02  0.00000000000E+00 0.  1.
         11    1    3    3    0    0  0.53605874794E+01 -0.26667440102E+02  0.24429696602E+02  0.36560885329E+02  0.51100000000E-03 0. -1.
        -11    1    3    3    0    0 -0.70914440215E+01 -0.50929551667E+01 -0.31137703684E+01  0.92694302310E+01  0.51100000000E-03 0.  1.
        -12    1    3    3    0    0  0.14621417270E+01  0.31221021573E+00  0.44543176128E+01  0.46985400971E+01  0.00000000000E+00 0.  1.
</event>
<event>
 7    1  0.6889665E-012  0.5052885E+02  0.7816164E-02  0.1300439E+00
        -11   -1    0    0    0    0  0.00000000000E+00  0.00000000000E+00  0.45593999997E+02  0.45594000000E+02  0.51100000000E-03 0. -1.
         11   -1    0    0    0    0 -0.00000000000E+00 -0.00000000000E+00 -0.45593999997E+02  0.45594000000E+02  0.51100000000E-03 0.  1.
    9900012    2    1    2    0    0  0.12207378650E+02  0.23654193881E+02  0.30734756697E+02  0.50528852801E+02  0.29999978575E+02 0.  0.
        -12    1    1    2    0    0 -0.12207378650E+02 -0.23654193881E+02 -0.30734756697E+02  0.40659147199E+02  0.00000000000E+00 0.  1.
         11    1    3    3    0    0  0.99807468532E+01  0.27668303584E+02  0.25607981083E+02  0.38998961863E+02  0.51100000000E-03 0. -1.
        -11    1    3    3    0    0  0.19099319410E+01 -0.31844426516E+01  0.78400629401E+01  0.86749698666E+01  0.51100000000E-03 0.  1.
         12    1    3    3    0    0  0.31669985632E+00 -0.82966705157E+00 -0.27132873255E+01  0.28549210718E+01  0.00000000000E+00 0. -1.
</event>
<event>
 7    1  0.8029806E-012  0.5052886E+02  0.7816164E-02  0.1300439E+00
        -11   -1    0    0    0    0  0.00000000000E+00  0.00000000000E+00  0.45593999997E+02  0.45594000000E+02  0.51100000000E-03 0. -1.
         11   -1    0    0    0    0 -0.00000000000E+00 -0.00000000000E+00 -0.45593999997E+02  0.45594000000E+02  0.51100000000E-03 0.  1.
    9900012    2    1    2    0    0 -0.65733805714E-01  0.16819117028E+02  0.37017277214E+02  0.50528857967E+02  0.29999994278E+02 0.  0.
        -12    1    1    2    0    0  0.65733805714E-01 -0.16819117028E+02 -0.37017277214E+02  0.40659142033E+02  0.00000000000E+00 0.  1.
         11    1    3    3    0    0 -0.27030170064E+01  0.17630922058E+02  0.27093797971E+02  0.32438088758E+02  0.51100000000E-03 0. -1.
        -11    1    3    3    0    0  0.71639849698E+01  0.26180364991E+01  0.12586084061E+01  0.77305168740E+01  0.51100000000E-03 0.  1.
         12    1    3    3    0    0 -0.45267017691E+01 -0.34298415299E+01  0.86648708367E+01  0.10360252335E+02  0.00000000000E+00 0. -1.
</event>
<event>
 7    1  0.6889665E-012  0.5052886E+02  0.7816164E-02  0.1300439E+00
        -11   -1    0    0    0    0  0.00000000000E+00  0.00000000000E+00  0.45593999997E+02  0.45594000000E+02  0.51100000000E-03 0.  1.
         11   -1    0    0    0    0 -0.00000000000E+00 -0.00000000000E+00 -0.45593999997E+02  0.45594000000E+02  0.51100000000E-03 0. -1.
    9900012    2    1    2    0    0  0.39809288385E+02  0.13441251202E+01 -0.81596289479E+01  0.50528860085E+02  0.30000000715E+02 0.  0.
         12    1    1    2    0    0 -0.39809288385E+02 -0.13441251202E+01  0.81596289479E+01  0.40659139915E+02  0.00000000000E+00 0. -1.
         11    1    3    3    0    0  0.35361219142E+02  0.27448718328E+01 -0.15123576964E+02  0.38557395154E+02  0.51100000000E-03 0. -1.
        -11    1    3    3    0    0  0.23972371392E+01 -0.15417413016E+00 -0.17248536836E+01  0.29573021583E+01  0.51100000000E-03 0.  1.
         12    1    3    3    0    0  0.20508321032E+01 -0.12465725825E+01  0.86888016998E+01  0.90141627729E+01  0.00000000000E+00 0. -1.
</event>
<event>
 7    1  0.6889665E-012  0.5052886E+02  0.7816164E-02  0.1300439E+00
        -11   -1    0    0    0    0  0.00000000000E+00  0.00000000000E+00  0.45593999997E+02  0.45594000000E+02  0.51100000000E-03 0. -1.
         11   -1    0    0    0    0 -0.00000000000E+00 -0.00000000000E+00 -0.45593999997E+02  0.45594000000E+02  0.51100000000E-03 0.  1.
    9900012    2    1    2    0    0  0.18109256439E+01  0.98482339065E+01 -0.39406833589E+02  0.50528859622E+02  0.29999999307E+02 0.  0.
         12    1    1    2    0    0 -0.18109256439E+01 -0.98482339065E+01  0.39406833589E+02  0.40659140378E+02  0.00000000000E+00 0. -1.
         11    1    3    3    0    0  0.66545463958E+01  0.57541979156E+01 -0.17875248637E+02  0.19922808423E+02  0.51100000000E-03 0.  1.
        -11    1    3    3    0    0 -0.48713811924E+01  0.10846207762E+02 -0.52838735700E+01  0.13011145134E+02  0.51100000000E-03 0. -1.
        -12    1    3    3    0    0  0.27760440557E-01 -0.67521717709E+01 -0.16247711382E+02  0.17594906065E+02  0.00000000000E+00 0.  1.
</event>
<event>
 7    1  0.6889665E-012  0.5052886E+02  0.7816164E-02  0.1300439E+00
        -11   -1    0    0    0    0  0.00000000000E+00  0.00000000000E+00  0.45593999997E+02  0.45594000000E+02  0.51100000000E-03 0. -1.
         11   -1    0    0    0    0 -0.00000000000E+00 -0.00000000000E+00 -0.45593999997E+02  0.45594000000E+02  0.51100000000E-03 0.  1.
    9900012    2    1    2    0    0  0.80517943929E+01  0.14699260293E+02  0.37044111919E+02  0.50528857437E+02  0.29999992665E+02 0.  0.
        -12    1    1    2    0    0 -0.80517943929E+01 -0.14699260293E+02 -0.37044111919E+02  0.40659142563E+02  0.00000000000E+00 0.  1.
         11    1    3    3    0    0  0.66076484492E+01  0.21826556964E+02  0.23150627789E+02  0.32496325550E+02  0.51100000000E-03 0. -1.
        -11    1    3    3    0    0  0.43455069210E+01 -0.72652694650E+01  0.11431529152E+02  0.14224887690E+02  0.51100000000E-03 0.  1.
        -12    1    3    3    0    0 -0.29013609773E+01  0.13797279369E+00  0.24619549785E+01  0.38076441967E+01  0.00000000000E+00 0.  1.
</event>
<event>
 7    1  0.6889665E-012  0.5052886E+02  0.7816164E-02  0.1300439E+00
        -11   -1    0    0    0    0  0.00000000000E+00  0.00000000000E+00  0.45593999997E+02  0.45594000000E+02  0.51100000000E-03 0. -1.
         11   -1    0    0    0    0 -0.00000000000E+00 -0.00000000000E+00 -0.45593999997E+02  0.45594000000E+02  0.51100000000E-03 0.  1.
    9900012    2    1    2    0    0 -0.73793098404E+01 -0.22787142929E+02  0.32855099034E+02  0.50528860448E+02  0.30000001817E+02 0.  0.
        -12    1    1    2    0    0  0.73793098404E+01  0.22787142929E+02 -0.32855099034E+02  0.40659139552E+02  0.00000000000E+00 0.  1.
         11    1    3    3    0    0  0.16700075298E+01 -0.87764060827E+01  0.16350637793E+02  0.18632165343E+02  0.51100000000E-03 0. -1.
        -11    1    3    3    0    0 -0.20411931678E+01 -0.15408187474E+02  0.19268924218E+01  0.15661788706E+02  0.51100000000E-03 0.  1.
        -12    1    3    3    0    0 -0.70081242024E+01  0.13974506284E+01  0.14577568820E+02  0.16234906399E+02  0.00000000000E+00 0.  1.
</event>
<event>
 7    1  0.9041460E-012  0.5052886E+02  0.7816164E-02  0.1300439E+00
        -11   -1    0    0    0    0  0.00000000000E+00  0.00000000000E+00  0.45593999997E+02  0.45594000000E+02  0.51100000000E-03 0. -1.
         11   -1    0    0    0    0 -0.00000000000E+00 -0.00000000000E+00 -0.45593999997E+02  0.45594000000E+02  0.51100000000E-03 0.  1.
    9900012    2    1    2    0    0  0.93836546995E+01 -0.11687574873E+02 -0.37795678522E+02  0.50528859615E+02  0.29999999285E+02 0.  0.
         12    1    1    2    0    0 -0.93836546995E+01  0.11687574873E+02  0.37795678522E+02  0.40659140385E+02  0.00000000000E+00 0. -1.
         11    1    3    3    0    0 -0.15923305528E+01  0.58037542607E+00  0.11612215356E+01  0.20544556312E+01  0.51100000000E-03 0. -1.
        -11    1    3    3    0    0  0.10146521310E+02 -0.56170625351E+01 -0.40039335101E+02  0.41685148936E+02  0.51100000000E-03 0.  1.
        -12    1    3    3    0    0  0.82946394227E+00 -0.66508877640E+01  0.10824350434E+01  0.67892550478E+01  0.00000000000E+00 0.  1.
</event>
<event>
 7    1  0.6889665E-012  0.5052885E+02  0.7816164E-02  0.1300439E+00
        -11   -1    0    0    0    0  0.00000000000E+00  0.00000000000E+00  0.45593999997E+02  0.45594000000E+02  0.51100000000E-03 0.  1.
         11   -1    0    0    0    0 -0.00000000000E+00 -0.00000000000E+00 -0.45593999997E+02  0.45594000000E+02  0.51100000000E-03 0. -1.
    9900012    2    1    2    0    0 -0.28277472190E+02 -0.29159537571E+02  0.18089191424E+01  0.50528852773E+02  0.29999978488E+02 0.  0.
        -12    1    1    2    0    0  0.28277472190E+02  0.29159537571E+02 -0.18089191424E+01  0.40659147227E+02  0.00000000000E+00 0.  1.
         11    1    3    3    0    0 -0.31679342691E+01 -0.58007314470E+01 -0.57848142499E+01  0.87834144284E+01  0.51100000000E-03 0. -1.
        -11    1    3    3    0    0 -0.44268258217E+01 -0.16842841980E+02  0.97417938969E+01  0.19954464699E+02  0.51100000000E-03 0.  1.
        -12    1    3    3    0    0 -0.20682712099E+02 -0.65159641437E+01 -0.21480605046E+01  0.21790973645E+02  0.00000000000E+00 0.  1.
</event>
<event>
 7    1  0.6889665E-012  0.5052886E+02  0.7816164E-02  0.1300439E+00
        -11   -1    0    0    0    0  0.00000000000E+00  0.00000000000E+00  0.45593999997E+02  0.45594000000E+02  0.51100000000E-03 0. -1.
         11   -1    0    0    0    0 -0.00000000000E+00 -0.00000000000E+00 -0.45593999997E+02  0.45594000000E+02  0.51100000000E-03 0.  1.
    9900012    2    1    2    0    0 -0.11815477796E+01  0.28819565931E+02 -0.28656630438E+02  0.50528857072E+02  0.29999991555E+02 0.  0.
         12    1    1    2    0    0  0.11815477796E+01 -0.28819565931E+02  0.28656630438E+02  0.40659142928E+02  0.00000000000E+00 0. -1.
         11    1    3    3    0    0  0.18412063859E+01 -0.50227638580E+01 -0.74833678332E+01  0.91988581964E+01  0.51100000000E-03 0. -1.
        -11    1    3    3    0    0 -0.52087194684E+01  0.16367585628E+02 -0.14563850478E+02  0.22519643842E+02  0.51100000000E-03 0.  1.
         12    1    3    3    0    0  0.21859653030E+01  0.17474744161E+02 -0.66094121278E+01  0.18810355033E+02  0.00000000000E+00 0. -1.
</event>
<event>
 7    1  0.6889665E-012  0.5052885E+02  0.7816164E-02  0.1300439E+00
        -11   -1    0    0    0    0  0.00000000000E+00  0.00000000000E+00  0.45593999997E+02  0.45594000000E+02  0.51100000000E-03 0. -1.
         11   -1    0    0    0    0 -0.00000000000E+00 -0.00000000000E+00 -0.45593999997E+02  0.45594000000E+02  0.51100000000E-03 0.  1.
    9900012    2    1    2    0    0 -0.21990621210E+02  0.23540198640E+02 -0.24808022823E+02  0.50528851342E+02  0.29999974139E+02 0.  0.
         12    1    1    2    0    0  0.21990621210E+02 -0.23540198640E+02  0.24808022823E+02  0.40659148658E+02  0.00000000000E+00 0. -1.
         11    1    3    3    0    0 -0.95976209129E+01  0.14937510079E+02 -0.35031866725E+01  0.18097399030E+02  0.51100000000E-03 0. -1.
        -11    1    3    3    0    0  0.35365778296E+01  0.57885604895E+01 -0.11960592915E+02  0.13750294485E+02  0.51100000000E-03 0.  1.
         12    1    3    3    0    0 -0.15929578126E+02  0.28141280714E+01 -0.93442432357E+01  0.18681157826E+02  0.00000000000E+00 0. -1.
</event>
<event>
 7    1  0.6889665E-012  0.5052881E+02  0.7816164E-02  0.1300439E+00
        -11   -1    0    0    0    0  0.00000000000E+00  0.00000000000E+00  0.45593999997E+02  0.45594000000E+02  0.51100000000E-03 0. -1.
         11   -1    0    0    0    0 -0.00000000000E+00 -0.00000000000E+00 -0.45593999997E+02  0.45594000000E+02  0.51100000000E-03 0.  1.
    9900012    2    1    2    0    0  0.26652937249E+02  0.43351277502E+00  0.30701841053E+02  0.50528806188E+02  0.29999836890E+02 0.  0.
        -12    1    1    2    0    0 -0.26652937249E+02 -0.43351277502E+00 -0.30701841053E+02  0.40659193812E+02  0.00000000000E+00 0.  1.
         11    1    3    3    0    0  0.79626394730E+01  0.10009836524E+02  0.98851993157E+01  0.16165321536E+02  0.51100000000E-03 0. -1.
        -11    1    3    3    0    0  0.20083404122E+01 -0.95827623804E+01  0.12024207095E+02  0.15506267203E+02  0.51100000000E-03 0.  1.
        -12    1    3    3    0    0  0.16681957364E+02  0.64386318267E-02  0.87924346426E+01  0.18857217449E+02  0.00000000000E+00 0.  1.
</event>
<event>
 7    1  0.6889665E-012  0.5052886E+02  0.7816164E-02  0.1300439E+00
        -11   -1    0    0    0    0  0.00000000000E+00  0.00000000000E+00  0.45593999997E+02  0.45594000000E+02  0.51100000000E-03 0. -1.
         11   -1    0    0    0    0 -0.00000000000E+00 -0.00000000000E+00 -0.45593999997E+02  0.45594000000E+02  0.51100000000E-03 0.  1.
    9900012    2    1    2    0    0  0.10782329617E+02 -0.32862815607E+02  0.21376204769E+02  0.50528863119E+02  0.30000009936E+02 0.  0.
        -12    1    1    2    0    0 -0.10782329617E+02  0.32862815607E+02 -0.21376204769E+02  0.40659136881E+02  0.00000000000E+00 0.  1.
         11    1    3    3    0    0 -0.35340070128E+01 -0.22879626000E+02  0.22989399158E+02  0.32626353848E+02  0.51100000000E-03 0. -1.
        -11    1    3    3    0    0  0.42998907681E+01 -0.37132972207E+01 -0.21470082432E+01  0.60734900613E+01  0.51100000000E-03 0.  1.
         12    1    3    3    0    0  0.10016445862E+02 -0.62698923865E+01  0.53381385370E+00  0.11829019210E+02  0.00000000000E+00 0. -1.
</event>
<event>
 7    1  0.6889665E-012  0.5052887E+02  0.7816164E-02  0.1300439E+00
        -11   -1    0    0    0    0  0.00000000000E+00  0.00000000000E+00  0.45593999997E+02  0.45594000000E+02  0.51100000000E-03 0. -1.
         11   -1    0    0    0    0 -0.00000000000E+00 -0.00000000000E+00 -0.45593999997E+02  0.45594000000E+02  0.51100000000E-03 0.  1.
    9900012    2    1    2    0    0 -0.80979136883E+01  0.28075245215E+02  0.28273116833E+02  0.50528871437E+02  0.30000035221E+02 0.  0.
        -12    1    1    2    0    0  0.80979136883E+01 -0.28075245215E+02 -0.28273116833E+02  0.40659128563E+02  0.00000000000E+00 0.  1.
         11    1    3    3    0    0 -0.14285403396E+02  0.14623397829E+02  0.24956443377E+02  0.32260511163E+02  0.51100000000E-03 0. -1.
        -11    1    3    3    0    0 -0.12929401323E+01  0.86402242439E+01 -0.10913960533E+00  0.87371094125E+01  0.51100000000E-03 0.  1.
         12    1    3    3    0    0  0.74804298396E+01  0.48116231427E+01  0.34258130619E+01  0.95312508616E+01  0.00000000000E+00 0. -1.
</event>
<event>
 7    1  0.6889665E-012  0.5052887E+02  0.7816164E-02  0.1300439E+00
        -11   -1    0    0    0    0  0.00000000000E+00  0.00000000000E+00  0.45593999997E+02  0.45594000000E+02  0.51100000000E-03 0. -1.
         11   -1    0    0    0    0 -0.00000000000E+00 -0.00000000000E+00 -0.45593999997E+02  0.45594000000E+02  0.51100000000E-03 0.  1.
    9900012    2    1    2    0    0  0.15258390536E+02 -0.37590574838E+02  0.27009789216E+01  0.50528867132E+02  0.30000022135E+02 0.  0.
        -12    1    1    2    0    0 -0.15258390536E+02  0.37590574838E+02 -0.27009789216E+01  0.40659132868E+02  0.00000000000E+00 0.  1.
         11    1    3    3    0    0  0.33676906452E+01 -0.34298889087E+02  0.25344893684E+01  0.34556891780E+02  0.51100000000E-03 0. -1.
        -11    1    3    3    0    0 -0.74500046740E+00 -0.28324736922E+00  0.26329723629E+01  0.27509631938E+01  0.51100000000E-03 0.  1.
         12    1    3    3    0    0  0.12635700359E+02 -0.30084383821E+01 -0.24664828097E+01  0.13221012159E+02  0.00000000000E+00 0. -1.
</event>
<event>
 7    1  0.6889665E-012  0.5052886E+02  0.7816164E-02  0.1300439E+00
        -11   -1    0    0    0    0  0.00000000000E+00  0.00000000000E+00  0.45593999997E+02  0.45594000000E+02  0.51100000000E-03 0. -1.
         11   -1    0    0    0    0 -0.00000000000E+00 -0.00000000000E+00 -0.45593999997E+02  0.45594000000E+02  0.51100000000E-03 0.  1.
    9900012    2    1    2    0    0  0.27733257973E+02 -0.29688649698E+02  0.16174540302E+01  0.50528859868E+02  0.30000000056E+02 0.  0.
         12    1    1    2    0    0 -0.27733257973E+02  0.29688649698E+02 -0.16174540302E+01  0.40659140132E+02  0.00000000000E+00 0. -1.
         11    1    3    3    0    0  0.14212939492E+02 -0.48151130130E+01  0.12964297165E+02  0.19830934511E+02  0.51100000000E-03 0. -1.
        -11    1    3    3    0    0  0.70757787831E+01 -0.13808288953E+02 -0.43886707630E+01  0.16124388997E+02  0.51100000000E-03 0.  1.
         12    1    3    3    0    0  0.64445396989E+01 -0.11065247732E+02 -0.69581723722E+01  0.14573536361E+02  0.00000000000E+00 0. -1.
</event>
<event>
 7    1  0.6889665E-012  0.5052886E+02  0.7816164E-02  0.1300439E+00
        -11   -1    0    0    0    0  0.00000000000E+00  0.00000000000E+00  0.45593999997E+02  0.45594000000E+02  0.51100000000E-03 0. -1.
         11   -1    0    0    0    0 -0.00000000000E+00 -0.00000000000E+00 -0.45593999997E+02  0.45594000000E+02  0.51100000000E-03 0.  1.
    9900012    2    1    2    0    0  0.18225439691E+02 -0.35453138164E+02  0.80046385259E+01  0.50528857172E+02  0.29999991860E+02 0.  0.
        -12    1    1    2    0    0 -0.18225439691E+02  0.35453138164E+02 -0.80046385259E+01  0.40659142828E+02  0.00000000000E+00 0.  1.
         11    1    3    3    0    0 -0.73240550150E+01 -0.11826012633E+02  0.45513922200E+01  0.14635966933E+02  0.51100000000E-03 0. -1.
        -11    1    3    3    0    0  0.12880408212E+02 -0.86429858961E+01 -0.17025946740E+01  0.15604645135E+02  0.51100000000E-03 0.  1.
         12    1    3    3    0    0  0.12669086493E+02 -0.14984139635E+02  0.51558409800E+01  0.20288245104E+02  0.00000000000E+00 0. -1.
</event>
<event>
 7    1  0.6889665E-012  0.5052886E+02  0.7816164E-02  0.1300439E+00
        -11   -1    0    0    0    0  0.00000000000E+00  0.00000000000E+00  0.45593999997E+02  0.45594000000E+02  0.51100000000E-03 0. -1.
         11   -1    0    0    0    0 -0.00000000000E+00 -0.00000000000E+00 -0.45593999997E+02  0.45594000000E+02  0.51100000000E-03 0.  1.
    9900012    2    1    2    0    0 -0.66900656731E+00  0.28273145760E+02  0.29212112778E+02  0.50528857438E+02  0.29999992669E+02 0.  0.
        -12    1    1    2    0    0  0.66900656731E+00 -0.28273145760E+02 -0.29212112778E+02  0.40659142562E+02  0.00000000000E+00 0.  1.
         11    1    3    3    0    0 -0.13449544980E+02  0.13573753329E+02  0.12489926957E+02  0.22828388363E+02  0.51100000000E-03 0. -1.
        -11    1    3    3    0    0  0.77705555123E+01  0.11845825011E+02  0.57182832261E+01  0.15277560881E+02  0.51100000000E-03 0.  1.
         12    1    3    3    0    0  0.50099829006E+01  0.28535674197E+01  0.11003902595E+02  0.12422908194E+02  0.00000000000E+00 0. -1.
</event>
<event>
 7    1  0.6889665E-012  0.5052884E+02  0.7816164E-02  0.1300439E+00
        -11   -1    0    0    0    0  0.00000000000E+00  0.00000000000E+00  0.45593999997E+02  0.45594000000E+02  0.51100000000E-03 0.  1.
         11   -1    0    0    0    0 -0.00000000000E+00 -0.00000000000E+00 -0.45593999997E+02  0.45594000000E+02  0.51100000000E-03 0. -1.
    9900012    2    1    2    0    0  0.81952714548E+01  0.35197300086E+02  0.18632098060E+02  0.50528837618E+02  0.29999932422E+02 0.  0.
        -12    1    1    2    0    0 -0.81952714548E+01 -0.35197300086E+02 -0.18632098060E+02  0.40659162382E+02  0.00000000000E+00 0.  1.
         11    1    3    3    0    0 -0.62618760204E+01  0.49066591504E+01 -0.42140843247E+01  0.90024942250E+01  0.51100000000E-03 0. -1.
        -11    1    3    3    0    0  0.11602657837E+02  0.19991469441E+02  0.19740444961E+02  0.30396803892E+02  0.51100000000E-03 0.  1.
         12    1    3    3    0    0  0.28544896380E+01  0.10299171494E+02  0.31057374230E+01  0.11129539501E+02  0.00000000000E+00 0. -1.
</event>
<event>
 7    1  0.6889665E-012  0.5052886E+02  0.7816164E-02  0.1300439E+00
        -11   -1    0    0    0    0  0.00000000000E+00  0.00000000000E+00  0.45593999997E+02  0.45594000000E+02  0.51100000000E-03 0. -1.
         11   -1    0    0    0    0 -0.00000000000E+00 -0.00000000000E+00 -0.45593999997E+02  0.45594000000E+02  0.51100000000E-03 0.  1.
    9900012    2    1    2    0    0  0.18771575503E+01  0.35473877904E+02 -0.19779938138E+02  0.50528859739E+02  0.29999999662E+02 0.  0.
         12    1    1    2    0    0 -0.18771575503E+01 -0.35473877904E+02  0.19779938138E+02  0.40659140261E+02  0.00000000000E+00 0. -1.
         11    1    3    3    0    0  0.29896342302E+01  0.84722479824E+01 -0.18141101233E+02  0.20243923851E+02  0.51100000000E-03 0. -1.
        -11    1    3    3    0    0 -0.65122994601E+01  0.11192316843E+02 -0.36617749090E+01  0.13456841989E+02  0.51100000000E-03 0.  1.
         12    1    3    3    0    0  0.53998227802E+01  0.15809313079E+02  0.20229380032E+01  0.16828093899E+02  0.00000000000E+00 0. -1.
</event>
<event>
 7    1  0.6889665E-012  0.5052886E+02  0.7816164E-02  0.1300439E+00
        -11   -1    0    0    0    0  0.00000000000E+00  0.00000000000E+00  0.45593999997E+02  0.45594000000E+02  0.51100000000E-03 0. -1.
         11   -1    0    0    0    0 -0.00000000000E+00 -0.00000000000E+00 -0.45593999997E+02  0.45594000000E+02  0.51100000000E-03 0.  1.
    9900012    2    1    2    0    0  0.14374676401E+02  0.20536161661E+02  0.32012505131E+02  0.50528859058E+02  0.29999997593E+02 0.  0.
        -12    1    1    2    0    0 -0.14374676401E+02 -0.20536161661E+02 -0.32012505131E+02  0.40659140942E+02  0.00000000000E+00 0.  1.
         11    1    3    3    0    0  0.59072512602E+01  0.52440624645E+00  0.27378058908E+02  0.28013009999E+02  0.51100000000E-03 0. -1.
        -11    1    3    3    0    0  0.27285499059E+01  0.97513215849E+01  0.34613916163E+01  0.10701144304E+02  0.51100000000E-03 0.  1.
         12    1    3    3    0    0  0.57388752346E+01  0.10260433830E+02  0.11730546066E+01  0.11814704755E+02  0.00000000000E+00 0. -1.
</event>
<event>
 7    1  0.6889665E-012  0.5052886E+02  0.7816164E-02  0.1300439E+00
        -11   -1    0    0    0    0  0.00000000000E+00  0.00000000000E+00  0.45593999997E+02  0.45594000000E+02  0.51100000000E-03 0. -1.
         11   -1    0    0    0    0 -0.00000000000E+00 -0.00000000000E+00 -0.45593999997E+02  0.45594000000E+02  0.51100000000E-03 0.  1.
    9900012    2    1    2    0    0 -0.30277852663E+02 -0.16538891233E+02 -0.21514705706E+02  0.50528857772E+02  0.29999993684E+02 0.  0.
         12    1    1    2    0    0  0.30277852663E+02  0.16538891233E+02  0.21514705706E+02  0.40659142228E+02  0.00000000000E+00 0. -1.
         11    1    3    3    0    0 -0.87685352764E+01 -0.13422353452E+02 -0.53250528447E+01  0.16893873776E+02  0.51100000000E-03 0. -1.
        -11    1    3    3    0    0 -0.18078499452E+02  0.34891491867E+00 -0.14848938220E+01  0.18142733917E+02  0.51100000000E-03 0.  1.
        -12    1    3    3    0    0 -0.34308179346E+01 -0.34654526993E+01 -0.14704759039E+02  0.15492250079E+02  0.00000000000E+00 0.  1.
</event>
<event>
 7    1  0.6889665E-012  0.5052887E+02  0.7816164E-02  0.1300439E+00
        -11   -1    0    0    0    0  0.00000000000E+00  0.00000000000E+00  0.45593999997E+02  0.45594000000E+02  0.51100000000E-03 0. -1.
         11   -1    0    0    0    0 -0.00000000000E+00 -0.00000000000E+00 -0.45593999997E+02  0.45594000000E+02  0.51100000000E-03 0.  1.
    9900012    2    1    2    0    0 -0.29407320618E+02  0.12611656324E+02  0.25086262814E+02  0.50528868637E+02  0.30000026710E+02 0.  0.
        -12    1    1    2    0    0  0.29407320618E+02 -0.12611656324E+02 -0.25086262814E+02  0.40659131363E+02  0.00000000000E+00 0.  1.
         11    1    3    3    0    0 -0.22126611371E+02  0.27862565253E+01  0.16161988767E+02  0.27541968654E+02  0.51100000000E-03 0. -1.
        -11    1    3    3    0    0  0.51747135200E+01 -0.16834899993E+00  0.16065614169E+01  0.54209815760E+01  0.51100000000E-03 0.  1.
        -12    1    3    3    0    0 -0.12455422767E+02  0.99937487982E+01  0.73177126308E+01  0.17565918407E+02  0.00000000000E+00 0.  1.
</event>
<event>
 7    1  0.6889665E-012  0.5052886E+02  0.7816164E-02  0.1300439E+00
        -11   -1    0    0    0    0  0.00000000000E+00  0.00000000000E+00  0.45593999997E+02  0.45594000000E+02  0.51100000000E-03 0. -1.
         11   -1    0    0    0    0 -0.00000000000E+00 -0.00000000000E+00 -0.45593999997E+02  0.45594000000E+02  0.51100000000E-03 0.  1.
    9900012    2    1    2    0    0 -0.34247382656E+02  0.14000088844E+02  0.16860610169E+02  0.50528857342E+02  0.29999992376E+02 0.  0.
        -12    1    1    2    0    0  0.34247382656E+02 -0.14000088844E+02 -0.16860610169E+02  0.40659142658E+02  0.00000000000E+00 0.  1.
         11    1    3    3    0    0 -0.18715220064E+02  0.16862415216E+02  0.16694118052E+02  0.30220755893E+02  0.51100000000E-03 0. -1.
        -11    1    3    3    0    0 -0.14759486979E+01 -0.45678150497E+01  0.32756266845E+01  0.58114618921E+01  0.51100000000E-03 0.  1.
        -12    1    3    3    0    0 -0.14056213894E+02  0.17054886773E+01 -0.31091345674E+01  0.14496639556E+02  0.00000000000E+00 0.  1.
</event>
<event>
 7    1  0.6889665E-012  0.5052886E+02  0.7816164E-02  0.1300439E+00
        -11   -1    0    0    0    0  0.00000000000E+00  0.00000000000E+00  0.45593999997E+02  0.45594000000E+02  0.51100000000E-03 0. -1.
         11   -1    0    0    0    0 -0.00000000000E+00 -0.00000000000E+00 -0.45593999997E+02  0.45594000000E+02  0.51100000000E-03 0.  1.
    9900012    2    1    2    0    0  0.19344764843E+02  0.29920043725E+02 -0.19589194598E+02  0.50528862179E+02  0.30000007079E+02 0.  0.
         12    1    1    2    0    0 -0.19344764843E+02 -0.29920043725E+02  0.19589194598E+02  0.40659137821E+02  0.00000000000E+00 0. -1.
         11    1    3    3    0    0  0.49499373515E+01  0.30970507025E+01  0.58235039068E+01  0.82466236031E+01  0.51100000000E-03 0. -1.
        -11    1    3    3    0    0  0.14415353740E+02  0.12584728879E+02 -0.17809463727E+02  0.26141056270E+02  0.51100000000E-03 0.  1.
         12    1    3    3    0    0 -0.20526248231E-01  0.14238264143E+02 -0.76032347779E+01  0.16141182306E+02  0.00000000000E+00 0. -1.
</event>
<event>
 7    1  0.6889665E-012  0.5052886E+02  0.7816164E-02  0.1300439E+00
        -11   -1    0    0    0    0  0.00000000000E+00  0.00000000000E+00  0.45593999997E+02  0.45594000000E+02  0.51100000000E-03 0. -1.
         11   -1    0    0    0    0 -0.00000000000E+00 -0.00000000000E+00 -0.45593999997E+02  0.45594000000E+02  0.51100000000E-03 0.  1.
    9900012    2    1    2    0    0 -0.13857615059E+02 -0.40145084769E+01 -0.38013367010E+02  0.50528857795E+02  0.29999993753E+02 0.  0.
         12    1    1    2    0    0  0.13857615059E+02  0.40145084769E+01  0.38013367010E+02  0.40659142205E+02  0.00000000000E+00 0. -1.
         11    1    3    3    0    0 -0.23855348568E+01 -0.10789934264E+02 -0.16367380349E+02  0.19748534065E+02  0.51100000000E-03 0. -1.
        -11    1    3    3    0    0  0.59998008178E-01  0.54703751529E+01 -0.17693669384E+02  0.18520111788E+02  0.51100000000E-03 0.  1.
         12    1    3    3    0    0 -0.11532078211E+02  0.13050506338E+01 -0.39523172768E+01  0.12260211942E+02  0.00000000000E+00 0. -1.
</event>
<event>
 7    1  0.6889665E-012  0.5052886E+02  0.7816164E-02  0.1300439E+00
        -11   -1    0    0    0    0  0.00000000000E+00  0.00000000000E+00  0.45593999997E+02  0.45594000000E+02  0.51100000000E-03 0. -1.
         11   -1    0    0    0    0 -0.00000000000E+00 -0.00000000000E+00 -0.45593999997E+02  0.45594000000E+02  0.51100000000E-03 0.  1.
    9900012    2    1    2    0    0  0.26884451107E+01 -0.34488707146E+02 -0.21365095833E+02  0.50528856162E+02  0.29999988789E+02 0.  0.
         12    1    1    2    0    0 -0.26884451107E+01  0.34488707146E+02  0.21365095833E+02  0.40659143838E+02  0.00000000000E+00 0. -1.
         11    1    3    3    0    0 -0.28343047073E+01  0.29432796743E+01 -0.89617135055E+01  0.98492886865E+01  0.51100000000E-03 0. -1.
        -11    1    3    3    0    0  0.41110490353E+01 -0.31560996062E+02 -0.13447052773E+02  0.34551706544E+02  0.51100000000E-03 0.  1.
         12    1    3    3    0    0  0.14117007827E+01 -0.58709907588E+01  0.10436704458E+01  0.61278609310E+01  0.00000000000E+00 0. -1.
</event>
<event>
 7    1  0.6889665E-012  0.5052885E+02  0.7816164E-02  0.1300439E+00
        -11   -1    0    0    0    0  0.00000000000E+00  0.00000000000E+00  0.45593999997E+02  0.45594000000E+02  0.51100000000E-03 0. -1.
         11   -1    0    0    0    0 -0.00000000000E+00 -0.00000000000E+00 -0.45593999997E+02  0.45594000000E+02  0.51100000000E-03 0.  1.
    9900012    2    1    2    0    0 -0.38794031356E+00 -0.36520248998E+02 -0.17868618861E+02  0.50528848207E+02  0.29999964610E+02 0.  0.
         12    1    1    2    0    0  0.38794031356E+00  0.36520248998E+02  0.17868618861E+02  0.40659151793E+02  0.00000000000E+00 0. -1.
         11    1    3    3    0    0  0.58483274429E+01  0.15694126332E-01  0.14025771909E+01  0.60141835042E+01  0.51100000000E-03 0. -1.
        -11    1    3    3    0    0 -0.48200910830E+01 -0.12669404466E+02 -0.15017877002E+02  0.20230761664E+02  0.51100000000E-03 0.  1.
         12    1    3    3    0    0 -0.14161766735E+01 -0.23866538658E+02 -0.42533190492E+01  0.24283903039E+02  0.00000000000E+00 0. -1.
</event>
<event>
 7    1  0.7221167E-012  0.5052886E+02  0.7816164E-02  0.1300439E+00
        -11   -1    0    0    0    0  0.00000000000E+00  0.00000000000E+00  0.45593999997E+02  0.45594000000E+02  0.51100000000E-03 0. -1.
         11   -1    0    0    0    0 -0.00000000000E+00 -0.00000000000E+00 -0.45593999997E+02  0.45594000000E+02  0.51100000000E-03 0.  1.
    9900012    2    1    2    0    0 -0.60203849036E+01  0.18333088392E+02 -0.35788521263E+02  0.50528863037E+02  0.30000009689E+02 0.  0.
         12    1    1    2    0    0  0.60203849036E+01 -0.18333088392E+02  0.35788521263E+02  0.40659136963E+02  0.00000000000E+00 0. -1.
         11    1    3    3    0    0  0.12579730265E+01  0.15805796320E+02 -0.64868897166E+01  0.17131416518E+02  0.51100000000E-03 0. -1.
        -11    1    3    3    0    0 -0.36774610156E+01  0.60666124229E+01 -0.26874891252E+02  0.27795454411E+02  0.51100000000E-03 0.  1.
         12    1    3    3    0    0 -0.36008969146E+01 -0.35393203513E+01 -0.24267402939E+01  0.56019921093E+01  0.00000000000E+00 0. -1.
</event>
<event>
 7    1  0.6889665E-012  0.5052886E+02  0.7816164E-02  0.1300439E+00
        -11   -1    0    0    0    0  0.00000000000E+00  0.00000000000E+00  0.45593999997E+02  0.45594000000E+02  0.51100000000E-03 0. -1.
         11   -1    0    0    0    0 -0.00000000000E+00 -0.00000000000E+00 -0.45593999997E+02  0.45594000000E+02  0.51100000000E-03 0.  1.
    9900012    2    1    2    0    0  0.22702094477E+02  0.15747877890E+02 -0.29829266176E+02  0.50528857458E+02  0.29999992729E+02 0.  0.
         12    1    1    2    0    0 -0.22702094477E+02 -0.15747877890E+02  0.29829266176E+02  0.40659142542E+02  0.00000000000E+00 0. -1.
         11    1    3    3    0    0  0.28506493032E+01 -0.34748039454E+01 -0.16688434611E+02  0.17283064368E+02  0.51100000000E-03 0. -1.
        -11    1    3    3    0    0  0.90544128429E+01  0.10029242740E+02  0.56570467144E+00  0.13523613567E+02  0.51100000000E-03 0.  1.
        -12    1    3    3    0    0  0.10797032331E+02  0.91934390952E+01 -0.13706536236E+02  0.19722179523E+02  0.00000000000E+00 0.  1.
</event>
<event>
 7    1  0.6889665E-012  0.5052886E+02  0.7816164E-02  0.1300439E+00
        -11   -1    0    0    0    0  0.00000000000E+00  0.00000000000E+00  0.45593999997E+02  0.45594000000E+02  0.51100000000E-03 0. -1.
         11   -1    0    0    0    0 -0.00000000000E+00 -0.00000000000E+00 -0.45593999997E+02  0.45594000000E+02  0.51100000000E-03 0.  1.
    9900012    2    1    2    0    0 -0.91598466556E+01 -0.61282905353E+01  0.39137029854E+02  0.50528857837E+02  0.29999993881E+02 0.  0.
        -12    1    1    2    0    0  0.91598466556E+01  0.61282905353E+01 -0.39137029854E+02  0.40659142163E+02  0.00000000000E+00 0.  1.
         11    1    3    3    0    0 -0.50119446042E+01  0.93043408727E+01  0.28306310377E+02  0.30214856532E+02  0.51100000000E-03 0. -1.
        -11    1    3    3    0    0  0.13856424560E+01 -0.55351332270E+01  0.24298412884E+01  0.62017605407E+01  0.51100000000E-03 0.  1.
         12    1    3    3    0    0 -0.55335445074E+01 -0.98974981811E+01  0.84008781883E+01  0.14112240764E+02  0.00000000000E+00 0. -1.
</event>
<event>
 7    1  0.6889665E-012  0.5052886E+02  0.7816164E-02  0.1300439E+00
        -11   -1    0    0    0    0  0.00000000000E+00  0.00000000000E+00  0.45593999997E+02  0.45594000000E+02  0.51100000000E-03 0. -1.
         11   -1    0    0    0    0 -0.00000000000E+00 -0.00000000000E+00 -0.45593999997E+02  0.45594000000E+02  0.51100000000E-03 0.  1.
    9900012    2    1    2    0    0 -0.24532406363E+02 -0.29945487721E+02  0.12433604455E+02  0.50528859372E+02  0.29999998548E+02 0.  0.
        -12    1    1    2    0    0  0.24532406363E+02  0.29945487721E+02 -0.12433604455E+02  0.40659140628E+02  0.00000000000E+00 0.  1.
         11    1    3    3    0    0 -0.41677853042E+01 -0.54484286520E+01  0.27113856180E+01  0.73761386476E+01  0.51100000000E-03 0. -1.
        -11    1    3    3    0    0 -0.19403613542E+02 -0.76456217280E+01  0.14746004876E+02  0.25542130102E+02  0.51100000000E-03 0.  1.
        -12    1    3    3    0    0 -0.96100751739E+00 -0.16851437341E+02 -0.50237860390E+01  0.17610590623E+02  0.00000000000E+00 0.  1.
</event>
<event>
 7    1  0.6889665E-012  0.5052886E+02  0.7816164E-02  0.1300439E+00
        -11   -1    0    0    0    0  0.00000000000E+00  0.00000000000E+00  0.45593999997E+02  0.45594000000E+02  0.51100000000E-03 0. -1.
         11   -1    0    0    0    0 -0.00000000000E+00 -0.00000000000E+00 -0.45593999997E+02  0.45594000000E+02  0.51100000000E-03 0.  1.
    9900012    2    1    2    0    0  0.11160900680E+01 -0.23180398919E+02 -0.33385459506E+02  0.50528862559E+02  0.30000008233E+02 0.  0.
         12    1    1    2    0    0 -0.11160900680E+01  0.23180398919E+02  0.33385459506E+02  0.40659137441E+02  0.00000000000E+00 0. -1.
         11    1    3    3    0    0 -0.45182486577E+01 -0.14847926257E+02 -0.28017537640E+01  0.15771027534E+02  0.51100000000E-03 0. -1.
        -11    1    3    3    0    0  0.58516596696E+01  0.16039020747E+01 -0.15978715030E+02  0.17091920811E+02  0.51100000000E-03 0.  1.
        -12    1    3    3    0    0 -0.21732094386E+00 -0.99363747370E+01 -0.14604990712E+02  0.17665914213E+02  0.00000000000E+00 0.  1.
</event>
<event>
 7    1  0.6889665E-012  0.5052879E+02  0.7816164E-02  0.1300439E+00
        -11   -1    0    0    0    0  0.00000000000E+00  0.00000000000E+00  0.45593999997E+02  0.45594000000E+02  0.51100000000E-03 0. -1.
         11   -1    0    0    0    0 -0.00000000000E+00 -0.00000000000E+00 -0.45593999997E+02  0.45594000000E+02  0.51100000000E-03 0.  1.
    9900012    2    1    2    0    0 -0.30548372143E+01 -0.32782088145E+02 -0.23857359845E+02  0.50528794986E+02  0.29999802840E+02 0.  0.
         12    1    1    2    0    0  0.30548372143E+01  0.32782088145E+02  0.23857359845E+02  0.40659205014E+02  0.00000000000E+00 0. -1.
         11    1    3    3    0    0 -0.37080393486E+01  0.71191914337E+00 -0.18942333131E+01  0.42242756518E+01  0.51100000000E-03 0. -1.
        -11    1    3    3    0    0  0.66953278063E+01 -0.31769966126E+02 -0.23194564879E+02  0.39901704253E+02  0.51100000000E-03 0.  1.
        -12    1    3    3    0    0 -0.60421256720E+01 -0.17240411623E+01  0.12314383472E+01  0.64028150816E+01  0.00000000000E+00 0.  1.
</event>
<event>
 7    1  0.6889665E-012  0.5052881E+02  0.7816164E-02  0.1300439E+00
        -11   -1    0    0    0    0  0.00000000000E+00  0.00000000000E+00  0.45593999997E+02  0.45594000000E+02  0.51100000000E-03 0. -1.
         11   -1    0    0    0    0 -0.00000000000E+00 -0.00000000000E+00 -0.45593999997E+02  0.45594000000E+02  0.51100000000E-03 0.  1.
    9900012    2    1    2    0    0  0.17615349786E+02 -0.35867357958E+02  0.75101021652E+01  0.50528812238E+02  0.29999855277E+02 0.  0.
        -12    1    1    2    0    0 -0.17615349786E+02  0.35867357958E+02 -0.75101021652E+01  0.40659187762E+02  0.00000000000E+00 0.  1.
         11    1    3    3    0    0  0.13491001264E+02 -0.11527783344E+02  0.97954994966E+01  0.20269403410E+02  0.51100000000E-03 0. -1.
        -11    1    3    3    0    0 -0.66798395104E+01 -0.11583048846E+02  0.11022118989E+00  0.13371590236E+02  0.51100000000E-03 0.  1.
        -12    1    3    3    0    0  0.10804188033E+02 -0.12756525768E+02 -0.23956185213E+01  0.16887818592E+02  0.00000000000E+00 0.  1.
</event>
<event>
 7    1  0.6889665E-012  0.5052885E+02  0.7816164E-02  0.1300439E+00
        -11   -1    0    0    0    0  0.00000000000E+00  0.00000000000E+00  0.45593999997E+02  0.45594000000E+02  0.51100000000E-03 0.  1.
         11   -1    0    0    0    0 -0.00000000000E+00 -0.00000000000E+00 -0.45593999997E+02  0.45594000000E+02  0.51100000000E-03 0. -1.
    9900012    2    1    2    0    0 -0.21411999446E+01  0.36432953128E+02  0.17922647229E+02  0.50528854725E+02  0.29999984421E+02 0.  0.
        -12    1    1    2    0    0  0.21411999446E+01 -0.36432953128E+02 -0.17922647229E+02  0.40659145275E+02  0.00000000000E+00 0.  1.
         11    1    3    3    0    0  0.26299942898E+01  0.10790064392E+01 -0.56339948001E+01  0.63105485125E+01  0.51100000000E-03 0. -1.
        -11    1    3    3    0    0 -0.35767679939E+01  0.27936965790E+02  0.23538144839E+02  0.36705743277E+02  0.51100000000E-03 0.  1.
        -12    1    3    3    0    0 -0.11944262406E+01  0.74169808991E+01  0.18497189594E-01  0.75125629347E+01  0.00000000000E+00 0.  1.
</event>
<event>
 7    1  0.6889665E-012  0.5052887E+02  0.7816164E-02  0.1300439E+00
        -11   -1    0    0    0    0  0.00000000000E+00  0.00000000000E+00  0.45593999997E+02  0.45594000000E+02  0.51100000000E-03 0. -1.
         11   -1    0    0    0    0 -0.00000000000E+00 -0.00000000000E+00 -0.45593999997E+02  0.45594000000E+02  0.51100000000E-03 0.  1.
    9900012    2    1    2    0    0 -0.21038323248E+02  0.23515607367E+02  0.25643131325E+02  0.50528867950E+02  0.30000024620E+02 0.  0.
        -12    1    1    2    0    0  0.21038323248E+02 -0.23515607367E+02 -0.25643131325E+02  0.40659132050E+02  0.00000000000E+00 0.  1.
         11    1    3    3    0    0 -0.95720548780E+01  0.11272714981E+02  0.56320230106E+01  0.15824601767E+02  0.51100000000E-03 0. -1.
        -11    1    3    3    0    0 -0.49999173103E+01 -0.18929782359E+01  0.18300887282E+02  0.19065807491E+02  0.51100000000E-03 0.  1.
        -12    1    3    3    0    0 -0.64663510596E+01  0.14135870622E+02  0.17102210322E+01  0.15638458692E+02  0.00000000000E+00 0.  1.
</event>
<event>
 7    1  0.6889665E-012  0.5052885E+02  0.7816164E-02  0.1300439E+00
        -11   -1    0    0    0    0  0.00000000000E+00  0.00000000000E+00  0.45593999997E+02  0.45594000000E+02  0.51100000000E-03 0. -1.
         11   -1    0    0    0    0 -0.00000000000E+00 -0.00000000000E+00 -0.45593999997E+02  0.45594000000E+02  0.51100000000E-03 0.  1.
    9900012    2    1    2    0    0  0.14652522735E+02  0.11938377709E+02 -0.35999235486E+02  0.50528852931E+02  0.29999978969E+02 0.  0.
         12    1    1    2    0    0 -0.14652522735E+02 -0.11938377709E+02  0.35999235486E+02  0.40659147069E+02  0.00000000000E+00 0. -1.
         11    1    3    3    0    0 -0.17413732235E+01  0.82250273245E+01 -0.12235751430E-02  0.84073454164E+01  0.51100000000E-03 0.  1.
        -11    1    3    3    0    0  0.71845789429E+01  0.57131663333E+01 -0.28902218727E+02  0.30324852708E+02  0.51100000000E-03 0. -1.
        -12    1    3    3    0    0  0.92093170159E+01 -0.19998159489E+01 -0.70957931835E+01  0.11796654807E+02  0.00000000000E+00 0.  1.
</event>
<event>
 7    1  0.6889665E-012  0.5052885E+02  0.7816164E-02  0.1300439E+00
        -11   -1    0    0    0    0  0.00000000000E+00  0.00000000000E+00  0.45593999997E+02  0.45594000000E+02  0.51100000000E-03 0.  1.
         11   -1    0    0    0    0 -0.00000000000E+00 -0.00000000000E+00 -0.45593999997E+02  0.45594000000E+02  0.51100000000E-03 0. -1.
    9900012    2    1    2    0    0  0.30348572766E+02 -0.12372886041E+02 -0.24063290768E+02  0.50528854160E+02  0.29999982703E+02 0.  0.
        -12    1    1    2    0    0 -0.30348572766E+02  0.12372886041E+02  0.24063290768E+02  0.40659145840E+02  0.00000000000E+00 0.  1.
         11    1    3    3    0    0  0.18352290056E+02  0.63470948602E+01 -0.15675426456E+02  0.24956184770E+02  0.51100000000E-03 0. -1.
        -11    1    3    3    0    0  0.11153988661E+02 -0.18815848687E+02 -0.97660670078E+01  0.23954617298E+02  0.51100000000E-03 0.  1.
        -12    1    3    3    0    0  0.84229404844E+00  0.95867785071E-01  0.13782026961E+01  0.16180520906E+01  0.00000000000E+00 0.  1.
</event>
<event>
 7    1  0.6889665E-012  0.5052886E+02  0.7816164E-02  0.1300439E+00
        -11   -1    0    0    0    0  0.00000000000E+00  0.00000000000E+00  0.45593999997E+02  0.45594000000E+02  0.51100000000E-03 0. -1.
         11   -1    0    0    0    0 -0.00000000000E+00 -0.00000000000E+00 -0.45593999997E+02  0.45594000000E+02  0.51100000000E-03 0.  1.
    9900012    2    1    2    0    0 -0.45281351610E+00 -0.22157750849E+02  0.34088043584E+02  0.50528859845E+02  0.29999999985E+02 0.  0.
        -12    1    1    2    0    0  0.45281351610E+00  0.22157750849E+02 -0.34088043584E+02  0.40659140155E+02  0.00000000000E+00 0.  1.
         11    1    3    3    0    0  0.52909858160E+01 -0.12972297648E+02 -0.20233806892E+00  0.14011280389E+02  0.51100000000E-03 0.  1.
        -11    1    3    3    0    0 -0.26475860848E+01 -0.66245071724E+01  0.29055094969E+02  0.29918094045E+02  0.51100000000E-03 0. -1.
        -12    1    3    3    0    0 -0.30962132473E+01 -0.25609460290E+01  0.52352866834E+01  0.65994854112E+01  0.00000000000E+00 0.  1.
</event>
<event>
 7    1  0.6889665E-012  0.5052887E+02  0.7816164E-02  0.1300439E+00
        -11   -1    0    0    0    0  0.00000000000E+00  0.00000000000E+00  0.45593999997E+02  0.45594000000E+02  0.51100000000E-03 0. -1.
         11   -1    0    0    0    0 -0.00000000000E+00 -0.00000000000E+00 -0.45593999997E+02  0.45594000000E+02  0.51100000000E-03 0.  1.
    9900012    2    1    2    0    0  0.28103973977E+02 -0.16440584698E+02 -0.24352393205E+02  0.50528865315E+02  0.30000016612E+02 0.  0.
         12    1    1    2    0    0 -0.28103973977E+02  0.16440584698E+02  0.24352393205E+02  0.40659134685E+02  0.00000000000E+00 0. -1.
         11    1    3    3    0    0  0.66198958258E+01 -0.15488171371E+02  0.18763857119E+00  0.16844633616E+02  0.51100000000E-03 0. -1.
        -11    1    3    3    0    0  0.16272538218E+02  0.16502995708E+01 -0.13524975892E+02  0.21223665138E+02  0.51100000000E-03 0.  1.
         12    1    3    3    0    0  0.52115399334E+01 -0.26027128978E+01 -0.11015055884E+02  0.12460566561E+02  0.00000000000E+00 0. -1.
</event>
<event>
 7    1  0.6889665E-012  0.5052885E+02  0.7816164E-02  0.1300439E+00
        -11   -1    0    0    0    0  0.00000000000E+00  0.00000000000E+00  0.45593999997E+02  0.45594000000E+02  0.51100000000E-03 0. -1.
         11   -1    0    0    0    0 -0.00000000000E+00 -0.00000000000E+00 -0.45593999997E+02  0.45594000000E+02  0.51100000000E-03 0.  1.
    9900012    2    1    2    0    0 -0.15192393606E+02  0.17080616491E+02  0.33624548990E+02  0.50528848779E+02  0.29999966349E+02 0.  0.
        -12    1    1    2    0    0  0.15192393606E+02 -0.17080616491E+02 -0.33624548990E+02  0.40659151221E+02  0.00000000000E+00 0.  1.
         11    1    3    3    0    0 -0.37795613899E+01  0.18475061950E+02  0.97357940533E+01  0.21222598438E+02  0.51100000000E-03 0. -1.
        -11    1    3    3    0    0 -0.68765055845E+01  0.44026344222E+01  0.18380489896E+02  0.20112481896E+02  0.51100000000E-03 0.  1.
         12    1    3    3    0    0 -0.45363266318E+01 -0.57970798815E+01  0.55082650405E+01  0.91937684450E+01  0.00000000000E+00 0. -1.
</event>
