<event>
 7    1  0.6316620E-012  0.5930193E+02  0.7816164E-02  0.1266605E+00
        -11   -1    0    0    0    0  0.00000000000E+00  0.00000000000E+00  0.45593999997E+02  0.45594000000E+02  0.51100000000E-03 0. -1.
         11   -1    0    0    0    0 -0.00000000000E+00 -0.00000000000E+00 -0.45593999997E+02  0.45594000000E+02  0.51100000000E-03 0.  1.
    9900012    2    1    2    0    0  0.18601090554E+02  0.12327764288E+02 -0.22776026258E+02  0.59301926014E+02  0.49999967147E+02 0.  0.
         12    1    1    2    0    0 -0.18601090554E+02 -0.12327764288E+02  0.22776026258E+02  0.31886073986E+02  0.00000000000E+00 0. -1.
         11    1    3    3    0    0 -0.13056967464E+02  0.24770195766E+01  0.82190694290E+00  0.13315237760E+02  0.51100000000E-03 0. -1.
        -11    1    3    3    0    0  0.25182504260E+01 -0.10593546309E+00  0.39389600625E+01  0.46763462410E+01  0.51100000000E-03 0.  1.
        -12    1    3    3    0    0  0.29139807592E+02  0.99566801744E+01 -0.27536893264E+02  0.41310342012E+02  0.00000000000E+00 0.  1.
</event>
<event>
 7    1  0.6316620E-012  0.5930196E+02  0.7816164E-02  0.1266605E+00
        -11   -1    0    0    0    0  0.00000000000E+00  0.00000000000E+00  0.45593999997E+02  0.45594000000E+02  0.51100000000E-03 0.  1.
         11   -1    0    0    0    0 -0.00000000000E+00 -0.00000000000E+00 -0.45593999997E+02  0.45594000000E+02  0.51100000000E-03 0. -1.
    9900012    2    1    2    0    0 -0.30722604885E+02  0.76101867902E+01 -0.38634349461E+01  0.59301960367E+02  0.50000029800E+02 0.  0.
         12    1    1    2    0    0  0.30722604885E+02 -0.76101867902E+01  0.38634349461E+01  0.31886039633E+02  0.00000000000E+00 0. -1.
         11    1    3    3    0    0 -0.21623721802E+01 -0.55888977936E+01  0.55154603399E+01  0.81444419708E+01  0.51100000000E-03 0. -1.
        -11    1    3    3    0    0 -0.31840162478E+02  0.57565227561E+01  0.67874054979E+01  0.33060586421E+02  0.51100000000E-03 0.  1.
         12    1    3    3    0    0  0.32799297738E+01  0.74425618276E+01 -0.16166300784E+02  0.18096931975E+02  0.00000000000E+00 0. -1.
</event>
<event>
 7    1  0.6316620E-012  0.5930195E+02  0.7816164E-02  0.1266605E+00
        -11   -1    0    0    0    0  0.00000000000E+00  0.00000000000E+00  0.45593999997E+02  0.45594000000E+02  0.51100000000E-03 0.  1.
         11   -1    0    0    0    0 -0.00000000000E+00 -0.00000000000E+00 -0.45593999997E+02  0.45594000000E+02  0.51100000000E-03 0. -1.
    9900012    2    1    2    0    0 -0.85083484606E+01 -0.22031013743E+02  0.21423415870E+02  0.59301948071E+02  0.50000007375E+02 0.  0.
         12    1    1    2    0    0  0.85083484606E+01  0.22031013743E+02 -0.21423415870E+02  0.31886051929E+02  0.00000000000E+00 0. -1.
         11    1    3    3    0    0 -0.44640478206E+01 -0.21511381082E+02 -0.40799907188E+01  0.22345325317E+02  0.51100000000E-03 0. -1.
        -11    1    3    3    0    0 -0.12634773749E+02 -0.82763314670E+01  0.15735680564E+02  0.21811621061E+02  0.51100000000E-03 0.  1.
        -12    1    3    3    0    0  0.85904731093E+01  0.77566988058E+01  0.97677260244E+01  0.15145001693E+02  0.00000000000E+00 0.  1.
</event>
<event>
 7    1  0.7299442E-012  0.5930192E+02  0.7816164E-02  0.1266605E+00
        -11   -1    0    0    0    0  0.00000000000E+00  0.00000000000E+00  0.45593999997E+02  0.45594000000E+02  0.51100000000E-03 0. -1.
         11   -1    0    0    0    0 -0.00000000000E+00 -0.00000000000E+00 -0.45593999997E+02  0.45594000000E+02  0.51100000000E-03 0.  1.
    9900012    2    1    2    0    0 -0.10847868299E+02 -0.20691599460E+02 -0.21700307670E+02  0.59301923293E+02  0.49999962184E+02 0.  0.
         12    1    1    2    0    0  0.10847868299E+02  0.20691599460E+02  0.21700307670E+02  0.31886076707E+02  0.00000000000E+00 0. -1.
         11    1    3    3    0    0 -0.44238519967E+01  0.18198594499E+01  0.99962805221E+01  0.11081876170E+02  0.51100000000E-03 0. -1.
        -11    1    3    3    0    0 -0.12833343003E+01  0.58629823593E+01 -0.96682536144E+00  0.60791661116E+01  0.51100000000E-03 0.  1.
        -12    1    3    3    0    0 -0.51406820018E+01 -0.28374441269E+02 -0.30729762830E+02  0.42140881011E+02  0.00000000000E+00 0.  1.
</event>
<event>
 7    1  0.6316620E-012  0.5930171E+02  0.7816164E-02  0.1266606E+00
        -11   -1    0    0    0    0  0.00000000000E+00  0.00000000000E+00  0.45593999997E+02  0.45594000000E+02  0.51100000000E-03 0. -1.
         11   -1    0    0    0    0 -0.00000000000E+00 -0.00000000000E+00 -0.45593999997E+02  0.45594000000E+02  0.51100000000E-03 0.  1.
    9900012    2    1    2    0    0 -0.61146053789E+01 -0.24834090760E+02 -0.19042448848E+02  0.59301712650E+02  0.49999578021E+02 0.  0.
         12    1    1    2    0    0  0.61146053789E+01  0.24834090760E+02  0.19042448848E+02  0.31886287350E+02  0.00000000000E+00 0. -1.
         11    1    3    3    0    0  0.84653993253E+01 -0.18091656697E+00 -0.96892566815E+01  0.12867688675E+02  0.51100000000E-03 0. -1.
        -11    1    3    3    0    0 -0.10870771995E+02 -0.30706268992E+02 -0.16366996605E+02  0.36454454012E+02  0.51100000000E-03 0.  1.
         12    1    3    3    0    0 -0.37092327093E+01  0.60530947988E+01  0.70138044387E+01  0.99795699627E+01  0.00000000000E+00 0. -1.
</event>
<event>
 7    1  0.6316620E-012  0.5930196E+02  0.7816164E-02  0.1266605E+00
        -11   -1    0    0    0    0  0.00000000000E+00  0.00000000000E+00  0.45593999997E+02  0.45594000000E+02  0.51100000000E-03 0.  1.
         11   -1    0    0    0    0 -0.00000000000E+00 -0.00000000000E+00 -0.45593999997E+02  0.45594000000E+02  0.51100000000E-03 0. -1.
    9900012    2    1    2    0    0  0.24658339063E+02 -0.18887475788E+02  0.72075696515E+01  0.59301960934E+02  0.50000030833E+02 0.  0.
         12    1    1    2    0    0 -0.24658339063E+02  0.18887475788E+02 -0.72075696515E+01  0.31886039066E+02  0.00000000000E+00 0. -1.
         11    1    3    3    0    0  0.44560310029E+01  0.82891552791E+01  0.92163306257E+00  0.94559883303E+01  0.51100000000E-03 0. -1.
        -11    1    3    3    0    0 -0.48789761640E+01 -0.24242062425E+00  0.11669279080E+02  0.12650503970E+02  0.51100000000E-03 0.  1.
        -12    1    3    3    0    0  0.25081284225E+02 -0.26934210443E+02 -0.53833424914E+01  0.37195468634E+02  0.00000000000E+00 0.  1.
</event>
<event>
 7    1  0.6316620E-012  0.5930194E+02  0.7816164E-02  0.1266605E+00
        -11   -1    0    0    0    0  0.00000000000E+00  0.00000000000E+00  0.45593999997E+02  0.45594000000E+02  0.51100000000E-03 0. -1.
         11   -1    0    0    0    0 -0.00000000000E+00 -0.00000000000E+00 -0.45593999997E+02  0.45594000000E+02  0.51100000000E-03 0.  1.
    9900012    2    1    2    0    0 -0.31181216997E+02 -0.58474060933E+01 -0.32032309547E+01  0.59301935019E+02  0.49999983569E+02 0.  0.
         12    1    1    2    0    0  0.31181216997E+02  0.58474060933E+01  0.32032309547E+01  0.31886064981E+02  0.00000000000E+00 0. -1.
         11    1    3    3    0    0  0.83077834790E+01 -0.10226682931E+01  0.22772088789E+01  0.86747217426E+01  0.51100000000E-03 0. -1.
        -11    1    3    3    0    0 -0.36778541435E+02  0.75984466952E+01 -0.30251565075E+01  0.37676903726E+02  0.51100000000E-03 0.  1.
         12    1    3    3    0    0 -0.27104590417E+01 -0.12423184495E+02 -0.24552833262E+01  0.12950309550E+02  0.00000000000E+00 0. -1.
</event>
<event>
 7    1  0.6316620E-012  0.5930195E+02  0.7816164E-02  0.1266605E+00
        -11   -1    0    0    0    0  0.00000000000E+00  0.00000000000E+00  0.45593999997E+02  0.45594000000E+02  0.51100000000E-03 0. -1.
         11   -1    0    0    0    0 -0.00000000000E+00 -0.00000000000E+00 -0.45593999997E+02  0.45594000000E+02  0.51100000000E-03 0.  1.
    9900012    2    1    2    0    0  0.16876869240E+02 -0.14586744816E+02 -0.22784163391E+02  0.59301953819E+02  0.50000017856E+02 0.  0.
         12    1    1    2    0    0 -0.16876869240E+02  0.14586744816E+02  0.22784163391E+02  0.31886046181E+02  0.00000000000E+00 0. -1.
         11    1    3    3    0    0  0.14892875749E+02 -0.13483191914E+01  0.22390628595E+01  0.15120486615E+02  0.51100000000E-03 0. -1.
        -11    1    3    3    0    0  0.38604058492E+01  0.39027756687E+00  0.77339421473E+01  0.86526823182E+01  0.51100000000E-03 0.  1.
         12    1    3    3    0    0 -0.18764123582E+01 -0.13628703191E+02 -0.32757168397E+02  0.35528784885E+02  0.00000000000E+00 0. -1.
</event>
<event>
 7    1  0.6316620E-012  0.5930194E+02  0.7816164E-02  0.1266605E+00
        -11   -1    0    0    0    0  0.00000000000E+00  0.00000000000E+00  0.45593999997E+02  0.45594000000E+02  0.51100000000E-03 0. -1.
         11   -1    0    0    0    0 -0.00000000000E+00 -0.00000000000E+00 -0.45593999997E+02  0.45594000000E+02  0.51100000000E-03 0.  1.
    9900012    2    1    2    0    0  0.23486006585E+02 -0.15466390407E+02  0.15030611230E+02  0.59301937034E+02  0.49999987246E+02 0.  0.
         12    1    1    2    0    0 -0.23486006585E+02  0.15466390407E+02 -0.15030611230E+02  0.31886062966E+02  0.00000000000E+00 0. -1.
         11    1    3    3    0    0  0.21419955265E+02 -0.14541005876E+02  0.21515568158E+02  0.33662664910E+02  0.51100000000E-03 0. -1.
        -11    1    3    3    0    0  0.28064690716E+01  0.62900667437E+01  0.73161215639E+01  0.10048225878E+02  0.51100000000E-03 0.  1.
        -12    1    3    3    0    0 -0.74041775168E+00 -0.72154512744E+01 -0.13801078491E+02  0.15591046247E+02  0.00000000000E+00 0.  1.
</event>
<event>
 7    1  0.6316620E-012  0.5930193E+02  0.7816164E-02  0.1266605E+00
        -11   -1    0    0    0    0  0.00000000000E+00  0.00000000000E+00  0.45593999997E+02  0.45594000000E+02  0.51100000000E-03 0.  1.
         11   -1    0    0    0    0 -0.00000000000E+00 -0.00000000000E+00 -0.45593999997E+02  0.45594000000E+02  0.51100000000E-03 0. -1.
    9900012    2    1    2    0    0 -0.24109705919E+02 -0.75200626491E+01  0.19465153549E+02  0.59301929931E+02  0.49999974291E+02 0.  0.
         12    1    1    2    0    0  0.24109705919E+02  0.75200626491E+01 -0.19465153549E+02  0.31886070069E+02  0.00000000000E+00 0. -1.
         11    1    3    3    0    0  0.39999392027E+01 -0.18007553760E+02 -0.38028518125E+01  0.18834361901E+02  0.51100000000E-03 0.  1.
        -11    1    3    3    0    0 -0.38068478655E+01  0.76389528948E+01  0.46404426869E+01  0.97149061031E+01  0.51100000000E-03 0. -1.
        -12    1    3    3    0    0 -0.24302797256E+02  0.28485382158E+01  0.18627562674E+02  0.30752661928E+02  0.00000000000E+00 0.  1.
</event>
<event>
 7    1  0.6316620E-012  0.5930197E+02  0.7816164E-02  0.1266605E+00
        -11   -1    0    0    0    0  0.00000000000E+00  0.00000000000E+00  0.45593999997E+02  0.45594000000E+02  0.51100000000E-03 0. -1.
         11   -1    0    0    0    0 -0.00000000000E+00 -0.00000000000E+00 -0.45593999997E+02  0.45594000000E+02  0.51100000000E-03 0.  1.
    9900012    2    1    2    0    0 -0.11173972528E+02 -0.29862980912E+02 -0.25187213841E+00  0.59301972800E+02  0.50000052474E+02 0.  0.
         12    1    1    2    0    0  0.11173972528E+02  0.29862980912E+02  0.25187213841E+00  0.31886027200E+02  0.00000000000E+00 0. -1.
         11    1    3    3    0    0 -0.76432034831E+01 -0.20037588830E+02 -0.99751228613E+01  0.23652200785E+02  0.51100000000E-03 0.  1.
        -11    1    3    3    0    0  0.39127709919E+01  0.10561843413E+02 -0.12453628482E+01  0.11331956672E+02  0.51100000000E-03 0. -1.
         12    1    3    3    0    0 -0.74435400364E+01 -0.20387235496E+02  0.10968613571E+02  0.24317815344E+02  0.00000000000E+00 0. -1.
</event>
<event>
 7    1  0.6316620E-012  0.5930196E+02  0.7816164E-02  0.1266605E+00
        -11   -1    0    0    0    0  0.00000000000E+00  0.00000000000E+00  0.45593999997E+02  0.45594000000E+02  0.51100000000E-03 0.  1.
         11   -1    0    0    0    0 -0.00000000000E+00 -0.00000000000E+00 -0.45593999997E+02  0.45594000000E+02  0.51100000000E-03 0. -1.
    9900012    2    1    2    0    0 -0.13946066411E+02  0.15400480024E+02  0.24187851700E+02  0.59301957235E+02  0.50000024088E+02 0.  0.
         12    1    1    2    0    0  0.13946066411E+02 -0.15400480024E+02 -0.24187851700E+02  0.31886042765E+02  0.00000000000E+00 0. -1.
         11    1    3    3    0    0 -0.10651448949E+02  0.12949123077E+02  0.16683107036E+01  0.16849819407E+02  0.51100000000E-03 0. -1.
        -11    1    3    3    0    0 -0.17258491407E+02  0.32787220483E+00  0.22460859765E+02  0.28327605749E+02  0.51100000000E-03 0.  1.
         12    1    3    3    0    0  0.13963873944E+02  0.21234847419E+01  0.58681231710E-01  0.14124532080E+02  0.00000000000E+00 0. -1.
</event>
<event>
 7    1  0.6316620E-012  0.5930194E+02  0.7816164E-02  0.1266605E+00
        -11   -1    0    0    0    0  0.00000000000E+00  0.00000000000E+00  0.45593999997E+02  0.45594000000E+02  0.51100000000E-03 0.  1.
         11   -1    0    0    0    0 -0.00000000000E+00 -0.00000000000E+00 -0.45593999997E+02  0.45594000000E+02  0.51100000000E-03 0. -1.
    9900012    2    1    2    0    0  0.10204899286E+02 -0.27659064619E+02  0.12147297582E+02  0.59301942489E+02  0.49999997194E+02 0.  0.
         12    1    1    2    0    0 -0.10204899286E+02  0.27659064619E+02 -0.12147297582E+02  0.31886057511E+02  0.00000000000E+00 0. -1.
         11    1    3    3    0    0  0.54571084649E+01 -0.62136032280E+01  0.21525568140E+02  0.23059466210E+02  0.51100000000E-03 0. -1.
        -11    1    3    3    0    0  0.13387229878E+02 -0.13952851286E+02  0.27980971682E+01  0.19537894739E+02  0.51100000000E-03 0.  1.
        -12    1    3    3    0    0 -0.86394390568E+01 -0.74926101050E+01 -0.12176367726E+02  0.16704581540E+02  0.00000000000E+00 0.  1.
</event>
<event>
 7    1  0.6316620E-012  0.5930194E+02  0.7816164E-02  0.1266605E+00
        -11   -1    0    0    0    0  0.00000000000E+00  0.00000000000E+00  0.45593999997E+02  0.45594000000E+02  0.51100000000E-03 0. -1.
         11   -1    0    0    0    0 -0.00000000000E+00 -0.00000000000E+00 -0.45593999997E+02  0.45594000000E+02  0.51100000000E-03 0.  1.
    9900012    2    1    2    0    0 -0.25933080306E+02 -0.18494284323E+02 -0.14688241454E+01  0.59301942684E+02  0.49999997549E+02 0.  0.
         12    1    1    2    0    0  0.25933080306E+02  0.18494284323E+02  0.14688241454E+01  0.31886057316E+02  0.00000000000E+00 0. -1.
         11    1    3    3    0    0 -0.72155366630E+01 -0.27258454006E+02 -0.33014200027E-01  0.28197311474E+02  0.51100000000E-03 0.  1.
        -11    1    3    3    0    0 -0.16202393803E+02  0.15469057524E+00  0.80133424664E+01  0.18076369986E+02  0.51100000000E-03 0. -1.
        -12    1    3    3    0    0 -0.25151498398E+01  0.86094791076E+01 -0.94491524118E+01  0.13028261224E+02  0.00000000000E+00 0.  1.
</event>
<event>
 7    1  0.6316620E-012  0.5930195E+02  0.7816164E-02  0.1266605E+00
        -11   -1    0    0    0    0  0.00000000000E+00  0.00000000000E+00  0.45593999997E+02  0.45594000000E+02  0.51100000000E-03 0. -1.
         11   -1    0    0    0    0 -0.00000000000E+00 -0.00000000000E+00 -0.45593999997E+02  0.45594000000E+02  0.51100000000E-03 0.  1.
    9900012    2    1    2    0    0 -0.17659447532E+02 -0.26442144432E+02 -0.23826374636E+01  0.59301952102E+02  0.50000014725E+02 0.  0.
         12    1    1    2    0    0  0.17659447532E+02  0.26442144432E+02  0.23826374636E+01  0.31886047898E+02  0.00000000000E+00 0. -1.
         11    1    3    3    0    0  0.21429248229E+01 -0.10466313339E+02 -0.11647365045E+02  0.15804966133E+02  0.51100000000E-03 0.  1.
        -11    1    3    3    0    0 -0.18788785824E+02  0.64019602007E+01  0.67005876772E+01  0.20949974764E+02  0.51100000000E-03 0. -1.
         12    1    3    3    0    0 -0.10135865314E+01 -0.22377791293E+02  0.25641399042E+01  0.22547011205E+02  0.00000000000E+00 0. -1.
</event>
<event>
 7    1  0.6316620E-012  0.5930200E+02  0.7816164E-02  0.1266605E+00
        -11   -1    0    0    0    0  0.00000000000E+00  0.00000000000E+00  0.45593999997E+02  0.45594000000E+02  0.51100000000E-03 0. -1.
         11   -1    0    0    0    0 -0.00000000000E+00 -0.00000000000E+00 -0.45593999997E+02  0.45594000000E+02  0.51100000000E-03 0.  1.
    9900012    2    1    2    0    0 -0.80889607927E+01 -0.30836004186E+02 -0.65308668965E+00  0.59302000516E+02  0.50000103021E+02 0.  0.
         12    1    1    2    0    0  0.80889607927E+01  0.30836004186E+02  0.65308668965E+00  0.31885999484E+02  0.00000000000E+00 0. -1.
         11    1    3    3    0    0  0.79491097166E+01 -0.11469936091E+02 -0.19408767582E+02  0.23904979367E+02  0.51100000000E-03 0. -1.
        -11    1    3    3    0    0 -0.70246374820E+01 -0.61513371403E+01 -0.16365230055E+01  0.94795932494E+01  0.51100000000E-03 0.  1.
         12    1    3    3    0    0 -0.90134330273E+01 -0.13214730954E+02  0.20392203898E+02  0.25917427900E+02  0.00000000000E+00 0. -1.
</event>
<event>
 7    1  0.6316620E-012  0.5930193E+02  0.7816164E-02  0.1266605E+00
        -11   -1    0    0    0    0  0.00000000000E+00  0.00000000000E+00  0.45593999997E+02  0.45594000000E+02  0.51100000000E-03 0. -1.
         11   -1    0    0    0    0 -0.00000000000E+00 -0.00000000000E+00 -0.45593999997E+02  0.45594000000E+02  0.51100000000E-03 0.  1.
    9900012    2    1    2    0    0 -0.31594690691E+02 -0.35468512502E+01 -0.24323986806E+01  0.59301934125E+02  0.49999981939E+02 0.  0.
         12    1    1    2    0    0  0.31594690691E+02  0.35468512502E+01  0.24323986806E+01  0.31886065875E+02  0.00000000000E+00 0. -1.
         11    1    3    3    0    0  0.26212352848E+01 -0.11509305658E+02  0.84828368710E+01  0.14535938662E+02  0.51100000000E-03 0. -1.
        -11    1    3    3    0    0 -0.34082017313E+01  0.98692401231E+01 -0.90929774835E+01  0.13845576168E+02  0.51100000000E-03 0.  1.
         12    1    3    3    0    0 -0.30807724245E+02 -0.19067857153E+01 -0.18222580681E+01  0.30920419295E+02  0.00000000000E+00 0. -1.
</event>
<event>
 7    1  0.6316620E-012  0.5930194E+02  0.7816164E-02  0.1266605E+00
        -11   -1    0    0    0    0  0.00000000000E+00  0.00000000000E+00  0.45593999997E+02  0.45594000000E+02  0.51100000000E-03 0. -1.
         11   -1    0    0    0    0 -0.00000000000E+00 -0.00000000000E+00 -0.45593999997E+02  0.45594000000E+02  0.51100000000E-03 0.  1.
    9900012    2    1    2    0    0 -0.31268691996E+02  0.60285502319E+01  0.16268282333E+01  0.59301935848E+02  0.49999985082E+02 0.  0.
         12    1    1    2    0    0  0.31268691996E+02 -0.60285502319E+01 -0.16268282333E+01  0.31886064152E+02  0.00000000000E+00 0. -1.
         11    1    3    3    0    0 -0.61924622077E+01 -0.44720458406E+01  0.65866164784E+01  0.10086094343E+02  0.51100000000E-03 0. -1.
        -11    1    3    3    0    0  0.11923419081E+01 -0.10406864022E+02 -0.10904270440E+02  0.15120436901E+02  0.51100000000E-03 0.  1.
         12    1    3    3    0    0 -0.26268571696E+02  0.20907460095E+02  0.59444821944E+01  0.34095404604E+02  0.00000000000E+00 0. -1.
</event>
<event>
 7    1  0.6316620E-012  0.5930183E+02  0.7816164E-02  0.1266605E+00
        -11   -1    0    0    0    0  0.00000000000E+00  0.00000000000E+00  0.45593999997E+02  0.45594000000E+02  0.51100000000E-03 0.  1.
         11   -1    0    0    0    0 -0.00000000000E+00 -0.00000000000E+00 -0.45593999997E+02  0.45594000000E+02  0.51100000000E-03 0. -1.
    9900012    2    1    2    0    0  0.81310137710E+01 -0.28243182144E+02  0.12366786572E+02  0.59301825368E+02  0.49999783592E+02 0.  0.
         12    1    1    2    0    0 -0.81310137710E+01  0.28243182144E+02 -0.12366786572E+02  0.31886174632E+02  0.00000000000E+00 0. -1.
         11    1    3    3    0    0 -0.16992870992E+02 -0.75118851845E+01  0.45113204315E+01  0.19119050601E+02  0.51100000000E-03 0. -1.
        -11    1    3    3    0    0  0.10150888918E+02 -0.21595740475E+02  0.15483515261E+01  0.23912631499E+02  0.51100000000E-03 0.  1.
        -12    1    3    3    0    0  0.14972995845E+02  0.86444351593E+00  0.63071146144E+01  0.16270143267E+02  0.00000000000E+00 0.  1.
</event>
<event>
 7    1  0.6316620E-012  0.5930197E+02  0.7816164E-02  0.1266605E+00
        -11   -1    0    0    0    0  0.00000000000E+00  0.00000000000E+00  0.45593999997E+02  0.45594000000E+02  0.51100000000E-03 0.  1.
         11   -1    0    0    0    0 -0.00000000000E+00 -0.00000000000E+00 -0.45593999997E+02  0.45594000000E+02  0.51100000000E-03 0. -1.
    9900012    2    1    2    0    0 -0.29623290529E+02  0.88030522514E+01 -0.78540378096E+01  0.59301968880E+02  0.50000045324E+02 0.  0.
         12    1    1    2    0    0  0.29623290529E+02 -0.88030522514E+01  0.78540378096E+01  0.31886031120E+02  0.00000000000E+00 0. -1.
         11    1    3    3    0    0 -0.53684941521E+01 -0.93148976345E+01 -0.15246430617E+02  0.18655875596E+02  0.51100000000E-03 0. -1.
        -11    1    3    3    0    0 -0.26323215386E+02  0.55871601591E+01  0.24609703560E+01  0.27021924474E+02  0.51100000000E-03 0.  1.
        -12    1    3    3    0    0  0.20684190095E+01  0.12530789727E+02  0.49314224518E+01  0.13624168810E+02  0.00000000000E+00 0.  1.
</event>
<event>
 7    1  0.6316620E-012  0.5930192E+02  0.7816164E-02  0.1266605E+00
        -11   -1    0    0    0    0  0.00000000000E+00  0.00000000000E+00  0.45593999997E+02  0.45594000000E+02  0.51100000000E-03 0.  1.
         11   -1    0    0    0    0 -0.00000000000E+00 -0.00000000000E+00 -0.45593999997E+02  0.45594000000E+02  0.51100000000E-03 0. -1.
    9900012    2    1    2    0    0  0.18774844951E+02  0.82059915975E+01  0.24431309954E+02  0.59301921422E+02  0.49999958772E+02 0.  0.
         12    1    1    2    0    0 -0.18774844951E+02 -0.82059915975E+01 -0.24431309954E+02  0.31886078578E+02  0.00000000000E+00 0. -1.
         11    1    3    3    0    0  0.84340981252E+01 -0.13050226209E+02  0.12878030754E+02  0.20181330274E+02  0.51100000000E-03 0. -1.
        -11    1    3    3    0    0 -0.88704250995E+01  0.11370250963E+02  0.98169795490E+01  0.17445347120E+02  0.51100000000E-03 0.  1.
         12    1    3    3    0    0  0.19211171925E+02  0.98859668436E+01  0.17362996514E+01  0.21675244028E+02  0.00000000000E+00 0. -1.
</event>
<event>
 7    1  0.6316620E-012  0.5930196E+02  0.7816164E-02  0.1266605E+00
        -11   -1    0    0    0    0  0.00000000000E+00  0.00000000000E+00  0.45593999997E+02  0.45594000000E+02  0.51100000000E-03 0.  1.
         11   -1    0    0    0    0 -0.00000000000E+00 -0.00000000000E+00 -0.45593999997E+02  0.45594000000E+02  0.51100000000E-03 0. -1.
    9900012    2    1    2    0    0 -0.10853220017E+02 -0.26304747684E+02  0.14387065044E+02  0.59301956406E+02  0.50000022575E+02 0.  0.
         12    1    1    2    0    0  0.10853220017E+02  0.26304747684E+02 -0.14387065044E+02  0.31886043594E+02  0.00000000000E+00 0. -1.
         11    1    3    3    0    0 -0.93117518715E+01  0.20557162805E+01  0.17177158373E+01  0.96894396278E+01  0.51100000000E-03 0. -1.
        -11    1    3    3    0    0 -0.74788514079E+00 -0.34083275034E+02  0.20576219874E+02  0.39819716144E+02  0.51100000000E-03 0.  1.
         12    1    3    3    0    0 -0.79358300479E+00  0.57228110693E+01 -0.79068706669E+01  0.97928006343E+01  0.00000000000E+00 0. -1.
</event>
<event>
 7    1  0.6316620E-012  0.5930195E+02  0.7816164E-02  0.1266605E+00
        -11   -1    0    0    0    0  0.00000000000E+00  0.00000000000E+00  0.45593999997E+02  0.45594000000E+02  0.51100000000E-03 0.  1.
         11   -1    0    0    0    0 -0.00000000000E+00 -0.00000000000E+00 -0.45593999997E+02  0.45594000000E+02  0.51100000000E-03 0. -1.
    9900012    2    1    2    0    0  0.24705214379E+02 -0.16822898463E+02  0.11106874578E+02  0.59301949866E+02  0.50000010648E+02 0.  0.
         12    1    1    2    0    0 -0.24705214379E+02  0.16822898463E+02 -0.11106874578E+02  0.31886050134E+02  0.00000000000E+00 0. -1.
         11    1    3    3    0    0 -0.15132029470E+01 -0.59747813891E+01 -0.39049344987E+01  0.72963216422E+01  0.51100000000E-03 0. -1.
        -11    1    3    3    0    0  0.19503209167E+02 -0.26415718284E+02  0.10135044871E+02  0.34363999695E+02  0.51100000000E-03 0.  1.
         12    1    3    3    0    0  0.67152081589E+01  0.15567601210E+02  0.48767642053E+01  0.17641628529E+02  0.00000000000E+00 0. -1.
</event>
<event>
 7    1  0.6316620E-012  0.5930196E+02  0.7816164E-02  0.1266605E+00
        -11   -1    0    0    0    0  0.00000000000E+00  0.00000000000E+00  0.45593999997E+02  0.45594000000E+02  0.51100000000E-03 0. -1.
         11   -1    0    0    0    0 -0.00000000000E+00 -0.00000000000E+00 -0.45593999997E+02  0.45594000000E+02  0.51100000000E-03 0.  1.
    9900012    2    1    2    0    0 -0.12224636549E+02 -0.24327279425E+02 -0.16597022700E+02  0.59301961904E+02  0.50000032601E+02 0.  0.
         12    1    1    2    0    0  0.12224636549E+02  0.24327279425E+02  0.16597022700E+02  0.31886038096E+02  0.00000000000E+00 0. -1.
         11    1    3    3    0    0  0.64890393931E+01 -0.85258115066E+01 -0.11409700865E+02  0.15651784824E+02  0.51100000000E-03 0. -1.
        -11    1    3    3    0    0 -0.23725530123E+02 -0.23440682233E+02 -0.75860319532E+01  0.34204009184E+02  0.51100000000E-03 0.  1.
         12    1    3    3    0    0  0.50118541809E+01  0.76392143147E+01  0.23987101191E+01  0.94461678956E+01  0.00000000000E+00 0. -1.
</event>
<event>
 7    1  0.6316620E-012  0.5930203E+02  0.7816164E-02  0.1266604E+00
        -11   -1    0    0    0    0  0.00000000000E+00  0.00000000000E+00  0.45593999997E+02  0.45594000000E+02  0.51100000000E-03 0.  1.
         11   -1    0    0    0    0 -0.00000000000E+00 -0.00000000000E+00 -0.45593999997E+02  0.45594000000E+02  0.51100000000E-03 0. -1.
    9900012    2    1    2    0    0 -0.74935106232E+01  0.13174197985E+02  0.28053568955E+02  0.59302032473E+02  0.50000161302E+02 0.  0.
         12    1    1    2    0    0  0.74935106232E+01 -0.13174197985E+02 -0.28053568955E+02  0.31885967527E+02  0.00000000000E+00 0. -1.
         11    1    3    3    0    0  0.60975074502E+01  0.74500623267E+01  0.44272639331E+01  0.10596399953E+02  0.51100000000E-03 0. -1.
        -11    1    3    3    0    0 -0.87922061738E+01  0.49896299973E+01  0.34951299274E+02  0.36383961001E+02  0.51100000000E-03 0.  1.
         12    1    3    3    0    0 -0.47988118996E+01  0.73450566121E+00 -0.11324994252E+02  0.12321671519E+02  0.00000000000E+00 0. -1.
</event>
<event>
 7    1  0.6316620E-012  0.5930180E+02  0.7816164E-02  0.1266605E+00
        -11   -1    0    0    0    0  0.00000000000E+00  0.00000000000E+00  0.45593999997E+02  0.45594000000E+02  0.51100000000E-03 0.  1.
         11   -1    0    0    0    0 -0.00000000000E+00 -0.00000000000E+00 -0.45593999997E+02  0.45594000000E+02  0.51100000000E-03 0. -1.
    9900012    2    1    2    0    0 -0.21711905462E+02 -0.31348868313E+01 -0.23140774697E+02  0.59301799100E+02  0.49999735686E+02 0.  0.
         12    1    1    2    0    0  0.21711905462E+02  0.31348868313E+01  0.23140774697E+02  0.31886200900E+02  0.00000000000E+00 0. -1.
         11    1    3    3    0    0 -0.46269947234E+01  0.81440897524E+01  0.66045898987E+01  0.11461059552E+02  0.51100000000E-03 0. -1.
        -11    1    3    3    0    0 -0.13490501453E+02  0.49999506310E+00  0.21321175749E+01  0.13667097356E+02  0.51100000000E-03 0.  1.
         12    1    3    3    0    0 -0.35944092860E+01 -0.11778971647E+02 -0.31877482170E+02  0.34173642192E+02  0.00000000000E+00 0. -1.
</event>
<event>
 7    1  0.6316620E-012  0.5930206E+02  0.7816164E-02  0.1266604E+00
        -11   -1    0    0    0    0  0.00000000000E+00  0.00000000000E+00  0.45593999997E+02  0.45594000000E+02  0.51100000000E-03 0.  1.
         11   -1    0    0    0    0 -0.00000000000E+00 -0.00000000000E+00 -0.45593999997E+02  0.45594000000E+02  0.51100000000E-03 0. -1.
    9900012    2    1    2    0    0  0.18429830953E+02  0.15620211168E+02  0.20810176463E+02  0.59302060931E+02  0.50000213203E+02 0.  0.
         12    1    1    2    0    0 -0.18429830953E+02 -0.15620211168E+02 -0.20810176463E+02  0.31885939069E+02  0.00000000000E+00 0. -1.
         11    1    3    3    0    0 -0.52475424279E+01 -0.14020649127E+02  0.73963424319E+01  0.16697939546E+02  0.51100000000E-03 0. -1.
        -11    1    3    3    0    0  0.40652426567E+01  0.11202392652E+02  0.98294248828E+01  0.15447892826E+02  0.51100000000E-03 0.  1.
        -12    1    3    3    0    0  0.19612130724E+02  0.18438467643E+02  0.35844091487E+01  0.27156228558E+02  0.00000000000E+00 0.  1.
</event>
<event>
 7    1  0.6316620E-012  0.5930194E+02  0.7816164E-02  0.1266605E+00
        -11   -1    0    0    0    0  0.00000000000E+00  0.00000000000E+00  0.45593999997E+02  0.45594000000E+02  0.51100000000E-03 0.  1.
         11   -1    0    0    0    0 -0.00000000000E+00 -0.00000000000E+00 -0.45593999997E+02  0.45594000000E+02  0.51100000000E-03 0. -1.
    9900012    2    1    2    0    0 -0.61302099156E+01  0.15627125072E+02  0.27109677662E+02  0.59301935104E+02  0.49999983725E+02 0.  0.
         12    1    1    2    0    0  0.61302099156E+01 -0.15627125072E+02 -0.27109677662E+02  0.31886064896E+02  0.00000000000E+00 0. -1.
         11    1    3    3    0    0 -0.97934012820E+00  0.92136588041E+01 -0.12717091799E+02  0.15734517461E+02  0.51100000000E-03 0. -1.
        -11    1    3    3    0    0 -0.59172753917E+01 -0.36407652790E+01  0.10825004694E+02  0.12862738696E+02  0.51100000000E-03 0.  1.
        -12    1    3    3    0    0  0.76640560429E+00  0.10054231547E+02  0.29001764768E+02  0.30704678946E+02  0.00000000000E+00 0.  1.
</event>
<event>
 7    1  0.6316620E-012  0.5930192E+02  0.7816164E-02  0.1266605E+00
        -11   -1    0    0    0    0  0.00000000000E+00  0.00000000000E+00  0.45593999997E+02  0.45594000000E+02  0.51100000000E-03 0. -1.
         11   -1    0    0    0    0 -0.00000000000E+00 -0.00000000000E+00 -0.45593999997E+02  0.45594000000E+02  0.51100000000E-03 0.  1.
    9900012    2    1    2    0    0  0.16620751215E+02 -0.84429865747E+01 -0.25868687202E+02  0.59301915719E+02  0.49999948371E+02 0.  0.
         12    1    1    2    0    0 -0.16620751215E+02  0.84429865747E+01  0.25868687202E+02  0.31886084281E+02  0.00000000000E+00 0. -1.
         11    1    3    3    0    0 -0.13810360065E+01  0.96007383417E+01 -0.16512481882E+01  0.98391085977E+01  0.51100000000E-03 0. -1.
        -11    1    3    3    0    0  0.12600045081E+01  0.79183354220E+01 -0.15358834840E+02  0.17325745442E+02  0.51100000000E-03 0.  1.
         12    1    3    3    0    0  0.16741782714E+02 -0.25962060338E+02 -0.88586041731E+01  0.32137061679E+02  0.00000000000E+00 0. -1.
</event>
<event>
 7    1  0.6316620E-012  0.5930195E+02  0.7816164E-02  0.1266605E+00
        -11   -1    0    0    0    0  0.00000000000E+00  0.00000000000E+00  0.45593999997E+02  0.45594000000E+02  0.51100000000E-03 0. -1.
         11   -1    0    0    0    0 -0.00000000000E+00 -0.00000000000E+00 -0.45593999997E+02  0.45594000000E+02  0.51100000000E-03 0.  1.
    9900012    2    1    2    0    0 -0.56211438028E+01 -0.26279756108E+02 -0.17160921901E+02  0.59301951653E+02  0.50000013906E+02 0.  0.
         12    1    1    2    0    0  0.56211438028E+01  0.26279756108E+02  0.17160921901E+02  0.31886048347E+02  0.00000000000E+00 0. -1.
         11    1    3    3    0    0 -0.18696911551E+01  0.53606815024E+01  0.34016031398E+01  0.66184254447E+01  0.51100000000E-03 0. -1.
        -11    1    3    3    0    0 -0.36224851486E+01 -0.82848594854E+01  0.10476295522E+02  0.13838860627E+02  0.51100000000E-03 0.  1.
        -12    1    3    3    0    0 -0.12896749912E+00 -0.23355578125E+02 -0.31038820562E+02  0.38844665580E+02  0.00000000000E+00 0.  1.
</event>
<event>
 7    1  0.6316620E-012  0.5930195E+02  0.7816164E-02  0.1266605E+00
        -11   -1    0    0    0    0  0.00000000000E+00  0.00000000000E+00  0.45593999997E+02  0.45594000000E+02  0.51100000000E-03 0.  1.
         11   -1    0    0    0    0 -0.00000000000E+00 -0.00000000000E+00 -0.45593999997E+02  0.45594000000E+02  0.51100000000E-03 0. -1.
    9900012    2    1    2    0    0  0.10621202566E+02  0.20000365253E+02  0.22447617103E+02  0.59301951832E+02  0.50000014233E+02 0.  0.
         12    1    1    2    0    0 -0.10621202566E+02 -0.20000365253E+02 -0.22447617103E+02  0.31886048168E+02  0.00000000000E+00 0. -1.
         11    1    3    3    0    0 -0.59082268168E+00  0.95338422979E+01  0.19809119428E+02  0.21991917451E+02  0.51100000000E-03 0. -1.
        -11    1    3    3    0    0  0.11847778206E+02  0.77780479459E+01  0.17314982921E+02  0.22375801931E+02  0.51100000000E-03 0.  1.
         12    1    3    3    0    0 -0.63575295822E+00  0.26884750087E+01 -0.14676485246E+02  0.14934232450E+02  0.00000000000E+00 0. -1.
</event>
<event>
 7    1  0.6316620E-012  0.5930198E+02  0.7816164E-02  0.1266605E+00
        -11   -1    0    0    0    0  0.00000000000E+00  0.00000000000E+00  0.45593999997E+02  0.45594000000E+02  0.51100000000E-03 0.  1.
         11   -1    0    0    0    0 -0.00000000000E+00 -0.00000000000E+00 -0.45593999997E+02  0.45594000000E+02  0.51100000000E-03 0. -1.
    9900012    2    1    2    0    0  0.19573684328E+02  0.11119932265E+02  0.22581770716E+02  0.59301978291E+02  0.50000062488E+02 0.  0.
         12    1    1    2    0    0 -0.19573684328E+02 -0.11119932265E+02 -0.22581770716E+02  0.31886021709E+02  0.00000000000E+00 0. -1.
         11    1    3    3    0    0 -0.17729964350E+01  0.14433176936E+00 -0.76581218771E+01  0.78620085833E+01  0.51100000000E-03 0. -1.
        -11    1    3    3    0    0  0.12518348459E+02  0.20378721656E+02  0.70999193783E+01  0.24948150230E+02  0.51100000000E-03 0.  1.
        -12    1    3    3    0    0  0.88283323047E+01 -0.94031211606E+01  0.23139973215E+02  0.26491819477E+02  0.00000000000E+00 0.  1.
</event>
<event>
 7    1  0.6316620E-012  0.5930190E+02  0.7816164E-02  0.1266605E+00
        -11   -1    0    0    0    0  0.00000000000E+00  0.00000000000E+00  0.45593999997E+02  0.45594000000E+02  0.51100000000E-03 0.  1.
         11   -1    0    0    0    0 -0.00000000000E+00 -0.00000000000E+00 -0.45593999997E+02  0.45594000000E+02  0.51100000000E-03 0. -1.
    9900012    2    1    2    0    0 -0.82351996995E+01 -0.11465049911E+02  0.28591217452E+02  0.59301896460E+02  0.49999913249E+02 0.  0.
         12    1    1    2    0    0  0.82351996995E+01  0.11465049911E+02 -0.28591217452E+02  0.31886103540E+02  0.00000000000E+00 0. -1.
         11    1    3    3    0    0 -0.31266906577E+01 -0.73131747486E+01 -0.11477809235E+02  0.13964197953E+02  0.51100000000E-03 0. -1.
        -11    1    3    3    0    0  0.28083680735E+01  0.68349453721E+01  0.10779545096E+02  0.13069124003E+02  0.51100000000E-03 0.  1.
        -12    1    3    3    0    0 -0.79168771152E+01 -0.10986820534E+02  0.29289481591E+02  0.32268574505E+02  0.00000000000E+00 0.  1.
</event>
<event>
 7    1  0.6316620E-012  0.5930196E+02  0.7816164E-02  0.1266605E+00
        -11   -1    0    0    0    0  0.00000000000E+00  0.00000000000E+00  0.45593999997E+02  0.45594000000E+02  0.51100000000E-03 0. -1.
         11   -1    0    0    0    0 -0.00000000000E+00 -0.00000000000E+00 -0.45593999997E+02  0.45594000000E+02  0.51100000000E-03 0.  1.
    9900012    2    1    2    0    0  0.26417598912E+02  0.12197883910E+02 -0.13040012907E+02  0.59301955392E+02  0.50000020725E+02 0.  0.
         12    1    1    2    0    0 -0.26417598912E+02 -0.12197883910E+02  0.13040012907E+02  0.31886044608E+02  0.00000000000E+00 0. -1.
         11    1    3    3    0    0  0.79669866258E+01  0.55187751327E+01  0.60573102806E+01  0.11428944088E+02  0.51100000000E-03 0. -1.
        -11    1    3    3    0    0 -0.47689625665E+01 -0.28157092500E+01  0.87735011000E+01  0.10375237075E+02  0.51100000000E-03 0.  1.
        -12    1    3    3    0    0  0.23219574853E+02  0.94948180276E+01 -0.27870824287E+02  0.37497774229E+02  0.00000000000E+00 0.  1.
</event>
<event>
 7    1  0.6316620E-012  0.5930195E+02  0.7816164E-02  0.1266605E+00
        -11   -1    0    0    0    0  0.00000000000E+00  0.00000000000E+00  0.45593999997E+02  0.45594000000E+02  0.51100000000E-03 0. -1.
         11   -1    0    0    0    0 -0.00000000000E+00 -0.00000000000E+00 -0.45593999997E+02  0.45594000000E+02  0.51100000000E-03 0.  1.
    9900012    2    1    2    0    0 -0.15137986575E+02  0.17645079694E+01 -0.28007998030E+02  0.59301951647E+02  0.50000013896E+02 0.  0.
         12    1    1    2    0    0  0.15137986575E+02 -0.17645079694E+01  0.28007998030E+02  0.31886048353E+02  0.00000000000E+00 0. -1.
         11    1    3    3    0    0 -0.36499591785E+01  0.56529101365E+01  0.34748802564E+01  0.75731359471E+01  0.51100000000E-03 0.  1.
        -11    1    3    3    0    0  0.11298641479E+02 -0.71714410589E+01 -0.85007801784E+00  0.13409381008E+02  0.51100000000E-03 0. -1.
        -12    1    3    3    0    0 -0.22786668875E+02  0.32830388917E+01 -0.30632800268E+02  0.38319434692E+02  0.00000000000E+00 0.  1.
</event>
<event>
 7    1  0.6316620E-012  0.5930195E+02  0.7816164E-02  0.1266605E+00
        -11   -1    0    0    0    0  0.00000000000E+00  0.00000000000E+00  0.45593999997E+02  0.45594000000E+02  0.51100000000E-03 0. -1.
         11   -1    0    0    0    0 -0.00000000000E+00 -0.00000000000E+00 -0.45593999997E+02  0.45594000000E+02  0.51100000000E-03 0.  1.
    9900012    2    1    2    0    0  0.64009806820E+01 -0.30345025379E+02 -0.74112751394E+01  0.59301951042E+02  0.50000012792E+02 0.  0.
         12    1    1    2    0    0 -0.64009806820E+01  0.30345025379E+02  0.74112751394E+01  0.31886048958E+02  0.00000000000E+00 0. -1.
         11    1    3    3    0    0 -0.13377765177E+02 -0.63977253695E+01  0.83012453378E+01  0.16994298027E+02  0.51100000000E-03 0. -1.
        -11    1    3    3    0    0 -0.50267709543E+01 -0.90312150513E+01 -0.40032893218E+01  0.11084114632E+02  0.51100000000E-03 0.  1.
        -12    1    3    3    0    0  0.24805516813E+02 -0.14916084958E+02 -0.11709231155E+02  0.31223538382E+02  0.00000000000E+00 0.  1.
</event>
<event>
 7    1  0.6316620E-012  0.5930194E+02  0.7816164E-02  0.1266605E+00
        -11   -1    0    0    0    0  0.00000000000E+00  0.00000000000E+00  0.45593999997E+02  0.45594000000E+02  0.51100000000E-03 0.  1.
         11   -1    0    0    0    0 -0.00000000000E+00 -0.00000000000E+00 -0.45593999997E+02  0.45594000000E+02  0.51100000000E-03 0. -1.
    9900012    2    1    2    0    0  0.47140915957E+01  0.29489790429E+02 -0.11173637360E+02  0.59301943942E+02  0.49999999843E+02 0.  0.
         12    1    1    2    0    0 -0.47140915957E+01 -0.29489790429E+02  0.11173637360E+02  0.31886056058E+02  0.00000000000E+00 0. -1.
         11    1    3    3    0    0 -0.71166554902E+01 -0.22737248303E+01 -0.88089420439E+01  0.11550500862E+02  0.51100000000E-03 0. -1.
        -11    1    3    3    0    0 -0.11552766231E+02  0.64763596707E+01 -0.10220726302E+01  0.13283609257E+02  0.51100000000E-03 0.  1.
         12    1    3    3    0    0  0.23383513317E+02  0.25287155588E+02 -0.13426226855E+01  0.34467833823E+02  0.00000000000E+00 0. -1.
</event>
<event>
 7    1  0.6316620E-012  0.5930192E+02  0.7816164E-02  0.1266605E+00
        -11   -1    0    0    0    0  0.00000000000E+00  0.00000000000E+00  0.45593999997E+02  0.45594000000E+02  0.51100000000E-03 0.  1.
         11   -1    0    0    0    0 -0.00000000000E+00 -0.00000000000E+00 -0.45593999997E+02  0.45594000000E+02  0.51100000000E-03 0. -1.
    9900012    2    1    2    0    0  0.50465355371E+01  0.17224121541E+02 -0.26354966085E+02  0.59301919634E+02  0.49999955511E+02 0.  0.
         12    1    1    2    0    0 -0.50465355371E+01 -0.17224121541E+02  0.26354966085E+02  0.31886080366E+02  0.00000000000E+00 0. -1.
         11    1    3    3    0    0  0.88840405421E+01  0.57427902548E+01 -0.25702018751E+01  0.10886310404E+02  0.51100000000E-03 0. -1.
        -11    1    3    3    0    0  0.66502679958E+01 -0.13050911994E+02 -0.39512789552E+01  0.15171188943E+02  0.51100000000E-03 0.  1.
        -12    1    3    3    0    0 -0.10487773001E+02  0.24532243281E+02 -0.19833485254E+02  0.33244420287E+02  0.00000000000E+00 0.  1.
</event>
<event>
 7    1  0.6316620E-012  0.5930164E+02  0.7816164E-02  0.1266606E+00
        -11   -1    0    0    0    0  0.00000000000E+00  0.00000000000E+00  0.45593999997E+02  0.45594000000E+02  0.51100000000E-03 0. -1.
         11   -1    0    0    0    0 -0.00000000000E+00 -0.00000000000E+00 -0.45593999997E+02  0.45594000000E+02  0.51100000000E-03 0.  1.
    9900012    2    1    2    0    0 -0.32657793587E+01 -0.31093592743E+02 -0.62660421053E+01  0.59301637583E+02  0.49999441116E+02 0.  0.
         12    1    1    2    0    0  0.32657793587E+01  0.31093592743E+02  0.62660421053E+01  0.31886362417E+02  0.00000000000E+00 0. -1.
         11    1    3    3    0    0 -0.54140556715E+01 -0.80114772809E+01  0.18657841441E+02  0.21014538171E+02  0.51100000000E-03 0. -1.
        -11    1    3    3    0    0  0.82422093929E+01 -0.42947084791E+01 -0.73398488826E+01  0.11842800280E+02  0.51100000000E-03 0.  1.
        -12    1    3    3    0    0 -0.60939330801E+01 -0.18787406983E+02 -0.17584034664E+02  0.26444299132E+02  0.00000000000E+00 0.  1.
</event>
<event>
 7    1  0.6316620E-012  0.5930209E+02  0.7816164E-02  0.1266604E+00
        -11   -1    0    0    0    0  0.00000000000E+00  0.00000000000E+00  0.45593999997E+02  0.45594000000E+02  0.51100000000E-03 0.  1.
         11   -1    0    0    0    0 -0.00000000000E+00 -0.00000000000E+00 -0.45593999997E+02  0.45594000000E+02  0.51100000000E-03 0. -1.
    9900012    2    1    2    0    0  0.21987155320E+02  0.13244101296E+02  0.18917448829E+02  0.59302092636E+02  0.50000271026E+02 0.  0.
         12    1    1    2    0    0 -0.21987155320E+02 -0.13244101296E+02 -0.18917448829E+02  0.31885907364E+02  0.00000000000E+00 0. -1.
         11    1    3    3    0    0  0.61957488239E+01 -0.34434615339E+01 -0.10897044551E+02  0.12999627342E+02  0.51100000000E-03 0. -1.
        -11    1    3    3    0    0  0.80848624950E+01 -0.52473024839E+01  0.16449480486E+01  0.97777829422E+01  0.51100000000E-03 0.  1.
        -12    1    3    3    0    0  0.77065440011E+01  0.21934865314E+02  0.28169545331E+02  0.36524682352E+02  0.00000000000E+00 0.  1.
</event>
<event>
 7    1  0.6316620E-012  0.5930195E+02  0.7816164E-02  0.1266605E+00
        -11   -1    0    0    0    0  0.00000000000E+00  0.00000000000E+00  0.45593999997E+02  0.45594000000E+02  0.51100000000E-03 0. -1.
         11   -1    0    0    0    0 -0.00000000000E+00 -0.00000000000E+00 -0.45593999997E+02  0.45594000000E+02  0.51100000000E-03 0.  1.
    9900012    2    1    2    0    0 -0.15670950465E+02  0.23607463612E+02 -0.14622898800E+02  0.59301949821E+02  0.50000010566E+02 0.  0.
         12    1    1    2    0    0  0.15670950465E+02 -0.23607463612E+02  0.14622898800E+02  0.31886050179E+02  0.00000000000E+00 0. -1.
         11    1    3    3    0    0 -0.59830248051E+01  0.24296810264E+01  0.10475589485E+02  0.12306011175E+02  0.51100000000E-03 0. -1.
        -11    1    3    3    0    0  0.86266193475E+01  0.98464813497E+00 -0.16092522006E+02  0.18285441151E+02  0.51100000000E-03 0.  1.
        -12    1    3    3    0    0 -0.18314545008E+02  0.20193134451E+02 -0.90059662794E+01  0.28710497495E+02  0.00000000000E+00 0.  1.
</event>
<event>
 7    1  0.6316620E-012  0.5930193E+02  0.7816164E-02  0.1266605E+00
        -11   -1    0    0    0    0  0.00000000000E+00  0.00000000000E+00  0.45593999997E+02  0.45594000000E+02  0.51100000000E-03 0.  1.
         11   -1    0    0    0    0 -0.00000000000E+00 -0.00000000000E+00 -0.45593999997E+02  0.45594000000E+02  0.51100000000E-03 0. -1.
    9900012    2    1    2    0    0 -0.85541685424E+01 -0.34259520812E+00  0.30715312833E+02  0.59301927596E+02  0.49999970032E+02 0.  0.
         12    1    1    2    0    0  0.85541685424E+01  0.34259520812E+00 -0.30715312833E+02  0.31886072404E+02  0.00000000000E+00 0. -1.
         11    1    3    3    0    0  0.55108822245E+01 -0.14472471855E+01  0.72616157420E+01  0.92301360095E+01  0.51100000000E-03 0. -1.
        -11    1    3    3    0    0 -0.58073348976E+01  0.12694529433E+02  0.30975206126E+02  0.33975573740E+02  0.51100000000E-03 0.  1.
         12    1    3    3    0    0 -0.82577158692E+01 -0.11589877455E+02 -0.75215090347E+01  0.16096217846E+02  0.00000000000E+00 0. -1.
</event>
<event>
 7    1  0.6316620E-012  0.5930195E+02  0.7816164E-02  0.1266605E+00
        -11   -1    0    0    0    0  0.00000000000E+00  0.00000000000E+00  0.45593999997E+02  0.45594000000E+02  0.51100000000E-03 0. -1.
         11   -1    0    0    0    0 -0.00000000000E+00 -0.00000000000E+00 -0.45593999997E+02  0.45594000000E+02  0.51100000000E-03 0.  1.
    9900012    2    1    2    0    0  0.28613619777E+02  0.14070507801E+02  0.45289517627E-01  0.59301945405E+02  0.50000002512E+02 0.  0.
         12    1    1    2    0    0 -0.28613619777E+02 -0.14070507801E+02 -0.45289517627E-01  0.31886054595E+02  0.00000000000E+00 0. -1.
         11    1    3    3    0    0 -0.14235704275E+01  0.42682943224E+00  0.35994699831E+01  0.38942162942E+01  0.51100000000E-03 0. -1.
        -11    1    3    3    0    0  0.49235458492E+01  0.24161282192E+02  0.78666730522E+01  0.25882299088E+02  0.51100000000E-03 0.  1.
         12    1    3    3    0    0  0.25113644355E+02 -0.10517603823E+02 -0.11420853518E+02  0.29525430023E+02  0.00000000000E+00 0. -1.
</event>
<event>
 7    1  0.6316620E-012  0.5930194E+02  0.7816164E-02  0.1266605E+00
        -11   -1    0    0    0    0  0.00000000000E+00  0.00000000000E+00  0.45593999997E+02  0.45594000000E+02  0.51100000000E-03 0.  1.
         11   -1    0    0    0    0 -0.00000000000E+00 -0.00000000000E+00 -0.45593999997E+02  0.45594000000E+02  0.51100000000E-03 0. -1.
    9900012    2    1    2    0    0  0.28017481481E+02 -0.48430387067E+01  0.14432140321E+02  0.59301937736E+02  0.49999988525E+02 0.  0.
         12    1    1    2    0    0 -0.28017481481E+02  0.48430387067E+01 -0.14432140321E+02  0.31886062264E+02  0.00000000000E+00 0. -1.
         11    1    3    3    0    0 -0.88333191883E+00 -0.77968963737E+01  0.12725651176E+01  0.79492949738E+01  0.51100000000E-03 0. -1.
        -11    1    3    3    0    0 -0.26627153619E+01 -0.12913624384E+02 -0.11537276138E+01  0.13235665283E+02  0.51100000000E-03 0.  1.
        -12    1    3    3    0    0  0.31563528762E+02  0.15867482051E+02  0.14313302817E+02  0.38116977478E+02  0.00000000000E+00 0.  1.
</event>
<event>
 7    1  0.6316620E-012  0.5930196E+02  0.7816164E-02  0.1266605E+00
        -11   -1    0    0    0    0  0.00000000000E+00  0.00000000000E+00  0.45593999997E+02  0.45594000000E+02  0.51100000000E-03 0.  1.
         11   -1    0    0    0    0 -0.00000000000E+00 -0.00000000000E+00 -0.45593999997E+02  0.45594000000E+02  0.51100000000E-03 0. -1.
    9900012    2    1    2    0    0  0.18214674961E+02 -0.87235369634E+01  0.24674787067E+02  0.59301959200E+02  0.50000027671E+02 0.  0.
         12    1    1    2    0    0 -0.18214674961E+02  0.87235369634E+01 -0.24674787067E+02  0.31886040800E+02  0.00000000000E+00 0. -1.
         11    1    3    3    0    0 -0.10337689984E+02 -0.10241175605E+02 -0.84840409796E+00  0.14576326758E+02  0.51100000000E-03 0.  1.
        -11    1    3    3    0    0  0.45986301816E+01  0.42502871618E+01 -0.33569326681E+01  0.71050220059E+01  0.51100000000E-03 0. -1.
        -12    1    3    3    0    0  0.23953734763E+02 -0.27326485202E+01  0.28880123833E+02  0.37620610437E+02  0.00000000000E+00 0.  1.
</event>
<event>
 7    1  0.6316620E-012  0.5930194E+02  0.7816164E-02  0.1266605E+00
        -11   -1    0    0    0    0  0.00000000000E+00  0.00000000000E+00  0.45593999997E+02  0.45594000000E+02  0.51100000000E-03 0.  1.
         11   -1    0    0    0    0 -0.00000000000E+00 -0.00000000000E+00 -0.45593999997E+02  0.45594000000E+02  0.51100000000E-03 0. -1.
    9900012    2    1    2    0    0 -0.23935623255E+02  0.19857440318E+02  0.70348273005E+01  0.59301940480E+02  0.49999993529E+02 0.  0.
         12    1    1    2    0    0  0.23935623255E+02 -0.19857440318E+02 -0.70348273005E+01  0.31886059520E+02  0.00000000000E+00 0. -1.
         11    1    3    3    0    0 -0.19181007774E+02  0.34011107981E+02  0.59025117334E+01  0.39490583312E+02  0.51100000000E-03 0. -1.
        -11    1    3    3    0    0  0.75463252501E+00 -0.11698349009E+01  0.49968825719E+01  0.51871783892E+01  0.51100000000E-03 0.  1.
        -12    1    3    3    0    0 -0.55092480066E+01 -0.12983832762E+02 -0.38645670048E+01  0.14624178778E+02  0.00000000000E+00 0.  1.
</event>
<event>
 7    1  0.6316620E-012  0.5930195E+02  0.7816164E-02  0.1266605E+00
        -11   -1    0    0    0    0  0.00000000000E+00  0.00000000000E+00  0.45593999997E+02  0.45594000000E+02  0.51100000000E-03 0. -1.
         11   -1    0    0    0    0 -0.00000000000E+00 -0.00000000000E+00 -0.45593999997E+02  0.45594000000E+02  0.51100000000E-03 0.  1.
    9900012    2    1    2    0    0  0.17995883428E+02  0.25140431048E+02 -0.77991525981E+01  0.59301954857E+02  0.50000019749E+02 0.  0.
         12    1    1    2    0    0 -0.17995883428E+02 -0.25140431048E+02  0.77991525981E+01  0.31886045143E+02  0.00000000000E+00 0. -1.
         11    1    3    3    0    0 -0.82889656425E+01  0.17416340645E+02  0.36284250980E+01  0.19626546865E+02  0.51100000000E-03 0. -1.
        -11    1    3    3    0    0 -0.19657631096E+01 -0.81015402770E-01 -0.10149645684E+02  0.10338573203E+02  0.51100000000E-03 0.  1.
         12    1    3    3    0    0  0.28250612180E+02  0.78051058060E+01 -0.12779320116E+01  0.29336834789E+02  0.00000000000E+00 0. -1.
</event>
<event>
 7    1  0.6316620E-012  0.5930194E+02  0.7816164E-02  0.1266605E+00
        -11   -1    0    0    0    0  0.00000000000E+00  0.00000000000E+00  0.45593999997E+02  0.45594000000E+02  0.51100000000E-03 0. -1.
         11   -1    0    0    0    0 -0.00000000000E+00 -0.00000000000E+00 -0.45593999997E+02  0.45594000000E+02  0.51100000000E-03 0.  1.
    9900012    2    1    2    0    0 -0.83862941444E+01  0.30265764209E+02 -0.55112841299E+01  0.59301942460E+02  0.49999997142E+02 0.  0.
         12    1    1    2    0    0  0.83862941444E+01 -0.30265764209E+02  0.55112841299E+01  0.31886057540E+02  0.00000000000E+00 0. -1.
         11    1    3    3    0    0  0.55978386490E+01 -0.86714115334E+01  0.35370704930E+01  0.10910547349E+02  0.51100000000E-03 0. -1.
        -11    1    3    3    0    0 -0.96840108817E+01  0.12197915561E+02 -0.13902514456E+02  0.20876999767E+02  0.51100000000E-03 0.  1.
        -12    1    3    3    0    0 -0.43001219117E+01  0.26739260181E+02  0.48541598330E+01  0.27514395345E+02  0.00000000000E+00 0.  1.
</event>
<event>
 7    1  0.6316620E-012  0.5930196E+02  0.7816164E-02  0.1266605E+00
        -11   -1    0    0    0    0  0.00000000000E+00  0.00000000000E+00  0.45593999997E+02  0.45594000000E+02  0.51100000000E-03 0. -1.
         11   -1    0    0    0    0 -0.00000000000E+00 -0.00000000000E+00 -0.45593999997E+02  0.45594000000E+02  0.51100000000E-03 0.  1.
    9900012    2    1    2    0    0 -0.28622301971E+02  0.11893395804E+01 -0.14002458389E+02  0.59301960112E+02  0.50000029335E+02 0.  0.
         12    1    1    2    0    0  0.28622301971E+02 -0.11893395804E+01  0.14002458389E+02  0.31886039888E+02  0.00000000000E+00 0. -1.
         11    1    3    3    0    0 -0.52109028454E+00  0.35748311867E+01 -0.54804126587E+01  0.65639832624E+01  0.51100000000E-03 0. -1.
        -11    1    3    3    0    0 -0.11436670339E+02 -0.22010217255E+02 -0.10460085241E+02  0.26919518487E+02  0.51100000000E-03 0.  1.
         12    1    3    3    0    0 -0.16664541348E+02  0.19624725648E+02  0.19380395110E+01  0.25818458363E+02  0.00000000000E+00 0. -1.
</event>
<event>
 7    1  0.6316620E-012  0.5930192E+02  0.7816164E-02  0.1266605E+00
        -11   -1    0    0    0    0  0.00000000000E+00  0.00000000000E+00  0.45593999997E+02  0.45594000000E+02  0.51100000000E-03 0.  1.
         11   -1    0    0    0    0 -0.00000000000E+00 -0.00000000000E+00 -0.45593999997E+02  0.45594000000E+02  0.51100000000E-03 0. -1.
    9900012    2    1    2    0    0 -0.30596872116E+02  0.40294188554E+01  0.80197882611E+01  0.59301924617E+02  0.49999964599E+02 0.  0.
         12    1    1    2    0    0  0.30596872116E+02 -0.40294188554E+01 -0.80197882611E+01  0.31886075383E+02  0.00000000000E+00 0. -1.
         11    1    3    3    0    0 -0.81918549879E+01 -0.99882634787E+00 -0.14893363516E+01  0.83858371821E+01  0.51100000000E-03 0. -1.
        -11    1    3    3    0    0 -0.25474260176E+02  0.20394474003E+02  0.88499711093E-01  0.32632504253E+02  0.51100000000E-03 0.  1.
         12    1    3    3    0    0  0.30692430478E+01 -0.15366228800E+02  0.94206249016E+01  0.18283583181E+02  0.00000000000E+00 0. -1.
</event>
<event>
 7    1  0.6316620E-012  0.5930175E+02  0.7816164E-02  0.1266605E+00
        -11   -1    0    0    0    0  0.00000000000E+00  0.00000000000E+00  0.45593999997E+02  0.45594000000E+02  0.51100000000E-03 0.  1.
         11   -1    0    0    0    0 -0.00000000000E+00 -0.00000000000E+00 -0.45593999997E+02  0.45594000000E+02  0.51100000000E-03 0. -1.
    9900012    2    1    2    0    0  0.24487074943E+02 -0.24215790911E+01 -0.20279356141E+02  0.59301746378E+02  0.49999639533E+02 0.  0.
         12    1    1    2    0    0 -0.24487074943E+02  0.24215790911E+01  0.20279356141E+02  0.31886253622E+02  0.00000000000E+00 0. -1.
         11    1    3    3    0    0 -0.75667900922E+00  0.10401312295E+02 -0.15343517314E+02  0.18552180045E+02  0.51100000000E-03 0. -1.
        -11    1    3    3    0    0  0.76969456244E+01  0.76488745609E+01  0.50868619332E+01  0.11984340557E+02  0.51100000000E-03 0.  1.
        -12    1    3    3    0    0  0.17546808327E+02 -0.20471765947E+02 -0.10022700760E+02  0.28765225777E+02  0.00000000000E+00 0.  1.
</event>
<event>
 7    1  0.6316620E-012  0.5930194E+02  0.7816164E-02  0.1266605E+00
        -11   -1    0    0    0    0  0.00000000000E+00  0.00000000000E+00  0.45593999997E+02  0.45594000000E+02  0.51100000000E-03 0. -1.
         11   -1    0    0    0    0 -0.00000000000E+00 -0.00000000000E+00 -0.45593999997E+02  0.45594000000E+02  0.51100000000E-03 0.  1.
    9900012    2    1    2    0    0 -0.55169803663E+01 -0.89322855183E+01 -0.30108106488E+02  0.59301939202E+02  0.49999991199E+02 0.  0.
         12    1    1    2    0    0  0.55169803663E+01  0.89322855183E+01  0.30108106488E+02  0.31886060798E+02  0.00000000000E+00 0. -1.
         11    1    3    3    0    0 -0.41669121491E+01  0.86763982082E+01 -0.32686635152E+02  0.34074318196E+02  0.51100000000E-03 0. -1.
        -11    1    3    3    0    0 -0.73742824758E+01 -0.45799364189E+01 -0.38543441806E+01  0.94979907853E+01  0.51100000000E-03 0.  1.
        -12    1    3    3    0    0  0.60242142586E+01 -0.13028747308E+02  0.64328728447E+01  0.15729630221E+02  0.00000000000E+00 0.  1.
</event>
<event>
 7    1  0.6316620E-012  0.5930195E+02  0.7816164E-02  0.1266605E+00
        -11   -1    0    0    0    0  0.00000000000E+00  0.00000000000E+00  0.45593999997E+02  0.45594000000E+02  0.51100000000E-03 0. -1.
         11   -1    0    0    0    0 -0.00000000000E+00 -0.00000000000E+00 -0.45593999997E+02  0.45594000000E+02  0.51100000000E-03 0.  1.
    9900012    2    1    2    0    0 -0.51104276382E+01 -0.26548786894E+02 -0.16904602072E+02  0.59301950897E+02  0.50000012528E+02 0.  0.
         12    1    1    2    0    0  0.51104276382E+01  0.26548786894E+02  0.16904602072E+02  0.31886049103E+02  0.00000000000E+00 0. -1.
         11    1    3    3    0    0  0.10414526159E+02 -0.31108868682E+01  0.54158254410E+01  0.12143769501E+02  0.51100000000E-03 0. -1.
        -11    1    3    3    0    0 -0.10698779555E+02 -0.48442733294E+01  0.58033340788E+01  0.13099983005E+02  0.51100000000E-03 0.  1.
         12    1    3    3    0    0 -0.48261742430E+01 -0.18593626696E+02 -0.28123761592E+02  0.34058198391E+02  0.00000000000E+00 0. -1.
</event>
<event>
 7    1  0.6316620E-012  0.5930198E+02  0.7816164E-02  0.1266605E+00
        -11   -1    0    0    0    0  0.00000000000E+00  0.00000000000E+00  0.45593999997E+02  0.45594000000E+02  0.51100000000E-03 0.  1.
         11   -1    0    0    0    0 -0.00000000000E+00 -0.00000000000E+00 -0.45593999997E+02  0.45594000000E+02  0.51100000000E-03 0. -1.
    9900012    2    1    2    0    0  0.20705465509E+02  0.23529492521E+02  0.58621688133E+01  0.59301978871E+02  0.50000063546E+02 0.  0.
         12    1    1    2    0    0 -0.20705465509E+02 -0.23529492521E+02 -0.58621688133E+01  0.31886021129E+02  0.00000000000E+00 0. -1.
         11    1    3    3    0    0  0.16238233914E+00 -0.11811300709E+01 -0.24024772722E+01  0.26820390701E+01  0.51100000000E-03 0. -1.
        -11    1    3    3    0    0 -0.10655977979E+02  0.22291616664E+02  0.30363432177E+01  0.24893481488E+02  0.51100000000E-03 0.  1.
         12    1    3    3    0    0  0.31199061148E+02  0.24190059273E+01  0.52283028678E+01  0.31726458313E+02  0.00000000000E+00 0. -1.
</event>
<event>
 7    1  0.6316620E-012  0.5930194E+02  0.7816164E-02  0.1266605E+00
        -11   -1    0    0    0    0  0.00000000000E+00  0.00000000000E+00  0.45593999997E+02  0.45594000000E+02  0.51100000000E-03 0. -1.
         11   -1    0    0    0    0 -0.00000000000E+00 -0.00000000000E+00 -0.45593999997E+02  0.45594000000E+02  0.51100000000E-03 0.  1.
    9900012    2    1    2    0    0 -0.24947499613E+02 -0.72356893793E+01 -0.18492914813E+02  0.59301939785E+02  0.49999992262E+02 0.  0.
         12    1    1    2    0    0  0.24947499613E+02  0.72356893793E+01  0.18492914813E+02  0.31886060215E+02  0.00000000000E+00 0. -1.
         11    1    3    3    0    0 -0.14046393081E+02 -0.16981322685E+01  0.36549598881E+01  0.14613129159E+02  0.51100000000E-03 0. -1.
        -11    1    3    3    0    0 -0.16766462581E+02 -0.17716142355E+02 -0.94996055347E+01  0.26176678036E+02  0.51100000000E-03 0.  1.
        -12    1    3    3    0    0  0.58653560484E+01  0.12178585244E+02 -0.12648269167E+02  0.18512132590E+02  0.00000000000E+00 0.  1.
</event>
<event>
 7    1  0.6316620E-012  0.5930196E+02  0.7816164E-02  0.1266605E+00
        -11   -1    0    0    0    0  0.00000000000E+00  0.00000000000E+00  0.45593999997E+02  0.45594000000E+02  0.51100000000E-03 0.  1.
         11   -1    0    0    0    0 -0.00000000000E+00 -0.00000000000E+00 -0.45593999997E+02  0.45594000000E+02  0.51100000000E-03 0. -1.
    9900012    2    1    2    0    0 -0.78568992179E+00 -0.76879064818E+01  0.30935394298E+02  0.59301955480E+02  0.50000020886E+02 0.  0.
         12    1    1    2    0    0  0.78568992179E+00  0.76879064818E+01 -0.30935394298E+02  0.31886044520E+02  0.00000000000E+00 0. -1.
         11    1    3    3    0    0 -0.68337875519E+01  0.84789412431E+01  0.10176989970E+01  0.10937495528E+02  0.51100000000E-03 0. -1.
        -11    1    3    3    0    0  0.17396347667E+02 -0.12363749793E+02  0.29471360301E+02  0.36387584412E+02  0.51100000000E-03 0.  1.
         12    1    3    3    0    0 -0.11348250037E+02 -0.38030979316E+01  0.44633500054E+00  0.11976875540E+02  0.00000000000E+00 0. -1.
</event>
<event>
 7    1  0.6316620E-012  0.5930192E+02  0.7816164E-02  0.1266605E+00
        -11   -1    0    0    0    0  0.00000000000E+00  0.00000000000E+00  0.45593999997E+02  0.45594000000E+02  0.51100000000E-03 0.  1.
         11   -1    0    0    0    0 -0.00000000000E+00 -0.00000000000E+00 -0.45593999997E+02  0.45594000000E+02  0.51100000000E-03 0. -1.
    9900012    2    1    2    0    0  0.12789024554E+02 -0.89319327245E+01  0.27809771007E+02  0.59301922557E+02  0.49999960843E+02 0.  0.
         12    1    1    2    0    0 -0.12789024554E+02  0.89319327245E+01 -0.27809771007E+02  0.31886077443E+02  0.00000000000E+00 0. -1.
         11    1    3    3    0    0  0.14549911712E+02  0.35398302891E+01 -0.63027193638E+01  0.16246679690E+02  0.51100000000E-03 0.  1.
        -11    1    3    3    0    0 -0.78967304083E+01 -0.43864299133E+00  0.19122946173E+01  0.81368070998E+01  0.51100000000E-03 0. -1.
        -12    1    3    3    0    0  0.61358432495E+01 -0.12033120022E+02  0.32200195754E+02  0.34918435767E+02  0.00000000000E+00 0.  1.
</event>
<event>
 7    1  0.6316620E-012  0.5930195E+02  0.7816164E-02  0.1266605E+00
        -11   -1    0    0    0    0  0.00000000000E+00  0.00000000000E+00  0.45593999997E+02  0.45594000000E+02  0.51100000000E-03 0. -1.
         11   -1    0    0    0    0 -0.00000000000E+00 -0.00000000000E+00 -0.45593999997E+02  0.45594000000E+02  0.51100000000E-03 0.  1.
    9900012    2    1    2    0    0  0.14986853502E+02  0.31750772784E+01 -0.27964857267E+02  0.59301950769E+02  0.50000012294E+02 0.  0.
         12    1    1    2    0    0 -0.14986853502E+02 -0.31750772784E+01  0.27964857267E+02  0.31886049231E+02  0.00000000000E+00 0. -1.
         11    1    3    3    0    0  0.18657465229E+02  0.12936271238E+01 -0.18300848518E+02  0.26166687537E+02  0.51100000000E-03 0. -1.
        -11    1    3    3    0    0  0.84298987660E+01  0.11373282338E+02 -0.10663696427E+02  0.17723689404E+02  0.51100000000E-03 0.  1.
         12    1    3    3    0    0 -0.12100510493E+02 -0.94918321834E+01  0.99968767777E+00  0.15411573828E+02  0.00000000000E+00 0. -1.
</event>
<event>
 7    1  0.6316620E-012  0.5930195E+02  0.7816164E-02  0.1266605E+00
        -11   -1    0    0    0    0  0.00000000000E+00  0.00000000000E+00  0.45593999997E+02  0.45594000000E+02  0.51100000000E-03 0.  1.
         11   -1    0    0    0    0 -0.00000000000E+00 -0.00000000000E+00 -0.45593999997E+02  0.45594000000E+02  0.51100000000E-03 0. -1.
    9900012    2    1    2    0    0  0.29702315126E+02 -0.11466112358E+02 -0.17381086436E+01  0.59301948533E+02  0.50000008217E+02 0.  0.
         12    1    1    2    0    0 -0.29702315126E+02  0.11466112358E+02  0.17381086436E+01  0.31886051467E+02  0.00000000000E+00 0. -1.
         11    1    3    3    0    0  0.94841649485E+01 -0.66012610505E+00 -0.12491003197E+02  0.15697461972E+02  0.51100000000E-03 0. -1.
        -11    1    3    3    0    0  0.20708228507E+02  0.74765096234E+01 -0.69586806576E+00  0.22027554487E+02  0.51100000000E-03 0.  1.
        -12    1    3    3    0    0 -0.49007832897E+00 -0.18282495877E+02  0.11448762619E+02  0.21576932075E+02  0.00000000000E+00 0.  1.
</event>
<event>
 7    1  0.6316620E-012  0.5930194E+02  0.7816164E-02  0.1266605E+00
        -11   -1    0    0    0    0  0.00000000000E+00  0.00000000000E+00  0.45593999997E+02  0.45594000000E+02  0.51100000000E-03 0. -1.
         11   -1    0    0    0    0 -0.00000000000E+00 -0.00000000000E+00 -0.45593999997E+02  0.45594000000E+02  0.51100000000E-03 0.  1.
    9900012    2    1    2    0    0  0.79813897024E+01  0.29374605871E+02  0.94947913682E+01  0.59301935414E+02  0.49999984291E+02 0.  0.
         12    1    1    2    0    0 -0.79813897024E+01 -0.29374605871E+02 -0.94947913682E+01  0.31886064586E+02  0.00000000000E+00 0. -1.
         11    1    3    3    0    0  0.18752521275E+02  0.10254427451E+02  0.16335459603E+02  0.26900884321E+02  0.51100000000E-03 0. -1.
        -11    1    3    3    0    0  0.34009548459E+01  0.16287707386E+02 -0.57498988355E+00  0.16648919466E+02  0.51100000000E-03 0.  1.
         12    1    3    3    0    0 -0.14172086419E+02  0.28324710335E+01 -0.62656783511E+01  0.15752131628E+02  0.00000000000E+00 0. -1.
</event>
<event>
 7    1  0.6316620E-012  0.5930194E+02  0.7816164E-02  0.1266605E+00
        -11   -1    0    0    0    0  0.00000000000E+00  0.00000000000E+00  0.45593999997E+02  0.45594000000E+02  0.51100000000E-03 0.  1.
         11   -1    0    0    0    0 -0.00000000000E+00 -0.00000000000E+00 -0.45593999997E+02  0.45594000000E+02  0.51100000000E-03 0. -1.
    9900012    2    1    2    0    0 -0.25108566026E+02 -0.19580261751E+02 -0.17011359817E+01  0.59301943459E+02  0.49999998963E+02 0.  0.
         12    1    1    2    0    0  0.25108566026E+02  0.19580261751E+02  0.17011359817E+01  0.31886056541E+02  0.00000000000E+00 0. -1.
         11    1    3    3    0    0 -0.28413007930E+01  0.63587863075E+01 -0.24820540799E+01  0.73937640088E+01  0.51100000000E-03 0. -1.
        -11    1    3    3    0    0 -0.24512185196E+02 -0.94624008583E+01 -0.13900611149E+02  0.29725599130E+02  0.51100000000E-03 0.  1.
         12    1    3    3    0    0  0.22449199630E+01 -0.16476647200E+02  0.14681529247E+02  0.22182580320E+02  0.00000000000E+00 0. -1.
</event>
<event>
 7    1  0.6316620E-012  0.5930193E+02  0.7816164E-02  0.1266605E+00
        -11   -1    0    0    0    0  0.00000000000E+00  0.00000000000E+00  0.45593999997E+02  0.45594000000E+02  0.51100000000E-03 0.  1.
         11   -1    0    0    0    0 -0.00000000000E+00 -0.00000000000E+00 -0.45593999997E+02  0.45594000000E+02  0.51100000000E-03 0. -1.
    9900012    2    1    2    0    0 -0.15284147215E+02  0.26009917467E+02 -0.10324759781E+02  0.59301927378E+02  0.49999969634E+02 0.  0.
         12    1    1    2    0    0  0.15284147215E+02 -0.26009917467E+02  0.10324759781E+02  0.31886072622E+02  0.00000000000E+00 0. -1.
         11    1    3    3    0    0  0.25494348906E+01  0.13132468612E+02 -0.22954816586E+02  0.26568495533E+02  0.51100000000E-03 0. -1.
        -11    1    3    3    0    0 -0.92347527789E+00 -0.32273195155E+01 -0.31067287070E+01  0.45738562903E+01  0.51100000000E-03 0.  1.
        -12    1    3    3    0    0 -0.16910106827E+02  0.16104768371E+02  0.15736785512E+02  0.28159575555E+02  0.00000000000E+00 0.  1.
</event>
<event>
 7    1  0.6316620E-012  0.5930194E+02  0.7816164E-02  0.1266605E+00
        -11   -1    0    0    0    0  0.00000000000E+00  0.00000000000E+00  0.45593999997E+02  0.45594000000E+02  0.51100000000E-03 0.  1.
         11   -1    0    0    0    0 -0.00000000000E+00 -0.00000000000E+00 -0.45593999997E+02  0.45594000000E+02  0.51100000000E-03 0. -1.
    9900012    2    1    2    0    0  0.84182488373E+01 -0.15782106528E+02  0.26396569701E+02  0.59301942045E+02  0.49999996384E+02 0.  0.
         12    1    1    2    0    0 -0.84182488373E+01  0.15782106528E+02 -0.26396569701E+02  0.31886057955E+02  0.00000000000E+00 0. -1.
         11    1    3    3    0    0 -0.47062502440E+01 -0.13247063037E+02 -0.24826490749E+01  0.14275749268E+02  0.51100000000E-03 0. -1.
        -11    1    3    3    0    0  0.12163173770E+02 -0.80420919067E-01 -0.34077488153E+01  0.12631785936E+02  0.51100000000E-03 0.  1.
        -12    1    3    3    0    0  0.96132531124E+00 -0.24546225716E+01  0.32286967591E+02  0.32394406841E+02  0.00000000000E+00 0.  1.
</event>
<event>
 7    1  0.6316620E-012  0.5930192E+02  0.7816164E-02  0.1266605E+00
        -11   -1    0    0    0    0  0.00000000000E+00  0.00000000000E+00  0.45593999997E+02  0.45594000000E+02  0.51100000000E-03 0.  1.
         11   -1    0    0    0    0 -0.00000000000E+00 -0.00000000000E+00 -0.45593999997E+02  0.45594000000E+02  0.51100000000E-03 0. -1.
    9900012    2    1    2    0    0  0.21105365252E+02 -0.94360910140E+01  0.21960097996E+02  0.59301919024E+02  0.49999954399E+02 0.  0.
         12    1    1    2    0    0 -0.21105365252E+02  0.94360910140E+01 -0.21960097996E+02  0.31886080976E+02  0.00000000000E+00 0. -1.
         11    1    3    3    0    0  0.21855732280E+02 -0.21684612279E+02  0.68978187401E+01  0.31551154446E+02  0.51100000000E-03 0. -1.
        -11    1    3    3    0    0 -0.64831315948E+00 -0.54861609482E+01  0.43521875648E+01  0.70327667929E+01  0.51100000000E-03 0.  1.
        -12    1    3    3    0    0 -0.10205386880E+00  0.17734682213E+02  0.10710091691E+02  0.20717997785E+02  0.00000000000E+00 0.  1.
</event>
<event>
 7    1  0.6316620E-012  0.5930194E+02  0.7816164E-02  0.1266605E+00
        -11   -1    0    0    0    0  0.00000000000E+00  0.00000000000E+00  0.45593999997E+02  0.45594000000E+02  0.51100000000E-03 0.  1.
         11   -1    0    0    0    0 -0.00000000000E+00 -0.00000000000E+00 -0.45593999997E+02  0.45594000000E+02  0.51100000000E-03 0. -1.
    9900012    2    1    2    0    0  0.51696096214E+01  0.70659409051E+01  0.30660530703E+02  0.59301944623E+02  0.50000001086E+02 0.  0.
         12    1    1    2    0    0 -0.51696096214E+01 -0.70659409051E+01 -0.30660530703E+02  0.31886055377E+02  0.00000000000E+00 0. -1.
         11    1    3    3    0    0 -0.57485506387E+01 -0.47616512947E+01  0.95329304178E+01  0.12107680212E+02  0.51100000000E-03 0. -1.
        -11    1    3    3    0    0 -0.26443728489E+01  0.12261141369E+02  0.28936669193E+02  0.31538216812E+02  0.51100000000E-03 0.  1.
         12    1    3    3    0    0  0.13562533109E+02 -0.43354916938E+00 -0.78090689086E+01  0.15656047599E+02  0.00000000000E+00 0. -1.
</event>
<event>
 7    1  0.6316620E-012  0.5930195E+02  0.7816164E-02  0.1266605E+00
        -11   -1    0    0    0    0  0.00000000000E+00  0.00000000000E+00  0.45593999997E+02  0.45594000000E+02  0.51100000000E-03 0. -1.
         11   -1    0    0    0    0 -0.00000000000E+00 -0.00000000000E+00 -0.45593999997E+02  0.45594000000E+02  0.51100000000E-03 0.  1.
    9900012    2    1    2    0    0  0.25359424228E+02  0.88551263597E+01 -0.17181570644E+02  0.59301952427E+02  0.50000015319E+02 0.  0.
         12    1    1    2    0    0 -0.25359424228E+02 -0.88551263597E+01  0.17181570644E+02  0.31886047573E+02  0.00000000000E+00 0. -1.
         11    1    3    3    0    0  0.28496096871E+02  0.66392546045E+00 -0.80999344270E+01  0.29632368651E+02  0.51100000000E-03 0. -1.
        -11    1    3    3    0    0  0.10927311248E+02  0.75031946169E+01 -0.68006816044E+00  0.13272774900E+02  0.51100000000E-03 0.  1.
         12    1    3    3    0    0 -0.14063983891E+02  0.68800628234E+00 -0.84015680566E+01  0.16396808877E+02  0.00000000000E+00 0. -1.
</event>
<event>
 7    1  0.6316620E-012  0.5930185E+02  0.7816164E-02  0.1266605E+00
        -11   -1    0    0    0    0  0.00000000000E+00  0.00000000000E+00  0.45593999997E+02  0.45594000000E+02  0.51100000000E-03 0.  1.
         11   -1    0    0    0    0 -0.00000000000E+00 -0.00000000000E+00 -0.45593999997E+02  0.45594000000E+02  0.51100000000E-03 0. -1.
    9900012    2    1    2    0    0 -0.21744760464E+01  0.13996761033E+02  0.28567271813E+02  0.59301848079E+02  0.49999825013E+02 0.  0.
         12    1    1    2    0    0  0.21744760464E+01 -0.13996761033E+02 -0.28567271813E+02  0.31886151921E+02  0.00000000000E+00 0. -1.
         11    1    3    3    0    0 -0.50164128253E+01 -0.57035727121E+00 -0.45512620889E+01  0.67973297635E+01  0.51100000000E-03 0. -1.
        -11    1    3    3    0    0 -0.16592706311E+02  0.86052261857E+00  0.10315639660E+02  0.19556861296E+02  0.51100000000E-03 0.  1.
        -12    1    3    3    0    0  0.19434643089E+02  0.13706595685E+02  0.22802894242E+02  0.32947657020E+02  0.00000000000E+00 0.  1.
</event>
<event>
 7    1  0.6316620E-012  0.5930193E+02  0.7816164E-02  0.1266605E+00
        -11   -1    0    0    0    0  0.00000000000E+00  0.00000000000E+00  0.45593999997E+02  0.45594000000E+02  0.51100000000E-03 0. -1.
         11   -1    0    0    0    0 -0.00000000000E+00 -0.00000000000E+00 -0.45593999997E+02  0.45594000000E+02  0.51100000000E-03 0.  1.
    9900012    2    1    2    0    0 -0.17231117462E+02  0.24670495519E+02 -0.10544034124E+02  0.59301930726E+02  0.49999975741E+02 0.  0.
         12    1    1    2    0    0  0.17231117462E+02 -0.24670495519E+02  0.10544034124E+02  0.31886069274E+02  0.00000000000E+00 0. -1.
         11    1    3    3    0    0  0.85452935156E+01  0.17590754008E+02  0.65697325916E+01  0.20630512704E+02  0.51100000000E-03 0. -1.
        -11    1    3    3    0    0 -0.91360391980E+00  0.84849883047E+01 -0.91837507304E+01  0.12536784931E+02  0.51100000000E-03 0.  1.
        -12    1    3    3    0    0 -0.24862807058E+02 -0.14052467938E+01 -0.79300159853E+01  0.26134633092E+02  0.00000000000E+00 0.  1.
</event>
<event>
 7    1  0.6316620E-012  0.5930188E+02  0.7816164E-02  0.1266605E+00
        -11   -1    0    0    0    0  0.00000000000E+00  0.00000000000E+00  0.45593999997E+02  0.45594000000E+02  0.51100000000E-03 0.  1.
         11   -1    0    0    0    0 -0.00000000000E+00 -0.00000000000E+00 -0.45593999997E+02  0.45594000000E+02  0.51100000000E-03 0. -1.
    9900012    2    1    2    0    0  0.13441574935E+02  0.14934873416E+02  0.24758805779E+02  0.59301876932E+02  0.49999877634E+02 0.  0.
         12    1    1    2    0    0 -0.13441574935E+02 -0.14934873416E+02 -0.24758805779E+02  0.31886123068E+02  0.00000000000E+00 0. -1.
         11    1    3    3    0    0 -0.32957062118E+01 -0.75456623264E+00  0.17635657060E+02  0.17956821818E+02  0.51100000000E-03 0. -1.
        -11    1    3    3    0    0 -0.39984576332E+01 -0.72468333284E+01  0.63215502369E+01  0.10414713361E+02  0.51100000000E-03 0.  1.
         12    1    3    3    0    0  0.20735738780E+02  0.22936272977E+02  0.80159848256E+00  0.30930341753E+02  0.00000000000E+00 0. -1.
</event>
<event>
 7    1  0.6316620E-012  0.5930191E+02  0.7816164E-02  0.1266605E+00
        -11   -1    0    0    0    0  0.00000000000E+00  0.00000000000E+00  0.45593999997E+02  0.45594000000E+02  0.51100000000E-03 0.  1.
         11   -1    0    0    0    0 -0.00000000000E+00 -0.00000000000E+00 -0.45593999997E+02  0.45594000000E+02  0.51100000000E-03 0. -1.
    9900012    2    1    2    0    0 -0.21518451507E+02  0.20219941604E+02  0.12034646768E+02  0.59301913433E+02  0.49999944203E+02 0.  0.
         12    1    1    2    0    0  0.21518451507E+02 -0.20219941604E+02 -0.12034646768E+02  0.31886086567E+02  0.00000000000E+00 0. -1.
         11    1    3    3    0    0  0.82216917437E+01  0.66827354003E+00  0.10530716485E+02  0.13376800611E+02  0.51100000000E-03 0. -1.
        -11    1    3    3    0    0  0.51864977256E+01  0.69055328605E+01  0.15787728037E+01  0.87794456871E+01  0.51100000000E-03 0.  1.
        -12    1    3    3    0    0 -0.34926640976E+02  0.12646135203E+02 -0.74842520585E-01  0.37145667135E+02  0.00000000000E+00 0.  1.
</event>
<event>
 7    1  0.6316620E-012  0.5930192E+02  0.7816164E-02  0.1266605E+00
        -11   -1    0    0    0    0  0.00000000000E+00  0.00000000000E+00  0.45593999997E+02  0.45594000000E+02  0.51100000000E-03 0.  1.
         11   -1    0    0    0    0 -0.00000000000E+00 -0.00000000000E+00 -0.45593999997E+02  0.45594000000E+02  0.51100000000E-03 0. -1.
    9900012    2    1    2    0    0 -0.18461380631E+02  0.13757552886E+02  0.22059679753E+02  0.59301916719E+02  0.49999950195E+02 0.  0.
         12    1    1    2    0    0  0.18461380631E+02 -0.13757552886E+02 -0.22059679753E+02  0.31886083281E+02  0.00000000000E+00 0. -1.
         11    1    3    3    0    0 -0.35516703374E+01 -0.42727459271E+01  0.23073966223E+01  0.60162113806E+01  0.51100000000E-03 0. -1.
        -11    1    3    3    0    0  0.41541728409E+01  0.78594067107E+01  0.28590461488E+02  0.29940639843E+02  0.51100000000E-03 0.  1.
         12    1    3    3    0    0 -0.19063883134E+02  0.10170892102E+02 -0.88381783573E+01  0.23345065495E+02  0.00000000000E+00 0. -1.
</event>
<event>
 7    1  0.6316620E-012  0.5930194E+02  0.7816164E-02  0.1266605E+00
        -11   -1    0    0    0    0  0.00000000000E+00  0.00000000000E+00  0.45593999997E+02  0.45594000000E+02  0.51100000000E-03 0.  1.
         11   -1    0    0    0    0 -0.00000000000E+00 -0.00000000000E+00 -0.45593999997E+02  0.45594000000E+02  0.51100000000E-03 0. -1.
    9900012    2    1    2    0    0 -0.27015349284E+02 -0.10457273094E+02  0.13324309024E+02  0.59301939277E+02  0.49999991335E+02 0.  0.
         12    1    1    2    0    0  0.27015349284E+02  0.10457273094E+02 -0.13324309024E+02  0.31886060723E+02  0.00000000000E+00 0. -1.
         11    1    3    3    0    0 -0.14204014178E+02  0.34495311871E+01 -0.68798722787E+01  0.16155058867E+02  0.51100000000E-03 0. -1.
        -11    1    3    3    0    0 -0.10139697840E+01 -0.14944794617E+02 -0.45924017881E+01  0.15667328276E+02  0.51100000000E-03 0.  1.
        -12    1    3    3    0    0 -0.11797365322E+02  0.10379903355E+01  0.24796583090E+02  0.27479552133E+02  0.00000000000E+00 0.  1.
</event>
<event>
 7    1  0.6316620E-012  0.5930194E+02  0.7816164E-02  0.1266605E+00
        -11   -1    0    0    0    0  0.00000000000E+00  0.00000000000E+00  0.45593999997E+02  0.45594000000E+02  0.51100000000E-03 0.  1.
         11   -1    0    0    0    0 -0.00000000000E+00 -0.00000000000E+00 -0.45593999997E+02  0.45594000000E+02  0.51100000000E-03 0. -1.
    9900012    2    1    2    0    0  0.26578096850E+02 -0.13628518026E+02  0.11161949061E+02  0.59301939682E+02  0.49999992075E+02 0.  0.
         12    1    1    2    0    0 -0.26578096850E+02  0.13628518026E+02 -0.11161949061E+02  0.31886060318E+02  0.00000000000E+00 0. -1.
         11    1    3    3    0    0  0.44451831360E+00 -0.14016425753E+02 -0.10855717147E+01  0.14065427602E+02  0.51100000000E-03 0. -1.
        -11    1    3    3    0    0  0.22793140017E+02 -0.14973824101E+02  0.11196864972E+02  0.29480712771E+02  0.51100000000E-03 0.  1.
         12    1    3    3    0    0  0.33404385194E+01  0.15361731828E+02  0.10506558033E+01  0.15755799309E+02  0.00000000000E+00 0. -1.
</event>
<event>
 7    1  0.6316620E-012  0.5930191E+02  0.7816164E-02  0.1266605E+00
        -11   -1    0    0    0    0  0.00000000000E+00  0.00000000000E+00  0.45593999997E+02  0.45594000000E+02  0.51100000000E-03 0.  1.
         11   -1    0    0    0    0 -0.00000000000E+00 -0.00000000000E+00 -0.45593999997E+02  0.45594000000E+02  0.51100000000E-03 0. -1.
    9900012    2    1    2    0    0 -0.76725605406E+01  0.25630209247E+02  0.17347814242E+02  0.59301914158E+02  0.49999945526E+02 0.  0.
         12    1    1    2    0    0  0.76725605406E+01 -0.25630209247E+02 -0.17347814242E+02  0.31886085842E+02  0.00000000000E+00 0. -1.
         11    1    3    3    0    0 -0.71879959730E+01  0.22000457260E-01 -0.68927841289E+01  0.99588274127E+01  0.51100000000E-03 0. -1.
        -11    1    3    3    0    0  0.67236344769E+01  0.76007609548E+01  0.27825356547E+02  0.29618056906E+02  0.51100000000E-03 0.  1.
         12    1    3    3    0    0 -0.72081990445E+01  0.18007447835E+02 -0.35847581755E+01  0.19725029840E+02  0.00000000000E+00 0. -1.
</event>
<event>
 7    1  0.6316620E-012  0.5930193E+02  0.7816164E-02  0.1266605E+00
        -11   -1    0    0    0    0  0.00000000000E+00  0.00000000000E+00  0.45593999997E+02  0.45594000000E+02  0.51100000000E-03 0.  1.
         11   -1    0    0    0    0 -0.00000000000E+00 -0.00000000000E+00 -0.45593999997E+02  0.45594000000E+02  0.51100000000E-03 0. -1.
    9900012    2    1    2    0    0  0.30738457466E+02 -0.75927111669E+01  0.37708598869E+01  0.59301930714E+02  0.49999975718E+02 0.  0.
         12    1    1    2    0    0 -0.30738457466E+02  0.75927111669E+01 -0.37708598869E+01  0.31886069286E+02  0.00000000000E+00 0. -1.
         11    1    3    3    0    0  0.67656791954E+01  0.24672160885E+01  0.42245154002E+00  0.72138779978E+01  0.51100000000E-03 0. -1.
        -11    1    3    3    0    0  0.19644272233E+02  0.10720653371E+01  0.22267979104E+02  0.29713795606E+02  0.51100000000E-03 0.  1.
         12    1    3    3    0    0  0.43285060377E+01 -0.11131992592E+02 -0.18919570757E+02  0.22374257110E+02  0.00000000000E+00 0. -1.
</event>
<event>
 7    1  0.6316620E-012  0.5930189E+02  0.7816164E-02  0.1266605E+00
        -11   -1    0    0    0    0  0.00000000000E+00  0.00000000000E+00  0.45593999997E+02  0.45594000000E+02  0.51100000000E-03 0.  1.
         11   -1    0    0    0    0 -0.00000000000E+00 -0.00000000000E+00 -0.45593999997E+02  0.45594000000E+02  0.51100000000E-03 0. -1.
    9900012    2    1    2    0    0  0.21916071004E+02  0.29934700288E+00  0.23158590734E+02  0.59301888577E+02  0.49999898871E+02 0.  0.
         12    1    1    2    0    0 -0.21916071004E+02 -0.29934700288E+00 -0.23158590734E+02  0.31886111423E+02  0.00000000000E+00 0. -1.
         11    1    3    3    0    0  0.14971141021E+01  0.10230712064E+01  0.13858352658E+02  0.13976478955E+02  0.51100000000E-03 0. -1.
        -11    1    3    3    0    0  0.28613574891E+02  0.34575862216E+01  0.16883818697E+02  0.33402917606E+02  0.51100000000E-03 0.  1.
         12    1    3    3    0    0 -0.81946179890E+01 -0.41813104251E+01 -0.75835806206E+01  0.11922492017E+02  0.00000000000E+00 0. -1.
</event>
<event>
 7    1  0.6316620E-012  0.5930193E+02  0.7816164E-02  0.1266605E+00
        -11   -1    0    0    0    0  0.00000000000E+00  0.00000000000E+00  0.45593999997E+02  0.45594000000E+02  0.51100000000E-03 0.  1.
         11   -1    0    0    0    0 -0.00000000000E+00 -0.00000000000E+00 -0.45593999997E+02  0.45594000000E+02  0.51100000000E-03 0. -1.
    9900012    2    1    2    0    0  0.29324850864E+02 -0.58841754323E+01  0.11052209580E+02  0.59301925684E+02  0.49999966545E+02 0.  0.
         12    1    1    2    0    0 -0.29324850864E+02  0.58841754323E+01 -0.11052209580E+02  0.31886074316E+02  0.00000000000E+00 0. -1.
         11    1    3    3    0    0  0.95905849749E+01  0.11516808739E+02  0.46156292730E+01  0.15681844201E+02  0.51100000000E-03 0. -1.
        -11    1    3    3    0    0 -0.59291105002E+01  0.59744601669E+01  0.84913654879E+00  0.84598793578E+01  0.51100000000E-03 0.  1.
         12    1    3    3    0    0  0.25663376389E+02 -0.23375444338E+02  0.55874437583E+01  0.35160202125E+02  0.00000000000E+00 0. -1.
</event>
<event>
 7    1  0.6316620E-012  0.5930195E+02  0.7816164E-02  0.1266605E+00
        -11   -1    0    0    0    0  0.00000000000E+00  0.00000000000E+00  0.45593999997E+02  0.45594000000E+02  0.51100000000E-03 0.  1.
         11   -1    0    0    0    0 -0.00000000000E+00 -0.00000000000E+00 -0.45593999997E+02  0.45594000000E+02  0.51100000000E-03 0. -1.
    9900012    2    1    2    0    0  0.30431564359E+01  0.78093856465E+01  0.30764798805E+02  0.59301950530E+02  0.50000011859E+02 0.  0.
         12    1    1    2    0    0 -0.30431564359E+01 -0.78093856465E+01 -0.30764798805E+02  0.31886049470E+02  0.00000000000E+00 0. -1.
         11    1    3    3    0    0  0.10617228711E+02  0.39437261967E+01 -0.97967986603E+01  0.14975172322E+02  0.51100000000E-03 0. -1.
        -11    1    3    3    0    0 -0.34203834429E+01  0.24613250098E+01  0.75695636970E+00  0.42813697466E+01  0.51100000000E-03 0.  1.
        -12    1    3    3    0    0 -0.41536888319E+01  0.14043344399E+01  0.39804641096E+02  0.40045408462E+02  0.00000000000E+00 0.  1.
</event>
<event>
 7    1  0.6316620E-012  0.5930197E+02  0.7816164E-02  0.1266605E+00
        -11   -1    0    0    0    0  0.00000000000E+00  0.00000000000E+00  0.45593999997E+02  0.45594000000E+02  0.51100000000E-03 0.  1.
         11   -1    0    0    0    0 -0.00000000000E+00 -0.00000000000E+00 -0.45593999997E+02  0.45594000000E+02  0.51100000000E-03 0. -1.
    9900012    2    1    2    0    0 -0.49753659509E+00 -0.34691576180E+01  0.31692843222E+02  0.59301970007E+02  0.50000047380E+02 0.  0.
         12    1    1    2    0    0  0.49753659509E+00  0.34691576180E+01 -0.31692843222E+02  0.31886029993E+02  0.00000000000E+00 0. -1.
         11    1    3    3    0    0  0.14463547147E+02  0.13632574331E+02  0.97572017071E+01  0.22141460303E+02  0.51100000000E-03 0. -1.
        -11    1    3    3    0    0 -0.64520562605E+01 -0.68987499248E+01 -0.21193517927E+01  0.96805698591E+01  0.51100000000E-03 0.  1.
        -12    1    3    3    0    0 -0.85090274815E+01 -0.10202982024E+02  0.24054993307E+02  0.27479939845E+02  0.00000000000E+00 0.  1.
</event>
<event>
 7    1  0.6316620E-012  0.5930195E+02  0.7816164E-02  0.1266605E+00
        -11   -1    0    0    0    0  0.00000000000E+00  0.00000000000E+00  0.45593999997E+02  0.45594000000E+02  0.51100000000E-03 0.  1.
         11   -1    0    0    0    0 -0.00000000000E+00 -0.00000000000E+00 -0.45593999997E+02  0.45594000000E+02  0.51100000000E-03 0. -1.
    9900012    2    1    2    0    0 -0.16320426182E+02  0.72963515336E+01  0.26403167124E+02  0.59301948337E+02  0.50000007860E+02 0.  0.
         12    1    1    2    0    0  0.16320426182E+02 -0.72963515336E+01 -0.26403167124E+02  0.31886051663E+02  0.00000000000E+00 0. -1.
         11    1    3    3    0    0 -0.23460903509E+00  0.50993724263E+01 -0.88699810860E+00  0.51812552965E+01  0.51100000000E-03 0. -1.
        -11    1    3    3    0    0 -0.17182140443E+02 -0.15857974268E+01 -0.77102155581E+01  0.18899421364E+02  0.51100000000E-03 0.  1.
         12    1    3    3    0    0  0.10963232958E+01  0.37827765341E+01  0.35000380791E+02  0.35221271677E+02  0.00000000000E+00 0. -1.
</event>
<event>
 7    1  0.6316620E-012  0.5930194E+02  0.7816164E-02  0.1266605E+00
        -11   -1    0    0    0    0  0.00000000000E+00  0.00000000000E+00  0.45593999997E+02  0.45594000000E+02  0.51100000000E-03 0.  1.
         11   -1    0    0    0    0 -0.00000000000E+00 -0.00000000000E+00 -0.45593999997E+02  0.45594000000E+02  0.51100000000E-03 0. -1.
    9900012    2    1    2    0    0 -0.16801302132E+02 -0.46563350115E+01  0.26697478733E+02  0.59301943803E+02  0.49999999591E+02 0.  0.
         12    1    1    2    0    0  0.16801302132E+02  0.46563350115E+01 -0.26697478733E+02  0.31886056197E+02  0.00000000000E+00 0. -1.
         11    1    3    3    0    0 -0.13827624454E+01 -0.23155928722E+01 -0.74824135509E+01  0.79536479139E+01  0.51100000000E-03 0. -1.
        -11    1    3    3    0    0 -0.14072109829E+02  0.12142594322E+02  0.58216079242E+01  0.19477114545E+02  0.51100000000E-03 0.  1.
         12    1    3    3    0    0 -0.13464298571E+01 -0.14483336462E+02  0.28358284360E+02  0.31871181344E+02  0.00000000000E+00 0. -1.
</event>
<event>
 7    1  0.6316620E-012  0.5930185E+02  0.7816164E-02  0.1266605E+00
        -11   -1    0    0    0    0  0.00000000000E+00  0.00000000000E+00  0.45593999997E+02  0.45594000000E+02  0.51100000000E-03 0. -1.
         11   -1    0    0    0    0 -0.00000000000E+00 -0.00000000000E+00 -0.45593999997E+02  0.45594000000E+02  0.51100000000E-03 0.  1.
    9900012    2    1    2    0    0 -0.11603785527E+02  0.23184848129E+02 -0.18561827348E+02  0.59301851662E+02  0.49999831547E+02 0.  0.
         12    1    1    2    0    0  0.11603785527E+02 -0.23184848129E+02  0.18561827348E+02  0.31886148338E+02  0.00000000000E+00 0. -1.
         11    1    3    3    0    0 -0.19213972111E+02  0.21906421974E+02 -0.15903533371E+02  0.33196241081E+02  0.51100000000E-03 0. -1.
        -11    1    3    3    0    0 -0.10268924716E+01  0.11049027308E+02 -0.60392604840E+01  0.12633613104E+02  0.51100000000E-03 0.  1.
         12    1    3    3    0    0  0.86370790557E+01 -0.97706011528E+01  0.33809665071E+01  0.13471997477E+02  0.00000000000E+00 0. -1.
</event>
<event>
 7    1  0.6316620E-012  0.5930196E+02  0.7816164E-02  0.1266605E+00
        -11   -1    0    0    0    0  0.00000000000E+00  0.00000000000E+00  0.45593999997E+02  0.45594000000E+02  0.51100000000E-03 0. -1.
         11   -1    0    0    0    0 -0.00000000000E+00 -0.00000000000E+00 -0.45593999997E+02  0.45594000000E+02  0.51100000000E-03 0.  1.
    9900012    2    1    2    0    0 -0.36044890048E+00 -0.16615395676E+02 -0.27212466872E+02  0.59301958381E+02  0.50000026178E+02 0.  0.
         12    1    1    2    0    0  0.36044890048E+00  0.16615395676E+02  0.27212466872E+02  0.31886041619E+02  0.00000000000E+00 0. -1.
         11    1    3    3    0    0  0.13848716819E+01  0.42152785380E+01  0.57349688757E+01  0.72509524198E+01  0.51100000000E-03 0. -1.
        -11    1    3    3    0    0 -0.12605954792E+02  0.37745441210E+01 -0.13566872421E+02  0.18900193309E+02  0.51100000000E-03 0.  1.
         12    1    3    3    0    0  0.10860634210E+02 -0.24605218334E+02 -0.19380563326E+02  0.33150812653E+02  0.00000000000E+00 0. -1.
</event>
<event>
 7    1  0.6316620E-012  0.5930194E+02  0.7816164E-02  0.1266605E+00
        -11   -1    0    0    0    0  0.00000000000E+00  0.00000000000E+00  0.45593999997E+02  0.45594000000E+02  0.51100000000E-03 0. -1.
         11   -1    0    0    0    0 -0.00000000000E+00 -0.00000000000E+00 -0.45593999997E+02  0.45594000000E+02  0.51100000000E-03 0.  1.
    9900012    2    1    2    0    0 -0.11820753803E+01 -0.30885221759E+02  0.78374956982E+01  0.59301944049E+02  0.50000000039E+02 0.  0.
         12    1    1    2    0    0  0.11820753803E+01  0.30885221759E+02 -0.78374956982E+01  0.31886055951E+02  0.00000000000E+00 0. -1.
         11    1    3    3    0    0  0.57560661219E+01  0.12405524762E+01  0.40007367510E+01  0.71187893955E+01  0.51100000000E-03 0. -1.
        -11    1    3    3    0    0  0.15779175852E+02 -0.11182151684E+02 -0.51327361329E+01  0.20009195069E+02  0.51100000000E-03 0.  1.
         12    1    3    3    0    0 -0.22717317354E+02 -0.20943622551E+02  0.89694950802E+01  0.32173959584E+02  0.00000000000E+00 0. -1.
</event>
<event>
 7    1  0.6316620E-012  0.5930193E+02  0.7816164E-02  0.1266605E+00
        -11   -1    0    0    0    0  0.00000000000E+00  0.00000000000E+00  0.45593999997E+02  0.45594000000E+02  0.51100000000E-03 0.  1.
         11   -1    0    0    0    0 -0.00000000000E+00 -0.00000000000E+00 -0.45593999997E+02  0.45594000000E+02  0.51100000000E-03 0. -1.
    9900012    2    1    2    0    0 -0.49935928560E+01  0.14453355662E+02  0.27980098728E+02  0.59301931187E+02  0.49999976581E+02 0.  0.
         12    1    1    2    0    0  0.49935928560E+01 -0.14453355662E+02 -0.27980098728E+02  0.31886068813E+02  0.00000000000E+00 0. -1.
         11    1    3    3    0    0 -0.58476876968E+01  0.86884879387E+01  0.88026019005E+01  0.13681048006E+02  0.51100000000E-03 0. -1.
        -11    1    3    3    0    0  0.22379173117E+01  0.14994331199E+02  0.28593185239E+02  0.32363690834E+02  0.51100000000E-03 0.  1.
        -12    1    3    3    0    0 -0.13838224709E+01 -0.92294634755E+01 -0.94156884111E+01  0.13257192347E+02  0.00000000000E+00 0.  1.
</event>
<event>
 7    1  0.6316620E-012  0.5930195E+02  0.7816164E-02  0.1266605E+00
        -11   -1    0    0    0    0  0.00000000000E+00  0.00000000000E+00  0.45593999997E+02  0.45594000000E+02  0.51100000000E-03 0.  1.
         11   -1    0    0    0    0 -0.00000000000E+00 -0.00000000000E+00 -0.45593999997E+02  0.45594000000E+02  0.51100000000E-03 0. -1.
    9900012    2    1    2    0    0 -0.17299690040E+02 -0.26041172737E+02  0.62688540766E+01  0.59301945298E+02  0.50000002317E+02 0.  0.
         12    1    1    2    0    0  0.17299690040E+02  0.26041172737E+02 -0.62688540766E+01  0.31886054702E+02  0.00000000000E+00 0. -1.
         11    1    3    3    0    0  0.38753262090E+01  0.48264572831E+01 -0.38218434434E+01  0.72745673891E+01  0.51100000000E-03 0. -1.
        -11    1    3    3    0    0 -0.16741574584E+02 -0.32947732714E+01 -0.79045149403E+01  0.18804712366E+02  0.51100000000E-03 0.  1.
         12    1    3    3    0    0 -0.44334416654E+01 -0.27572856749E+02  0.17995212460E+02  0.33222665543E+02  0.00000000000E+00 0. -1.
</event>
<event>
 7    1  0.6316620E-012  0.5930194E+02  0.7816164E-02  0.1266605E+00
        -11   -1    0    0    0    0  0.00000000000E+00  0.00000000000E+00  0.45593999997E+02  0.45594000000E+02  0.51100000000E-03 0.  1.
         11   -1    0    0    0    0 -0.00000000000E+00 -0.00000000000E+00 -0.45593999997E+02  0.45594000000E+02  0.51100000000E-03 0. -1.
    9900012    2    1    2    0    0  0.83068550803E+01  0.24843211158E+02  0.18180537276E+02  0.59301938506E+02  0.49999989930E+02 0.  0.
         12    1    1    2    0    0 -0.83068550803E+01 -0.24843211158E+02 -0.18180537276E+02  0.31886061494E+02  0.00000000000E+00 0. -1.
         11    1    3    3    0    0 -0.48070095663E+01 -0.87741408638E+01  0.66070477781E+01  0.11989410722E+02  0.51100000000E-03 0. -1.
        -11    1    3    3    0    0 -0.90024490109E+01  0.11362741120E+02  0.33955558138E+01  0.14889115941E+02  0.51100000000E-03 0.  1.
        -12    1    3    3    0    0  0.22116313657E+02  0.22254610902E+02  0.81779336836E+01  0.32423411843E+02  0.00000000000E+00 0.  1.
</event>
<event>
 7    1  0.6316620E-012  0.5930195E+02  0.7816164E-02  0.1266605E+00
        -11   -1    0    0    0    0  0.00000000000E+00  0.00000000000E+00  0.45593999997E+02  0.45594000000E+02  0.51100000000E-03 0. -1.
         11   -1    0    0    0    0 -0.00000000000E+00 -0.00000000000E+00 -0.45593999997E+02  0.45594000000E+02  0.51100000000E-03 0.  1.
    9900012    2    1    2    0    0  0.24762302258E+02  0.19307131182E+02  0.55482752409E+01  0.59301948414E+02  0.50000007999E+02 0.  0.
         12    1    1    2    0    0 -0.24762302258E+02 -0.19307131182E+02 -0.55482752409E+01  0.31886051586E+02  0.00000000000E+00 0. -1.
         11    1    3    3    0    0  0.53642402857E+00  0.32338479143E+01  0.99032962678E+01  0.10431720870E+02  0.51100000000E-03 0. -1.
        -11    1    3    3    0    0  0.59512641167E+01 -0.66194872994E+01  0.12396736010E+02  0.15261527468E+02  0.51100000000E-03 0.  1.
        -12    1    3    3    0    0  0.18274614113E+02  0.22692770567E+02 -0.16751757037E+02  0.33608700076E+02  0.00000000000E+00 0.  1.
</event>
<event>
 7    1  0.6316620E-012  0.5930194E+02  0.7816164E-02  0.1266605E+00
        -11   -1    0    0    0    0  0.00000000000E+00  0.00000000000E+00  0.45593999997E+02  0.45594000000E+02  0.51100000000E-03 0.  1.
         11   -1    0    0    0    0 -0.00000000000E+00 -0.00000000000E+00 -0.45593999997E+02  0.45594000000E+02  0.51100000000E-03 0. -1.
    9900012    2    1    2    0    0 -0.25780239247E+02 -0.15368088304E+02  0.10766691379E+02  0.59301944788E+02  0.50000001387E+02 0.  0.
         12    1    1    2    0    0  0.25780239247E+02  0.15368088304E+02 -0.10766691379E+02  0.31886055212E+02  0.00000000000E+00 0. -1.
         11    1    3    3    0    0 -0.21025335911E+02 -0.39098796861E+01 -0.19752835555E+01  0.21476816681E+02  0.51100000000E-03 0. -1.
        -11    1    3    3    0    0 -0.10786547256E+02 -0.75119664350E+01  0.22280863085E+02  0.25869211459E+02  0.51100000000E-03 0.  1.
        -12    1    3    3    0    0  0.60316439209E+01 -0.39462421824E+01 -0.95388881511E+01  0.11955916649E+02  0.00000000000E+00 0.  1.
</event>
<event>
 7    1  0.6316620E-012  0.5930195E+02  0.7816164E-02  0.1266605E+00
        -11   -1    0    0    0    0  0.00000000000E+00  0.00000000000E+00  0.45593999997E+02  0.45594000000E+02  0.51100000000E-03 0.  1.
         11   -1    0    0    0    0 -0.00000000000E+00 -0.00000000000E+00 -0.45593999997E+02  0.45594000000E+02  0.51100000000E-03 0. -1.
    9900012    2    1    2    0    0  0.29050180320E+02  0.32935543478E+00  0.13141478580E+02  0.59301954292E+02  0.50000018719E+02 0.  0.
         12    1    1    2    0    0 -0.29050180320E+02 -0.32935543478E+00 -0.13141478580E+02  0.31886045708E+02  0.00000000000E+00 0. -1.
         11    1    3    3    0    0  0.12204776047E+01 -0.52034850156E-01 -0.64101813576E+01  0.65255420088E+01  0.51100000000E-03 0. -1.
        -11    1    3    3    0    0 -0.53767811368E+00  0.98053166656E+01 -0.75818020414E+01  0.12406331252E+02  0.51100000000E-03 0.  1.
        -12    1    3    3    0    0  0.28367380829E+02 -0.94239263807E+01  0.27133461979E+02  0.40370081031E+02  0.00000000000E+00 0.  1.
</event>
<event>
 7    1  0.6316620E-012  0.5930195E+02  0.7816164E-02  0.1266605E+00
        -11   -1    0    0    0    0  0.00000000000E+00  0.00000000000E+00  0.45593999997E+02  0.45594000000E+02  0.51100000000E-03 0.  1.
         11   -1    0    0    0    0 -0.00000000000E+00 -0.00000000000E+00 -0.45593999997E+02  0.45594000000E+02  0.51100000000E-03 0. -1.
    9900012    2    1    2    0    0  0.64546271325E+01  0.13154851413E+02  0.28319745594E+02  0.59301947913E+02  0.50000007087E+02 0.  0.
         12    1    1    2    0    0 -0.64546271325E+01 -0.13154851413E+02 -0.28319745594E+02  0.31886052087E+02  0.00000000000E+00 0. -1.
         11    1    3    3    0    0  0.64110346204E+01 -0.12544333036E+02 -0.58792037496E+01  0.15265211863E+02  0.51100000000E-03 0. -1.
        -11    1    3    3    0    0 -0.11968940028E+01  0.25061981526E+01  0.10003101916E+00  0.27791349194E+01  0.51100000000E-03 0.  1.
        -12    1    3    3    0    0  0.12404865148E+01  0.23192986297E+02  0.34098918325E+02  0.41257601131E+02  0.00000000000E+00 0.  1.
</event>
<event>
 7    1  0.6316620E-012  0.5930194E+02  0.7816164E-02  0.1266605E+00
        -11   -1    0    0    0    0  0.00000000000E+00  0.00000000000E+00  0.45593999997E+02  0.45594000000E+02  0.51100000000E-03 0. -1.
         11   -1    0    0    0    0 -0.00000000000E+00 -0.00000000000E+00 -0.45593999997E+02  0.45594000000E+02  0.51100000000E-03 0.  1.
    9900012    2    1    2    0    0 -0.41158714590E+01  0.29939901831E+02 -0.10167714918E+02  0.59301944331E+02  0.50000000553E+02 0.  0.
         12    1    1    2    0    0  0.41158714590E+01 -0.29939901831E+02  0.10167714918E+02  0.31886055669E+02  0.00000000000E+00 0. -1.
         11    1    3    3    0    0 -0.20491889976E+02 -0.26700344602E+01 -0.49188761071E+01  0.21242457043E+02  0.51100000000E-03 0. -1.
        -11    1    3    3    0    0 -0.99707589897E-01  0.81652186142E+01 -0.19610944247E+01  0.83980133499E+01  0.51100000000E-03 0.  1.
        -12    1    3    3    0    0  0.16475726107E+02  0.24444717677E+02 -0.32877443858E+01  0.29661473938E+02  0.00000000000E+00 0.  1.
</event>
<event>
 7    1  0.6316620E-012  0.5930195E+02  0.7816164E-02  0.1266605E+00
        -11   -1    0    0    0    0  0.00000000000E+00  0.00000000000E+00  0.45593999997E+02  0.45594000000E+02  0.51100000000E-03 0.  1.
         11   -1    0    0    0    0 -0.00000000000E+00 -0.00000000000E+00 -0.45593999997E+02  0.45594000000E+02  0.51100000000E-03 0. -1.
    9900012    2    1    2    0    0  0.12959891011E+02  0.25493297657E+02  0.14101539831E+02  0.59301946214E+02  0.50000003988E+02 0.  0.
         12    1    1    2    0    0 -0.12959891011E+02 -0.25493297657E+02 -0.14101539831E+02  0.31886053786E+02  0.00000000000E+00 0. -1.
         11    1    3    3    0    0 -0.31959076250E+01 -0.24583709918E+01 -0.28452982790E+01  0.49348896684E+01  0.51100000000E-03 0. -1.
        -11    1    3    3    0    0 -0.99675991374E+01  0.14072613011E+02 -0.45077843425E+01  0.17824466036E+02  0.51100000000E-03 0.  1.
        -12    1    3    3    0    0  0.26123397773E+02  0.13879055637E+02  0.21454622452E+02  0.36542590510E+02  0.00000000000E+00 0.  1.
</event>
<event>
 7    1  0.6316620E-012  0.5930203E+02  0.7816164E-02  0.1266604E+00
        -11   -1    0    0    0    0  0.00000000000E+00  0.00000000000E+00  0.45593999997E+02  0.45594000000E+02  0.51100000000E-03 0. -1.
         11   -1    0    0    0    0 -0.00000000000E+00 -0.00000000000E+00 -0.45593999997E+02  0.45594000000E+02  0.51100000000E-03 0.  1.
    9900012    2    1    2    0    0  0.23317255104E+00  0.41622047232E+01 -0.31612284752E+02  0.59302033418E+02  0.50000163026E+02 0.  0.
         12    1    1    2    0    0 -0.23317255104E+00 -0.41622047232E+01  0.31612284752E+02  0.31885966582E+02  0.00000000000E+00 0. -1.
         11    1    3    3    0    0  0.43934930505E+01  0.37350964756E+01 -0.24137441478E+02  0.24816724365E+02  0.51100000000E-03 0. -1.
        -11    1    3    3    0    0  0.12223369636E+02  0.68467999938E+01  0.25396219231E+01  0.14238648643E+02  0.51100000000E-03 0.  1.
        -12    1    3    3    0    0 -0.16383690135E+02 -0.64196917462E+01 -0.10014465198E+02  0.20246660410E+02  0.00000000000E+00 0.  1.
</event>
<event>
 7    1  0.6316620E-012  0.5930194E+02  0.7816164E-02  0.1266605E+00
        -11   -1    0    0    0    0  0.00000000000E+00  0.00000000000E+00  0.45593999997E+02  0.45594000000E+02  0.51100000000E-03 0.  1.
         11   -1    0    0    0    0 -0.00000000000E+00 -0.00000000000E+00 -0.45593999997E+02  0.45594000000E+02  0.51100000000E-03 0. -1.
    9900012    2    1    2    0    0  0.31056625659E+02  0.58054573761E+01  0.43016034401E+01  0.59301935257E+02  0.49999984003E+02 0.  0.
         12    1    1    2    0    0 -0.31056625659E+02 -0.58054573761E+01 -0.43016034401E+01  0.31886064743E+02  0.00000000000E+00 0. -1.
         11    1    3    3    0    0  0.99530838318E+01  0.17600048388E+02  0.96663381445E+01  0.22411239912E+02  0.51100000000E-03 0. -1.
        -11    1    3    3    0    0  0.18402494198E+02  0.44599931387E+01 -0.73131757901E+01  0.20298420428E+02  0.51100000000E-03 0.  1.
         12    1    3    3    0    0  0.27010476295E+01 -0.16254584151E+02  0.19484410857E+01  0.16592274916E+02  0.00000000000E+00 0. -1.
</event>
<event>
 7    1  0.6316620E-012  0.5930196E+02  0.7816164E-02  0.1266605E+00
        -11   -1    0    0    0    0  0.00000000000E+00  0.00000000000E+00  0.45593999997E+02  0.45594000000E+02  0.51100000000E-03 0.  1.
         11   -1    0    0    0    0 -0.00000000000E+00 -0.00000000000E+00 -0.45593999997E+02  0.45594000000E+02  0.51100000000E-03 0. -1.
    9900012    2    1    2    0    0  0.11146285840E+01 -0.76310174546E+01  0.30939368332E+02  0.59301963291E+02  0.50000035131E+02 0.  0.
         12    1    1    2    0    0 -0.11146285840E+01  0.76310174546E+01 -0.30939368332E+02  0.31886036709E+02  0.00000000000E+00 0. -1.
         11    1    3    3    0    0  0.71092723781E+00  0.98050808192E+01  0.22433210718E+01  0.10083527017E+02  0.51100000000E-03 0. -1.
        -11    1    3    3    0    0  0.14299385400E+02  0.20222864809E+00  0.21147831070E+02  0.25529278847E+02  0.51100000000E-03 0.  1.
        -12    1    3    3    0    0 -0.13895684054E+02 -0.17638326922E+02  0.75482161897E+01  0.23689157426E+02  0.00000000000E+00 0.  1.
</event>
<event>
 7    1  0.6316620E-012  0.5930194E+02  0.7816164E-02  0.1266605E+00
        -11   -1    0    0    0    0  0.00000000000E+00  0.00000000000E+00  0.45593999997E+02  0.45594000000E+02  0.51100000000E-03 0. -1.
         11   -1    0    0    0    0 -0.00000000000E+00 -0.00000000000E+00 -0.45593999997E+02  0.45594000000E+02  0.51100000000E-03 0.  1.
    9900012    2    1    2    0    0  0.14724265213E+02 -0.14679757931E+02 -0.24174814834E+02  0.59301937978E+02  0.49999988967E+02 0.  0.
         12    1    1    2    0    0 -0.14724265213E+02  0.14679757931E+02  0.24174814834E+02  0.31886062022E+02  0.00000000000E+00 0. -1.
         11    1    3    3    0    0  0.11498446772E+02 -0.42626751571E+01 -0.23457246636E+02  0.26469361489E+02  0.51100000000E-03 0.  1.
        -11    1    3    3    0    0  0.10274815474E+02  0.43965081177E+01 -0.90978705988E+01  0.14410841972E+02  0.51100000000E-03 0. -1.
        -12    1    3    3    0    0 -0.70489970321E+01 -0.14813590892E+02  0.83803024009E+01  0.18421734517E+02  0.00000000000E+00 0.  1.
</event>
<event>
 7    1  0.6316620E-012  0.5930194E+02  0.7816164E-02  0.1266605E+00
        -11   -1    0    0    0    0  0.00000000000E+00  0.00000000000E+00  0.45593999997E+02  0.45594000000E+02  0.51100000000E-03 0. -1.
         11   -1    0    0    0    0 -0.00000000000E+00 -0.00000000000E+00 -0.45593999997E+02  0.45594000000E+02  0.51100000000E-03 0.  1.
    9900012    2    1    2    0    0 -0.18426532013E+02 -0.25743666361E+02 -0.38009483388E+01  0.59301942734E+02  0.49999997641E+02 0.  0.
         12    1    1    2    0    0  0.18426532013E+02  0.25743666361E+02  0.38009483388E+01  0.31886057266E+02  0.00000000000E+00 0. -1.
         11    1    3    3    0    0 -0.19144558944E+02 -0.12532187880E+02  0.19615953690E+02  0.30138936770E+02  0.51100000000E-03 0. -1.
        -11    1    3    3    0    0 -0.46378413435E+01 -0.29405577534E+01 -0.10232284911E+02  0.11612756219E+02  0.51100000000E-03 0.  1.
        -12    1    3    3    0    0  0.53558682749E+01 -0.10270920727E+02 -0.13184617118E+02  0.17550249745E+02  0.00000000000E+00 0.  1.
</event>
<event>
 7    1  0.6316620E-012  0.5930197E+02  0.7816164E-02  0.1266605E+00
        -11   -1    0    0    0    0  0.00000000000E+00  0.00000000000E+00  0.45593999997E+02  0.45594000000E+02  0.51100000000E-03 0. -1.
         11   -1    0    0    0    0 -0.00000000000E+00 -0.00000000000E+00 -0.45593999997E+02  0.45594000000E+02  0.51100000000E-03 0.  1.
    9900012    2    1    2    0    0  0.15547621361E+02  0.10160807061E+02 -0.25918105983E+02  0.59301972529E+02  0.50000051980E+02 0.  0.
         12    1    1    2    0    0 -0.15547621361E+02 -0.10160807061E+02  0.25918105983E+02  0.31886027471E+02  0.00000000000E+00 0. -1.
         11    1    3    3    0    0  0.87169087421E+01  0.69025755456E+01  0.89657754541E+00  0.11154994340E+02  0.51100000000E-03 0.  1.
        -11    1    3    3    0    0  0.13003034699E+02  0.64779372323E+01  0.51651280633E+01  0.15418207753E+02  0.51100000000E-03 0. -1.
        -12    1    3    3    0    0 -0.61723220797E+01 -0.32197057169E+01 -0.31979811592E+02  0.32728770435E+02  0.00000000000E+00 0.  1.
</event>
<event>
 7    1  0.6316620E-012  0.5930195E+02  0.7816164E-02  0.1266605E+00
        -11   -1    0    0    0    0  0.00000000000E+00  0.00000000000E+00  0.45593999997E+02  0.45594000000E+02  0.51100000000E-03 0. -1.
         11   -1    0    0    0    0 -0.00000000000E+00 -0.00000000000E+00 -0.45593999997E+02  0.45594000000E+02  0.51100000000E-03 0.  1.
    9900012    2    1    2    0    0 -0.16393483212E+02  0.26979762460E+02 -0.44795750910E+01  0.59301945569E+02  0.50000002811E+02 0.  0.
         12    1    1    2    0    0  0.16393483212E+02 -0.26979762460E+02  0.44795750910E+01  0.31886054431E+02  0.00000000000E+00 0. -1.
         11    1    3    3    0    0  0.79558503106E+01  0.19178195738E+02  0.13685727809E+02  0.24867607280E+02  0.51100000000E-03 0. -1.
        -11    1    3    3    0    0 -0.17148623192E+02  0.47398375169E+01 -0.39757782761E+01  0.18230418269E+02  0.51100000000E-03 0.  1.
        -12    1    3    3    0    0 -0.72007103299E+01  0.30617292044E+01 -0.14189524623E+02  0.16203920020E+02  0.00000000000E+00 0.  1.
</event>
<event>
 7    1  0.6316620E-012  0.5930195E+02  0.7816164E-02  0.1266605E+00
        -11   -1    0    0    0    0  0.00000000000E+00  0.00000000000E+00  0.45593999997E+02  0.45594000000E+02  0.51100000000E-03 0.  1.
         11   -1    0    0    0    0 -0.00000000000E+00 -0.00000000000E+00 -0.45593999997E+02  0.45594000000E+02  0.51100000000E-03 0. -1.
    9900012    2    1    2    0    0  0.25579479280E+02  0.91706348713E+01  0.16682621187E+02  0.59301950483E+02  0.50000011772E+02 0.  0.
         12    1    1    2    0    0 -0.25579479280E+02 -0.91706348713E+01 -0.16682621187E+02  0.31886049517E+02  0.00000000000E+00 0. -1.
         11    1    3    3    0    0 -0.45575556609E+01 -0.60268125640E+01  0.92076314414E+01  0.11911098199E+02  0.51100000000E-03 0. -1.
        -11    1    3    3    0    0  0.47088760288E+01  0.98523873273E+01  0.16584269773E+02  0.19856511619E+02  0.51100000000E-03 0.  1.
         12    1    3    3    0    0  0.25428158912E+02  0.53450601081E+01 -0.91092800278E+01  0.27534340665E+02  0.00000000000E+00 0. -1.
</event>
<event>
 7    1  0.6316620E-012  0.5930198E+02  0.7816164E-02  0.1266605E+00
        -11   -1    0    0    0    0  0.00000000000E+00  0.00000000000E+00  0.45593999997E+02  0.45594000000E+02  0.51100000000E-03 0. -1.
         11   -1    0    0    0    0 -0.00000000000E+00 -0.00000000000E+00 -0.45593999997E+02  0.45594000000E+02  0.51100000000E-03 0.  1.
    9900012    2    1    2    0    0  0.30612763347E+01 -0.71679674285E+00 -0.31730631821E+02  0.59301981024E+02  0.50000067472E+02 0.  0.
         12    1    1    2    0    0 -0.30612763347E+01  0.71679674285E+00  0.31730631821E+02  0.31886018976E+02  0.00000000000E+00 0. -1.
         11    1    3    3    0    0 -0.88277713932E+00 -0.13528449243E+02 -0.13231732789E+02  0.18944048861E+02  0.51100000000E-03 0. -1.
        -11    1    3    3    0    0 -0.13730456171E+02 -0.45685094882E+00 -0.78943570044E+01  0.15844715593E+02  0.51100000000E-03 0.  1.
        -12    1    3    3    0    0  0.17674509645E+02  0.13268503449E+02 -0.10604542028E+02  0.24513216570E+02  0.00000000000E+00 0.  1.
</event>
<event>
 7    1  0.6316620E-012  0.5930195E+02  0.7816164E-02  0.1266605E+00
        -11   -1    0    0    0    0  0.00000000000E+00  0.00000000000E+00  0.45593999997E+02  0.45594000000E+02  0.51100000000E-03 0.  1.
         11   -1    0    0    0    0 -0.00000000000E+00 -0.00000000000E+00 -0.45593999997E+02  0.45594000000E+02  0.51100000000E-03 0. -1.
    9900012    2    1    2    0    0  0.67947688549E+01 -0.22817559132E+02  0.21211093187E+02  0.59301947207E+02  0.50000005798E+02 0.  0.
         12    1    1    2    0    0 -0.67947688549E+01  0.22817559132E+02 -0.21211093187E+02  0.31886052793E+02  0.00000000000E+00 0. -1.
         11    1    3    3    0    0 -0.19867005648E+01  0.12161468091E+02  0.11555900615E+02  0.16893404765E+02  0.51100000000E-03 0. -1.
        -11    1    3    3    0    0 -0.60169925947E+01 -0.67614518849E+01  0.45813860785E+01  0.10144482744E+02  0.51100000000E-03 0.  1.
        -12    1    3    3    0    0  0.14798462014E+02 -0.28217575337E+02  0.50738064933E+01  0.32264059699E+02  0.00000000000E+00 0.  1.
</event>
<event>
 7    1  0.6316620E-012  0.5930195E+02  0.7816164E-02  0.1266605E+00
        -11   -1    0    0    0    0  0.00000000000E+00  0.00000000000E+00  0.45593999997E+02  0.45594000000E+02  0.51100000000E-03 0.  1.
         11   -1    0    0    0    0 -0.00000000000E+00 -0.00000000000E+00 -0.45593999997E+02  0.45594000000E+02  0.51100000000E-03 0. -1.
    9900012    2    1    2    0    0 -0.17492495801E+02 -0.14093743198E+02  0.22629614024E+02  0.59301946034E+02  0.50000003659E+02 0.  0.
         12    1    1    2    0    0  0.17492495801E+02  0.14093743198E+02 -0.22629614024E+02  0.31886053966E+02  0.00000000000E+00 0. -1.
         11    1    3    3    0    0  0.49618229266E+01  0.36984477763E+01 -0.58153957403E+01  0.84921746677E+01  0.51100000000E-03 0. -1.
        -11    1    3    3    0    0  0.64275387265E+01 -0.36170167132E+01  0.13393937407E+02  0.15290311426E+02  0.51100000000E-03 0.  1.
        -12    1    3    3    0    0 -0.28881857454E+02 -0.14175174261E+02  0.15051072357E+02  0.35519459940E+02  0.00000000000E+00 0.  1.
</event>
<event>
 7    1  0.6316620E-012  0.5930194E+02  0.7816164E-02  0.1266605E+00
        -11   -1    0    0    0    0  0.00000000000E+00  0.00000000000E+00  0.45593999997E+02  0.45594000000E+02  0.51100000000E-03 0. -1.
         11   -1    0    0    0    0 -0.00000000000E+00 -0.00000000000E+00 -0.45593999997E+02  0.45594000000E+02  0.51100000000E-03 0.  1.
    9900012    2    1    2    0    0 -0.67991507364E+00  0.14491853904E+02 -0.28394451017E+02  0.59301937800E+02  0.49999988643E+02 0.  0.
         12    1    1    2    0    0  0.67991507364E+00 -0.14491853904E+02  0.28394451017E+02  0.31886062200E+02  0.00000000000E+00 0. -1.
         11    1    3    3    0    0  0.59999940387E+01 -0.85118106519E+01 -0.53369537440E-01  0.10414110505E+02  0.51100000000E-03 0. -1.
        -11    1    3    3    0    0 -0.16448117060E+02  0.21009594550E+01 -0.14164812021E+02  0.21808174736E+02  0.51100000000E-03 0.  1.
        -12    1    3    3    0    0  0.97682079472E+01  0.20902705101E+02 -0.14176269458E+02  0.27079652560E+02  0.00000000000E+00 0.  1.
</event>
<event>
 7    1  0.6316620E-012  0.5930191E+02  0.7816164E-02  0.1266605E+00
        -11   -1    0    0    0    0  0.00000000000E+00  0.00000000000E+00  0.45593999997E+02  0.45594000000E+02  0.51100000000E-03 0. -1.
         11   -1    0    0    0    0 -0.00000000000E+00 -0.00000000000E+00 -0.45593999997E+02  0.45594000000E+02  0.51100000000E-03 0.  1.
    9900012    2    1    2    0    0  0.63573305275E+01  0.18895049964E+02 -0.24885421670E+02  0.59301909361E+02  0.49999936776E+02 0.  0.
         12    1    1    2    0    0 -0.63573305275E+01 -0.18895049964E+02  0.24885421670E+02  0.31886090639E+02  0.00000000000E+00 0. -1.
         11    1    3    3    0    0 -0.29468554808E+01 -0.97672700065E+01 -0.73707846458E+00  0.10228724531E+02  0.51100000000E-03 0. -1.
        -11    1    3    3    0    0  0.48292556975E+01  0.19520676245E+01  0.63977593178E+01  0.82500668574E+01  0.51100000000E-03 0.  1.
        -12    1    3    3    0    0  0.44749303108E+01  0.26710252346E+02 -0.30546102523E+02  0.40823117973E+02  0.00000000000E+00 0.  1.
</event>
<event>
 7    1  0.6316620E-012  0.5930195E+02  0.7816164E-02  0.1266605E+00
        -11   -1    0    0    0    0  0.00000000000E+00  0.00000000000E+00  0.45593999997E+02  0.45594000000E+02  0.51100000000E-03 0.  1.
         11   -1    0    0    0    0 -0.00000000000E+00 -0.00000000000E+00 -0.45593999997E+02  0.45594000000E+02  0.51100000000E-03 0. -1.
    9900012    2    1    2    0    0 -0.81147236085E+01 -0.29069280779E+02 -0.10288277300E+02  0.59301945461E+02  0.50000002613E+02 0.  0.
         12    1    1    2    0    0  0.81147236085E+01  0.29069280779E+02  0.10288277300E+02  0.31886054539E+02  0.00000000000E+00 0. -1.
         11    1    3    3    0    0  0.32177640123E+01  0.42571683142E+01 -0.63035088813E+01  0.82590381869E+01  0.51100000000E-03 0. -1.
        -11    1    3    3    0    0 -0.19841990635E+02 -0.85623781291E+01  0.68999297676E+01  0.22685412552E+02  0.51100000000E-03 0.  1.
        -12    1    3    3    0    0  0.85095030143E+01 -0.24764070965E+02 -0.10884698187E+02  0.28357494722E+02  0.00000000000E+00 0.  1.
</event>
<event>
 7    1  0.6316620E-012  0.5930194E+02  0.7816164E-02  0.1266605E+00
        -11   -1    0    0    0    0  0.00000000000E+00  0.00000000000E+00  0.45593999997E+02  0.45594000000E+02  0.51100000000E-03 0.  1.
         11   -1    0    0    0    0 -0.00000000000E+00 -0.00000000000E+00 -0.45593999997E+02  0.45594000000E+02  0.51100000000E-03 0. -1.
    9900012    2    1    2    0    0  0.20998550191E+02  0.12606041951E+01  0.23962314697E+02  0.59301940998E+02  0.49999994474E+02 0.  0.
         12    1    1    2    0    0 -0.20998550191E+02 -0.12606041951E+01 -0.23962314697E+02  0.31886059002E+02  0.00000000000E+00 0. -1.
         11    1    3    3    0    0 -0.84122636917E+01 -0.21620132044E+00 -0.94657562211E+00  0.84681124873E+01  0.51100000000E-03 0. -1.
        -11    1    3    3    0    0  0.31142802477E+01  0.13880418387E+02  0.13465588383E+02  0.19587925536E+02  0.51100000000E-03 0.  1.
        -12    1    3    3    0    0  0.26296533635E+02 -0.12403612871E+02  0.11443301936E+02  0.31245902974E+02  0.00000000000E+00 0.  1.
</event>
<event>
 7    1  0.6316620E-012  0.5930195E+02  0.7816164E-02  0.1266605E+00
        -11   -1    0    0    0    0  0.00000000000E+00  0.00000000000E+00  0.45593999997E+02  0.45594000000E+02  0.51100000000E-03 0.  1.
         11   -1    0    0    0    0 -0.00000000000E+00 -0.00000000000E+00 -0.45593999997E+02  0.45594000000E+02  0.51100000000E-03 0. -1.
    9900012    2    1    2    0    0 -0.26111020753E+02 -0.18275163447E+02 -0.97617416530E+00  0.59301954153E+02  0.50000018466E+02 0.  0.
         12    1    1    2    0    0  0.26111020753E+02  0.18275163447E+02  0.97617416530E+00  0.31886045847E+02  0.00000000000E+00 0. -1.
         11    1    3    3    0    0  0.93286103364E+01  0.41895879608E+01 -0.30142017128E+01  0.10661192725E+02  0.51100000000E-03 0. -1.
        -11    1    3    3    0    0 -0.10632176985E+02  0.46188898892E+01 -0.17285847053E+01  0.11720295926E+02  0.51100000000E-03 0.  1.
         12    1    3    3    0    0 -0.24807454104E+02 -0.27083641297E+02  0.37666122527E+01  0.36920465502E+02  0.00000000000E+00 0. -1.
</event>
<event>
 7    1  0.6316620E-012  0.5930189E+02  0.7816164E-02  0.1266605E+00
        -11   -1    0    0    0    0  0.00000000000E+00  0.00000000000E+00  0.45593999997E+02  0.45594000000E+02  0.51100000000E-03 0.  1.
         11   -1    0    0    0    0 -0.00000000000E+00 -0.00000000000E+00 -0.45593999997E+02  0.45594000000E+02  0.51100000000E-03 0. -1.
    9900012    2    1    2    0    0  0.28797506211E+02 -0.82934121960E-01  0.13690163939E+02  0.59301892826E+02  0.49999906620E+02 0.  0.
         12    1    1    2    0    0 -0.28797506211E+02  0.82934121960E-01 -0.13690163939E+02  0.31886107174E+02  0.00000000000E+00 0. -1.
         11    1    3    3    0    0 -0.27649785526E+01  0.10024781489E+02 -0.31059826041E+01  0.10853040058E+02  0.51100000000E-03 0. -1.
        -11    1    3    3    0    0  0.40093053913E+01 -0.15649451117E+02  0.94603801033E+00  0.16182547332E+02  0.51100000000E-03 0.  1.
        -12    1    3    3    0    0  0.27553179372E+02  0.55417355062E+01  0.15850108533E+02  0.32266305436E+02  0.00000000000E+00 0.  1.
</event>
<event>
 7    1  0.6316620E-012  0.5930195E+02  0.7816164E-02  0.1266605E+00
        -11   -1    0    0    0    0  0.00000000000E+00  0.00000000000E+00  0.45593999997E+02  0.45594000000E+02  0.51100000000E-03 0.  1.
         11   -1    0    0    0    0 -0.00000000000E+00 -0.00000000000E+00 -0.45593999997E+02  0.45594000000E+02  0.51100000000E-03 0. -1.
    9900012    2    1    2    0    0 -0.25684912267E+02  0.18875770300E+02  0.84311997924E+00  0.59301948600E+02  0.50000008339E+02 0.  0.
         12    1    1    2    0    0  0.25684912267E+02 -0.18875770300E+02 -0.84311997924E+00  0.31886051400E+02  0.00000000000E+00 0. -1.
         11    1    3    3    0    0 -0.57263316918E+01  0.59925652689E+01 -0.67757461623E+01  0.10705720408E+02  0.51100000000E-03 0. -1.
        -11    1    3    3    0    0 -0.30506366361E+02  0.13858610003E+02 -0.29454009980E+01  0.33635916028E+02  0.51100000000E-03 0.  1.
         12    1    3    3    0    0  0.10547785786E+02 -0.97540497189E+00  0.10564267140E+02  0.14960312164E+02  0.00000000000E+00 0. -1.
</event>
<event>
 7    1  0.6316620E-012  0.5930196E+02  0.7816164E-02  0.1266605E+00
        -11   -1    0    0    0    0  0.00000000000E+00  0.00000000000E+00  0.45593999997E+02  0.45594000000E+02  0.51100000000E-03 0. -1.
         11   -1    0    0    0    0 -0.00000000000E+00 -0.00000000000E+00 -0.45593999997E+02  0.45594000000E+02  0.51100000000E-03 0.  1.
    9900012    2    1    2    0    0 -0.19283340161E+02  0.13953432688E+02 -0.21217312879E+02  0.59301955132E+02  0.50000020251E+02 0.  0.
         12    1    1    2    0    0  0.19283340161E+02 -0.13953432688E+02  0.21217312879E+02  0.31886044868E+02  0.00000000000E+00 0. -1.
         11    1    3    3    0    0  0.54186664167E+01 -0.76932835253E+01 -0.10713805513E+02  0.14259529654E+02  0.51100000000E-03 0. -1.
        -11    1    3    3    0    0 -0.11772417331E+02 -0.35460332001E+01 -0.11321773698E+02  0.16713668694E+02  0.51100000000E-03 0.  1.
         12    1    3    3    0    0 -0.12929589247E+02  0.25192749414E+02  0.81826633242E+00  0.28328756784E+02  0.00000000000E+00 0. -1.
</event>
<event>
 7    1  0.6316620E-012  0.5930192E+02  0.7816164E-02  0.1266605E+00
        -11   -1    0    0    0    0  0.00000000000E+00  0.00000000000E+00  0.45593999997E+02  0.45594000000E+02  0.51100000000E-03 0.  1.
         11   -1    0    0    0    0 -0.00000000000E+00 -0.00000000000E+00 -0.45593999997E+02  0.45594000000E+02  0.51100000000E-03 0. -1.
    9900012    2    1    2    0    0 -0.21171843471E+02  0.47016391333E+00  0.23838083655E+02  0.59301917731E+02  0.49999952042E+02 0.  0.
         12    1    1    2    0    0  0.21171843471E+02 -0.47016391333E+00 -0.23838083655E+02  0.31886082269E+02  0.00000000000E+00 0. -1.
         11    1    3    3    0    0  0.24808392515E+01  0.11686017735E+02  0.44568504630E+01  0.12750729006E+02  0.51100000000E-03 0. -1.
        -11    1    3    3    0    0  0.68598399919E+01 -0.91374125058E+01  0.28070516025E+01  0.11765596074E+02  0.51100000000E-03 0.  1.
        -12    1    3    3    0    0 -0.30512522715E+02 -0.20784413154E+01  0.16574181590E+02  0.34785592651E+02  0.00000000000E+00 0.  1.
</event>
<event>
 7    1  0.6316620E-012  0.5930193E+02  0.7816164E-02  0.1266605E+00
        -11   -1    0    0    0    0  0.00000000000E+00  0.00000000000E+00  0.45593999997E+02  0.45594000000E+02  0.51100000000E-03 0. -1.
         11   -1    0    0    0    0 -0.00000000000E+00 -0.00000000000E+00 -0.45593999997E+02  0.45594000000E+02  0.51100000000E-03 0.  1.
    9900012    2    1    2    0    0  0.84543783508E+01  0.30649197232E+02  0.24231367558E+01  0.59301931005E+02  0.49999976249E+02 0.  0.
         12    1    1    2    0    0 -0.84543783508E+01 -0.30649197232E+02 -0.24231367558E+01  0.31886068995E+02  0.00000000000E+00 0. -1.
         11    1    3    3    0    0  0.12470540175E+02 -0.86173374301E+01  0.11870727812E+00  0.15158725814E+02  0.51100000000E-03 0. -1.
        -11    1    3    3    0    0 -0.64258218245E+01  0.13879353891E+02 -0.72304791896E+01  0.16917667692E+02  0.51100000000E-03 0.  1.
        -12    1    3    3    0    0  0.24096600003E+01  0.25387180770E+02  0.95349086672E+01  0.27225537498E+02  0.00000000000E+00 0.  1.
</event>
<event>
 7    1  0.6316620E-012  0.5930197E+02  0.7816164E-02  0.1266605E+00
        -11   -1    0    0    0    0  0.00000000000E+00  0.00000000000E+00  0.45593999997E+02  0.45594000000E+02  0.51100000000E-03 0. -1.
         11   -1    0    0    0    0 -0.00000000000E+00 -0.00000000000E+00 -0.45593999997E+02  0.45594000000E+02  0.51100000000E-03 0.  1.
    9900012    2    1    2    0    0  0.23860095169E+02 -0.20526653403E+02  0.51060297780E+01  0.59301965730E+02  0.50000039579E+02 0.  0.
         12    1    1    2    0    0 -0.23860095169E+02  0.20526653403E+02 -0.51060297780E+01  0.31886034270E+02  0.00000000000E+00 0. -1.
         11    1    3    3    0    0  0.73630566750E+01 -0.74278261299E+01  0.44163621103E+01  0.11353037442E+02  0.51100000000E-03 0. -1.
        -11    1    3    3    0    0 -0.25858989478E+01 -0.91588900700E+01  0.18974758027E+02  0.21227660802E+02  0.51100000000E-03 0.  1.
        -12    1    3    3    0    0  0.19082937442E+02 -0.39399372031E+01 -0.18285090359E+02  0.26721267485E+02  0.00000000000E+00 0.  1.
</event>
<event>
 7    1  0.6316620E-012  0.5930185E+02  0.7816164E-02  0.1266605E+00
        -11   -1    0    0    0    0  0.00000000000E+00  0.00000000000E+00  0.45593999997E+02  0.45594000000E+02  0.51100000000E-03 0.  1.
         11   -1    0    0    0    0 -0.00000000000E+00 -0.00000000000E+00 -0.45593999997E+02  0.45594000000E+02  0.51100000000E-03 0. -1.
    9900012    2    1    2    0    0 -0.89149860034E+01  0.22741430403E+02  0.20495774030E+02  0.59301852768E+02  0.49999833564E+02 0.  0.
         12    1    1    2    0    0  0.89149860034E+01 -0.22741430403E+02 -0.20495774030E+02  0.31886147232E+02  0.00000000000E+00 0. -1.
         11    1    3    3    0    0 -0.35943554434E+01  0.14852889137E+02 -0.46363351013E+01  0.15969449276E+02  0.51100000000E-03 0. -1.
        -11    1    3    3    0    0  0.68160339835E+01  0.17867844937E+02  0.17247324080E+02  0.25752444353E+02  0.51100000000E-03 0.  1.
        -12    1    3    3    0    0 -0.12136664544E+02 -0.99793036717E+01  0.78847850511E+01  0.17579959139E+02  0.00000000000E+00 0.  1.
</event>
<event>
 7    1  0.6316620E-012  0.5930195E+02  0.7816164E-02  0.1266605E+00
        -11   -1    0    0    0    0  0.00000000000E+00  0.00000000000E+00  0.45593999997E+02  0.45594000000E+02  0.51100000000E-03 0.  1.
         11   -1    0    0    0    0 -0.00000000000E+00 -0.00000000000E+00 -0.45593999997E+02  0.45594000000E+02  0.51100000000E-03 0. -1.
    9900012    2    1    2    0    0 -0.33506599901E+01 -0.31210357035E+02 -0.56042103705E+01  0.59301945329E+02  0.50000002373E+02 0.  0.
         12    1    1    2    0    0  0.33506599901E+01  0.31210357035E+02  0.56042103705E+01  0.31886054671E+02  0.00000000000E+00 0. -1.
         11    1    3    3    0    0 -0.22414490686E+01  0.62339730774E+01 -0.72820570312E+01  0.98445349877E+01  0.51100000000E-03 0. -1.
        -11    1    3    3    0    0 -0.57402905039E+01 -0.32240388892E+01 -0.10876473390E+02  0.12713891438E+02  0.51100000000E-03 0.  1.
        -12    1    3    3    0    0  0.46310795825E+01 -0.34220291223E+02  0.12554320051E+02  0.36743518903E+02  0.00000000000E+00 0.  1.
</event>
<event>
 7    1  0.6316620E-012  0.5930194E+02  0.7816164E-02  0.1266605E+00
        -11   -1    0    0    0    0  0.00000000000E+00  0.00000000000E+00  0.45593999997E+02  0.45594000000E+02  0.51100000000E-03 0. -1.
         11   -1    0    0    0    0 -0.00000000000E+00 -0.00000000000E+00 -0.45593999997E+02  0.45594000000E+02  0.51100000000E-03 0.  1.
    9900012    2    1    2    0    0 -0.64547125068E+01  0.43018663591E+01 -0.30928170750E+02  0.59301935432E+02  0.49999984323E+02 0.  0.
         12    1    1    2    0    0  0.64547125068E+01 -0.43018663591E+01  0.30928170750E+02  0.31886064568E+02  0.00000000000E+00 0. -1.
         11    1    3    3    0    0  0.20730971465E+01 -0.29630109416E+01  0.19142221098E+01  0.40916270804E+01  0.51100000000E-03 0. -1.
        -11    1    3    3    0    0  0.11528376580E+02 -0.53831604662E+01 -0.28354217420E+02  0.31078023247E+02  0.51100000000E-03 0.  1.
        -12    1    3    3    0    0 -0.20056186234E+02  0.12648037767E+02 -0.44881754398E+01  0.24132285105E+02  0.00000000000E+00 0.  1.
</event>
<event>
 7    1  0.6316620E-012  0.5930197E+02  0.7816164E-02  0.1266605E+00
        -11   -1    0    0    0    0  0.00000000000E+00  0.00000000000E+00  0.45593999997E+02  0.45594000000E+02  0.51100000000E-03 0. -1.
         11   -1    0    0    0    0 -0.00000000000E+00 -0.00000000000E+00 -0.45593999997E+02  0.45594000000E+02  0.51100000000E-03 0.  1.
    9900012    2    1    2    0    0  0.23365252167E+02 -0.15413665539E+02 -0.15270972403E+02  0.59301973401E+02  0.50000053569E+02 0.  0.
         12    1    1    2    0    0 -0.23365252167E+02  0.15413665539E+02  0.15270972403E+02  0.31886026599E+02  0.00000000000E+00 0. -1.
         11    1    3    3    0    0 -0.34838401933E+01  0.42819620382E+00 -0.14128479397E+02  0.14557967744E+02  0.51100000000E-03 0. -1.
        -11    1    3    3    0    0  0.40061680734E+01  0.91120659689E+01 -0.41411965497E+01  0.10780938641E+02  0.51100000000E-03 0.  1.
         12    1    3    3    0    0  0.22842924287E+02 -0.24953927712E+02  0.29987035439E+01  0.33963067016E+02  0.00000000000E+00 0. -1.
</event>
<event>
 7    1  0.6316620E-012  0.5930193E+02  0.7816164E-02  0.1266605E+00
        -11   -1    0    0    0    0  0.00000000000E+00  0.00000000000E+00  0.45593999997E+02  0.45594000000E+02  0.51100000000E-03 0.  1.
         11   -1    0    0    0    0 -0.00000000000E+00 -0.00000000000E+00 -0.45593999997E+02  0.45594000000E+02  0.51100000000E-03 0. -1.
    9900012    2    1    2    0    0  0.23251390675E+02 -0.21055466057E+02 -0.57237856041E+01  0.59301928733E+02  0.49999972106E+02 0.  0.
         12    1    1    2    0    0 -0.23251390675E+02  0.21055466057E+02  0.57237856041E+01  0.31886071267E+02  0.00000000000E+00 0. -1.
         11    1    3    3    0    0  0.25303610269E+02 -0.10763880345E+02 -0.17294317897E+02  0.32484261489E+02  0.51100000000E-03 0.  1.
        -11    1    3    3    0    0  0.27945509569E+00 -0.53017028145E+01 -0.62295422570E+01  0.81849462354E+01  0.51100000000E-03 0. -1.
        -12    1    3    3    0    0 -0.23316746898E+01 -0.49898828974E+01  0.17800074550E+02  0.18632721008E+02  0.00000000000E+00 0.  1.
</event>
<event>
 7    1  0.6316620E-012  0.5930195E+02  0.7816164E-02  0.1266605E+00
        -11   -1    0    0    0    0  0.00000000000E+00  0.00000000000E+00  0.45593999997E+02  0.45594000000E+02  0.51100000000E-03 0.  1.
         11   -1    0    0    0    0 -0.00000000000E+00 -0.00000000000E+00 -0.45593999997E+02  0.45594000000E+02  0.51100000000E-03 0. -1.
    9900012    2    1    2    0    0 -0.11526054191E+01 -0.29696764528E+02 -0.11553964865E+02  0.59301946202E+02  0.50000003966E+02 0.  0.
         12    1    1    2    0    0  0.11526054191E+01  0.29696764528E+02  0.11553964865E+02  0.31886053798E+02  0.00000000000E+00 0. -1.
         11    1    3    3    0    0  0.11553399032E+02 -0.40664101945E+01 -0.57280763881E+01  0.13521374946E+02  0.51100000000E-03 0. -1.
        -11    1    3    3    0    0  0.71417406812E+00 -0.29499890568E+02  0.23408909097E+01  0.29601239140E+02  0.51100000000E-03 0.  1.
         12    1    3    3    0    0 -0.13420178520E+02  0.38695362344E+01 -0.81667793864E+01  0.16179332116E+02  0.00000000000E+00 0. -1.
</event>
<event>
 7    1  0.6316620E-012  0.5930162E+02  0.7816164E-02  0.1266606E+00
        -11   -1    0    0    0    0  0.00000000000E+00  0.00000000000E+00  0.45593999997E+02  0.45594000000E+02  0.51100000000E-03 0. -1.
         11   -1    0    0    0    0 -0.00000000000E+00 -0.00000000000E+00 -0.45593999997E+02  0.45594000000E+02  0.51100000000E-03 0.  1.
    9900012    2    1    2    0    0  0.89709686579E+01  0.13134257719E+02 -0.27636098565E+02  0.59301624408E+02  0.49999417087E+02 0.  0.
         12    1    1    2    0    0 -0.89709686579E+01 -0.13134257719E+02  0.27636098565E+02  0.31886375592E+02  0.00000000000E+00 0. -1.
         11    1    3    3    0    0  0.92521851964E+01  0.75612653419E+01 -0.22713645602E+02  0.25664866282E+02  0.51100000000E-03 0. -1.
        -11    1    3    3    0    0  0.14979779899E+02 -0.34790270736E+01 -0.38913995662E+01  0.15863178309E+02  0.51100000000E-03 0.  1.
         12    1    3    3    0    0 -0.15260996438E+02  0.90520194511E+01 -0.10310533968E+01  0.17773579817E+02  0.00000000000E+00 0. -1.
</event>
<event>
 7    1  0.6316620E-012  0.5930193E+02  0.7816164E-02  0.1266605E+00
        -11   -1    0    0    0    0  0.00000000000E+00  0.00000000000E+00  0.45593999997E+02  0.45594000000E+02  0.51100000000E-03 0. -1.
         11   -1    0    0    0    0 -0.00000000000E+00 -0.00000000000E+00 -0.45593999997E+02  0.45594000000E+02  0.51100000000E-03 0.  1.
    9900012    2    1    2    0    0 -0.14475529416E+02 -0.24754023732E+02 -0.13943412665E+02  0.59301930949E+02  0.49999976147E+02 0.  0.
         12    1    1    2    0    0  0.14475529416E+02  0.24754023732E+02  0.13943412665E+02  0.31886069051E+02  0.00000000000E+00 0. -1.
         11    1    3    3    0    0  0.53905358501E+00  0.80394520935E+01  0.14573726673E+00  0.80588217714E+01  0.51100000000E-03 0. -1.
        -11    1    3    3    0    0 -0.24224640993E+01 -0.51622185945E+01  0.10646910521E+02  0.12077811765E+02  0.51100000000E-03 0.  1.
        -12    1    3    3    0    0 -0.12592118902E+02 -0.27631257231E+02 -0.24736060453E+02  0.39165297412E+02  0.00000000000E+00 0.  1.
</event>
<event>
 7    1  0.6316620E-012  0.5930189E+02  0.7816164E-02  0.1266605E+00
        -11   -1    0    0    0    0  0.00000000000E+00  0.00000000000E+00  0.45593999997E+02  0.45594000000E+02  0.51100000000E-03 0. -1.
         11   -1    0    0    0    0 -0.00000000000E+00 -0.00000000000E+00 -0.45593999997E+02  0.45594000000E+02  0.51100000000E-03 0.  1.
    9900012    2    1    2    0    0 -0.67919838741E+01  0.14636030590E+02 -0.27502350417E+02  0.59301894643E+02  0.49999909934E+02 0.  0.
         12    1    1    2    0    0  0.67919838741E+01 -0.14636030590E+02  0.27502350417E+02  0.31886105357E+02  0.00000000000E+00 0. -1.
         11    1    3    3    0    0 -0.12000692035E+01  0.54364304834E+01  0.23590143543E+01  0.60464776093E+01  0.51100000000E-03 0. -1.
        -11    1    3    3    0    0 -0.10761856543E+02  0.19694452587E+02 -0.14038040378E+01  0.22486878062E+02  0.51100000000E-03 0.  1.
        -12    1    3    3    0    0  0.51699418725E+01 -0.10494852480E+02 -0.28457560733E+02  0.30768538971E+02  0.00000000000E+00 0.  1.
</event>
<event>
 7    1  0.6316620E-012  0.5930193E+02  0.7816164E-02  0.1266605E+00
        -11   -1    0    0    0    0  0.00000000000E+00  0.00000000000E+00  0.45593999997E+02  0.45594000000E+02  0.51100000000E-03 0.  1.
         11   -1    0    0    0    0 -0.00000000000E+00 -0.00000000000E+00 -0.45593999997E+02  0.45594000000E+02  0.51100000000E-03 0. -1.
    9900012    2    1    2    0    0 -0.37851063246E+01 -0.20370004364E+02  0.24237517078E+02  0.59301931855E+02  0.49999977799E+02 0.  0.
         12    1    1    2    0    0  0.37851063246E+01  0.20370004364E+02 -0.24237517078E+02  0.31886068145E+02  0.00000000000E+00 0. -1.
         11    1    3    3    0    0 -0.37401319520E+01  0.93454440811E+01  0.35379169476E+01  0.10669712680E+02  0.51100000000E-03 0.  1.
        -11    1    3    3    0    0 -0.14439733641E+02 -0.96854759383E+01  0.16475035511E+01  0.17465068565E+02  0.51100000000E-03 0. -1.
        -12    1    3    3    0    0  0.14394759269E+02 -0.20029972507E+02  0.19052096579E+02  0.31167150609E+02  0.00000000000E+00 0.  1.
</event>
<event>
 7    1  0.6316620E-012  0.5930195E+02  0.7816164E-02  0.1266605E+00
        -11   -1    0    0    0    0  0.00000000000E+00  0.00000000000E+00  0.45593999997E+02  0.45594000000E+02  0.51100000000E-03 0.  1.
         11   -1    0    0    0    0 -0.00000000000E+00 -0.00000000000E+00 -0.45593999997E+02  0.45594000000E+02  0.51100000000E-03 0. -1.
    9900012    2    1    2    0    0  0.15449514888E+02 -0.27890316966E+02  0.40365319538E+00  0.59301949341E+02  0.50000009689E+02 0.  0.
         12    1    1    2    0    0 -0.15449514888E+02  0.27890316966E+02 -0.40365319538E+00  0.31886050659E+02  0.00000000000E+00 0. -1.
         11    1    3    3    0    0 -0.70815552956E+01 -0.32217247112E+02  0.41364638492E+00  0.32988945731E+02  0.51100000000E-03 0. -1.
        -11    1    3    3    0    0  0.27911654160E+01  0.47542600410E+01  0.31003176710E+01  0.63249950861E+01  0.51100000000E-03 0.  1.
        -12    1    3    3    0    0  0.19739904767E+02 -0.42732989548E+00 -0.31103108606E+01  0.19988008523E+02  0.00000000000E+00 0.  1.
</event>
<event>
 7    1  0.6316620E-012  0.5930195E+02  0.7816164E-02  0.1266605E+00
        -11   -1    0    0    0    0  0.00000000000E+00  0.00000000000E+00  0.45593999997E+02  0.45594000000E+02  0.51100000000E-03 0. -1.
         11   -1    0    0    0    0 -0.00000000000E+00 -0.00000000000E+00 -0.45593999997E+02  0.45594000000E+02  0.51100000000E-03 0.  1.
    9900012    2    1    2    0    0 -0.20935360012E+02 -0.20935688975E+02 -0.11837565522E+02  0.59301947733E+02  0.50000006757E+02 0.  0.
         12    1    1    2    0    0  0.20935360012E+02  0.20935688975E+02  0.11837565522E+02  0.31886052267E+02  0.00000000000E+00 0. -1.
         11    1    3    3    0    0 -0.14763848803E+02 -0.70502138304E+01  0.11764650107E+02  0.20151519519E+02  0.51100000000E-03 0. -1.
        -11    1    3    3    0    0  0.55237757249E+01 -0.12469297417E+02 -0.10151827049E+01  0.13675747604E+02  0.51100000000E-03 0.  1.
        -12    1    3    3    0    0 -0.11695286934E+02 -0.14161777276E+01 -0.22587032924E+02  0.25474680610E+02  0.00000000000E+00 0.  1.
</event>
<event>
 7    1  0.6316620E-012  0.5930194E+02  0.7816164E-02  0.1266605E+00
        -11   -1    0    0    0    0  0.00000000000E+00  0.00000000000E+00  0.45593999997E+02  0.45594000000E+02  0.51100000000E-03 0.  1.
         11   -1    0    0    0    0 -0.00000000000E+00 -0.00000000000E+00 -0.45593999997E+02  0.45594000000E+02  0.51100000000E-03 0. -1.
    9900012    2    1    2    0    0 -0.19845650337E+01  0.15901609175E+02  0.27566665807E+02  0.59301941347E+02  0.49999995111E+02 0.  0.
         12    1    1    2    0    0  0.19845650337E+01 -0.15901609175E+02 -0.27566665807E+02  0.31886058653E+02  0.00000000000E+00 0. -1.
         11    1    3    3    0    0 -0.62752686736E+01  0.11272005373E+02  0.16137957936E+02  0.20660851595E+02  0.51100000000E-03 0. -1.
        -11    1    3    3    0    0  0.59308621343E+00  0.20535884489E+02  0.55016009867E+01  0.21268331309E+02  0.51100000000E-03 0.  1.
        -12    1    3    3    0    0  0.36976174265E+01 -0.15906280686E+02  0.59271068844E+01  0.17372758443E+02  0.00000000000E+00 0.  1.
</event>
<event>
 7    1  0.6316620E-012  0.5930197E+02  0.7816164E-02  0.1266605E+00
        -11   -1    0    0    0    0  0.00000000000E+00  0.00000000000E+00  0.45593999997E+02  0.45594000000E+02  0.51100000000E-03 0.  1.
         11   -1    0    0    0    0 -0.00000000000E+00 -0.00000000000E+00 -0.45593999997E+02  0.45594000000E+02  0.51100000000E-03 0. -1.
    9900012    2    1    2    0    0  0.19199607726E+02  0.24592902064E+02  0.65789921262E+01  0.59301970047E+02  0.50000047452E+02 0.  0.
         12    1    1    2    0    0 -0.19199607726E+02 -0.24592902064E+02 -0.65789921262E+01  0.31886029953E+02  0.00000000000E+00 0. -1.
         11    1    3    3    0    0  0.71800248471E+01 -0.59088480276E+01  0.13728767433E+00  0.92997897818E+01  0.51100000000E-03 0. -1.
        -11    1    3    3    0    0  0.38501262221E+00  0.19391127023E+02  0.20799671522E+02  0.28439240103E+02  0.51100000000E-03 0.  1.
        -12    1    3    3    0    0  0.11634570257E+02  0.11110623069E+02 -0.14357967070E+02  0.21562940162E+02  0.00000000000E+00 0.  1.
</event>
<event>
 7    1  0.6316620E-012  0.5930194E+02  0.7816164E-02  0.1266605E+00
        -11   -1    0    0    0    0  0.00000000000E+00  0.00000000000E+00  0.45593999997E+02  0.45594000000E+02  0.51100000000E-03 0.  1.
         11   -1    0    0    0    0 -0.00000000000E+00 -0.00000000000E+00 -0.45593999997E+02  0.45594000000E+02  0.51100000000E-03 0. -1.
    9900012    2    1    2    0    0  0.66394809932E+01 -0.10806397853E+02  0.29255081674E+02  0.59301941194E+02  0.49999994832E+02 0.  0.
         12    1    1    2    0    0 -0.66394809932E+01  0.10806397853E+02 -0.29255081674E+02  0.31886058806E+02  0.00000000000E+00 0. -1.
         11    1    3    3    0    0 -0.14742362599E+01 -0.80366193716E+01 -0.91504043260E+01  0.12267457889E+02  0.51100000000E-03 0. -1.
        -11    1    3    3    0    0  0.11720694024E+02 -0.98315494882E+01  0.11938657614E+02  0.19405297721E+02  0.51100000000E-03 0.  1.
        -12    1    3    3    0    0 -0.36069767711E+01  0.70617710072E+01  0.26466828387E+02  0.27629185584E+02  0.00000000000E+00 0.  1.
</event>
<event>
 7    1  0.6316620E-012  0.5930194E+02  0.7816164E-02  0.1266605E+00
        -11   -1    0    0    0    0  0.00000000000E+00  0.00000000000E+00  0.45593999997E+02  0.45594000000E+02  0.51100000000E-03 0.  1.
         11   -1    0    0    0    0 -0.00000000000E+00 -0.00000000000E+00 -0.45593999997E+02  0.45594000000E+02  0.51100000000E-03 0. -1.
    9900012    2    1    2    0    0  0.96381428485E+01 -0.28721185808E+02  0.99458665061E+01  0.59301943920E+02  0.49999999803E+02 0.  0.
         12    1    1    2    0    0 -0.96381428485E+01  0.28721185808E+02 -0.99458665061E+01  0.31886056080E+02  0.00000000000E+00 0. -1.
         11    1    3    3    0    0  0.15495631560E+01 -0.14267810679E+02  0.78608859774E+00  0.14373221737E+02  0.51100000000E-03 0. -1.
        -11    1    3    3    0    0 -0.59202841314E+01 -0.38472153571E+01 -0.14105414228E+02  0.15773824552E+02  0.51100000000E-03 0.  1.
        -12    1    3    3    0    0  0.14008863824E+02 -0.10606159772E+02  0.23265192136E+02  0.29154897631E+02  0.00000000000E+00 0.  1.
</event>
<event>
 7    1  0.6316620E-012  0.5930196E+02  0.7816164E-02  0.1266605E+00
        -11   -1    0    0    0    0  0.00000000000E+00  0.00000000000E+00  0.45593999997E+02  0.45594000000E+02  0.51100000000E-03 0.  1.
         11   -1    0    0    0    0 -0.00000000000E+00 -0.00000000000E+00 -0.45593999997E+02  0.45594000000E+02  0.51100000000E-03 0. -1.
    9900012    2    1    2    0    0  0.21714148896E+02  0.10740178343E+02  0.20733159000E+02  0.59301959556E+02  0.50000028319E+02 0.  0.
         12    1    1    2    0    0 -0.21714148896E+02 -0.10740178343E+02 -0.20733159000E+02  0.31886040444E+02  0.00000000000E+00 0. -1.
         11    1    3    3    0    0  0.53820927435E+01  0.11876192882E+02  0.18221917895E+02  0.22406453796E+02  0.51100000000E-03 0. -1.
        -11    1    3    3    0    0  0.18423947677E+02 -0.10782851225E+02  0.10874777535E+02  0.23957723499E+02  0.51100000000E-03 0.  1.
         12    1    3    3    0    0 -0.20918915244E+01  0.96468366865E+01 -0.83635364304E+01  0.12937782261E+02  0.00000000000E+00 0. -1.
</event>
<event>
 7    1  0.6316620E-012  0.5930195E+02  0.7816164E-02  0.1266605E+00
        -11   -1    0    0    0    0  0.00000000000E+00  0.00000000000E+00  0.45593999997E+02  0.45594000000E+02  0.51100000000E-03 0.  1.
         11   -1    0    0    0    0 -0.00000000000E+00 -0.00000000000E+00 -0.45593999997E+02  0.45594000000E+02  0.51100000000E-03 0. -1.
    9900012    2    1    2    0    0  0.17461626016E+02 -0.17129083952E+02  0.20454986326E+02  0.59301947159E+02  0.50000005710E+02 0.  0.
         12    1    1    2    0    0 -0.17461626016E+02  0.17129083952E+02 -0.20454986326E+02  0.31886052841E+02  0.00000000000E+00 0. -1.
         11    1    3    3    0    0  0.25369934278E+02 -0.27003005715E+01  0.98158177215E+01  0.27336339664E+02  0.51100000000E-03 0. -1.
        -11    1    3    3    0    0  0.43131018045E+01 -0.95318478404E+01 -0.49385912650E+01  0.11569297920E+02  0.51100000000E-03 0.  1.
        -12    1    3    3    0    0 -0.12221410066E+02 -0.48969355404E+01  0.15577759870E+02  0.20396309574E+02  0.00000000000E+00 0.  1.
</event>
<event>
 7    1  0.6316620E-012  0.5930196E+02  0.7816164E-02  0.1266605E+00
        -11   -1    0    0    0    0  0.00000000000E+00  0.00000000000E+00  0.45593999997E+02  0.45594000000E+02  0.51100000000E-03 0. -1.
         11   -1    0    0    0    0 -0.00000000000E+00 -0.00000000000E+00 -0.45593999997E+02  0.45594000000E+02  0.51100000000E-03 0.  1.
    9900012    2    1    2    0    0 -0.13520710215E+02 -0.22670961329E+02 -0.17886791709E+02  0.59301962148E+02  0.50000033047E+02 0.  0.
         12    1    1    2    0    0  0.13520710215E+02  0.22670961329E+02  0.17886791709E+02  0.31886037852E+02  0.00000000000E+00 0. -1.
         11    1    3    3    0    0 -0.39062714349E+01  0.22464691012E+01  0.42585998357E+01  0.62001010288E+01  0.51100000000E-03 0. -1.
        -11    1    3    3    0    0 -0.17961832623E+02  0.36027694512E+01 -0.59683026799E+01  0.19267278377E+02  0.51100000000E-03 0.  1.
        -12    1    3    3    0    0  0.83473938434E+01 -0.28520199881E+02 -0.16177088864E+02  0.33834582743E+02  0.00000000000E+00 0.  1.
</event>
<event>
 7    1  0.6316620E-012  0.5930193E+02  0.7816164E-02  0.1266605E+00
        -11   -1    0    0    0    0  0.00000000000E+00  0.00000000000E+00  0.45593999997E+02  0.45594000000E+02  0.51100000000E-03 0. -1.
         11   -1    0    0    0    0 -0.00000000000E+00 -0.00000000000E+00 -0.45593999997E+02  0.45594000000E+02  0.51100000000E-03 0.  1.
    9900012    2    1    2    0    0 -0.55617056779E+01 -0.22783366849E+02 -0.21603399141E+02  0.59301933616E+02  0.49999981011E+02 0.  0.
         12    1    1    2    0    0  0.55617056779E+01  0.22783366849E+02  0.21603399141E+02  0.31886066384E+02  0.00000000000E+00 0. -1.
         11    1    3    3    0    0  0.40939542948E+01 -0.43673717677E+01  0.54352667820E+01  0.80855750060E+01  0.51100000000E-03 0. -1.
        -11    1    3    3    0    0 -0.15265501319E+02  0.16870345777E+01  0.19651943311E+01  0.15483656067E+02  0.51100000000E-03 0.  1.
        -12    1    3    3    0    0  0.56098413459E+01 -0.20103029659E+02 -0.29003860254E+02  0.35732702543E+02  0.00000000000E+00 0.  1.
</event>
<event>
 7    1  0.6316620E-012  0.5930193E+02  0.7816164E-02  0.1266605E+00
        -11   -1    0    0    0    0  0.00000000000E+00  0.00000000000E+00  0.45593999997E+02  0.45594000000E+02  0.51100000000E-03 0. -1.
         11   -1    0    0    0    0 -0.00000000000E+00 -0.00000000000E+00 -0.45593999997E+02  0.45594000000E+02  0.51100000000E-03 0.  1.
    9900012    2    1    2    0    0  0.20148433102E+02  0.41485245207E+01 -0.24362917451E+02  0.59301931586E+02  0.49999977309E+02 0.  0.
         12    1    1    2    0    0 -0.20148433102E+02 -0.41485245207E+01  0.24362917451E+02  0.31886068414E+02  0.00000000000E+00 0. -1.
         11    1    3    3    0    0 -0.82496567295E+01  0.18724529968E+01  0.64372579152E+01  0.10630202543E+02  0.51100000000E-03 0. -1.
        -11    1    3    3    0    0  0.10758909170E+02  0.12972349702E+02 -0.11347035313E+02  0.20317263447E+02  0.51100000000E-03 0.  1.
         12    1    3    3    0    0  0.17639180662E+02 -0.10696278178E+02 -0.19453140053E+02  0.28354465596E+02  0.00000000000E+00 0. -1.
</event>
<event>
 7    1  0.6316620E-012  0.5930198E+02  0.7816164E-02  0.1266605E+00
        -11   -1    0    0    0    0  0.00000000000E+00  0.00000000000E+00  0.45593999997E+02  0.45594000000E+02  0.51100000000E-03 0.  1.
         11   -1    0    0    0    0 -0.00000000000E+00 -0.00000000000E+00 -0.45593999997E+02  0.45594000000E+02  0.51100000000E-03 0. -1.
    9900012    2    1    2    0    0  0.24368375092E+02  0.13831731300E+02  0.15217873853E+02  0.59301981434E+02  0.50000068220E+02 0.  0.
         12    1    1    2    0    0 -0.24368375092E+02 -0.13831731300E+02 -0.15217873853E+02  0.31886018566E+02  0.00000000000E+00 0. -1.
         11    1    3    3    0    0  0.14935513724E+02  0.54409938198E+01  0.23059059270E+02  0.28007038377E+02  0.51100000000E-03 0. -1.
        -11    1    3    3    0    0 -0.14128041485E+01 -0.16659915649E+01  0.87788491312E+01  0.90465316993E+01  0.51100000000E-03 0.  1.
        -12    1    3    3    0    0  0.10845665517E+02  0.10056729045E+02 -0.16620034548E+02  0.22248411358E+02  0.00000000000E+00 0.  1.
</event>
<event>
 7    1  0.6316620E-012  0.5930193E+02  0.7816164E-02  0.1266605E+00
        -11   -1    0    0    0    0  0.00000000000E+00  0.00000000000E+00  0.45593999997E+02  0.45594000000E+02  0.51100000000E-03 0.  1.
         11   -1    0    0    0    0 -0.00000000000E+00 -0.00000000000E+00 -0.45593999997E+02  0.45594000000E+02  0.51100000000E-03 0. -1.
    9900012    2    1    2    0    0 -0.28424955586E+02 -0.11394859328E+02  0.88826088677E+01  0.59301926873E+02  0.49999968713E+02 0.  0.
         12    1    1    2    0    0  0.28424955586E+02  0.11394859328E+02 -0.88826088677E+01  0.31886073127E+02  0.00000000000E+00 0. -1.
         11    1    3    3    0    0 -0.26641882714E+02 -0.12155249843E+01 -0.22809798152E+01  0.26766962561E+02  0.51100000000E-03 0. -1.
        -11    1    3    3    0    0 -0.14139168480E+02 -0.10768966230E+02  0.39211398405E+01  0.18200605949E+02  0.51100000000E-03 0.  1.
         12    1    3    3    0    0  0.12356095609E+02  0.58963188619E+00  0.72424488424E+01  0.14334358363E+02  0.00000000000E+00 0. -1.
</event>
<event>
 7    1  0.6316620E-012  0.5930192E+02  0.7816164E-02  0.1266605E+00
        -11   -1    0    0    0    0  0.00000000000E+00  0.00000000000E+00  0.45593999997E+02  0.45594000000E+02  0.51100000000E-03 0. -1.
         11   -1    0    0    0    0 -0.00000000000E+00 -0.00000000000E+00 -0.45593999997E+02  0.45594000000E+02  0.51100000000E-03 0.  1.
    9900012    2    1    2    0    0 -0.10294095637E+02 -0.10806522204E+02  0.28177525503E+02  0.59301917290E+02  0.49999951236E+02 0.  0.
         12    1    1    2    0    0  0.10294095637E+02  0.10806522204E+02 -0.28177525503E+02  0.31886082710E+02  0.00000000000E+00 0. -1.
         11    1    3    3    0    0 -0.94306635579E+00  0.10842892997E+02  0.24358636046E+02  0.26679596192E+02  0.51100000000E-03 0. -1.
        -11    1    3    3    0    0 -0.35923914664E+01 -0.26004095028E+01 -0.82369746697E+01  0.93549536610E+01  0.51100000000E-03 0.  1.
         12    1    3    3    0    0 -0.57586378151E+01 -0.19049005698E+02  0.12055864126E+02  0.23267367436E+02  0.00000000000E+00 0. -1.
</event>
<event>
 7    1  0.6316620E-012  0.5930194E+02  0.7816164E-02  0.1266605E+00
        -11   -1    0    0    0    0  0.00000000000E+00  0.00000000000E+00  0.45593999997E+02  0.45594000000E+02  0.51100000000E-03 0. -1.
         11   -1    0    0    0    0 -0.00000000000E+00 -0.00000000000E+00 -0.45593999997E+02  0.45594000000E+02  0.51100000000E-03 0.  1.
    9900012    2    1    2    0    0  0.30204750215E+02 -0.83874621293E+01  0.58347560237E+01  0.59301939811E+02  0.49999992310E+02 0.  0.
         12    1    1    2    0    0 -0.30204750215E+02  0.83874621293E+01 -0.58347560237E+01  0.31886060189E+02  0.00000000000E+00 0. -1.
         11    1    3    3    0    0  0.16201571312E+02 -0.52939214996E+01 -0.26447071112E+01  0.17248507001E+02  0.51100000000E-03 0. -1.
        -11    1    3    3    0    0  0.44609035899E+01 -0.11915315352E+02 -0.12201691606E+02  0.17628263644E+02  0.51100000000E-03 0.  1.
        -12    1    3    3    0    0  0.95422753130E+01  0.88217747228E+01  0.20681154741E+02  0.24425169166E+02  0.00000000000E+00 0.  1.
</event>
<event>
 7    1  0.6316620E-012  0.5930195E+02  0.7816164E-02  0.1266605E+00
        -11   -1    0    0    0    0  0.00000000000E+00  0.00000000000E+00  0.45593999997E+02  0.45594000000E+02  0.51100000000E-03 0.  1.
         11   -1    0    0    0    0 -0.00000000000E+00 -0.00000000000E+00 -0.45593999997E+02  0.45594000000E+02  0.51100000000E-03 0. -1.
    9900012    2    1    2    0    0 -0.27475133215E+02  0.84449778899E+01  0.13802883821E+02  0.59301949781E+02  0.50000010493E+02 0.  0.
         12    1    1    2    0    0  0.27475133215E+02 -0.84449778899E+01 -0.13802883821E+02  0.31886050219E+02  0.00000000000E+00 0. -1.
         11    1    3    3    0    0 -0.31161784936E+01 -0.23886939761E+01  0.26975319978E+02  0.27259572915E+02  0.51100000000E-03 0. -1.
        -11    1    3    3    0    0 -0.25394948816E+01  0.12816117496E+01 -0.68225212604E+01  0.73917764807E+01  0.51100000000E-03 0.  1.
        -12    1    3    3    0    0 -0.21819459840E+02  0.95520601164E+01 -0.63499148966E+01  0.24650600386E+02  0.00000000000E+00 0.  1.
</event>
<event>
 7    1  0.6316620E-012  0.5930194E+02  0.7816164E-02  0.1266605E+00
        -11   -1    0    0    0    0  0.00000000000E+00  0.00000000000E+00  0.45593999997E+02  0.45594000000E+02  0.51100000000E-03 0.  1.
         11   -1    0    0    0    0 -0.00000000000E+00 -0.00000000000E+00 -0.45593999997E+02  0.45594000000E+02  0.51100000000E-03 0. -1.
    9900012    2    1    2    0    0 -0.48735012226E+01  0.29528943823E+02  0.11000521937E+02  0.59301936895E+02  0.49999986992E+02 0.  0.
         12    1    1    2    0    0  0.48735012226E+01 -0.29528943823E+02 -0.11000521937E+02  0.31886063105E+02  0.00000000000E+00 0. -1.
         11    1    3    3    0    0  0.82988810978E+00  0.32759889201E+02  0.90958403032E+01  0.34009312928E+02  0.51100000000E-03 0. -1.
        -11    1    3    3    0    0 -0.53928464969E+01  0.28506317116E+01 -0.10118688912E+02  0.11815107281E+02  0.51100000000E-03 0.  1.
        -12    1    3    3    0    0 -0.31054283548E+00 -0.60815770897E+01  0.12023370546E+02  0.13477516686E+02  0.00000000000E+00 0.  1.
</event>
<event>
 7    1  0.6316620E-012  0.5930200E+02  0.7816164E-02  0.1266605E+00
        -11   -1    0    0    0    0  0.00000000000E+00  0.00000000000E+00  0.45593999997E+02  0.45594000000E+02  0.51100000000E-03 0.  1.
         11   -1    0    0    0    0 -0.00000000000E+00 -0.00000000000E+00 -0.45593999997E+02  0.45594000000E+02  0.51100000000E-03 0. -1.
    9900012    2    1    2    0    0  0.25278407051E+02  0.18944872984E+02  0.43371686020E+01  0.59301998261E+02  0.50000098909E+02 0.  0.
         12    1    1    2    0    0 -0.25278407051E+02 -0.18944872984E+02 -0.43371686020E+01  0.31886001739E+02  0.00000000000E+00 0. -1.
         11    1    3    3    0    0  0.56754494832E+01 -0.49140012406E+01  0.79329104876E+01  0.10921959719E+02  0.51100000000E-03 0. -1.
        -11    1    3    3    0    0  0.27462964734E+02  0.77485334631E+01  0.41819333381E+01  0.28839950928E+02  0.51100000000E-03 0.  1.
         12    1    3    3    0    0 -0.78600071666E+01  0.16110340762E+02 -0.77776752237E+01  0.19540087615E+02  0.00000000000E+00 0. -1.
</event>
<event>
 7    1  0.6316620E-012  0.5930191E+02  0.7816164E-02  0.1266605E+00
        -11   -1    0    0    0    0  0.00000000000E+00  0.00000000000E+00  0.45593999997E+02  0.45594000000E+02  0.51100000000E-03 0. -1.
         11   -1    0    0    0    0 -0.00000000000E+00 -0.00000000000E+00 -0.45593999997E+02  0.45594000000E+02  0.51100000000E-03 0.  1.
    9900012    2    1    2    0    0 -0.18585947641E+01 -0.23674303664E+02  0.21278996674E+02  0.59301910118E+02  0.49999938158E+02 0.  0.
         12    1    1    2    0    0  0.18585947641E+01  0.23674303664E+02 -0.21278996674E+02  0.31886089882E+02  0.00000000000E+00 0. -1.
         11    1    3    3    0    0  0.10708315548E+02  0.66656586945E+01  0.11841230379E+02  0.17300686832E+02  0.51100000000E-03 0. -1.
        -11    1    3    3    0    0  0.51622050589E+01 -0.12303066087E+01 -0.25280424569E+01  0.58781812107E+01  0.51100000000E-03 0.  1.
         12    1    3    3    0    0 -0.17729115371E+02 -0.29109655750E+02  0.11965808753E+02  0.36123042076E+02  0.00000000000E+00 0. -1.
</event>
<event>
 7    1  0.6316620E-012  0.5930193E+02  0.7816164E-02  0.1266605E+00
        -11   -1    0    0    0    0  0.00000000000E+00  0.00000000000E+00  0.45593999997E+02  0.45594000000E+02  0.51100000000E-03 0.  1.
         11   -1    0    0    0    0 -0.00000000000E+00 -0.00000000000E+00 -0.45593999997E+02  0.45594000000E+02  0.51100000000E-03 0. -1.
    9900012    2    1    2    0    0 -0.11451532220E+02  0.25782471137E+02  0.14860948813E+02  0.59301933957E+02  0.49999981633E+02 0.  0.
         12    1    1    2    0    0  0.11451532220E+02 -0.25782471137E+02 -0.14860948813E+02  0.31886066043E+02  0.00000000000E+00 0. -1.
         11    1    3    3    0    0  0.10807005596E+02  0.12004275906E+02  0.21076090384E+02  0.26553636213E+02  0.51100000000E-03 0. -1.
        -11    1    3    3    0    0 -0.74306320158E+01 -0.44405484334E+01 -0.13809915787E+01  0.87658371275E+01  0.51100000000E-03 0.  1.
        -12    1    3    3    0    0 -0.14827905800E+02  0.18218743664E+02 -0.48341499919E+01  0.23982460617E+02  0.00000000000E+00 0.  1.
</event>
<event>
 7    1  0.6316620E-012  0.5930194E+02  0.7816164E-02  0.1266605E+00
        -11   -1    0    0    0    0  0.00000000000E+00  0.00000000000E+00  0.45593999997E+02  0.45594000000E+02  0.51100000000E-03 0. -1.
         11   -1    0    0    0    0 -0.00000000000E+00 -0.00000000000E+00 -0.45593999997E+02  0.45594000000E+02  0.51100000000E-03 0.  1.
    9900012    2    1    2    0    0 -0.31171173254E+02  0.23580041253E+01 -0.62863687044E+01  0.59301942593E+02  0.49999997383E+02 0.  0.
         12    1    1    2    0    0  0.31171173254E+02 -0.23580041253E+01  0.62863687044E+01  0.31886057407E+02  0.00000000000E+00 0. -1.
         11    1    3    3    0    0 -0.99315972932E+00 -0.21634618560E+01 -0.15141987931E+02  0.15327972214E+02  0.51100000000E-03 0. -1.
        -11    1    3    3    0    0 -0.90496858886E+01 -0.11537271074E+02  0.94223673749E+01  0.17429470609E+02  0.51100000000E-03 0.  1.
        -12    1    3    3    0    0 -0.21128327636E+02  0.16058737055E+02 -0.56674814871E+00  0.26544499769E+02  0.00000000000E+00 0.  1.
</event>
<event>
 7    1  0.6316620E-012  0.5930194E+02  0.7816164E-02  0.1266605E+00
        -11   -1    0    0    0    0  0.00000000000E+00  0.00000000000E+00  0.45593999997E+02  0.45594000000E+02  0.51100000000E-03 0.  1.
         11   -1    0    0    0    0 -0.00000000000E+00 -0.00000000000E+00 -0.45593999997E+02  0.45594000000E+02  0.51100000000E-03 0. -1.
    9900012    2    1    2    0    0 -0.18927070552E+02  0.83809287293E+01  0.24253798557E+02  0.59301941754E+02  0.49999995853E+02 0.  0.
         12    1    1    2    0    0  0.18927070552E+02 -0.83809287293E+01 -0.24253798557E+02  0.31886058246E+02  0.00000000000E+00 0. -1.
         11    1    3    3    0    0 -0.33571392110E+01 -0.71946233915E+01  0.46369979184E+01  0.91942775347E+01  0.51100000000E-03 0. -1.
        -11    1    3    3    0    0 -0.16059341024E+02  0.12966212076E+02  0.31649742768E+02  0.37785331907E+02  0.51100000000E-03 0.  1.
         12    1    3    3    0    0  0.48940968311E+00  0.26093400444E+01 -0.12032942130E+02  0.12322332312E+02  0.00000000000E+00 0. -1.
</event>
<event>
 7    1  0.6316620E-012  0.5930196E+02  0.7816164E-02  0.1266605E+00
        -11   -1    0    0    0    0  0.00000000000E+00  0.00000000000E+00  0.45593999997E+02  0.45594000000E+02  0.51100000000E-03 0.  1.
         11   -1    0    0    0    0 -0.00000000000E+00 -0.00000000000E+00 -0.45593999997E+02  0.45594000000E+02  0.51100000000E-03 0. -1.
    9900012    2    1    2    0    0 -0.97097875907E+01 -0.20991971779E+02  0.21949416850E+02  0.59301956748E+02  0.50000023199E+02 0.  0.
         12    1    1    2    0    0  0.97097875907E+01  0.20991971779E+02 -0.21949416850E+02  0.31886043252E+02  0.00000000000E+00 0. -1.
         11    1    3    3    0    0  0.25732942408E+01 -0.95097874999E+01 -0.10466722460E+01  0.99072410183E+01  0.51100000000E-03 0.  1.
        -11    1    3    3    0    0 -0.73923732761E+01 -0.68059032529E+01 -0.10902874765E+02  0.14827008469E+02  0.51100000000E-03 0. -1.
         12    1    3    3    0    0 -0.48907085555E+01 -0.46762810260E+01  0.33898963861E+02  0.34567707261E+02  0.00000000000E+00 0. -1.
</event>
<event>
 7    1  0.6316620E-012  0.5930196E+02  0.7816164E-02  0.1266605E+00
        -11   -1    0    0    0    0  0.00000000000E+00  0.00000000000E+00  0.45593999997E+02  0.45594000000E+02  0.51100000000E-03 0.  1.
         11   -1    0    0    0    0 -0.00000000000E+00 -0.00000000000E+00 -0.45593999997E+02  0.45594000000E+02  0.51100000000E-03 0. -1.
    9900012    2    1    2    0    0  0.17494983961E+02 -0.26165082462E+02  0.51023204116E+01  0.59301957950E+02  0.50000025392E+02 0.  0.
         12    1    1    2    0    0 -0.17494983961E+02  0.26165082462E+02 -0.51023204116E+01  0.31886042050E+02  0.00000000000E+00 0. -1.
         11    1    3    3    0    0  0.65910153378E+01 -0.17776988150E+02  0.10498520545E+02  0.21672141675E+02  0.51100000000E-03 0.  1.
        -11    1    3    3    0    0 -0.10554571078E+02  0.45916710843E+01  0.15321917553E+01  0.11611633211E+02  0.51100000000E-03 0. -1.
        -12    1    3    3    0    0  0.21458539701E+02 -0.12979765395E+02 -0.69283918888E+01  0.26018183065E+02  0.00000000000E+00 0.  1.
</event>
<event>
 7    1  0.6316620E-012  0.5930194E+02  0.7816164E-02  0.1266605E+00
        -11   -1    0    0    0    0  0.00000000000E+00  0.00000000000E+00  0.45593999997E+02  0.45594000000E+02  0.51100000000E-03 0.  1.
         11   -1    0    0    0    0 -0.00000000000E+00 -0.00000000000E+00 -0.45593999997E+02  0.45594000000E+02  0.51100000000E-03 0. -1.
    9900012    2    1    2    0    0  0.84806428249E+01  0.14999906945E+02  0.26829134544E+02  0.59301937661E+02  0.49999988389E+02 0.  0.
         12    1    1    2    0    0 -0.84806428249E+01 -0.14999906945E+02 -0.26829134544E+02  0.31886062339E+02  0.00000000000E+00 0. -1.
         11    1    3    3    0    0  0.46623492354E+01 -0.10536618788E+02 -0.48368877430E+01  0.12496132168E+02  0.51100000000E-03 0. -1.
        -11    1    3    3    0    0  0.47696243991E+01 -0.68844839013E+00  0.14912121677E+02  0.15671459769E+02  0.51100000000E-03 0.  1.
        -12    1    3    3    0    0 -0.95133080962E+00  0.26224974123E+02  0.16753900609E+02  0.31134345725E+02  0.00000000000E+00 0.  1.
</event>
<event>
 7    1  0.6316620E-012  0.5930195E+02  0.7816164E-02  0.1266605E+00
        -11   -1    0    0    0    0  0.00000000000E+00  0.00000000000E+00  0.45593999997E+02  0.45594000000E+02  0.51100000000E-03 0.  1.
         11   -1    0    0    0    0 -0.00000000000E+00 -0.00000000000E+00 -0.45593999997E+02  0.45594000000E+02  0.51100000000E-03 0. -1.
    9900012    2    1    2    0    0 -0.30297207419E+02 -0.75543705946E+01 -0.64599549743E+01  0.59301948022E+02  0.50000007285E+02 0.  0.
         12    1    1    2    0    0  0.30297207419E+02  0.75543705946E+01  0.64599549743E+01  0.31886051978E+02  0.00000000000E+00 0. -1.
         11    1    3    3    0    0 -0.24250710586E+01  0.10889113106E+02  0.87878255015E+01  0.14201395395E+02  0.51100000000E-03 0. -1.
        -11    1    3    3    0    0 -0.12635574908E+01  0.47581353617E+01  0.25722795595E+01  0.55545523713E+01  0.51100000000E-03 0.  1.
         12    1    3    3    0    0 -0.26608578870E+02 -0.23201619062E+02 -0.17820060035E+02  0.39546000256E+02  0.00000000000E+00 0. -1.
</event>
<event>
 7    1  0.6316620E-012  0.5930195E+02  0.7816164E-02  0.1266605E+00
        -11   -1    0    0    0    0  0.00000000000E+00  0.00000000000E+00  0.45593999997E+02  0.45594000000E+02  0.51100000000E-03 0.  1.
         11   -1    0    0    0    0 -0.00000000000E+00 -0.00000000000E+00 -0.45593999997E+02  0.45594000000E+02  0.51100000000E-03 0. -1.
    9900012    2    1    2    0    0 -0.15545226743E+02  0.46245357519E+01  0.27453226326E+02  0.59301952250E+02  0.50000014996E+02 0.  0.
         12    1    1    2    0    0  0.15545226743E+02 -0.46245357519E+01 -0.27453226326E+02  0.31886047750E+02  0.00000000000E+00 0. -1.
         11    1    3    3    0    0  0.18159585832E+01 -0.35524288171E+01 -0.53749341862E+01  0.66938310289E+01  0.51100000000E-03 0. -1.
        -11    1    3    3    0    0 -0.52746896974E+01  0.83697522727E+01 -0.62506957624E+01  0.11702405833E+02  0.51100000000E-03 0.  1.
        -12    1    3    3    0    0 -0.12086495629E+02 -0.19278770374E+00  0.39078856275E+02  0.40905715388E+02  0.00000000000E+00 0.  1.
</event>
<event>
 7    1  0.6316620E-012  0.5930193E+02  0.7816164E-02  0.1266605E+00
        -11   -1    0    0    0    0  0.00000000000E+00  0.00000000000E+00  0.45593999997E+02  0.45594000000E+02  0.51100000000E-03 0.  1.
         11   -1    0    0    0    0 -0.00000000000E+00 -0.00000000000E+00 -0.45593999997E+02  0.45594000000E+02  0.51100000000E-03 0. -1.
    9900012    2    1    2    0    0 -0.30054827309E+01 -0.22996926402E+02  0.21882180073E+02  0.59301931646E+02  0.49999977418E+02 0.  0.
         12    1    1    2    0    0  0.30054827309E+01  0.22996926402E+02 -0.21882180073E+02  0.31886068354E+02  0.00000000000E+00 0. -1.
         11    1    3    3    0    0 -0.72711803093E+01 -0.10422792225E+01  0.10219006095E+02  0.12585090182E+02  0.51100000000E-03 0. -1.
        -11    1    3    3    0    0  0.42991338718E+01 -0.20117695001E+02  0.25497152868E+02  0.32761395099E+02  0.51100000000E-03 0.  1.
         12    1    3    3    0    0 -0.33436293328E-01 -0.18369521782E+01 -0.13833978890E+02  0.13955446364E+02  0.00000000000E+00 0. -1.
</event>
<event>
 7    1  0.6316620E-012  0.5930188E+02  0.7816164E-02  0.1266605E+00
        -11   -1    0    0    0    0  0.00000000000E+00  0.00000000000E+00  0.45593999997E+02  0.45594000000E+02  0.51100000000E-03 0.  1.
         11   -1    0    0    0    0 -0.00000000000E+00 -0.00000000000E+00 -0.45593999997E+02  0.45594000000E+02  0.51100000000E-03 0. -1.
    9900012    2    1    2    0    0  0.14763267751E+02  0.24405738863E+02  0.14252388505E+02  0.59301878533E+02  0.49999880552E+02 0.  0.
         12    1    1    2    0    0 -0.14763267751E+02 -0.24405738863E+02 -0.14252388505E+02  0.31886121467E+02  0.00000000000E+00 0. -1.
         11    1    3    3    0    0  0.50865538151E+01 -0.28334763926E+01  0.31186243455E+01  0.66051068312E+01  0.51100000000E-03 0. -1.
        -11    1    3    3    0    0  0.15754405249E+02 -0.56769840942E+01  0.93435881534E+01  0.19176341491E+02  0.51100000000E-03 0.  1.
        -12    1    3    3    0    0 -0.60776913130E+01  0.32916199350E+02  0.17901760061E+01  0.33520430210E+02  0.00000000000E+00 0.  1.
</event>
<event>
 7    1  0.6316620E-012  0.5930196E+02  0.7816164E-02  0.1266605E+00
        -11   -1    0    0    0    0  0.00000000000E+00  0.00000000000E+00  0.45593999997E+02  0.45594000000E+02  0.51100000000E-03 0. -1.
         11   -1    0    0    0    0 -0.00000000000E+00 -0.00000000000E+00 -0.45593999997E+02  0.45594000000E+02  0.51100000000E-03 0.  1.
    9900012    2    1    2    0    0  0.14135187005E+02  0.59420903770E+01 -0.27957242015E+02  0.59301963388E+02  0.50000035309E+02 0.  0.
         12    1    1    2    0    0 -0.14135187005E+02 -0.59420903770E+01  0.27957242015E+02  0.31886036612E+02  0.00000000000E+00 0. -1.
         11    1    3    3    0    0 -0.11421696496E+01  0.11610984008E+02 -0.16857094673E+02  0.20500759552E+02  0.51100000000E-03 0.  1.
        -11    1    3    3    0    0 -0.41511995824E+01  0.51811501528E+01  0.73427152280E+01  0.98991030937E+01  0.51100000000E-03 0. -1.
         12    1    3    3    0    0  0.19428556237E+02 -0.10850043783E+02 -0.18442862570E+02  0.28902100743E+02  0.00000000000E+00 0. -1.
</event>
<event>
 7    1  0.6316620E-012  0.5930193E+02  0.7816164E-02  0.1266605E+00
        -11   -1    0    0    0    0  0.00000000000E+00  0.00000000000E+00  0.45593999997E+02  0.45594000000E+02  0.51100000000E-03 0.  1.
         11   -1    0    0    0    0 -0.00000000000E+00 -0.00000000000E+00 -0.45593999997E+02  0.45594000000E+02  0.51100000000E-03 0. -1.
    9900012    2    1    2    0    0  0.58685396903E+01  0.31330405568E+02 -0.82924593126E+00  0.59301925925E+02  0.49999966984E+02 0.  0.
         12    1    1    2    0    0 -0.58685396903E+01 -0.31330405568E+02  0.82924593126E+00  0.31886074075E+02  0.00000000000E+00 0. -1.
         11    1    3    3    0    0  0.14429840086E+02 -0.30102857094E+01 -0.53076808553E+00  0.14750044745E+02  0.51100000000E-03 0.  1.
        -11    1    3    3    0    0 -0.36895780693E+01 -0.22776103546E+01 -0.57597913656E+01  0.72094169038E+01  0.51100000000E-03 0. -1.
        -12    1    3    3    0    0 -0.48717223266E+01  0.36618301632E+02  0.54613135199E+01  0.37342464276E+02  0.00000000000E+00 0.  1.
</event>
<event>
 7    1  0.6316620E-012  0.5930189E+02  0.7816164E-02  0.1266605E+00
        -11   -1    0    0    0    0  0.00000000000E+00  0.00000000000E+00  0.45593999997E+02  0.45594000000E+02  0.51100000000E-03 0.  1.
         11   -1    0    0    0    0 -0.00000000000E+00 -0.00000000000E+00 -0.45593999997E+02  0.45594000000E+02  0.51100000000E-03 0. -1.
    9900012    2    1    2    0    0  0.11861695700E+02 -0.13159748148E+02  0.26511223509E+02  0.59301893808E+02  0.49999908410E+02 0.  0.
         12    1    1    2    0    0 -0.11861695700E+02  0.13159748148E+02 -0.26511223509E+02  0.31886106192E+02  0.00000000000E+00 0. -1.
         11    1    3    3    0    0  0.74257720711E+01  0.97818238712E+01  0.15637688430E+02  0.19883748861E+02  0.51100000000E-03 0. -1.
        -11    1    3    3    0    0 -0.22460836953E+01 -0.38431990574E+00 -0.85883272209E+01  0.88854914591E+01  0.51100000000E-03 0.  1.
        -12    1    3    3    0    0  0.66820073244E+01 -0.22557252113E+02  0.19461862300E+02  0.30532653487E+02  0.00000000000E+00 0.  1.
</event>
<event>
 7    1  0.6316620E-012  0.5930194E+02  0.7816164E-02  0.1266605E+00
        -11   -1    0    0    0    0  0.00000000000E+00  0.00000000000E+00  0.45593999997E+02  0.45594000000E+02  0.51100000000E-03 0. -1.
         11   -1    0    0    0    0 -0.00000000000E+00 -0.00000000000E+00 -0.45593999997E+02  0.45594000000E+02  0.51100000000E-03 0.  1.
    9900012    2    1    2    0    0  0.21990056212E+02 -0.12287464987E+02 -0.19549333939E+02  0.59301939950E+02  0.49999992564E+02 0.  0.
         12    1    1    2    0    0 -0.21990056212E+02  0.12287464987E+02  0.19549333939E+02  0.31886060050E+02  0.00000000000E+00 0. -1.
         11    1    3    3    0    0 -0.79672333975E+00  0.48214989396E+01  0.34715805548E+01  0.59944550974E+01  0.51100000000E-03 0. -1.
        -11    1    3    3    0    0  0.10880267546E+02  0.75357858268E+00  0.94171284039E+01  0.14409386184E+02  0.51100000000E-03 0.  1.
        -12    1    3    3    0    0  0.11906512006E+02 -0.17862542509E+02 -0.32438042898E+02  0.38898098669E+02  0.00000000000E+00 0.  1.
</event>
<event>
 7    1  0.6316620E-012  0.5930173E+02  0.7816164E-02  0.1266605E+00
        -11   -1    0    0    0    0  0.00000000000E+00  0.00000000000E+00  0.45593999997E+02  0.45594000000E+02  0.51100000000E-03 0. -1.
         11   -1    0    0    0    0 -0.00000000000E+00 -0.00000000000E+00 -0.45593999997E+02  0.45594000000E+02  0.51100000000E-03 0.  1.
    9900012    2    1    2    0    0  0.29675819824E+02 -0.91685674912E+01 -0.72122955436E+01  0.59301731497E+02  0.49999612393E+02 0.  0.
         12    1    1    2    0    0 -0.29675819824E+02  0.91685674912E+01  0.72122955436E+01  0.31886268503E+02  0.00000000000E+00 0. -1.
         11    1    3    3    0    0 -0.37104366570E+01 -0.89994199095E+01  0.47537159285E+01  0.10833038091E+02  0.51100000000E-03 0. -1.
        -11    1    3    3    0    0  0.50550730669E+00 -0.11716281387E+02 -0.34319725352E+00  0.11732202341E+02  0.51100000000E-03 0.  1.
        -12    1    3    3    0    0  0.32880749174E+02  0.11547133805E+02 -0.11622814219E+02  0.36736491064E+02  0.00000000000E+00 0.  1.
</event>
<event>
 7    1  0.6316620E-012  0.5930195E+02  0.7816164E-02  0.1266605E+00
        -11   -1    0    0    0    0  0.00000000000E+00  0.00000000000E+00  0.45593999997E+02  0.45594000000E+02  0.51100000000E-03 0.  1.
         11   -1    0    0    0    0 -0.00000000000E+00 -0.00000000000E+00 -0.45593999997E+02  0.45594000000E+02  0.51100000000E-03 0. -1.
    9900012    2    1    2    0    0  0.15113297507E+02  0.12086069283E+02  0.25342366223E+02  0.59301947281E+02  0.50000005933E+02 0.  0.
         12    1    1    2    0    0 -0.15113297507E+02 -0.12086069283E+02 -0.25342366223E+02  0.31886052719E+02  0.00000000000E+00 0. -1.
         11    1    3    3    0    0  0.29394097957E+01  0.29377038594E+00  0.88665499262E+01  0.93457016238E+01  0.51100000000E-03 0. -1.
        -11    1    3    3    0    0  0.25580876849E+02  0.13228328849E+02  0.21100460167E+02  0.35701531676E+02  0.51100000000E-03 0.  1.
         12    1    3    3    0    0 -0.13406989138E+02 -0.14360299516E+01 -0.46246438703E+01  0.14254713982E+02  0.00000000000E+00 0. -1.
</event>
<event>
 7    1  0.6316620E-012  0.5930194E+02  0.7816164E-02  0.1266605E+00
        -11   -1    0    0    0    0  0.00000000000E+00  0.00000000000E+00  0.45593999997E+02  0.45594000000E+02  0.51100000000E-03 0.  1.
         11   -1    0    0    0    0 -0.00000000000E+00 -0.00000000000E+00 -0.45593999997E+02  0.45594000000E+02  0.51100000000E-03 0. -1.
    9900012    2    1    2    0    0 -0.11653360253E+02  0.29667739883E+02  0.86311599870E+00  0.59301944047E+02  0.50000000036E+02 0.  0.
         12    1    1    2    0    0  0.11653360253E+02 -0.29667739883E+02 -0.86311599870E+00  0.31886055953E+02  0.00000000000E+00 0. -1.
         11    1    3    3    0    0  0.35002996049E+01  0.37352710684E+01 -0.18587115814E+02  0.19279139551E+02  0.51100000000E-03 0. -1.
        -11    1    3    3    0    0 -0.86862520915E+01  0.14344079491E+02  0.36003240529E+00  0.16772990653E+02  0.51100000000E-03 0.  1.
         12    1    3    3    0    0 -0.64674077667E+01  0.11588389324E+02  0.19090199408E+02  0.23249813844E+02  0.00000000000E+00 0. -1.
</event>
<event>
 7    1  0.6316620E-012  0.5930194E+02  0.7816164E-02  0.1266605E+00
        -11   -1    0    0    0    0  0.00000000000E+00  0.00000000000E+00  0.45593999997E+02  0.45594000000E+02  0.51100000000E-03 0.  1.
         11   -1    0    0    0    0 -0.00000000000E+00 -0.00000000000E+00 -0.45593999997E+02  0.45594000000E+02  0.51100000000E-03 0. -1.
    9900012    2    1    2    0    0 -0.10544352070E+02  0.24360376206E+02 -0.17666629834E+02  0.59301935659E+02  0.49999984737E+02 0.  0.
         12    1    1    2    0    0  0.10544352070E+02 -0.24360376206E+02  0.17666629834E+02  0.31886064341E+02  0.00000000000E+00 0. -1.
         11    1    3    3    0    0 -0.48597106217E+00  0.33542111908E+02 -0.10690019347E+02  0.35207754161E+02  0.51100000000E-03 0. -1.
        -11    1    3    3    0    0  0.42769228889E+01 -0.73541708082E+01 -0.36936590858E+01  0.92746436792E+01  0.51100000000E-03 0.  1.
        -12    1    3    3    0    0 -0.14335303897E+02 -0.18275648938E+01 -0.32829514010E+01  0.14819537819E+02  0.00000000000E+00 0.  1.
</event>
<event>
 7    1  0.6316620E-012  0.5930194E+02  0.7816164E-02  0.1266605E+00
        -11   -1    0    0    0    0  0.00000000000E+00  0.00000000000E+00  0.45593999997E+02  0.45594000000E+02  0.51100000000E-03 0. -1.
         11   -1    0    0    0    0 -0.00000000000E+00 -0.00000000000E+00 -0.45593999997E+02  0.45594000000E+02  0.51100000000E-03 0.  1.
    9900012    2    1    2    0    0  0.27951199445E+02  0.11605266614E+02 -0.10038368135E+02  0.59301943511E+02  0.49999999058E+02 0.  0.
         12    1    1    2    0    0 -0.27951199445E+02 -0.11605266614E+02  0.10038368135E+02  0.31886056489E+02  0.00000000000E+00 0. -1.
         11    1    3    3    0    0  0.76522095851E+01  0.18146515500E+02  0.12558474803E+00  0.19694367421E+02  0.51100000000E-03 0. -1.
        -11    1    3    3    0    0  0.20459708865E+02  0.80776095983E+01 -0.11687372657E+02  0.24908676070E+02  0.51100000000E-03 0.  1.
        -12    1    3    3    0    0 -0.16071900485E+00 -0.14618858485E+02  0.15234197740E+01  0.14698900020E+02  0.00000000000E+00 0.  1.
</event>
<event>
 7    1  0.6316620E-012  0.5930197E+02  0.7816164E-02  0.1266605E+00
        -11   -1    0    0    0    0  0.00000000000E+00  0.00000000000E+00  0.45593999997E+02  0.45594000000E+02  0.51100000000E-03 0. -1.
         11   -1    0    0    0    0 -0.00000000000E+00 -0.00000000000E+00 -0.45593999997E+02  0.45594000000E+02  0.51100000000E-03 0.  1.
    9900012    2    1    2    0    0 -0.10771569382E+01  0.14773909166E+02  0.28236329279E+02  0.59301969355E+02  0.50000046191E+02 0.  0.
         12    1    1    2    0    0  0.10771569382E+01 -0.14773909166E+02 -0.28236329279E+02  0.31886030645E+02  0.00000000000E+00 0. -1.
         11    1    3    3    0    0 -0.48696083642E+01 -0.63080097900E+01  0.12082484867E+02  0.14473787133E+02  0.51100000000E-03 0. -1.
        -11    1    3    3    0    0  0.17323298235E+02  0.16147024129E+02  0.18734543026E+02  0.30196128106E+02  0.51100000000E-03 0.  1.
         12    1    3    3    0    0 -0.13530846809E+02  0.49348948276E+01 -0.25806986142E+01  0.14632054116E+02  0.00000000000E+00 0. -1.
</event>
<event>
 7    1  0.6316620E-012  0.5930195E+02  0.7816164E-02  0.1266605E+00
        -11   -1    0    0    0    0  0.00000000000E+00  0.00000000000E+00  0.45593999997E+02  0.45594000000E+02  0.51100000000E-03 0.  1.
         11   -1    0    0    0    0 -0.00000000000E+00 -0.00000000000E+00 -0.45593999997E+02  0.45594000000E+02  0.51100000000E-03 0. -1.
    9900012    2    1    2    0    0  0.19355101241E+02  0.17095285099E+02  0.18704312941E+02  0.59301952279E+02  0.50000015048E+02 0.  0.
         12    1    1    2    0    0 -0.19355101241E+02 -0.17095285099E+02 -0.18704312941E+02  0.31886047721E+02  0.00000000000E+00 0. -1.
         11    1    3    3    0    0  0.17151186940E+02  0.11193240895E+02  0.15891719810E+02  0.25922936060E+02  0.51100000000E-03 0. -1.
        -11    1    3    3    0    0  0.60517614330E+01 -0.59680975697E+01  0.14158503775E+02  0.16513789222E+02  0.51100000000E-03 0.  1.
         12    1    3    3    0    0 -0.38478471328E+01  0.11870141774E+02 -0.11345910644E+02  0.16865226997E+02  0.00000000000E+00 0. -1.
</event>
<event>
 7    1  0.6316620E-012  0.5930195E+02  0.7816164E-02  0.1266605E+00
        -11   -1    0    0    0    0  0.00000000000E+00  0.00000000000E+00  0.45593999997E+02  0.45594000000E+02  0.51100000000E-03 0. -1.
         11   -1    0    0    0    0 -0.00000000000E+00 -0.00000000000E+00 -0.45593999997E+02  0.45594000000E+02  0.51100000000E-03 0.  1.
    9900012    2    1    2    0    0 -0.28385332862E+02  0.36226755701E+01 -0.14066602510E+02  0.59301949662E+02  0.50000010276E+02 0.  0.
         12    1    1    2    0    0  0.28385332862E+02 -0.36226755701E+01  0.14066602510E+02  0.31886050338E+02  0.00000000000E+00 0. -1.
         11    1    3    3    0    0  0.20410264432E+01  0.11576527670E+02 -0.80449856591E+01  0.14244422640E+02  0.51100000000E-03 0. -1.
        -11    1    3    3    0    0 -0.19975318824E+02  0.40592657311E+01 -0.16305074073E+02  0.26102613685E+02  0.51100000000E-03 0.  1.
         12    1    3    3    0    0 -0.10451040481E+02 -0.12013117831E+02  0.10283457222E+02  0.18954913337E+02  0.00000000000E+00 0. -1.
</event>
<event>
 7    1  0.6316620E-012  0.5930185E+02  0.7816164E-02  0.1266605E+00
        -11   -1    0    0    0    0  0.00000000000E+00  0.00000000000E+00  0.45593999997E+02  0.45594000000E+02  0.51100000000E-03 0.  1.
         11   -1    0    0    0    0 -0.00000000000E+00 -0.00000000000E+00 -0.45593999997E+02  0.45594000000E+02  0.51100000000E-03 0. -1.
    9900012    2    1    2    0    0 -0.27491627479E+02  0.15285152486E+02  0.52250402690E+01  0.59301850754E+02  0.49999829890E+02 0.  0.
         12    1    1    2    0    0  0.27491627479E+02 -0.15285152486E+02 -0.52250402690E+01  0.31886149246E+02  0.00000000000E+00 0. -1.
         11    1    3    3    0    0 -0.16098263879E+02 -0.69009477078E+01 -0.41957208239E+01  0.18010587238E+02  0.51100000000E-03 0. -1.
        -11    1    3    3    0    0 -0.16233909003E+02  0.26349133443E+02  0.13196648808E+01  0.30976735631E+02  0.51100000000E-03 0.  1.
        -12    1    3    3    0    0  0.48405454027E+01 -0.41630332497E+01  0.81010962121E+01  0.10314527884E+02  0.00000000000E+00 0.  1.
</event>
<event>
 7    1  0.6316620E-012  0.5930191E+02  0.7816164E-02  0.1266605E+00
        -11   -1    0    0    0    0  0.00000000000E+00  0.00000000000E+00  0.45593999997E+02  0.45594000000E+02  0.51100000000E-03 0. -1.
         11   -1    0    0    0    0 -0.00000000000E+00 -0.00000000000E+00 -0.45593999997E+02  0.45594000000E+02  0.51100000000E-03 0.  1.
    9900012    2    1    2    0    0  0.26527514037E+02 -0.17590718811E+02 -0.18922286896E+01  0.59301907127E+02  0.49999932702E+02 0.  0.
         12    1    1    2    0    0 -0.26527514037E+02  0.17590718811E+02  0.18922286896E+01  0.31886092873E+02  0.00000000000E+00 0. -1.
         11    1    3    3    0    0  0.25141906333E+02 -0.15345771684E+02 -0.78736628010E+01  0.30489387150E+02  0.51100000000E-03 0. -1.
        -11    1    3    3    0    0 -0.11919306630E+01  0.11845523015E+02 -0.25008524819E+01  0.12165170677E+02  0.51100000000E-03 0.  1.
        -12    1    3    3    0    0  0.25775383672E+01 -0.14090470142E+02  0.84822865933E+01  0.16647349300E+02  0.00000000000E+00 0.  1.
</event>
<event>
 7    1  0.6316620E-012  0.5930198E+02  0.7816164E-02  0.1266605E+00
        -11   -1    0    0    0    0  0.00000000000E+00  0.00000000000E+00  0.45593999997E+02  0.45594000000E+02  0.51100000000E-03 0. -1.
         11   -1    0    0    0    0 -0.00000000000E+00 -0.00000000000E+00 -0.45593999997E+02  0.45594000000E+02  0.51100000000E-03 0.  1.
    9900012    2    1    2    0    0  0.18841835280E+02  0.18680820730E+02 -0.17684187569E+02  0.59301979398E+02  0.50000064506E+02 0.  0.
         12    1    1    2    0    0 -0.18841835280E+02 -0.18680820730E+02  0.17684187569E+02  0.31886020602E+02  0.00000000000E+00 0. -1.
         11    1    3    3    0    0  0.11109665588E+02  0.26142288619E+02 -0.14241291928E+02  0.31775121082E+02  0.51100000000E-03 0. -1.
        -11    1    3    3    0    0 -0.10547407718E+01  0.36276634848E+01 -0.10898142827E+02  0.11534380686E+02  0.51100000000E-03 0.  1.
         12    1    3    3    0    0  0.87869104645E+01 -0.11089131374E+02  0.74552471868E+01  0.15992477630E+02  0.00000000000E+00 0. -1.
</event>
<event>
 7    1  0.6316620E-012  0.5930196E+02  0.7816164E-02  0.1266605E+00
        -11   -1    0    0    0    0  0.00000000000E+00  0.00000000000E+00  0.45593999997E+02  0.45594000000E+02  0.51100000000E-03 0.  1.
         11   -1    0    0    0    0 -0.00000000000E+00 -0.00000000000E+00 -0.45593999997E+02  0.45594000000E+02  0.51100000000E-03 0. -1.
    9900012    2    1    2    0    0  0.25933728038E+01 -0.28130018508E+02  0.14788384449E+02  0.59301955429E+02  0.50000020794E+02 0.  0.
         12    1    1    2    0    0 -0.25933728038E+01  0.28130018508E+02 -0.14788384449E+02  0.31886044571E+02  0.00000000000E+00 0. -1.
         11    1    3    3    0    0  0.12181050253E+02 -0.15787095837E+02 -0.46282042214E+00  0.19945540435E+02  0.51100000000E-03 0. -1.
        -11    1    3    3    0    0  0.42722715301E+01 -0.12434634848E+02  0.20651092644E+02  0.24481423069E+02  0.51100000000E-03 0.  1.
        -12    1    3    3    0    0 -0.13859948979E+02  0.91712176814E-01 -0.53998877733E+01  0.14874991926E+02  0.00000000000E+00 0.  1.
</event>
<event>
 7    1  0.6316620E-012  0.5930197E+02  0.7816164E-02  0.1266605E+00
        -11   -1    0    0    0    0  0.00000000000E+00  0.00000000000E+00  0.45593999997E+02  0.45594000000E+02  0.51100000000E-03 0.  1.
         11   -1    0    0    0    0 -0.00000000000E+00 -0.00000000000E+00 -0.45593999997E+02  0.45594000000E+02  0.51100000000E-03 0. -1.
    9900012    2    1    2    0    0  0.13837450741E+02 -0.17675394798E+02  0.22645625329E+02  0.59301969033E+02  0.50000045603E+02 0.  0.
         12    1    1    2    0    0 -0.13837450741E+02  0.17675394798E+02 -0.22645625329E+02  0.31886030967E+02  0.00000000000E+00 0. -1.
         11    1    3    3    0    0  0.84735412367E+01  0.61613292302E+01 -0.35607022948E+01  0.11065327834E+02  0.51100000000E-03 0. -1.
        -11    1    3    3    0    0  0.24810277571E+01  0.79305599525E+01  0.78655839117E+01  0.11441883168E+02  0.51100000000E-03 0.  1.
         12    1    3    3    0    0  0.28828817474E+01 -0.31767283981E+02  0.18340743713E+02  0.36794758032E+02  0.00000000000E+00 0. -1.
</event>
<event>
 7    1  0.6316620E-012  0.5930194E+02  0.7816164E-02  0.1266605E+00
        -11   -1    0    0    0    0  0.00000000000E+00  0.00000000000E+00  0.45593999997E+02  0.45594000000E+02  0.51100000000E-03 0.  1.
         11   -1    0    0    0    0 -0.00000000000E+00 -0.00000000000E+00 -0.45593999997E+02  0.45594000000E+02  0.51100000000E-03 0. -1.
    9900012    2    1    2    0    0 -0.24702959335E+02  0.16732827519E+02  0.11247104024E+02  0.59301936185E+02  0.49999985697E+02 0.  0.
         12    1    1    2    0    0  0.24702959335E+02 -0.16732827519E+02 -0.11247104024E+02  0.31886063815E+02  0.00000000000E+00 0. -1.
         11    1    3    3    0    0  0.71703558752E+01  0.11113482868E+02  0.18741375003E+02  0.22938235375E+02  0.51100000000E-03 0. -1.
        -11    1    3    3    0    0 -0.36917242680E+01  0.39797865291E+01  0.30534661318E+01  0.62282569445E+01  0.51100000000E-03 0.  1.
         12    1    3    3    0    0 -0.28181590942E+02  0.16395581221E+01 -0.10547737111E+02  0.30135443866E+02  0.00000000000E+00 0. -1.
</event>
<event>
 7    1  0.6316620E-012  0.5930207E+02  0.7816164E-02  0.1266604E+00
        -11   -1    0    0    0    0  0.00000000000E+00  0.00000000000E+00  0.45593999997E+02  0.45594000000E+02  0.51100000000E-03 0.  1.
         11   -1    0    0    0    0 -0.00000000000E+00 -0.00000000000E+00 -0.45593999997E+02  0.45594000000E+02  0.51100000000E-03 0. -1.
    9900012    2    1    2    0    0  0.19560581667E+02  0.69931427547E+01  0.24190739930E+02  0.59302073652E+02  0.50000236403E+02 0.  0.
         12    1    1    2    0    0 -0.19560581667E+02 -0.69931427547E+01 -0.24190739930E+02  0.31885926348E+02  0.00000000000E+00 0. -1.
         11    1    3    3    0    0  0.10736703549E+02  0.85873905346E+00  0.15228844081E+02  0.18652933500E+02  0.51100000000E-03 0. -1.
        -11    1    3    3    0    0  0.23662209951E+02  0.49729722220E+00  0.38864539744E+01  0.23984411793E+02  0.51100000000E-03 0.  1.
         12    1    3    3    0    0 -0.14838331833E+02  0.56371064791E+01  0.50754418744E+01  0.16664728359E+02  0.00000000000E+00 0. -1.
</event>
<event>
 7    1  0.6316620E-012  0.5930193E+02  0.7816164E-02  0.1266605E+00
        -11   -1    0    0    0    0  0.00000000000E+00  0.00000000000E+00  0.45593999997E+02  0.45594000000E+02  0.51100000000E-03 0.  1.
         11   -1    0    0    0    0 -0.00000000000E+00 -0.00000000000E+00 -0.45593999997E+02  0.45594000000E+02  0.51100000000E-03 0. -1.
    9900012    2    1    2    0    0  0.89717850451E+01 -0.27970293255E+02 -0.12405284019E+02  0.59301932459E+02  0.49999978901E+02 0.  0.
         12    1    1    2    0    0 -0.89717850451E+01  0.27970293255E+02  0.12405284019E+02  0.31886067541E+02  0.00000000000E+00 0. -1.
         11    1    3    3    0    0  0.86559123504E+00 -0.86028736066E+01  0.15598830954E+01  0.87858931253E+01  0.51100000000E-03 0. -1.
        -11    1    3    3    0    0  0.18639817726E+02 -0.26558813373E+02 -0.18042179753E+02  0.37125915788E+02  0.51100000000E-03 0.  1.
         12    1    3    3    0    0 -0.10533623916E+02  0.71913937247E+01  0.40770126379E+01  0.13390123545E+02  0.00000000000E+00 0. -1.
</event>
<event>
 7    1  0.6316620E-012  0.5930195E+02  0.7816164E-02  0.1266605E+00
        -11   -1    0    0    0    0  0.00000000000E+00  0.00000000000E+00  0.45593999997E+02  0.45594000000E+02  0.51100000000E-03 0.  1.
         11   -1    0    0    0    0 -0.00000000000E+00 -0.00000000000E+00 -0.45593999997E+02  0.45594000000E+02  0.51100000000E-03 0. -1.
    9900012    2    1    2    0    0  0.26470811105E+02  0.11074231833E+02  0.13906035551E+02  0.59301948567E+02  0.50000008278E+02 0.  0.
         12    1    1    2    0    0 -0.26470811105E+02 -0.11074231833E+02 -0.13906035551E+02  0.31886051433E+02  0.00000000000E+00 0. -1.
         11    1    3    3    0    0  0.56784641824E+01 -0.59833472395E+00  0.18711987395E+02  0.19563778583E+02  0.51100000000E-03 0. -1.
        -11    1    3    3    0    0  0.25231164506E+02  0.11776822671E+02  0.56203201076E+01  0.28405865819E+02  0.51100000000E-03 0.  1.
         12    1    3    3    0    0 -0.44388175832E+01 -0.10425611329E+00 -0.10426271952E+02  0.11332304165E+02  0.00000000000E+00 0. -1.
</event>
<event>
 7    1  0.6316620E-012  0.5930195E+02  0.7816164E-02  0.1266605E+00
        -11   -1    0    0    0    0  0.00000000000E+00  0.00000000000E+00  0.45593999997E+02  0.45594000000E+02  0.51100000000E-03 0. -1.
         11   -1    0    0    0    0 -0.00000000000E+00 -0.00000000000E+00 -0.45593999997E+02  0.45594000000E+02  0.51100000000E-03 0.  1.
    9900012    2    1    2    0    0 -0.16753396180E+02  0.18070566935E+02  0.20236063436E+02  0.59301953894E+02  0.50000017993E+02 0.  0.
         12    1    1    2    0    0  0.16753396180E+02 -0.18070566935E+02 -0.20236063436E+02  0.31886046106E+02  0.00000000000E+00 0. -1.
         11    1    3    3    0    0 -0.21664838111E+02 -0.48539875065E+01  0.84013636816E+01  0.23738351187E+02  0.51100000000E-03 0. -1.
        -11    1    3    3    0    0 -0.88511373308E+01  0.92532972113E+01 -0.66461189582E-01  0.12805098933E+02  0.51100000000E-03 0.  1.
         12    1    3    3    0    0  0.13762579262E+02  0.13671257230E+02  0.11901160944E+02  0.22758503774E+02  0.00000000000E+00 0. -1.
</event>
<event>
 7    1  0.6316620E-012  0.5930193E+02  0.7816164E-02  0.1266605E+00
        -11   -1    0    0    0    0  0.00000000000E+00  0.00000000000E+00  0.45593999997E+02  0.45594000000E+02  0.51100000000E-03 0. -1.
         11   -1    0    0    0    0 -0.00000000000E+00 -0.00000000000E+00 -0.45593999997E+02  0.45594000000E+02  0.51100000000E-03 0.  1.
    9900012    2    1    2    0    0 -0.19412182124E+02 -0.12015395190E+02  0.22260247463E+02  0.59301934807E+02  0.49999983183E+02 0.  0.
         12    1    1    2    0    0  0.19412182124E+02  0.12015395190E+02 -0.22260247463E+02  0.31886065193E+02  0.00000000000E+00 0. -1.
         11    1    3    3    0    0 -0.24968397658E+02 -0.21237841743E+02  0.68411822938E+01  0.33485348721E+02  0.51100000000E-03 0. -1.
        -11    1    3    3    0    0  0.31298274567E+01 -0.41734108478E+01 -0.41057024537E-01  0.52167867461E+01  0.51100000000E-03 0.  1.
         12    1    3    3    0    0  0.24263880772E+01  0.13395857400E+02  0.15460122194E+02  0.20599799340E+02  0.00000000000E+00 0. -1.
</event>
<event>
 7    1  0.6316620E-012  0.5930195E+02  0.7816164E-02  0.1266605E+00
        -11   -1    0    0    0    0  0.00000000000E+00  0.00000000000E+00  0.45593999997E+02  0.45594000000E+02  0.51100000000E-03 0.  1.
         11   -1    0    0    0    0 -0.00000000000E+00 -0.00000000000E+00 -0.45593999997E+02  0.45594000000E+02  0.51100000000E-03 0. -1.
    9900012    2    1    2    0    0  0.78057873425E+01 -0.30777190650E+02  0.29247445389E+01  0.59301954291E+02  0.50000018717E+02 0.  0.
         12    1    1    2    0    0 -0.78057873425E+01  0.30777190650E+02 -0.29247445389E+01  0.31886045709E+02  0.00000000000E+00 0. -1.
         11    1    3    3    0    0 -0.62503561775E+00 -0.42389890901E+01 -0.94453252004E+01  0.10371782221E+02  0.51100000000E-03 0. -1.
        -11    1    3    3    0    0 -0.14906635322E+01 -0.34465931483E+02  0.73390540807E+01  0.35270160558E+02  0.51100000000E-03 0.  1.
         12    1    3    3    0    0  0.99214864924E+01  0.79277299227E+01  0.50310156586E+01  0.13660011512E+02  0.00000000000E+00 0. -1.
</event>
<event>
 7    1  0.6316620E-012  0.5930197E+02  0.7816164E-02  0.1266605E+00
        -11   -1    0    0    0    0  0.00000000000E+00  0.00000000000E+00  0.45593999997E+02  0.45594000000E+02  0.51100000000E-03 0.  1.
         11   -1    0    0    0    0 -0.00000000000E+00 -0.00000000000E+00 -0.45593999997E+02  0.45594000000E+02  0.51100000000E-03 0. -1.
    9900012    2    1    2    0    0 -0.12172605801E+02  0.27806108049E+02  0.97656123324E+01  0.59301966050E+02  0.50000040163E+02 0.  0.
         12    1    1    2    0    0  0.12172605801E+02 -0.27806108049E+02 -0.97656123324E+01  0.31886033950E+02  0.00000000000E+00 0. -1.
         11    1    3    3    0    0 -0.24652912310E+01 -0.60466704118E+01 -0.52521819601E+01  0.83800536708E+01  0.51100000000E-03 0. -1.
        -11    1    3    3    0    0  0.10932503542E+02  0.95647607512E+01 -0.22059662544E+01  0.14692534475E+02  0.51100000000E-03 0.  1.
        -12    1    3    3    0    0 -0.20639818112E+02  0.24288017710E+02  0.17223760547E+02  0.36229377904E+02  0.00000000000E+00 0.  1.
</event>
<event>
 7    1  0.6316620E-012  0.5930194E+02  0.7816164E-02  0.1266605E+00
        -11   -1    0    0    0    0  0.00000000000E+00  0.00000000000E+00  0.45593999997E+02  0.45594000000E+02  0.51100000000E-03 0. -1.
         11   -1    0    0    0    0 -0.00000000000E+00 -0.00000000000E+00 -0.45593999997E+02  0.45594000000E+02  0.51100000000E-03 0.  1.
    9900012    2    1    2    0    0  0.10110521933E+02  0.28579014231E+02 -0.98862497094E+01  0.59301942835E+02  0.49999997826E+02 0.  0.
         12    1    1    2    0    0 -0.10110521933E+02 -0.28579014231E+02  0.98862497094E+01  0.31886057165E+02  0.00000000000E+00 0. -1.
         11    1    3    3    0    0 -0.42333357972E+01  0.16974609386E+00 -0.62202053436E+01  0.75260149140E+01  0.51100000000E-03 0. -1.
        -11    1    3    3    0    0 -0.74593866668E+01 -0.18575458439E+01  0.94979299721E+01  0.12218985229E+02  0.51100000000E-03 0.  1.
        -12    1    3    3    0    0  0.21803244397E+02  0.30266813981E+02 -0.13163974338E+02  0.39556942693E+02  0.00000000000E+00 0.  1.
</event>
<event>
 7    1  0.6316620E-012  0.5930195E+02  0.7816164E-02  0.1266605E+00
        -11   -1    0    0    0    0  0.00000000000E+00  0.00000000000E+00  0.45593999997E+02  0.45594000000E+02  0.51100000000E-03 0.  1.
         11   -1    0    0    0    0 -0.00000000000E+00 -0.00000000000E+00 -0.45593999997E+02  0.45594000000E+02  0.51100000000E-03 0. -1.
    9900012    2    1    2    0    0  0.25158785830E+02  0.46983732435E+01  0.19017916590E+02  0.59301947140E+02  0.50000005675E+02 0.  0.
         12    1    1    2    0    0 -0.25158785830E+02 -0.46983732435E+01 -0.19017916590E+02  0.31886052860E+02  0.00000000000E+00 0. -1.
         11    1    3    3    0    0 -0.14411354482E+02  0.28317307662E+01  0.67397611848E+01  0.16159524072E+02  0.51100000000E-03 0. -1.
        -11    1    3    3    0    0  0.15858829632E+01 -0.17116316854E+01 -0.12690913162E+01  0.26561816258E+01  0.51100000000E-03 0.  1.
        -12    1    3    3    0    0  0.37984257349E+02  0.35782741627E+01  0.13547246722E+02  0.40486241442E+02  0.00000000000E+00 0.  1.
</event>
<event>
 7    1  0.7631147E-012  0.5930194E+02  0.7816164E-02  0.1266605E+00
        -11   -1    0    0    0    0  0.00000000000E+00  0.00000000000E+00  0.45593999997E+02  0.45594000000E+02  0.51100000000E-03 0. -1.
         11   -1    0    0    0    0 -0.00000000000E+00 -0.00000000000E+00 -0.45593999997E+02  0.45594000000E+02  0.51100000000E-03 0.  1.
    9900012    2    1    2    0    0  0.94701692061E+01  0.20114379946E+02 -0.22857125495E+02  0.59301943936E+02  0.49999999833E+02 0.  0.
         12    1    1    2    0    0 -0.94701692061E+01 -0.20114379946E+02  0.22857125495E+02  0.31886056064E+02  0.00000000000E+00 0. -1.
         11    1    3    3    0    0  0.20922567371E+01  0.12656858675E+01  0.11520877777E+02  0.11777526225E+02  0.51100000000E-03 0. -1.
        -11    1    3    3    0    0  0.14295616297E+02  0.12952267500E+02 -0.10474243156E+02  0.21950755082E+02  0.51100000000E-03 0.  1.
        -12    1    3    3    0    0 -0.69177038279E+01  0.58964265785E+01 -0.23903760115E+02  0.25573662630E+02  0.00000000000E+00 0.  1.
</event>
<event>
 7    1  0.6316620E-012  0.5930194E+02  0.7816164E-02  0.1266605E+00
        -11   -1    0    0    0    0  0.00000000000E+00  0.00000000000E+00  0.45593999997E+02  0.45594000000E+02  0.51100000000E-03 0.  1.
         11   -1    0    0    0    0 -0.00000000000E+00 -0.00000000000E+00 -0.45593999997E+02  0.45594000000E+02  0.51100000000E-03 0. -1.
    9900012    2    1    2    0    0  0.45572975051E+01  0.17670606808E+02  0.26147681682E+02  0.59301944068E+02  0.50000000074E+02 0.  0.
         12    1    1    2    0    0 -0.45572975051E+01 -0.17670606808E+02 -0.26147681682E+02  0.31886055932E+02  0.00000000000E+00 0. -1.
         11    1    3    3    0    0 -0.11382840976E+02  0.70096917407E+01  0.40840268219E+01  0.13977987063E+02  0.51100000000E-03 0. -1.
        -11    1    3    3    0    0  0.28930959574E+01  0.22065844418E+02  0.12836321778E+02  0.25691295241E+02  0.51100000000E-03 0.  1.
         12    1    3    3    0    0  0.13047042524E+02 -0.11404929351E+02  0.92273330821E+01  0.19632661764E+02  0.00000000000E+00 0. -1.
</event>
<event>
 7    1  0.6316620E-012  0.5930188E+02  0.7816164E-02  0.1266605E+00
        -11   -1    0    0    0    0  0.00000000000E+00  0.00000000000E+00  0.45593999997E+02  0.45594000000E+02  0.51100000000E-03 0. -1.
         11   -1    0    0    0    0 -0.00000000000E+00 -0.00000000000E+00 -0.45593999997E+02  0.45594000000E+02  0.51100000000E-03 0.  1.
    9900012    2    1    2    0    0  0.26553979582E+02 -0.50015835147E+01 -0.16929112333E+02  0.59301882117E+02  0.49999887089E+02 0.  0.
         12    1    1    2    0    0 -0.26553979582E+02  0.50015835147E+01  0.16929112333E+02  0.31886117883E+02  0.00000000000E+00 0. -1.
         11    1    3    3    0    0 -0.11365754507E+01 -0.86657752541E+01  0.13825971314E+01  0.88486744543E+01  0.51100000000E-03 0. -1.
        -11    1    3    3    0    0  0.67983618005E+01 -0.12432161031E+02 -0.19439210202E+02  0.24055337134E+02  0.51100000000E-03 0.  1.
         12    1    3    3    0    0  0.20892193232E+02  0.16096352771E+02  0.11275007372E+01  0.26397870529E+02  0.00000000000E+00 0. -1.
</event>
<event>
 7    1  0.6316620E-012  0.5930194E+02  0.7816164E-02  0.1266605E+00
        -11   -1    0    0    0    0  0.00000000000E+00  0.00000000000E+00  0.45593999997E+02  0.45594000000E+02  0.51100000000E-03 0.  1.
         11   -1    0    0    0    0 -0.00000000000E+00 -0.00000000000E+00 -0.45593999997E+02  0.45594000000E+02  0.51100000000E-03 0. -1.
    9900012    2    1    2    0    0 -0.37809437003E+01  0.27370196408E+02  0.15915330862E+02  0.59301938106E+02  0.49999989199E+02 0.  0.
         12    1    1    2    0    0  0.37809437003E+01 -0.27370196408E+02 -0.15915330862E+02  0.31886061894E+02  0.00000000000E+00 0. -1.
         11    1    3    3    0    0 -0.14602552050E+02  0.99204362098E+01  0.11477493072E+01  0.17690870801E+02  0.51100000000E-03 0. -1.
        -11    1    3    3    0    0  0.14570464308E+01  0.25574826310E+02  0.13992576467E+02  0.29188815007E+02  0.51100000000E-03 0.  1.
         12    1    3    3    0    0  0.93645619190E+01 -0.81250661115E+01  0.77500508792E+00  0.12422252297E+02  0.00000000000E+00 0. -1.
</event>
<event>
 7    1  0.6316620E-012  0.5930193E+02  0.7816164E-02  0.1266605E+00
        -11   -1    0    0    0    0  0.00000000000E+00  0.00000000000E+00  0.45593999997E+02  0.45594000000E+02  0.51100000000E-03 0.  1.
         11   -1    0    0    0    0 -0.00000000000E+00 -0.00000000000E+00 -0.45593999997E+02  0.45594000000E+02  0.51100000000E-03 0. -1.
    9900012    2    1    2    0    0 -0.28860079612E+02 -0.87594076269E+01  0.10348431787E+02  0.59301930038E+02  0.49999974486E+02 0.  0.
         12    1    1    2    0    0  0.28860079612E+02  0.87594076269E+01 -0.10348431787E+02  0.31886069962E+02  0.00000000000E+00 0. -1.
         11    1    3    3    0    0 -0.15910487129E+02  0.59741461528E+01  0.26778158222E+01  0.17204787728E+02  0.51100000000E-03 0. -1.
        -11    1    3    3    0    0 -0.21573813123E+02 -0.16908041610E+02  0.14382851731E+02  0.30954445690E+02  0.51100000000E-03 0.  1.
         12    1    3    3    0    0  0.86242206411E+01  0.21744878306E+01 -0.67122357658E+01  0.11142696620E+02  0.00000000000E+00 0. -1.
</event>
<event>
 7    1  0.6316620E-012  0.5930194E+02  0.7816164E-02  0.1266605E+00
        -11   -1    0    0    0    0  0.00000000000E+00  0.00000000000E+00  0.45593999997E+02  0.45594000000E+02  0.51100000000E-03 0. -1.
         11   -1    0    0    0    0 -0.00000000000E+00 -0.00000000000E+00 -0.45593999997E+02  0.45594000000E+02  0.51100000000E-03 0.  1.
    9900012    2    1    2    0    0 -0.26827893857E+02  0.17159583035E+02 -0.15918073576E+01  0.59301936753E+02  0.49999986733E+02 0.  0.
         12    1    1    2    0    0  0.26827893857E+02 -0.17159583035E+02  0.15918073576E+01  0.31886063247E+02  0.00000000000E+00 0. -1.
         11    1    3    3    0    0  0.19976796792E+01  0.19802301566E+02  0.65112572971E+01  0.20940829574E+02  0.51100000000E-03 0.  1.
        -11    1    3    3    0    0 -0.24820026627E+01  0.16182156081E+01 -0.11117407597E+02  0.11505464393E+02  0.51100000000E-03 0. -1.
         12    1    3    3    0    0 -0.26343570873E+02 -0.42609341383E+01  0.30143429418E+01  0.26855642786E+02  0.00000000000E+00 0. -1.
</event>
<event>
 7    1  0.6316620E-012  0.5930194E+02  0.7816164E-02  0.1266605E+00
        -11   -1    0    0    0    0  0.00000000000E+00  0.00000000000E+00  0.45593999997E+02  0.45594000000E+02  0.51100000000E-03 0.  1.
         11   -1    0    0    0    0 -0.00000000000E+00 -0.00000000000E+00 -0.45593999997E+02  0.45594000000E+02  0.51100000000E-03 0. -1.
    9900012    2    1    2    0    0  0.14854492447E+02 -0.31387378698E+00  0.28212871888E+02  0.59301943443E+02  0.49999998933E+02 0.  0.
         12    1    1    2    0    0 -0.14854492447E+02  0.31387378698E+00 -0.28212871888E+02  0.31886056557E+02  0.00000000000E+00 0. -1.
         11    1    3    3    0    0 -0.12714041285E+01 -0.12434759723E+01 -0.14816242948E+01  0.23147163463E+01  0.51100000000E-03 0. -1.
        -11    1    3    3    0    0  0.15525382341E+02 -0.14438973450E+02  0.34827086895E+02  0.40773121452E+02  0.51100000000E-03 0.  1.
         12    1    3    3    0    0  0.60051423433E+00  0.15368575636E+02 -0.51325907121E+01  0.16214105644E+02  0.00000000000E+00 0. -1.
</event>
<event>
 7    1  0.6316620E-012  0.5930186E+02  0.7816164E-02  0.1266605E+00
        -11   -1    0    0    0    0  0.00000000000E+00  0.00000000000E+00  0.45593999997E+02  0.45594000000E+02  0.51100000000E-03 0.  1.
         11   -1    0    0    0    0 -0.00000000000E+00 -0.00000000000E+00 -0.45593999997E+02  0.45594000000E+02  0.51100000000E-03 0. -1.
    9900012    2    1    2    0    0  0.80759541852E+01 -0.20263405432E+00  0.30845812045E+02  0.59301855403E+02  0.49999838369E+02 0.  0.
         12    1    1    2    0    0 -0.80759541852E+01  0.20263405432E+00 -0.30845812045E+02  0.31886144597E+02  0.00000000000E+00 0. -1.
         11    1    3    3    0    0  0.23043089744E+01 -0.52092637617E+01 -0.27460136847E+01  0.63235164431E+01  0.51100000000E-03 0. -1.
        -11    1    3    3    0    0 -0.11632246632E+02  0.13949220470E+02  0.59514415182E+01  0.19113073270E+02  0.51100000000E-03 0.  1.
         12    1    3    3    0    0  0.17403891843E+02 -0.89425907627E+01  0.27640384212E+02  0.33865265689E+02  0.00000000000E+00 0. -1.
</event>
<event>
 7    1  0.6316620E-012  0.5930194E+02  0.7816164E-02  0.1266605E+00
        -11   -1    0    0    0    0  0.00000000000E+00  0.00000000000E+00  0.45593999997E+02  0.45594000000E+02  0.51100000000E-03 0.  1.
         11   -1    0    0    0    0 -0.00000000000E+00 -0.00000000000E+00 -0.45593999997E+02  0.45594000000E+02  0.51100000000E-03 0. -1.
    9900012    2    1    2    0    0  0.38321729584E+01  0.92776384613E+01  0.30264846167E+02  0.59301936610E+02  0.49999986472E+02 0.  0.
         12    1    1    2    0    0 -0.38321729584E+01 -0.92776384613E+01 -0.30264846167E+02  0.31886063390E+02  0.00000000000E+00 0. -1.
         11    1    3    3    0    0 -0.12381908228E+02  0.13702992055E+02 -0.13605969562E+01  0.18518500667E+02  0.51100000000E-03 0. -1.
        -11    1    3    3    0    0  0.36796254603E+01  0.62649425377E+01  0.32214573511E+01  0.79477629717E+01  0.51100000000E-03 0.  1.
         12    1    3    3    0    0  0.12534455726E+02 -0.10690296131E+02  0.28403985772E+02  0.32835672971E+02  0.00000000000E+00 0. -1.
</event>
<event>
 7    1  0.6316620E-012  0.5930192E+02  0.7816164E-02  0.1266605E+00
        -11   -1    0    0    0    0  0.00000000000E+00  0.00000000000E+00  0.45593999997E+02  0.45594000000E+02  0.51100000000E-03 0.  1.
         11   -1    0    0    0    0 -0.00000000000E+00 -0.00000000000E+00 -0.45593999997E+02  0.45594000000E+02  0.51100000000E-03 0. -1.
    9900012    2    1    2    0    0  0.19132838108E+02  0.17419750658E+01  0.25448422640E+02  0.59301918615E+02  0.49999953654E+02 0.  0.
         12    1    1    2    0    0 -0.19132838108E+02 -0.17419750658E+01 -0.25448422640E+02  0.31886081385E+02  0.00000000000E+00 0. -1.
         11    1    3    3    0    0  0.10255734405E+02 -0.28987956274E+00 -0.84236290240E+01  0.13274850076E+02  0.51100000000E-03 0. -1.
        -11    1    3    3    0    0  0.15819539428E+01 -0.13692926983E+02  0.16238691238E+02  0.21300092043E+02  0.51100000000E-03 0.  1.
         12    1    3    3    0    0  0.72951497609E+01  0.15724781611E+02  0.17633360426E+02  0.24726976497E+02  0.00000000000E+00 0. -1.
</event>
<event>
 7    1  0.6316620E-012  0.5930197E+02  0.7816164E-02  0.1266605E+00
        -11   -1    0    0    0    0  0.00000000000E+00  0.00000000000E+00  0.45593999997E+02  0.45594000000E+02  0.51100000000E-03 0. -1.
         11   -1    0    0    0    0 -0.00000000000E+00 -0.00000000000E+00 -0.45593999997E+02  0.45594000000E+02  0.51100000000E-03 0.  1.
    9900012    2    1    2    0    0 -0.22402246123E+01  0.21198684700E+02 -0.23713200050E+02  0.59301973344E+02  0.50000053465E+02 0.  0.
         12    1    1    2    0    0  0.22402246123E+01 -0.21198684700E+02  0.23713200050E+02  0.31886026656E+02  0.00000000000E+00 0. -1.
         11    1    3    3    0    0 -0.11441094091E+02  0.59993118086E+01 -0.56114903138E+01  0.14084715119E+02  0.51100000000E-03 0. -1.
        -11    1    3    3    0    0 -0.29622385479E+01  0.24766738497E+02 -0.62202885410E+01  0.25707162092E+02  0.51100000000E-03 0.  1.
         12    1    3    3    0    0  0.12163108027E+02 -0.95673656063E+01 -0.11881421195E+02  0.19510096133E+02  0.00000000000E+00 0. -1.
</event>
<event>
 7    1  0.6316620E-012  0.5930195E+02  0.7816164E-02  0.1266605E+00
        -11   -1    0    0    0    0  0.00000000000E+00  0.00000000000E+00  0.45593999997E+02  0.45594000000E+02  0.51100000000E-03 0.  1.
         11   -1    0    0    0    0 -0.00000000000E+00 -0.00000000000E+00 -0.45593999997E+02  0.45594000000E+02  0.51100000000E-03 0. -1.
    9900012    2    1    2    0    0  0.26960583637E+02  0.11805648636E+02 -0.12266773885E+02  0.59301950522E+02  0.50000011844E+02 0.  0.
         12    1    1    2    0    0 -0.26960583637E+02 -0.11805648636E+02  0.12266773885E+02  0.31886049478E+02  0.00000000000E+00 0. -1.
         11    1    3    3    0    0 -0.13375798961E+01  0.17714638465E+02 -0.17368048080E+01  0.17849762663E+02  0.51100000000E-03 0. -1.
        -11    1    3    3    0    0 -0.50805506622E+01 -0.25190859217E+01 -0.47715909432E+01  0.74111989113E+01  0.51100000000E-03 0.  1.
        -12    1    3    3    0    0  0.33378714195E+02 -0.33899039068E+01 -0.57583781336E+01  0.34040988948E+02  0.00000000000E+00 0.  1.
</event>
<event>
 7    1  0.6316620E-012  0.5930196E+02  0.7816164E-02  0.1266605E+00
        -11   -1    0    0    0    0  0.00000000000E+00  0.00000000000E+00  0.45593999997E+02  0.45594000000E+02  0.51100000000E-03 0.  1.
         11   -1    0    0    0    0 -0.00000000000E+00 -0.00000000000E+00 -0.45593999997E+02  0.45594000000E+02  0.51100000000E-03 0. -1.
    9900012    2    1    2    0    0 -0.12780265015E+02 -0.15352060145E+02  0.24853538009E+02  0.59301964246E+02  0.50000036873E+02 0.  0.
         12    1    1    2    0    0  0.12780265015E+02  0.15352060145E+02 -0.24853538009E+02  0.31886035754E+02  0.00000000000E+00 0. -1.
         11    1    3    3    0    0  0.96535821443E+01 -0.14435142464E+02  0.11875348747E+02  0.21037796802E+02  0.51100000000E-03 0. -1.
        -11    1    3    3    0    0  0.23887885289E+01 -0.22417675216E+01  0.12999775210E+02  0.13406192153E+02  0.51100000000E-03 0.  1.
         12    1    3    3    0    0 -0.24822635688E+02  0.13248498403E+01 -0.21585947777E-01  0.24857975291E+02  0.00000000000E+00 0. -1.
</event>
<event>
 7    1  0.6316620E-012  0.5930196E+02  0.7816164E-02  0.1266605E+00
        -11   -1    0    0    0    0  0.00000000000E+00  0.00000000000E+00  0.45593999997E+02  0.45594000000E+02  0.51100000000E-03 0.  1.
         11   -1    0    0    0    0 -0.00000000000E+00 -0.00000000000E+00 -0.45593999997E+02  0.45594000000E+02  0.51100000000E-03 0. -1.
    9900012    2    1    2    0    0  0.56912325326E+01 -0.24487485047E+02  0.19613585537E+02  0.59301956199E+02  0.50000022197E+02 0.  0.
         12    1    1    2    0    0 -0.56912325326E+01  0.24487485047E+02 -0.19613585537E+02  0.31886043801E+02  0.00000000000E+00 0. -1.
         11    1    3    3    0    0 -0.21346211910E+01  0.59476874706E+01  0.13802201089E+02  0.15179998321E+02  0.51100000000E-03 0. -1.
        -11    1    3    3    0    0  0.81175168578E+01  0.25741464698E+01  0.70982545107E+01  0.11086276532E+02  0.51100000000E-03 0.  1.
         12    1    3    3    0    0 -0.29166313419E+00 -0.33009318987E+02 -0.12868700627E+01  0.33035681345E+02  0.00000000000E+00 0. -1.
</event>
<event>
 7    1  0.6316620E-012  0.5930194E+02  0.7816164E-02  0.1266605E+00
        -11   -1    0    0    0    0  0.00000000000E+00  0.00000000000E+00  0.45593999997E+02  0.45594000000E+02  0.51100000000E-03 0. -1.
         11   -1    0    0    0    0 -0.00000000000E+00 -0.00000000000E+00 -0.45593999997E+02  0.45594000000E+02  0.51100000000E-03 0.  1.
    9900012    2    1    2    0    0  0.19564471063E+02 -0.20973046912E+02  0.13931379149E+02  0.59301944274E+02  0.50000000449E+02 0.  0.
         12    1    1    2    0    0 -0.19564471063E+02  0.20973046912E+02 -0.13931379149E+02  0.31886055726E+02  0.00000000000E+00 0. -1.
         11    1    3    3    0    0  0.14886668015E+02 -0.67839677105E+01  0.15759219528E+02  0.22715371511E+02  0.51100000000E-03 0. -1.
        -11    1    3    3    0    0  0.19125151146E+02 -0.92694131368E+01 -0.38573021843E+00  0.21256580495E+02  0.51100000000E-03 0.  1.
         12    1    3    3    0    0 -0.14447348098E+02 -0.49196660649E+01 -0.14421101604E+01  0.15329992269E+02  0.00000000000E+00 0. -1.
</event>
<event>
 7    1  0.6316620E-012  0.5930195E+02  0.7816164E-02  0.1266605E+00
        -11   -1    0    0    0    0  0.00000000000E+00  0.00000000000E+00  0.45593999997E+02  0.45594000000E+02  0.51100000000E-03 0.  1.
         11   -1    0    0    0    0 -0.00000000000E+00 -0.00000000000E+00 -0.45593999997E+02  0.45594000000E+02  0.51100000000E-03 0. -1.
    9900012    2    1    2    0    0 -0.12796689173E+02 -0.39939855439E-01  0.29205531108E+02  0.59301954521E+02  0.50000019138E+02 0.  0.
         12    1    1    2    0    0  0.12796689173E+02  0.39939855439E-01 -0.29205531108E+02  0.31886045479E+02  0.00000000000E+00 0. -1.
         11    1    3    3    0    0  0.10198160249E+01 -0.18603165047E+00  0.93825617228E+01  0.94396555680E+01  0.51100000000E-03 0. -1.
        -11    1    3    3    0    0 -0.23850689718E+02  0.75771752046E+01  0.25866050868E+02  0.35990576154E+02  0.51100000000E-03 0.  1.
         12    1    3    3    0    0  0.10034184520E+02 -0.74310834095E+01 -0.60430814830E+01  0.13871722800E+02  0.00000000000E+00 0. -1.
</event>
<event>
 7    1  0.6316620E-012  0.5930194E+02  0.7816164E-02  0.1266605E+00
        -11   -1    0    0    0    0  0.00000000000E+00  0.00000000000E+00  0.45593999997E+02  0.45594000000E+02  0.51100000000E-03 0. -1.
         11   -1    0    0    0    0 -0.00000000000E+00 -0.00000000000E+00 -0.45593999997E+02  0.45594000000E+02  0.51100000000E-03 0.  1.
    9900012    2    1    2    0    0 -0.16371987638E+02  0.26704318001E+02  0.59630653730E+01  0.59301941483E+02  0.49999995359E+02 0.  0.
         12    1    1    2    0    0  0.16371987638E+02 -0.26704318001E+02 -0.59630653730E+01  0.31886058517E+02  0.00000000000E+00 0. -1.
         11    1    3    3    0    0 -0.34440430890E+01  0.11566025096E+02  0.20173468246E+02  0.23507513494E+02  0.51100000000E-03 0. -1.
        -11    1    3    3    0    0 -0.13577632544E+02  0.64177214188E+01  0.40445342654E+01  0.15553054729E+02  0.51100000000E-03 0.  1.
        -12    1    3    3    0    0  0.64968799523E+00  0.87205714864E+01 -0.18254937138E+02  0.20241373260E+02  0.00000000000E+00 0.  1.
</event>
<event>
 7    1  0.6316620E-012  0.5930196E+02  0.7816164E-02  0.1266605E+00
        -11   -1    0    0    0    0  0.00000000000E+00  0.00000000000E+00  0.45593999997E+02  0.45594000000E+02  0.51100000000E-03 0.  1.
         11   -1    0    0    0    0 -0.00000000000E+00 -0.00000000000E+00 -0.45593999997E+02  0.45594000000E+02  0.51100000000E-03 0. -1.
    9900012    2    1    2    0    0  0.11079631397E+02  0.88569766840E+01  0.28557227188E+02  0.59301960852E+02  0.50000030683E+02 0.  0.
         12    1    1    2    0    0 -0.11079631397E+02 -0.88569766840E+01 -0.28557227188E+02  0.31886039148E+02  0.00000000000E+00 0. -1.
         11    1    3    3    0    0  0.13959826749E+02  0.13078953093E+02 -0.43032899181E+00  0.19134287553E+02  0.51100000000E-03 0. -1.
        -11    1    3    3    0    0  0.80881680912E+01  0.24137243974E+01 -0.34198650780E-01  0.84407166963E+01  0.51100000000E-03 0.  1.
        -12    1    3    3    0    0 -0.10968363443E+02 -0.66357008060E+01  0.29021754831E+02  0.31726956603E+02  0.00000000000E+00 0.  1.
</event>
<event>
 7    1  0.6316620E-012  0.5930195E+02  0.7816164E-02  0.1266605E+00
        -11   -1    0    0    0    0  0.00000000000E+00  0.00000000000E+00  0.45593999997E+02  0.45594000000E+02  0.51100000000E-03 0. -1.
         11   -1    0    0    0    0 -0.00000000000E+00 -0.00000000000E+00 -0.45593999997E+02  0.45594000000E+02  0.51100000000E-03 0.  1.
    9900012    2    1    2    0    0 -0.12350684924E+02 -0.89717648233E-01 -0.29396816499E+02  0.59301948384E+02  0.50000007945E+02 0.  0.
         12    1    1    2    0    0  0.12350684924E+02  0.89717648233E-01  0.29396816499E+02  0.31886051616E+02  0.00000000000E+00 0. -1.
         11    1    3    3    0    0 -0.20418778260E+02 -0.34762024320E+01 -0.56079265487E+01  0.21458316090E+02  0.51100000000E-03 0. -1.
        -11    1    3    3    0    0 -0.45811575996E+01 -0.96098287606E+01 -0.12758965445E+02  0.16617069936E+02  0.51100000000E-03 0.  1.
         12    1    3    3    0    0  0.12649250935E+02  0.12996313544E+02 -0.11029924505E+02  0.21226562359E+02  0.00000000000E+00 0. -1.
</event>
<event>
 7    1  0.6316620E-012  0.5930194E+02  0.7816164E-02  0.1266605E+00
        -11   -1    0    0    0    0  0.00000000000E+00  0.00000000000E+00  0.45593999997E+02  0.45594000000E+02  0.51100000000E-03 0.  1.
         11   -1    0    0    0    0 -0.00000000000E+00 -0.00000000000E+00 -0.45593999997E+02  0.45594000000E+02  0.51100000000E-03 0. -1.
    9900012    2    1    2    0    0 -0.42397200469E+01 -0.30534527274E+02  0.81479046341E+01  0.59301938283E+02  0.49999989522E+02 0.  0.
         12    1    1    2    0    0  0.42397200469E+01  0.30534527274E+02 -0.81479046341E+01  0.31886061717E+02  0.00000000000E+00 0. -1.
         11    1    3    3    0    0  0.16411865023E+02 -0.76547875493E+01 -0.12023807954E+00  0.18109653321E+02  0.51100000000E-03 0. -1.
        -11    1    3    3    0    0 -0.81006987943E+01 -0.12200030824E+02  0.17084844079E+02  0.22502310338E+02  0.51100000000E-03 0.  1.
         12    1    3    3    0    0 -0.12550886275E+02 -0.10679708900E+02 -0.88167013652E+01  0.18689974624E+02  0.00000000000E+00 0. -1.
</event>
<event>
 7    1  0.6316620E-012  0.5930192E+02  0.7816164E-02  0.1266605E+00
        -11   -1    0    0    0    0  0.00000000000E+00  0.00000000000E+00  0.45593999997E+02  0.45594000000E+02  0.51100000000E-03 0. -1.
         11   -1    0    0    0    0 -0.00000000000E+00 -0.00000000000E+00 -0.45593999997E+02  0.45594000000E+02  0.51100000000E-03 0.  1.
    9900012    2    1    2    0    0 -0.35929090451E+01 -0.15289206620E+02 -0.27749828824E+02  0.59301924132E+02  0.49999963715E+02 0.  0.
         12    1    1    2    0    0  0.35929090451E+01  0.15289206620E+02  0.27749828824E+02  0.31886075868E+02  0.00000000000E+00 0. -1.
         11    1    3    3    0    0 -0.17846401574E+01 -0.24136631658E+02 -0.75013602314E+01  0.25338356968E+02  0.51100000000E-03 0. -1.
        -11    1    3    3    0    0 -0.12564252434E+02  0.25615442365E+01 -0.16612713555E+02  0.20985809492E+02  0.51100000000E-03 0.  1.
        -12    1    3    3    0    0  0.10755983546E+02  0.62858808007E+01 -0.36357550378E+01  0.12977757672E+02  0.00000000000E+00 0.  1.
</event>
<event>
 7    1  0.6316620E-012  0.5930188E+02  0.7816164E-02  0.1266605E+00
        -11   -1    0    0    0    0  0.00000000000E+00  0.00000000000E+00  0.45593999997E+02  0.45594000000E+02  0.51100000000E-03 0. -1.
         11   -1    0    0    0    0 -0.00000000000E+00 -0.00000000000E+00 -0.45593999997E+02  0.45594000000E+02  0.51100000000E-03 0.  1.
    9900012    2    1    2    0    0  0.40180756846E+01  0.28052587762E+02  0.14616155250E+02  0.59301880658E+02  0.49999884430E+02 0.  0.
         12    1    1    2    0    0 -0.40180756846E+01 -0.28052587762E+02 -0.14616155250E+02  0.31886119342E+02  0.00000000000E+00 0. -1.
         11    1    3    3    0    0 -0.20598594053E+01  0.43523406046E+01  0.49506345990E+01  0.69061329774E+01  0.51100000000E-03 0. -1.
        -11    1    3    3    0    0  0.29472355485E+01  0.63974992160E+01  0.26880464961E+02  0.27788011630E+02  0.51100000000E-03 0.  1.
        -12    1    3    3    0    0  0.31306995414E+01  0.17302747942E+02 -0.17214944310E+02  0.24607736051E+02  0.00000000000E+00 0.  1.
</event>
<event>
 7    1  0.6316620E-012  0.5930193E+02  0.7816164E-02  0.1266605E+00
        -11   -1    0    0    0    0  0.00000000000E+00  0.00000000000E+00  0.45593999997E+02  0.45594000000E+02  0.51100000000E-03 0.  1.
         11   -1    0    0    0    0 -0.00000000000E+00 -0.00000000000E+00 -0.45593999997E+02  0.45594000000E+02  0.51100000000E-03 0. -1.
    9900012    2    1    2    0    0 -0.62727224016E+00  0.28381720882E+02  0.14519145841E+02  0.59301934914E+02  0.49999983379E+02 0.  0.
         12    1    1    2    0    0  0.62727224016E+00 -0.28381720882E+02 -0.14519145841E+02  0.31886065086E+02  0.00000000000E+00 0. -1.
         11    1    3    3    0    0  0.69322997229E+01  0.20538909226E+02 -0.39504556630E+01  0.22034284010E+02  0.51100000000E-03 0. -1.
        -11    1    3    3    0    0  0.13208030659E+01  0.14166952811E+02  0.21653746745E+02  0.25910071808E+02  0.51100000000E-03 0.  1.
        -12    1    3    3    0    0 -0.88803750289E+01 -0.63241411552E+01 -0.31841452412E+01  0.11357579096E+02  0.00000000000E+00 0.  1.
</event>
<event>
 7    1  0.6316620E-012  0.5930193E+02  0.7816164E-02  0.1266605E+00
        -11   -1    0    0    0    0  0.00000000000E+00  0.00000000000E+00  0.45593999997E+02  0.45594000000E+02  0.51100000000E-03 0.  1.
         11   -1    0    0    0    0 -0.00000000000E+00 -0.00000000000E+00 -0.45593999997E+02  0.45594000000E+02  0.51100000000E-03 0. -1.
    9900012    2    1    2    0    0 -0.18944772996E+01 -0.11816733277E+02  0.29554989324E+02  0.59301927437E+02  0.49999969743E+02 0.  0.
         12    1    1    2    0    0  0.18944772996E+01  0.11816733277E+02 -0.29554989324E+02  0.31886072563E+02  0.00000000000E+00 0. -1.
         11    1    3    3    0    0  0.39315371285E+01 -0.40967736626E+01  0.11165764447E+02  0.12526565155E+02  0.51100000000E-03 0. -1.
        -11    1    3    3    0    0 -0.72044512817E+01 -0.60334925830E+01  0.31815125575E+02  0.33173926006E+02  0.51100000000E-03 0.  1.
         12    1    3    3    0    0  0.13784368536E+01 -0.16864670310E+01 -0.13425900699E+02  0.13601436276E+02  0.00000000000E+00 0. -1.
</event>
<event>
 7    1  0.6316620E-012  0.5930195E+02  0.7816164E-02  0.1266605E+00
        -11   -1    0    0    0    0  0.00000000000E+00  0.00000000000E+00  0.45593999997E+02  0.45594000000E+02  0.51100000000E-03 0.  1.
         11   -1    0    0    0    0 -0.00000000000E+00 -0.00000000000E+00 -0.45593999997E+02  0.45594000000E+02  0.51100000000E-03 0. -1.
    9900012    2    1    2    0    0  0.91845944696E+01 -0.96550097933E+01  0.28967988224E+02  0.59301947698E+02  0.50000006693E+02 0.  0.
         12    1    1    2    0    0 -0.91845944696E+01  0.96550097933E+01 -0.28967988224E+02  0.31886052302E+02  0.00000000000E+00 0. -1.
         11    1    3    3    0    0 -0.15632536849E+01 -0.51441544243E+01 -0.65100951201E+01  0.84431881158E+01  0.51100000000E-03 0. -1.
        -11    1    3    3    0    0  0.10037600701E+02  0.13953775252E+02  0.11916899073E+02  0.20915873288E+02  0.51100000000E-03 0.  1.
         12    1    3    3    0    0  0.71024745351E+00 -0.18464630621E+02  0.23561184271E+02  0.29942886294E+02  0.00000000000E+00 0. -1.
</event>
<event>
 7    1  0.6316620E-012  0.5930184E+02  0.7816164E-02  0.1266605E+00
        -11   -1    0    0    0    0  0.00000000000E+00  0.00000000000E+00  0.45593999997E+02  0.45594000000E+02  0.51100000000E-03 0. -1.
         11   -1    0    0    0    0 -0.00000000000E+00 -0.00000000000E+00 -0.45593999997E+02  0.45594000000E+02  0.51100000000E-03 0.  1.
    9900012    2    1    2    0    0  0.25085265100E+02 -0.13175653750E+02 -0.14623906257E+02  0.59301842956E+02  0.49999815668E+02 0.  0.
         12    1    1    2    0    0 -0.25085265100E+02  0.13175653750E+02  0.14623906257E+02  0.31886157044E+02  0.00000000000E+00 0. -1.
         11    1    3    3    0    0  0.24190163007E+02 -0.99130262436E+01 -0.14344921352E+02  0.29819605035E+02  0.51100000000E-03 0. -1.
        -11    1    3    3    0    0  0.57156208611E+01 -0.23415468011E+01 -0.13788589681E+02  0.15108817588E+02  0.51100000000E-03 0.  1.
         12    1    3    3    0    0 -0.48205187681E+01 -0.92108070486E+00  0.13509604776E+02  0.14373420333E+02  0.00000000000E+00 0. -1.
</event>
<event>
 7    1  0.6316620E-012  0.5930199E+02  0.7816164E-02  0.1266605E+00
        -11   -1    0    0    0    0  0.00000000000E+00  0.00000000000E+00  0.45593999997E+02  0.45594000000E+02  0.51100000000E-03 0. -1.
         11   -1    0    0    0    0 -0.00000000000E+00 -0.00000000000E+00 -0.45593999997E+02  0.45594000000E+02  0.51100000000E-03 0.  1.
    9900012    2    1    2    0    0 -0.29751603363E+02  0.83521050130E+01 -0.78614222822E+01  0.59301991766E+02  0.50000087063E+02 0.  0.
         12    1    1    2    0    0  0.29751603363E+02 -0.83521050130E+01  0.78614222822E+01  0.31886008234E+02  0.00000000000E+00 0. -1.
         11    1    3    3    0    0  0.65411619033E+01  0.37788874205E+01 -0.92705800192E+01  0.11958697393E+02  0.51100000000E-03 0. -1.
        -11    1    3    3    0    0 -0.43567469123E+01 -0.91107330055E+01  0.68119626394E+01  0.12181524322E+02  0.51100000000E-03 0.  1.
        -12    1    3    3    0    0 -0.31936018354E+02  0.13683950598E+02 -0.54028049024E+01  0.35161770051E+02  0.00000000000E+00 0.  1.
</event>
<event>
 7    1  0.6316620E-012  0.5930194E+02  0.7816164E-02  0.1266605E+00
        -11   -1    0    0    0    0  0.00000000000E+00  0.00000000000E+00  0.45593999997E+02  0.45594000000E+02  0.51100000000E-03 0.  1.
         11   -1    0    0    0    0 -0.00000000000E+00 -0.00000000000E+00 -0.45593999997E+02  0.45594000000E+02  0.51100000000E-03 0. -1.
    9900012    2    1    2    0    0  0.17132165142E+02 -0.26681817968E+02  0.33601310342E+01  0.59301937635E+02  0.49999988342E+02 0.  0.
         12    1    1    2    0    0 -0.17132165142E+02  0.26681817968E+02 -0.33601310342E+01  0.31886062365E+02  0.00000000000E+00 0. -1.
         11    1    3    3    0    0  0.21477790582E+02 -0.14804725617E+02  0.29137703967E+01  0.26248151307E+02  0.51100000000E-03 0.  1.
        -11    1    3    3    0    0  0.46426110175E+01  0.85667503944E+01  0.38239244167E+01  0.10467351508E+02  0.51100000000E-03 0. -1.
        -12    1    3    3    0    0 -0.89882364570E+01 -0.20443842746E+02 -0.33775637793E+01  0.22586434820E+02  0.00000000000E+00 0.  1.
</event>
<event>
 7    1  0.6316620E-012  0.5930193E+02  0.7816164E-02  0.1266605E+00
        -11   -1    0    0    0    0  0.00000000000E+00  0.00000000000E+00  0.45593999997E+02  0.45594000000E+02  0.51100000000E-03 0. -1.
         11   -1    0    0    0    0 -0.00000000000E+00 -0.00000000000E+00 -0.45593999997E+02  0.45594000000E+02  0.51100000000E-03 0.  1.
    9900012    2    1    2    0    0 -0.26334324551E+02 -0.11887374721E+02 -0.13487585133E+02  0.59301932823E+02  0.49999979566E+02 0.  0.
         12    1    1    2    0    0  0.26334324551E+02  0.11887374721E+02  0.13487585133E+02  0.31886067177E+02  0.00000000000E+00 0. -1.
         11    1    3    3    0    0 -0.17402993195E+02 -0.16589576954E+02 -0.18379181712E+02  0.30263386399E+02  0.51100000000E-03 0. -1.
        -11    1    3    3    0    0 -0.17899336379E+02  0.59808019393E+01  0.28138912256E+00  0.18874199711E+02  0.51100000000E-03 0.  1.
        -12    1    3    3    0    0  0.89680050236E+01 -0.12785997064E+01  0.46102074566E+01  0.10164346713E+02  0.00000000000E+00 0.  1.
</event>
<event>
 7    1  0.6316620E-012  0.5930193E+02  0.7816164E-02  0.1266605E+00
        -11   -1    0    0    0    0  0.00000000000E+00  0.00000000000E+00  0.45593999997E+02  0.45594000000E+02  0.51100000000E-03 0.  1.
         11   -1    0    0    0    0 -0.00000000000E+00 -0.00000000000E+00 -0.45593999997E+02  0.45594000000E+02  0.51100000000E-03 0. -1.
    9900012    2    1    2    0    0  0.13055803758E+02  0.15829267302E+02  0.24407002606E+02  0.59301929510E+02  0.49999973523E+02 0.  0.
         12    1    1    2    0    0 -0.13055803758E+02 -0.15829267302E+02 -0.24407002606E+02  0.31886070490E+02  0.00000000000E+00 0. -1.
         11    1    3    3    0    0  0.19844300731E+02  0.56040572831E+01  0.51248071294E+01  0.21247714652E+02  0.51100000000E-03 0. -1.
        -11    1    3    3    0    0 -0.81540677647E+01 -0.95368872331E+01  0.44718562727E+01  0.13320605767E+02  0.51100000000E-03 0.  1.
        -12    1    3    3    0    0  0.13655707916E+01  0.19762097252E+02  0.14810339204E+02  0.24733609092E+02  0.00000000000E+00 0.  1.
</event>
<event>
 7    1  0.6316620E-012  0.5930195E+02  0.7816164E-02  0.1266605E+00
        -11   -1    0    0    0    0  0.00000000000E+00  0.00000000000E+00  0.45593999997E+02  0.45594000000E+02  0.51100000000E-03 0. -1.
         11   -1    0    0    0    0 -0.00000000000E+00 -0.00000000000E+00 -0.45593999997E+02  0.45594000000E+02  0.51100000000E-03 0.  1.
    9900012    2    1    2    0    0 -0.95528958520E+01 -0.17116830788E+02 -0.25149085878E+02  0.59301949196E+02  0.50000009425E+02 0.  0.
         12    1    1    2    0    0  0.95528958520E+01  0.17116830788E+02  0.25149085878E+02  0.31886050804E+02  0.00000000000E+00 0. -1.
         11    1    3    3    0    0  0.13758101891E+02 -0.61596148950E+01 -0.42715617342E+01  0.15667560857E+02  0.51100000000E-03 0. -1.
        -11    1    3    3    0    0 -0.13042878089E+02 -0.20472217610E+02 -0.12242902739E+02  0.27186706871E+02  0.51100000000E-03 0.  1.
        -12    1    3    3    0    0 -0.10268119654E+02  0.95150017168E+01 -0.86346214042E+01  0.16447681468E+02  0.00000000000E+00 0.  1.
</event>
<event>
 7    1  0.6316620E-012  0.5930196E+02  0.7816164E-02  0.1266605E+00
        -11   -1    0    0    0    0  0.00000000000E+00  0.00000000000E+00  0.45593999997E+02  0.45594000000E+02  0.51100000000E-03 0.  1.
         11   -1    0    0    0    0 -0.00000000000E+00 -0.00000000000E+00 -0.45593999997E+02  0.45594000000E+02  0.51100000000E-03 0. -1.
    9900012    2    1    2    0    0 -0.28449811982E+02 -0.11335644640E+02 -0.88786825956E+01  0.59301958448E+02  0.50000026299E+02 0.  0.
         12    1    1    2    0    0  0.28449811982E+02  0.11335644640E+02  0.88786825956E+01  0.31886041552E+02  0.00000000000E+00 0. -1.
         11    1    3    3    0    0 -0.52048218901E+01  0.14992649283E+01 -0.48120249925E+01  0.72452433377E+01  0.51100000000E-03 0. -1.
        -11    1    3    3    0    0 -0.34535343407E+02 -0.11142879220E+02 -0.11924405359E+02  0.38197449456E+02  0.51100000000E-03 0.  1.
         12    1    3    3    0    0  0.11290353315E+02 -0.16920303482E+01  0.78577477555E+01  0.13859265654E+02  0.00000000000E+00 0. -1.
</event>
<event>
 7    1  0.6316620E-012  0.5930196E+02  0.7816164E-02  0.1266605E+00
        -11   -1    0    0    0    0  0.00000000000E+00  0.00000000000E+00  0.45593999997E+02  0.45594000000E+02  0.51100000000E-03 0. -1.
         11   -1    0    0    0    0 -0.00000000000E+00 -0.00000000000E+00 -0.45593999997E+02  0.45594000000E+02  0.51100000000E-03 0.  1.
    9900012    2    1    2    0    0  0.15037435897E+02 -0.26748859473E+01 -0.27990000392E+02  0.59301958929E+02  0.50000027177E+02 0.  0.
         12    1    1    2    0    0 -0.15037435897E+02  0.26748859473E+01  0.27990000392E+02  0.31886041071E+02  0.00000000000E+00 0. -1.
         11    1    3    3    0    0  0.17272420196E+02 -0.30299643132E+01 -0.73011206661E+01  0.18995355917E+02  0.51100000000E-03 0. -1.
        -11    1    3    3    0    0  0.65341139936E+01 -0.78699974081E+01 -0.25408785703E+02  0.27390470898E+02  0.51100000000E-03 0.  1.
         12    1    3    3    0    0 -0.87690982928E+01  0.82250757740E+01  0.47199059764E+01  0.12916132114E+02  0.00000000000E+00 0. -1.
</event>
<event>
 7    1  0.6316620E-012  0.5930192E+02  0.7816164E-02  0.1266605E+00
        -11   -1    0    0    0    0  0.00000000000E+00  0.00000000000E+00  0.45593999997E+02  0.45594000000E+02  0.51100000000E-03 0. -1.
         11   -1    0    0    0    0 -0.00000000000E+00 -0.00000000000E+00 -0.45593999997E+02  0.45594000000E+02  0.51100000000E-03 0.  1.
    9900012    2    1    2    0    0 -0.59154429624E+01  0.85211916894E+01 -0.30151598569E+02  0.59301920443E+02  0.49999956987E+02 0.  0.
         12    1    1    2    0    0  0.59154429624E+01 -0.85211916894E+01  0.30151598569E+02  0.31886079557E+02  0.00000000000E+00 0. -1.
         11    1    3    3    0    0  0.10745241725E+01  0.32459176030E+01 -0.21635456426E+02  0.21903962160E+02  0.51100000000E-03 0. -1.
        -11    1    3    3    0    0 -0.64660255051E+01  0.59200900818E+01 -0.22106936719E+02  0.23781791433E+02  0.51100000000E-03 0.  1.
         12    1    3    3    0    0 -0.52394162983E+00 -0.64481599549E+00  0.13590794575E+02  0.13616166850E+02  0.00000000000E+00 0. -1.
</event>
<event>
 7    1  0.6316620E-012  0.5930196E+02  0.7816164E-02  0.1266605E+00
        -11   -1    0    0    0    0  0.00000000000E+00  0.00000000000E+00  0.45593999997E+02  0.45594000000E+02  0.51100000000E-03 0.  1.
         11   -1    0    0    0    0 -0.00000000000E+00 -0.00000000000E+00 -0.45593999997E+02  0.45594000000E+02  0.51100000000E-03 0. -1.
    9900012    2    1    2    0    0 -0.12811008110E+02  0.13920053816E+02  0.25667676665E+02  0.59301961482E+02  0.50000031832E+02 0.  0.
         12    1    1    2    0    0  0.12811008110E+02 -0.13920053816E+02 -0.25667676665E+02  0.31886038518E+02  0.00000000000E+00 0. -1.
         11    1    3    3    0    0 -0.76892850766E+01 -0.45424687320E+01  0.33580713988E+01  0.95412667372E+01  0.51100000000E-03 0. -1.
        -11    1    3    3    0    0 -0.20347001202E+02  0.16851963953E+02  0.54294715676E+01  0.26971620433E+02  0.51100000000E-03 0.  1.
         12    1    3    3    0    0  0.15225278169E+02  0.16105585952E+01  0.16880133698E+02  0.22789074312E+02  0.00000000000E+00 0. -1.
</event>
<event>
 7    1  0.6316620E-012  0.5930196E+02  0.7816164E-02  0.1266605E+00
        -11   -1    0    0    0    0  0.00000000000E+00  0.00000000000E+00  0.45593999997E+02  0.45594000000E+02  0.51100000000E-03 0.  1.
         11   -1    0    0    0    0 -0.00000000000E+00 -0.00000000000E+00 -0.45593999997E+02  0.45594000000E+02  0.51100000000E-03 0. -1.
    9900012    2    1    2    0    0  0.21641486350E+01 -0.24289849808E+02  0.20543597848E+02  0.59301956728E+02  0.50000023162E+02 0.  0.
         12    1    1    2    0    0 -0.21641486350E+01  0.24289849808E+02 -0.20543597848E+02  0.31886043272E+02  0.00000000000E+00 0. -1.
         11    1    3    3    0    0 -0.77164460395E+01 -0.17080870551E+02  0.14319410889E+02  0.23586971122E+02  0.51100000000E-03 0. -1.
        -11    1    3    3    0    0  0.10229417630E+01 -0.10351743810E+02  0.17914184569E+02  0.20715284666E+02  0.51100000000E-03 0.  1.
        -12    1    3    3    0    0  0.88576529116E+01  0.31427645523E+01 -0.11689997611E+02  0.14999700939E+02  0.00000000000E+00 0.  1.
</event>
<event>
 7    1  0.6316620E-012  0.5930191E+02  0.7816164E-02  0.1266605E+00
        -11   -1    0    0    0    0  0.00000000000E+00  0.00000000000E+00  0.45593999997E+02  0.45594000000E+02  0.51100000000E-03 0. -1.
         11   -1    0    0    0    0 -0.00000000000E+00 -0.00000000000E+00 -0.45593999997E+02  0.45594000000E+02  0.51100000000E-03 0.  1.
    9900012    2    1    2    0    0  0.24548014800E+02 -0.15317961077E+02 -0.13396925505E+02  0.59301912514E+02  0.49999942526E+02 0.  0.
         12    1    1    2    0    0 -0.24548014800E+02  0.15317961077E+02  0.13396925505E+02  0.31886087486E+02  0.00000000000E+00 0. -1.
         11    1    3    3    0    0  0.19863543155E+02 -0.23020527738E+02  0.23624636377E+00  0.30406592322E+02  0.51100000000E-03 0. -1.
        -11    1    3    3    0    0  0.49594990212E+01  0.11992106095E+01 -0.19485262917E+02  0.20142249324E+02  0.51100000000E-03 0.  1.
        -12    1    3    3    0    0 -0.27502737666E+00  0.65033560513E+01  0.58520910478E+01  0.87530708680E+01  0.00000000000E+00 0.  1.
</event>
<event>
 7    1  0.6316620E-012  0.5930194E+02  0.7816164E-02  0.1266605E+00
        -11   -1    0    0    0    0  0.00000000000E+00  0.00000000000E+00  0.45593999997E+02  0.45594000000E+02  0.51100000000E-03 0. -1.
         11   -1    0    0    0    0 -0.00000000000E+00 -0.00000000000E+00 -0.45593999997E+02  0.45594000000E+02  0.51100000000E-03 0.  1.
    9900012    2    1    2    0    0  0.17700292768E+02  0.25513716913E+02 -0.72436734216E+01  0.59301938477E+02  0.49999989877E+02 0.  0.
         12    1    1    2    0    0 -0.17700292768E+02 -0.25513716913E+02  0.72436734216E+01  0.31886061523E+02  0.00000000000E+00 0. -1.
         11    1    3    3    0    0 -0.45590523758E+00  0.55773620164E+01  0.95613920049E+01  0.11078584475E+02  0.51100000000E-03 0. -1.
        -11    1    3    3    0    0  0.86276454531E+01 -0.82814815810E+01  0.31575035705E+01  0.12368873526E+02  0.51100000000E-03 0.  1.
        -12    1    3    3    0    0  0.95285525522E+01  0.28217836478E+02 -0.19962568997E+02  0.35854480476E+02  0.00000000000E+00 0.  1.
</event>
<event>
 7    1  0.6316620E-012  0.5930212E+02  0.7816164E-02  0.1266604E+00
        -11   -1    0    0    0    0  0.00000000000E+00  0.00000000000E+00  0.45593999997E+02  0.45594000000E+02  0.51100000000E-03 0. -1.
         11   -1    0    0    0    0 -0.00000000000E+00 -0.00000000000E+00 -0.45593999997E+02  0.45594000000E+02  0.51100000000E-03 0.  1.
    9900012    2    1    2    0    0  0.81906010358E+00  0.28706040742E+02 -0.13856460931E+02  0.59302123126E+02  0.50000326631E+02 0.  0.
         12    1    1    2    0    0 -0.81906010358E+00 -0.28706040742E+02  0.13856460931E+02  0.31885876874E+02  0.00000000000E+00 0. -1.
         11    1    3    3    0    0  0.10055624282E+02 -0.46016703983E+01  0.60927656600E+01  0.12625875962E+02  0.51100000000E-03 0. -1.
        -11    1    3    3    0    0  0.51804337537E+01  0.19684079122E+02 -0.29777995104E+01  0.20571027076E+02  0.51100000000E-03 0.  1.
        -12    1    3    3    0    0 -0.14416997932E+02  0.13623632018E+02 -0.16971427080E+02  0.26105220088E+02  0.00000000000E+00 0.  1.
</event>
<event>
 7    1  0.6316620E-012  0.5930194E+02  0.7816164E-02  0.1266605E+00
        -11   -1    0    0    0    0  0.00000000000E+00  0.00000000000E+00  0.45593999997E+02  0.45594000000E+02  0.51100000000E-03 0.  1.
         11   -1    0    0    0    0 -0.00000000000E+00 -0.00000000000E+00 -0.45593999997E+02  0.45594000000E+02  0.51100000000E-03 0. -1.
    9900012    2    1    2    0    0 -0.17050847168E+01  0.22634915923E+02  0.22393610281E+02  0.59301944832E+02  0.50000001468E+02 0.  0.
         12    1    1    2    0    0  0.17050847168E+01 -0.22634915923E+02 -0.22393610281E+02  0.31886055168E+02  0.00000000000E+00 0. -1.
         11    1    3    3    0    0 -0.68833680451E+01  0.82824402366E+01  0.10835530849E+02  0.15277051449E+02  0.51100000000E-03 0. -1.
        -11    1    3    3    0    0 -0.34504446596E+01  0.22254583490E+02 -0.56476089168E+01  0.23217828094E+02  0.51100000000E-03 0.  1.
         12    1    3    3    0    0  0.86287279879E+01 -0.79021078037E+01  0.17205688348E+02  0.20807065290E+02  0.00000000000E+00 0. -1.
</event>
<event>
 7    1  0.6316620E-012  0.5930191E+02  0.7816164E-02  0.1266605E+00
        -11   -1    0    0    0    0  0.00000000000E+00  0.00000000000E+00  0.45593999997E+02  0.45594000000E+02  0.51100000000E-03 0.  1.
         11   -1    0    0    0    0 -0.00000000000E+00 -0.00000000000E+00 -0.45593999997E+02  0.45594000000E+02  0.51100000000E-03 0. -1.
    9900012    2    1    2    0    0 -0.20059445689E+02  0.21018068488E+02  0.13137047642E+02  0.59301912359E+02  0.49999942244E+02 0.  0.
         12    1    1    2    0    0  0.20059445689E+02 -0.21018068488E+02 -0.13137047642E+02  0.31886087641E+02  0.00000000000E+00 0. -1.
         11    1    3    3    0    0 -0.17385843048E+01 -0.76538102519E+01  0.49024723211E+01  0.92540651542E+01  0.51100000000E-03 0. -1.
        -11    1    3    3    0    0 -0.16245279995E+02  0.18143719843E+02  0.21845286511E+02  0.32715749035E+02  0.51100000000E-03 0.  1.
         12    1    3    3    0    0 -0.20755813891E+01  0.10528158897E+02 -0.13610711191E+02  0.17332098170E+02  0.00000000000E+00 0. -1.
</event>
<event>
 7    1  0.6316620E-012  0.5930194E+02  0.7816164E-02  0.1266605E+00
        -11   -1    0    0    0    0  0.00000000000E+00  0.00000000000E+00  0.45593999997E+02  0.45594000000E+02  0.51100000000E-03 0. -1.
         11   -1    0    0    0    0 -0.00000000000E+00 -0.00000000000E+00 -0.45593999997E+02  0.45594000000E+02  0.51100000000E-03 0.  1.
    9900012    2    1    2    0    0 -0.19510211183E+02  0.17816647868E+01 -0.25157468713E+02  0.59301938753E+02  0.49999990380E+02 0.  0.
         12    1    1    2    0    0  0.19510211183E+02 -0.17816647868E+01  0.25157468713E+02  0.31886061247E+02  0.00000000000E+00 0. -1.
         11    1    3    3    0    0 -0.21245461913E+02 -0.47438277689E+01 -0.21500359818E+02  0.30596389106E+02  0.51100000000E-03 0. -1.
        -11    1    3    3    0    0 -0.57452628782E+01 -0.34626974402E+01 -0.11962889907E+02  0.13715285425E+02  0.51100000000E-03 0.  1.
         12    1    3    3    0    0  0.74805136083E+01  0.99881899960E+01  0.83057810109E+01  0.14990264222E+02  0.00000000000E+00 0. -1.
</event>
<event>
 7    1  0.6316620E-012  0.5930198E+02  0.7816164E-02  0.1266605E+00
        -11   -1    0    0    0    0  0.00000000000E+00  0.00000000000E+00  0.45593999997E+02  0.45594000000E+02  0.51100000000E-03 0. -1.
         11   -1    0    0    0    0 -0.00000000000E+00 -0.00000000000E+00 -0.45593999997E+02  0.45594000000E+02  0.51100000000E-03 0.  1.
    9900012    2    1    2    0    0 -0.14616026798E+02 -0.19411027080E+02 -0.20647082298E+02  0.59301980821E+02  0.50000067103E+02 0.  0.
         12    1    1    2    0    0  0.14616026798E+02  0.19411027080E+02  0.20647082298E+02  0.31886019179E+02  0.00000000000E+00 0. -1.
         11    1    3    3    0    0  0.33772213256E+01 -0.41195457694E+00  0.14109644877E+02  0.14514041796E+02  0.51100000000E-03 0. -1.
        -11    1    3    3    0    0 -0.25088560430E+01  0.11355648650E+01 -0.45807159383E+01  0.53447941939E+01  0.51100000000E-03 0.  1.
        -12    1    3    3    0    0 -0.15484392080E+02 -0.20134637368E+02 -0.30176011236E+02  0.39443144831E+02  0.00000000000E+00 0.  1.
</event>
<event>
 7    1  0.6316620E-012  0.5930194E+02  0.7816164E-02  0.1266605E+00
        -11   -1    0    0    0    0  0.00000000000E+00  0.00000000000E+00  0.45593999997E+02  0.45594000000E+02  0.51100000000E-03 0. -1.
         11   -1    0    0    0    0 -0.00000000000E+00 -0.00000000000E+00 -0.45593999997E+02  0.45594000000E+02  0.51100000000E-03 0.  1.
    9900012    2    1    2    0    0 -0.12649625180E+02 -0.22740791819E+02 -0.18427265592E+02  0.59301941182E+02  0.49999994810E+02 0.  0.
         12    1    1    2    0    0  0.12649625180E+02  0.22740791819E+02  0.18427265592E+02  0.31886058818E+02  0.00000000000E+00 0. -1.
         11    1    3    3    0    0  0.54869278109E+01 -0.82770755859E+01  0.75451886681E+01  0.12471817404E+02  0.51100000000E-03 0. -1.
        -11    1    3    3    0    0 -0.42523602900E+01 -0.22169109588E+02 -0.11447858526E+02  0.25310184769E+02  0.51100000000E-03 0.  1.
         12    1    3    3    0    0 -0.13884192701E+02  0.77053933552E+01 -0.14524595734E+02  0.21519939009E+02  0.00000000000E+00 0. -1.
</event>
<event>
 7    1  0.6316620E-012  0.5930195E+02  0.7816164E-02  0.1266605E+00
        -11   -1    0    0    0    0  0.00000000000E+00  0.00000000000E+00  0.45593999997E+02  0.45594000000E+02  0.51100000000E-03 0. -1.
         11   -1    0    0    0    0 -0.00000000000E+00 -0.00000000000E+00 -0.45593999997E+02  0.45594000000E+02  0.51100000000E-03 0.  1.
    9900012    2    1    2    0    0 -0.17559499061E+02 -0.26609914353E+02  0.54459841569E+00  0.59301950753E+02  0.50000012265E+02 0.  0.
         12    1    1    2    0    0  0.17559499061E+02  0.26609914353E+02 -0.54459841569E+00  0.31886049247E+02  0.00000000000E+00 0. -1.
         11    1    3    3    0    0 -0.15408247685E+01 -0.25025656546E+02  0.11591262964E+02  0.27622726221E+02  0.51100000000E-03 0. -1.
        -11    1    3    3    0    0 -0.36808801970E+01 -0.29292088083E-02  0.80712553410E+01  0.88709667256E+01  0.51100000000E-03 0.  1.
         12    1    3    3    0    0 -0.12337794096E+02 -0.15813285988E+01 -0.19117919889E+02  0.22808257806E+02  0.00000000000E+00 0. -1.
</event>
<event>
 7    1  0.6316620E-012  0.5930184E+02  0.7816164E-02  0.1266605E+00
        -11   -1    0    0    0    0  0.00000000000E+00  0.00000000000E+00  0.45593999997E+02  0.45594000000E+02  0.51100000000E-03 0. -1.
         11   -1    0    0    0    0 -0.00000000000E+00 -0.00000000000E+00 -0.45593999997E+02  0.45594000000E+02  0.51100000000E-03 0.  1.
    9900012    2    1    2    0    0  0.29919694269E+01 -0.27586837999E+02  0.15708003825E+02  0.59301844760E+02  0.49999818959E+02 0.  0.
         12    1    1    2    0    0 -0.29919694269E+01  0.27586837999E+02 -0.15708003825E+02  0.31886155240E+02  0.00000000000E+00 0. -1.
         11    1    3    3    0    0 -0.64823068447E+01 -0.84057294822E+01  0.50752358308E+01  0.11765823777E+02  0.51100000000E-03 0. -1.
        -11    1    3    3    0    0 -0.38013127689E+00 -0.30965305945E+02  0.73363871763E+01  0.31824789852E+02  0.51100000000E-03 0.  1.
         12    1    3    3    0    0  0.98544075485E+01  0.11784197428E+02  0.32963808180E+01  0.15711231131E+02  0.00000000000E+00 0. -1.
</event>
<event>
 7    1  0.6316620E-012  0.5930194E+02  0.7816164E-02  0.1266605E+00
        -11   -1    0    0    0    0  0.00000000000E+00  0.00000000000E+00  0.45593999997E+02  0.45594000000E+02  0.51100000000E-03 0. -1.
         11   -1    0    0    0    0 -0.00000000000E+00 -0.00000000000E+00 -0.45593999997E+02  0.45594000000E+02  0.51100000000E-03 0.  1.
    9900012    2    1    2    0    0  0.23941471379E+02 -0.11323854125E+02 -0.17756613835E+02  0.59301936290E+02  0.49999985889E+02 0.  0.
         12    1    1    2    0    0 -0.23941471379E+02  0.11323854125E+02  0.17756613835E+02  0.31886063710E+02  0.00000000000E+00 0. -1.
         11    1    3    3    0    0  0.29831574920E+00 -0.20214564210E+02 -0.14146721506E+02  0.24674831876E+02  0.51100000000E-03 0. -1.
        -11    1    3    3    0    0  0.10033416442E+02 -0.62638548855E+01 -0.73387378113E+01  0.13919856193E+02  0.51100000000E-03 0.  1.
        -12    1    3    3    0    0  0.13609739188E+02  0.15154564971E+02  0.37288454832E+01  0.20707248220E+02  0.00000000000E+00 0.  1.
</event>
<event>
 7    1  0.6316620E-012  0.5930194E+02  0.7816164E-02  0.1266605E+00
        -11   -1    0    0    0    0  0.00000000000E+00  0.00000000000E+00  0.45593999997E+02  0.45594000000E+02  0.51100000000E-03 0.  1.
         11   -1    0    0    0    0 -0.00000000000E+00 -0.00000000000E+00 -0.45593999997E+02  0.45594000000E+02  0.51100000000E-03 0. -1.
    9900012    2    1    2    0    0 -0.17714434726E+02  0.13856658547E+01  0.26476394753E+02  0.59301941187E+02  0.49999994819E+02 0.  0.
         12    1    1    2    0    0  0.17714434726E+02 -0.13856658547E+01 -0.26476394753E+02  0.31886058813E+02  0.00000000000E+00 0. -1.
         11    1    3    3    0    0 -0.12440182816E+02  0.37948455633E+01  0.30910045450E+02  0.33534905864E+02  0.51100000000E-03 0. -1.
        -11    1    3    3    0    0  0.54495876586E+01 -0.46360155754E+01  0.69467206715E+01  0.99723404681E+01  0.51100000000E-03 0.  1.
         12    1    3    3    0    0 -0.10723839568E+02  0.22268358669E+01 -0.11380371368E+02  0.15794694854E+02  0.00000000000E+00 0. -1.
</event>
<event>
 7    1  0.6316620E-012  0.5930193E+02  0.7816164E-02  0.1266605E+00
        -11   -1    0    0    0    0  0.00000000000E+00  0.00000000000E+00  0.45593999997E+02  0.45594000000E+02  0.51100000000E-03 0. -1.
         11   -1    0    0    0    0 -0.00000000000E+00 -0.00000000000E+00 -0.45593999997E+02  0.45594000000E+02  0.51100000000E-03 0.  1.
    9900012    2    1    2    0    0  0.16208172356E+02 -0.10619314151E+02 -0.25322847284E+02  0.59301932843E+02  0.49999979602E+02 0.  0.
         12    1    1    2    0    0 -0.16208172356E+02  0.10619314151E+02  0.25322847284E+02  0.31886067157E+02  0.00000000000E+00 0. -1.
         11    1    3    3    0    0  0.74740276117E+01  0.52985439346E+01 -0.28924585748E+02  0.30340852287E+02  0.51100000000E-03 0. -1.
        -11    1    3    3    0    0 -0.29108960842E+01  0.37333311083E+01 -0.24502211360E+01  0.53305404091E+01  0.51100000000E-03 0.  1.
         12    1    3    3    0    0  0.11645040829E+02 -0.19651189194E+02  0.60519596003E+01  0.23630540147E+02  0.00000000000E+00 0. -1.
</event>
<event>
 7    1  0.6316620E-012  0.5930194E+02  0.7816164E-02  0.1266605E+00
        -11   -1    0    0    0    0  0.00000000000E+00  0.00000000000E+00  0.45593999997E+02  0.45594000000E+02  0.51100000000E-03 0. -1.
         11   -1    0    0    0    0 -0.00000000000E+00 -0.00000000000E+00 -0.45593999997E+02  0.45594000000E+02  0.51100000000E-03 0.  1.
    9900012    2    1    2    0    0 -0.23313917192E+02 -0.33924781897E+01 -0.21486579609E+02  0.59301941190E+02  0.49999994825E+02 0.  0.
         12    1    1    2    0    0  0.23313917192E+02  0.33924781897E+01  0.21486579609E+02  0.31886058810E+02  0.00000000000E+00 0. -1.
         11    1    3    3    0    0 -0.28204694878E+02 -0.44262589762E+01  0.47623502994E+01  0.28944370132E+02  0.51100000000E-03 0. -1.
        -11    1    3    3    0    0  0.84059451418E+01  0.33920445672E+01 -0.97011784285E+01  0.13277000536E+02  0.51100000000E-03 0.  1.
        -12    1    3    3    0    0 -0.35151674562E+01 -0.23582637807E+01 -0.16547751480E+02  0.17080570522E+02  0.00000000000E+00 0.  1.
</event>
<event>
 7    1  0.6316620E-012  0.5930193E+02  0.7816164E-02  0.1266605E+00
        -11   -1    0    0    0    0  0.00000000000E+00  0.00000000000E+00  0.45593999997E+02  0.45594000000E+02  0.51100000000E-03 0. -1.
         11   -1    0    0    0    0 -0.00000000000E+00 -0.00000000000E+00 -0.45593999997E+02  0.45594000000E+02  0.51100000000E-03 0.  1.
    9900012    2    1    2    0    0  0.27753671135E+02  0.15435845375E+02  0.28618113008E+01  0.59301928623E+02  0.49999971906E+02 0.  0.
         12    1    1    2    0    0 -0.27753671135E+02 -0.15435845375E+02 -0.28618113008E+01  0.31886071377E+02  0.00000000000E+00 0. -1.
         11    1    3    3    0    0  0.17896903659E+02  0.13875547794E+02  0.10397956334E+02  0.24918817856E+02  0.51100000000E-03 0. -1.
        -11    1    3    3    0    0  0.19652824037E+02 -0.18911842980E+01 -0.11971349530E+02  0.23089462542E+02  0.51100000000E-03 0.  1.
         12    1    3    3    0    0 -0.97960565606E+01  0.34514818793E+01  0.44352044965E+01  0.11293648225E+02  0.00000000000E+00 0. -1.
</event>
<event>
 7    1  0.6316620E-012  0.5930195E+02  0.7816164E-02  0.1266605E+00
        -11   -1    0    0    0    0  0.00000000000E+00  0.00000000000E+00  0.45593999997E+02  0.45594000000E+02  0.51100000000E-03 0. -1.
         11   -1    0    0    0    0 -0.00000000000E+00 -0.00000000000E+00 -0.45593999997E+02  0.45594000000E+02  0.51100000000E-03 0.  1.
    9900012    2    1    2    0    0 -0.47368880232E+01 -0.18862176182E+02 -0.25268561597E+02  0.59301952838E+02  0.50000016067E+02 0.  0.
         12    1    1    2    0    0  0.47368880232E+01  0.18862176182E+02  0.25268561597E+02  0.31886047162E+02  0.00000000000E+00 0. -1.
         11    1    3    3    0    0 -0.11382102345E+01  0.63615379106E+01 -0.14503911202E+01  0.66233165248E+01  0.51100000000E-03 0. -1.
        -11    1    3    3    0    0 -0.10410246745E+02  0.41118394624E+01 -0.19180762428E+02  0.22207703813E+02  0.51100000000E-03 0.  1.
        -12    1    3    3    0    0  0.68115689559E+01 -0.29335553555E+02 -0.46374080484E+01  0.30470932500E+02  0.00000000000E+00 0.  1.
</event>
<event>
 7    1  0.6316620E-012  0.5930194E+02  0.7816164E-02  0.1266605E+00
        -11   -1    0    0    0    0  0.00000000000E+00  0.00000000000E+00  0.45593999997E+02  0.45594000000E+02  0.51100000000E-03 0. -1.
         11   -1    0    0    0    0 -0.00000000000E+00 -0.00000000000E+00 -0.45593999997E+02  0.45594000000E+02  0.51100000000E-03 0.  1.
    9900012    2    1    2    0    0 -0.37477588784E+01 -0.30644176240E+02  0.79755754575E+01  0.59301936619E+02  0.49999986489E+02 0.  0.
         12    1    1    2    0    0  0.37477588784E+01  0.30644176240E+02 -0.79755754575E+01  0.31886063381E+02  0.00000000000E+00 0. -1.
         11    1    3    3    0    0  0.10332356244E+01 -0.39141641137E+01 -0.33478522741E+01  0.52532248833E+01  0.51100000000E-03 0. -1.
        -11    1    3    3    0    0  0.17939777488E+02 -0.23999095888E+02  0.62011976422E+01  0.30598154719E+02  0.51100000000E-03 0.  1.
         12    1    3    3    0    0 -0.22720771990E+02 -0.27309162384E+01  0.51222300893E+01  0.23450557017E+02  0.00000000000E+00 0. -1.
</event>
<event>
 7    1  0.6316620E-012  0.5930184E+02  0.7816164E-02  0.1266605E+00
        -11   -1    0    0    0    0  0.00000000000E+00  0.00000000000E+00  0.45593999997E+02  0.45594000000E+02  0.51100000000E-03 0. -1.
         11   -1    0    0    0    0 -0.00000000000E+00 -0.00000000000E+00 -0.45593999997E+02  0.45594000000E+02  0.51100000000E-03 0.  1.
    9900012    2    1    2    0    0 -0.23911068628E+02 -0.16354452269E+02 -0.13323665263E+02  0.59301837359E+02  0.49999805461E+02 0.  0.
         12    1    1    2    0    0  0.23911068628E+02  0.16354452269E+02  0.13323665263E+02  0.31886162641E+02  0.00000000000E+00 0. -1.
         11    1    3    3    0    0 -0.41074491747E+01  0.17893761526E+01 -0.82408458685E+01  0.93800078159E+01  0.51100000000E-03 0. -1.
        -11    1    3    3    0    0 -0.29249339347E+02 -0.90754283692E+01 -0.14409575356E+02  0.33845577474E+02  0.51100000000E-03 0.  1.
         12    1    3    3    0    0  0.94457198940E+01 -0.90684000523E+01  0.93267559619E+01  0.16076252069E+02  0.00000000000E+00 0. -1.
</event>
<event>
 7    1  0.6316620E-012  0.5930194E+02  0.7816164E-02  0.1266605E+00
        -11   -1    0    0    0    0  0.00000000000E+00  0.00000000000E+00  0.45593999997E+02  0.45594000000E+02  0.51100000000E-03 0.  1.
         11   -1    0    0    0    0 -0.00000000000E+00 -0.00000000000E+00 -0.45593999997E+02  0.45594000000E+02  0.51100000000E-03 0. -1.
    9900012    2    1    2    0    0 -0.25604230025E+02  0.16616841279E+02  0.92208745912E+01  0.59301944467E+02  0.50000000800E+02 0.  0.
         12    1    1    2    0    0  0.25604230025E+02 -0.16616841279E+02 -0.92208745912E+01  0.31886055533E+02  0.00000000000E+00 0. -1.
         11    1    3    3    0    0 -0.16497284382E+02  0.66268773209E+01 -0.53910396150E+01  0.18577922473E+02  0.51100000000E-03 0. -1.
        -11    1    3    3    0    0 -0.20918172111E+02  0.14409952543E+02  0.97291583927E+01  0.27200609921E+02  0.51100000000E-03 0.  1.
         12    1    3    3    0    0  0.11811226468E+02 -0.44199885851E+01  0.48827558135E+01  0.13523412073E+02  0.00000000000E+00 0. -1.
</event>
<event>
 7    1  0.6316620E-012  0.5930195E+02  0.7816164E-02  0.1266605E+00
        -11   -1    0    0    0    0  0.00000000000E+00  0.00000000000E+00  0.45593999997E+02  0.45594000000E+02  0.51100000000E-03 0.  1.
         11   -1    0    0    0    0 -0.00000000000E+00 -0.00000000000E+00 -0.45593999997E+02  0.45594000000E+02  0.51100000000E-03 0. -1.
    9900012    2    1    2    0    0  0.89070507269E+01 -0.56541689355E+01  0.30090112175E+02  0.59301952429E+02  0.50000015321E+02 0.  0.
         12    1    1    2    0    0 -0.89070507269E+01  0.56541689355E+01 -0.30090112175E+02  0.31886047571E+02  0.00000000000E+00 0. -1.
         11    1    3    3    0    0  0.12244185800E+02 -0.59454101129E+01  0.76439153893E+01  0.15610811320E+02  0.51100000000E-03 0. -1.
        -11    1    3    3    0    0  0.12268051198E+02  0.12577285497E+02  0.11703042036E+02  0.21110527796E+02  0.51100000000E-03 0.  1.
         12    1    3    3    0    0 -0.15605186272E+02 -0.12286044319E+02  0.10743154750E+02  0.22580613313E+02  0.00000000000E+00 0. -1.
</event>
<event>
 7    1  0.6316620E-012  0.5930195E+02  0.7816164E-02  0.1266605E+00
        -11   -1    0    0    0    0  0.00000000000E+00  0.00000000000E+00  0.45593999997E+02  0.45594000000E+02  0.51100000000E-03 0.  1.
         11   -1    0    0    0    0 -0.00000000000E+00 -0.00000000000E+00 -0.45593999997E+02  0.45594000000E+02  0.51100000000E-03 0. -1.
    9900012    2    1    2    0    0  0.40489057500E+01  0.29485558469E+02  0.11442380684E+02  0.59301954906E+02  0.50000019840E+02 0.  0.
         12    1    1    2    0    0 -0.40489057500E+01 -0.29485558469E+02 -0.11442380684E+02  0.31886045094E+02  0.00000000000E+00 0. -1.
         11    1    3    3    0    0  0.16986460578E+00 -0.80718387186E+01  0.66929006194E+01  0.10487056462E+02  0.51100000000E-03 0. -1.
        -11    1    3    3    0    0 -0.12449729627E+02  0.93165182121E+01  0.45165384885E+01  0.16192356208E+02  0.51100000000E-03 0.  1.
         12    1    3    3    0    0  0.16328770771E+02  0.28240878975E+02  0.23294157600E+00  0.32622542236E+02  0.00000000000E+00 0. -1.
</event>
<event>
 7    1  0.6316620E-012  0.5930193E+02  0.7816164E-02  0.1266605E+00
        -11   -1    0    0    0    0  0.00000000000E+00  0.00000000000E+00  0.45593999997E+02  0.45594000000E+02  0.51100000000E-03 0.  1.
         11   -1    0    0    0    0 -0.00000000000E+00 -0.00000000000E+00 -0.45593999997E+02  0.45594000000E+02  0.51100000000E-03 0. -1.
    9900012    2    1    2    0    0 -0.10203494966E+01 -0.24231936137E+02  0.20700092444E+02  0.59301926720E+02  0.49999968434E+02 0.  0.
         12    1    1    2    0    0  0.10203494966E+01  0.24231936137E+02 -0.20700092444E+02  0.31886073280E+02  0.00000000000E+00 0. -1.
         11    1    3    3    0    0  0.18887733077E+02 -0.13301496978E+01 -0.50974447347E+00  0.18941372672E+02  0.51100000000E-03 0. -1.
        -11    1    3    3    0    0 -0.64613737182E+01 -0.17832416272E+02  0.71900118631E+01  0.20284000870E+02  0.51100000000E-03 0.  1.
        -12    1    3    3    0    0 -0.13446708856E+02 -0.50693701669E+01  0.14019825055E+02  0.20076553178E+02  0.00000000000E+00 0.  1.
</event>
<event>
 7    1  0.6316620E-012  0.5930195E+02  0.7816164E-02  0.1266605E+00
        -11   -1    0    0    0    0  0.00000000000E+00  0.00000000000E+00  0.45593999997E+02  0.45594000000E+02  0.51100000000E-03 0. -1.
         11   -1    0    0    0    0 -0.00000000000E+00 -0.00000000000E+00 -0.45593999997E+02  0.45594000000E+02  0.51100000000E-03 0.  1.
    9900012    2    1    2    0    0 -0.33751240623E+01  0.28534239677E+02 -0.13824830513E+02  0.59301949208E+02  0.50000009448E+02 0.  0.
         12    1    1    2    0    0  0.33751240623E+01 -0.28534239677E+02  0.13824830513E+02  0.31886050792E+02  0.00000000000E+00 0. -1.
         11    1    3    3    0    0 -0.85899584810E+01 -0.19773389941E+01  0.21165021426E+01  0.90651441127E+01  0.51100000000E-03 0. -1.
        -11    1    3    3    0    0  0.28507925927E+01 -0.36315589003E+01  0.74623528057E+01  0.87750753906E+01  0.51100000000E-03 0.  1.
        -12    1    3    3    0    0  0.23640418259E+01  0.34143137571E+02 -0.23403685461E+02  0.41461729705E+02  0.00000000000E+00 0.  1.
</event>
<event>
 7    1  0.6316620E-012  0.5930194E+02  0.7816164E-02  0.1266605E+00
        -11   -1    0    0    0    0  0.00000000000E+00  0.00000000000E+00  0.45593999997E+02  0.45594000000E+02  0.51100000000E-03 0. -1.
         11   -1    0    0    0    0 -0.00000000000E+00 -0.00000000000E+00 -0.45593999997E+02  0.45594000000E+02  0.51100000000E-03 0.  1.
    9900012    2    1    2    0    0 -0.34955671540E+01 -0.16432795862E+02 -0.27101011414E+02  0.59301943655E+02  0.49999999321E+02 0.  0.
         12    1    1    2    0    0  0.34955671540E+01  0.16432795862E+02  0.27101011414E+02  0.31886056345E+02  0.00000000000E+00 0. -1.
         11    1    3    3    0    0 -0.88791499849E+01 -0.15367730434E+02  0.59380255430E+01  0.18715410516E+02  0.51100000000E-03 0. -1.
        -11    1    3    3    0    0  0.66941978757E+01 -0.90651626557E+01 -0.29794923101E+02  0.31854778324E+02  0.51100000000E-03 0.  1.
        -12    1    3    3    0    0 -0.13106150448E+01  0.80000972282E+01 -0.32441138556E+01  0.87317548159E+01  0.00000000000E+00 0.  1.
</event>
<event>
 7    1  0.6316620E-012  0.5930196E+02  0.7816164E-02  0.1266605E+00
        -11   -1    0    0    0    0  0.00000000000E+00  0.00000000000E+00  0.45593999997E+02  0.45594000000E+02  0.51100000000E-03 0.  1.
         11   -1    0    0    0    0 -0.00000000000E+00 -0.00000000000E+00 -0.45593999997E+02  0.45594000000E+02  0.51100000000E-03 0. -1.
    9900012    2    1    2    0    0 -0.10238123675E+02  0.23427168913E+02  0.19054348070E+02  0.59301959167E+02  0.50000027610E+02 0.  0.
         12    1    1    2    0    0  0.10238123675E+02 -0.23427168913E+02 -0.19054348070E+02  0.31886040833E+02  0.00000000000E+00 0. -1.
         11    1    3    3    0    0  0.48707255044E+01  0.64470943787E+01  0.13420555050E+02  0.15665257450E+02  0.51100000000E-03 0. -1.
        -11    1    3    3    0    0 -0.46137580033E+01  0.19127171487E+02  0.18422519224E+02  0.26954121519E+02  0.51100000000E-03 0.  1.
         12    1    3    3    0    0 -0.10495091176E+02 -0.21470969534E+01 -0.12788726205E+02  0.16682580198E+02  0.00000000000E+00 0. -1.
</event>
<event>
 7    1  0.6316620E-012  0.5930194E+02  0.7816164E-02  0.1266605E+00
        -11   -1    0    0    0    0  0.00000000000E+00  0.00000000000E+00  0.45593999997E+02  0.45594000000E+02  0.51100000000E-03 0.  1.
         11   -1    0    0    0    0 -0.00000000000E+00 -0.00000000000E+00 -0.45593999997E+02  0.45594000000E+02  0.51100000000E-03 0. -1.
    9900012    2    1    2    0    0  0.22567136491E+02 -0.87046566164E+01  0.20776774037E+02  0.59301936656E+02  0.49999986556E+02 0.  0.
         12    1    1    2    0    0 -0.22567136491E+02  0.87046566164E+01 -0.20776774037E+02  0.31886063344E+02  0.00000000000E+00 0. -1.
         11    1    3    3    0    0  0.31312753227E+02 -0.10052507255E+02  0.24652082918E+02  0.41100688671E+02  0.51100000000E-03 0. -1.
        -11    1    3    3    0    0  0.25211951882E+01  0.45227962088E+01  0.13968473675E+01  0.53631421343E+01  0.51100000000E-03 0.  1.
         12    1    3    3    0    0 -0.11266811925E+02 -0.31749455706E+01 -0.52721562489E+01  0.12838105851E+02  0.00000000000E+00 0. -1.
</event>
<event>
 7    1  0.6316620E-012  0.5930198E+02  0.7816164E-02  0.1266605E+00
        -11   -1    0    0    0    0  0.00000000000E+00  0.00000000000E+00  0.45593999997E+02  0.45594000000E+02  0.51100000000E-03 0.  1.
         11   -1    0    0    0    0 -0.00000000000E+00 -0.00000000000E+00 -0.45593999997E+02  0.45594000000E+02  0.51100000000E-03 0. -1.
    9900012    2    1    2    0    0 -0.20005640387E+02 -0.22521476778E+02  0.10453487353E+02  0.59301984862E+02  0.50000074472E+02 0.  0.
         12    1    1    2    0    0  0.20005640387E+02  0.22521476778E+02 -0.10453487353E+02  0.31886015138E+02  0.00000000000E+00 0. -1.
         11    1    3    3    0    0  0.27273564160E+01 -0.19464720242E+02  0.22110890373E+02  0.29583868585E+02  0.51100000000E-03 0. -1.
        -11    1    3    3    0    0 -0.97377067024E+01  0.28682878186E+01  0.15453099023E+01  0.10268300238E+02  0.51100000000E-03 0.  1.
        -12    1    3    3    0    0 -0.12995290101E+02 -0.59250443537E+01 -0.13202712922E+02  0.19449816038E+02  0.00000000000E+00 0.  1.
</event>
<event>
 7    1  0.6316620E-012  0.5930196E+02  0.7816164E-02  0.1266605E+00
        -11   -1    0    0    0    0  0.00000000000E+00  0.00000000000E+00  0.45593999997E+02  0.45594000000E+02  0.51100000000E-03 0.  1.
         11   -1    0    0    0    0 -0.00000000000E+00 -0.00000000000E+00 -0.45593999997E+02  0.45594000000E+02  0.51100000000E-03 0. -1.
    9900012    2    1    2    0    0  0.27378558733E+02  0.12400041955E+02 -0.10647687932E+02  0.59301956390E+02  0.50000022547E+02 0.  0.
         12    1    1    2    0    0 -0.27378558733E+02 -0.12400041955E+02  0.10647687932E+02  0.31886043610E+02  0.00000000000E+00 0. -1.
         11    1    3    3    0    0  0.17328034019E+02  0.28184746368E+02 -0.23298846102E+01  0.33167288906E+02  0.51100000000E-03 0.  1.
        -11    1    3    3    0    0 -0.10727990720E+01  0.24158380512E+01 -0.32887910888E+01  0.42193978747E+01  0.51100000000E-03 0. -1.
         12    1    3    3    0    0  0.11123323785E+02 -0.18200542464E+02 -0.50290122333E+01  0.21915269610E+02  0.00000000000E+00 0. -1.
</event>
<event>
 7    1  0.6316620E-012  0.5930191E+02  0.7816164E-02  0.1266605E+00
        -11   -1    0    0    0    0  0.00000000000E+00  0.00000000000E+00  0.45593999997E+02  0.45594000000E+02  0.51100000000E-03 0. -1.
         11   -1    0    0    0    0 -0.00000000000E+00 -0.00000000000E+00 -0.45593999997E+02  0.45594000000E+02  0.51100000000E-03 0.  1.
    9900012    2    1    2    0    0 -0.17852744708E+01  0.11987179015E+02 -0.29493097601E+02  0.59301914135E+02  0.49999945483E+02 0.  0.
         12    1    1    2    0    0  0.17852744708E+01 -0.11987179015E+02  0.29493097601E+02  0.31886085865E+02  0.00000000000E+00 0. -1.
         11    1    3    3    0    0 -0.19441558145E+02  0.14589013606E+02 -0.27666337403E+02  0.36827160177E+02  0.51100000000E-03 0. -1.
        -11    1    3    3    0    0  0.43050466291E+01  0.21598414715E+01  0.48242409566E+01  0.68170112754E+01  0.51100000000E-03 0.  1.
        -12    1    3    3    0    0  0.13351237045E+02 -0.47616760630E+01 -0.66510011543E+01  0.15657742683E+02  0.00000000000E+00 0.  1.
</event>
<event>
 7    1  0.6316620E-012  0.5930194E+02  0.7816164E-02  0.1266605E+00
        -11   -1    0    0    0    0  0.00000000000E+00  0.00000000000E+00  0.45593999997E+02  0.45594000000E+02  0.51100000000E-03 0.  1.
         11   -1    0    0    0    0 -0.00000000000E+00 -0.00000000000E+00 -0.45593999997E+02  0.45594000000E+02  0.51100000000E-03 0. -1.
    9900012    2    1    2    0    0 -0.21787448539E+02  0.81746558766E+01  0.21799153805E+02  0.59301936914E+02  0.49999987026E+02 0.  0.
         12    1    1    2    0    0  0.21787448539E+02 -0.81746558766E+01 -0.21799153805E+02  0.31886063086E+02  0.00000000000E+00 0. -1.
         11    1    3    3    0    0 -0.14156401415E+02  0.65427177486E+00  0.12625164676E+02  0.18979635295E+02  0.51100000000E-03 0. -1.
        -11    1    3    3    0    0 -0.16298557077E+02  0.14214329648E+02 -0.52089193696E+01  0.22244616683E+02  0.51100000000E-03 0.  1.
         12    1    3    3    0    0  0.86675099530E+01 -0.66939455464E+01  0.14382908498E+02  0.18077684935E+02  0.00000000000E+00 0. -1.
</event>
<event>
 7    1  0.6316620E-012  0.5930195E+02  0.7816164E-02  0.1266605E+00
        -11   -1    0    0    0    0  0.00000000000E+00  0.00000000000E+00  0.45593999997E+02  0.45594000000E+02  0.51100000000E-03 0. -1.
         11   -1    0    0    0    0 -0.00000000000E+00 -0.00000000000E+00 -0.45593999997E+02  0.45594000000E+02  0.51100000000E-03 0.  1.
    9900012    2    1    2    0    0 -0.14267261764E+02  0.20169765584E+02 -0.20158019620E+02  0.59301953570E+02  0.50000017402E+02 0.  0.
         12    1    1    2    0    0  0.14267261764E+02 -0.20169765584E+02  0.20158019620E+02  0.31886046430E+02  0.00000000000E+00 0. -1.
         11    1    3    3    0    0 -0.56641992279E+00 -0.44180709309E+00  0.31900693500E+01  0.32699491976E+01  0.51100000000E-03 0. -1.
        -11    1    3    3    0    0  0.14743631020E+02  0.55741814119E+01  0.83208534320E+00  0.15784122413E+02  0.51100000000E-03 0.  1.
        -12    1    3    3    0    0 -0.28444472861E+02  0.15037391265E+02 -0.24180174313E+02  0.40247881959E+02  0.00000000000E+00 0.  1.
</event>
<event>
 7    1  0.6316620E-012  0.5930198E+02  0.7816164E-02  0.1266605E+00
        -11   -1    0    0    0    0  0.00000000000E+00  0.00000000000E+00  0.45593999997E+02  0.45594000000E+02  0.51100000000E-03 0.  1.
         11   -1    0    0    0    0 -0.00000000000E+00 -0.00000000000E+00 -0.45593999997E+02  0.45594000000E+02  0.51100000000E-03 0. -1.
    9900012    2    1    2    0    0  0.97358855159E+01  0.22169459614E+02  0.20747196627E+02  0.59301975253E+02  0.50000056947E+02 0.  0.
         12    1    1    2    0    0 -0.97358855159E+01 -0.22169459614E+02 -0.20747196627E+02  0.31886024747E+02  0.00000000000E+00 0. -1.
         11    1    3    3    0    0  0.11655977287E+02  0.28181324043E+01 -0.73070698652E+01  0.14042683043E+02  0.51100000000E-03 0. -1.
        -11    1    3    3    0    0  0.11422454961E+02 -0.13576919376E+00  0.12740803082E+02  0.17111954127E+02  0.51100000000E-03 0.  1.
         12    1    3    3    0    0 -0.13342546732E+02  0.19487096403E+02  0.15313463410E+02  0.28147338083E+02  0.00000000000E+00 0. -1.
</event>
<event>
 7    1  0.6316620E-012  0.5930193E+02  0.7816164E-02  0.1266605E+00
        -11   -1    0    0    0    0  0.00000000000E+00  0.00000000000E+00  0.45593999997E+02  0.45594000000E+02  0.51100000000E-03 0. -1.
         11   -1    0    0    0    0 -0.00000000000E+00 -0.00000000000E+00 -0.45593999997E+02  0.45594000000E+02  0.51100000000E-03 0.  1.
    9900012    2    1    2    0    0  0.20709174031E+01 -0.25386331871E+02 -0.19182469099E+02  0.59301926778E+02  0.49999968541E+02 0.  0.
         12    1    1    2    0    0 -0.20709174031E+01  0.25386331871E+02  0.19182469099E+02  0.31886073222E+02  0.00000000000E+00 0. -1.
         11    1    3    3    0    0 -0.57860123222E+01  0.17900310599E+01  0.21549884909E+01  0.64285399155E+01  0.51100000000E-03 0. -1.
        -11    1    3    3    0    0  0.44754525800E+01 -0.18995780124E+02 -0.32935451366E+02  0.38283329208E+02  0.51100000000E-03 0.  1.
         12    1    3    3    0    0  0.33814771453E+01 -0.81805828069E+01  0.11597993776E+02  0.14590057655E+02  0.00000000000E+00 0. -1.
</event>
<event>
 7    1  0.6316620E-012  0.5930193E+02  0.7816164E-02  0.1266605E+00
        -11   -1    0    0    0    0  0.00000000000E+00  0.00000000000E+00  0.45593999997E+02  0.45594000000E+02  0.51100000000E-03 0.  1.
         11   -1    0    0    0    0 -0.00000000000E+00 -0.00000000000E+00 -0.45593999997E+02  0.45594000000E+02  0.51100000000E-03 0. -1.
    9900012    2    1    2    0    0 -0.12898284751E+02  0.22555368126E+02  0.18482728162E+02  0.59301927474E+02  0.49999969810E+02 0.  0.
         12    1    1    2    0    0  0.12898284751E+02 -0.22555368126E+02 -0.18482728162E+02  0.31886072526E+02  0.00000000000E+00 0. -1.
         11    1    3    3    0    0  0.30030810305E+01  0.16745770595E+02  0.33871597452E+01  0.17346820455E+02  0.51100000000E-03 0. -1.
        -11    1    3    3    0    0  0.31674932081E+01 -0.46479810144E+01  0.19038878996E+02  0.19852346320E+02  0.51100000000E-03 0.  1.
         12    1    3    3    0    0 -0.19068858990E+02  0.10457578545E+02 -0.39433105786E+01  0.22102760699E+02  0.00000000000E+00 0. -1.
</event>
<event>
 7    1  0.6316620E-012  0.5930201E+02  0.7816164E-02  0.1266605E+00
        -11   -1    0    0    0    0  0.00000000000E+00  0.00000000000E+00  0.45593999997E+02  0.45594000000E+02  0.51100000000E-03 0.  1.
         11   -1    0    0    0    0 -0.00000000000E+00 -0.00000000000E+00 -0.45593999997E+02  0.45594000000E+02  0.51100000000E-03 0. -1.
    9900012    2    1    2    0    0  0.29396478284E+02 -0.69448732991E+01  0.10214326259E+02  0.59302005244E+02  0.50000111644E+02 0.  0.
         12    1    1    2    0    0 -0.29396478284E+02  0.69448732991E+01 -0.10214326259E+02  0.31885994756E+02  0.00000000000E+00 0. -1.
         11    1    3    3    0    0  0.73093566811E+01 -0.56595884327E+01 -0.80726158486E+00  0.92795101081E+01  0.51100000000E-03 0. -1.
        -11    1    3    3    0    0  0.11057817799E+02 -0.12921482903E+02  0.23986312587E+02  0.29403796467E+02  0.51100000000E-03 0.  1.
         12    1    3    3    0    0  0.11029303804E+02  0.11636198036E+02 -0.12964724743E+02  0.20618698669E+02  0.00000000000E+00 0. -1.
</event>
<event>
 7    1  0.6316620E-012  0.5930195E+02  0.7816164E-02  0.1266605E+00
        -11   -1    0    0    0    0  0.00000000000E+00  0.00000000000E+00  0.45593999997E+02  0.45594000000E+02  0.51100000000E-03 0.  1.
         11   -1    0    0    0    0 -0.00000000000E+00 -0.00000000000E+00 -0.45593999997E+02  0.45594000000E+02  0.51100000000E-03 0. -1.
    9900012    2    1    2    0    0  0.16615626269E+02 -0.25226572493E+02 -0.10210833808E+02  0.59301950964E+02  0.50000012650E+02 0.  0.
         12    1    1    2    0    0 -0.16615626269E+02  0.25226572493E+02  0.10210833808E+02  0.31886049036E+02  0.00000000000E+00 0. -1.
         11    1    3    3    0    0 -0.87859483554E+01 -0.24868269544E+01 -0.30707700990E+00  0.91362734940E+01  0.51100000000E-03 0. -1.
        -11    1    3    3    0    0 -0.10072274632E+01  0.47807794222E+01  0.69259789010E+01  0.84758210838E+01  0.51100000000E-03 0.  1.
        -12    1    3    3    0    0  0.26408802087E+02 -0.27520524961E+02 -0.16829735699E+02  0.41689856386E+02  0.00000000000E+00 0.  1.
</event>
<event>
 7    1  0.6316620E-012  0.5930195E+02  0.7816164E-02  0.1266605E+00
        -11   -1    0    0    0    0  0.00000000000E+00  0.00000000000E+00  0.45593999997E+02  0.45594000000E+02  0.51100000000E-03 0.  1.
         11   -1    0    0    0    0 -0.00000000000E+00 -0.00000000000E+00 -0.45593999997E+02  0.45594000000E+02  0.51100000000E-03 0. -1.
    9900012    2    1    2    0    0 -0.22580584921E+02  0.20346287162E+02  0.96367078703E+01  0.59301947325E+02  0.50000006013E+02 0.  0.
         12    1    1    2    0    0  0.22580584921E+02 -0.20346287162E+02 -0.96367078703E+01  0.31886052675E+02  0.00000000000E+00 0. -1.
         11    1    3    3    0    0 -0.62943527979E+01  0.99374426327E+01  0.12065569138E+02  0.16850804198E+02  0.51100000000E-03 0. -1.
        -11    1    3    3    0    0 -0.25792774014E+02  0.15272894757E+02  0.35955832133E+01  0.30190341576E+02  0.51100000000E-03 0.  1.
         12    1    3    3    0    0  0.95065418911E+01 -0.48640502280E+01 -0.60244444813E+01  0.12260801550E+02  0.00000000000E+00 0. -1.
</event>
<event>
 7    1  0.6316620E-012  0.5930196E+02  0.7816164E-02  0.1266605E+00
        -11   -1    0    0    0    0  0.00000000000E+00  0.00000000000E+00  0.45593999997E+02  0.45594000000E+02  0.51100000000E-03 0. -1.
         11   -1    0    0    0    0 -0.00000000000E+00 -0.00000000000E+00 -0.45593999997E+02  0.45594000000E+02  0.51100000000E-03 0.  1.
    9900012    2    1    2    0    0 -0.16051519340E+02  0.22352476119E+02 -0.16106996326E+02  0.59301956149E+02  0.50000022107E+02 0.  0.
         12    1    1    2    0    0  0.16051519340E+02 -0.22352476119E+02  0.16106996326E+02  0.31886043851E+02  0.00000000000E+00 0. -1.
         11    1    3    3    0    0 -0.16475373664E+02  0.11840340094E+02 -0.24346224015E+01  0.20434259894E+02  0.51100000000E-03 0. -1.
        -11    1    3    3    0    0 -0.52255719590E+01  0.69039729197E+01  0.10599875655E+02  0.13686811482E+02  0.51100000000E-03 0.  1.
        -12    1    3    3    0    0  0.56494262827E+01  0.36081631056E+01 -0.24272249580E+02  0.25180884774E+02  0.00000000000E+00 0.  1.
</event>
<event>
 7    1  0.6316620E-012  0.5930195E+02  0.7816164E-02  0.1266605E+00
        -11   -1    0    0    0    0  0.00000000000E+00  0.00000000000E+00  0.45593999997E+02  0.45594000000E+02  0.51100000000E-03 0.  1.
         11   -1    0    0    0    0 -0.00000000000E+00 -0.00000000000E+00 -0.45593999997E+02  0.45594000000E+02  0.51100000000E-03 0. -1.
    9900012    2    1    2    0    0  0.18976121526E+02  0.22734132942E+02  0.11823119767E+02  0.59301950546E+02  0.50000011888E+02 0.  0.
         12    1    1    2    0    0 -0.18976121526E+02 -0.22734132942E+02 -0.11823119767E+02  0.31886049454E+02  0.00000000000E+00 0. -1.
         11    1    3    3    0    0 -0.82888735733E+01  0.13310032364E+02  0.20563283278E+02  0.25859447134E+02  0.51100000000E-03 0. -1.
        -11    1    3    3    0    0 -0.86377691223E+00  0.33625864899E+01 -0.14244180914E+01  0.37526078420E+01  0.51100000000E-03 0.  1.
        -12    1    3    3    0    0  0.28128772011E+02  0.60615140881E+01 -0.73157454198E+01  0.29689895570E+02  0.00000000000E+00 0.  1.
</event>
<event>
 7    1  0.6316620E-012  0.5930194E+02  0.7816164E-02  0.1266605E+00
        -11   -1    0    0    0    0  0.00000000000E+00  0.00000000000E+00  0.45593999997E+02  0.45594000000E+02  0.51100000000E-03 0.  1.
         11   -1    0    0    0    0 -0.00000000000E+00 -0.00000000000E+00 -0.45593999997E+02  0.45594000000E+02  0.51100000000E-03 0. -1.
    9900012    2    1    2    0    0  0.29205847390E+02  0.11673054003E+02 -0.52420260192E+01  0.59301944297E+02  0.50000000491E+02 0.  0.
         12    1    1    2    0    0 -0.29205847390E+02 -0.11673054003E+02  0.52420260192E+01  0.31886055703E+02  0.00000000000E+00 0. -1.
         11    1    3    3    0    0  0.18119671117E+02  0.14414125686E+01 -0.56047863458E+01  0.19021403256E+02  0.51100000000E-03 0. -1.
        -11    1    3    3    0    0  0.15252852678E+02 -0.90227775437E+01  0.76141879574E+01  0.19288231851E+02  0.51100000000E-03 0.  1.
         12    1    3    3    0    0 -0.41666764051E+01  0.19254418978E+02 -0.72514276309E+01  0.20992309190E+02  0.00000000000E+00 0. -1.
</event>
<event>
 7    1  0.6316620E-012  0.5930194E+02  0.7816164E-02  0.1266605E+00
        -11   -1    0    0    0    0  0.00000000000E+00  0.00000000000E+00  0.45593999997E+02  0.45594000000E+02  0.51100000000E-03 0. -1.
         11   -1    0    0    0    0 -0.00000000000E+00 -0.00000000000E+00 -0.45593999997E+02  0.45594000000E+02  0.51100000000E-03 0.  1.
    9900012    2    1    2    0    0 -0.27733449569E+02 -0.15187983623E+02  0.41111416733E+01  0.59301944154E+02  0.50000000230E+02 0.  0.
         12    1    1    2    0    0  0.27733449569E+02  0.15187983623E+02 -0.41111416733E+01  0.31886055846E+02  0.00000000000E+00 0. -1.
         11    1    3    3    0    0  0.42824986425E+01  0.64557595271E+01 -0.67500827203E+00  0.77763913304E+01  0.51100000000E-03 0. -1.
        -11    1    3    3    0    0 -0.15863714316E+02  0.76587968164E+01 -0.64825721159E+00  0.17627672514E+02  0.51100000000E-03 0.  1.
        -12    1    3    3    0    0 -0.16152233896E+02 -0.29302539967E+02  0.54344071570E+01  0.33897880309E+02  0.00000000000E+00 0.  1.
</event>
<event>
 7    1  0.6316620E-012  0.5930193E+02  0.7816164E-02  0.1266605E+00
        -11   -1    0    0    0    0  0.00000000000E+00  0.00000000000E+00  0.45593999997E+02  0.45594000000E+02  0.51100000000E-03 0.  1.
         11   -1    0    0    0    0 -0.00000000000E+00 -0.00000000000E+00 -0.45593999997E+02  0.45594000000E+02  0.51100000000E-03 0. -1.
    9900012    2    1    2    0    0  0.46353905680E+01  0.98905814534E+01  0.29956819477E+02  0.59301929681E+02  0.49999973836E+02 0.  0.
         12    1    1    2    0    0 -0.46353905680E+01 -0.98905814534E+01 -0.29956819477E+02  0.31886070319E+02  0.00000000000E+00 0. -1.
         11    1    3    3    0    0  0.10370191456E+02 -0.35672871782E+01  0.10824407208E+02  0.15408900036E+02  0.51100000000E-03 0. -1.
        -11    1    3    3    0    0  0.81043216052E+01  0.21826670584E+02  0.12353430860E+02  0.26356988290E+02  0.51100000000E-03 0.  1.
        -12    1    3    3    0    0 -0.13839122493E+02 -0.83688019522E+01  0.67789814084E+01  0.17536041356E+02  0.00000000000E+00 0.  1.
</event>
<event>
 7    1  0.6316620E-012  0.5930191E+02  0.7816164E-02  0.1266605E+00
        -11   -1    0    0    0    0  0.00000000000E+00  0.00000000000E+00  0.45593999997E+02  0.45594000000E+02  0.51100000000E-03 0.  1.
         11   -1    0    0    0    0 -0.00000000000E+00 -0.00000000000E+00 -0.45593999997E+02  0.45594000000E+02  0.51100000000E-03 0. -1.
    9900012    2    1    2    0    0  0.69803496901E+01 -0.29406579845E+02  0.10161214705E+02  0.59301913626E+02  0.49999944554E+02 0.  0.
         12    1    1    2    0    0 -0.69803496901E+01  0.29406579845E+02 -0.10161214705E+02  0.31886086374E+02  0.00000000000E+00 0. -1.
         11    1    3    3    0    0  0.89588540002E+01  0.48209421740E+01  0.77616102168E+01  0.12796294067E+02  0.51100000000E-03 0. -1.
        -11    1    3    3    0    0  0.48516526586E+01 -0.24102375529E+02  0.15126397825E+02  0.28866432947E+02  0.51100000000E-03 0.  1.
        -12    1    3    3    0    0 -0.68301569687E+01 -0.10125146490E+02 -0.12726793337E+02  0.17639186611E+02  0.00000000000E+00 0.  1.
</event>
<event>
 7    1  0.6316620E-012  0.5930191E+02  0.7816164E-02  0.1266605E+00
        -11   -1    0    0    0    0  0.00000000000E+00  0.00000000000E+00  0.45593999997E+02  0.45594000000E+02  0.51100000000E-03 0. -1.
         11   -1    0    0    0    0 -0.00000000000E+00 -0.00000000000E+00 -0.45593999997E+02  0.45594000000E+02  0.51100000000E-03 0.  1.
    9900012    2    1    2    0    0  0.25467835736E+02  0.17806700575E+02  0.71437621703E+01  0.59301912432E+02  0.49999942377E+02 0.  0.
         12    1    1    2    0    0 -0.25467835736E+02 -0.17806700575E+02 -0.71437621703E+01  0.31886087568E+02  0.00000000000E+00 0. -1.
         11    1    3    3    0    0  0.22872031589E+01 -0.97464214587E+00  0.48254398296E+01  0.54282681781E+01  0.51100000000E-03 0. -1.
        -11    1    3    3    0    0 -0.10655209552E+02  0.48296039841E+00 -0.88049350789E+01  0.13830893801E+02  0.51100000000E-03 0.  1.
         12    1    3    3    0    0  0.33835842129E+02  0.18298382322E+02  0.11123257420E+02  0.40042750453E+02  0.00000000000E+00 0. -1.
</event>
<event>
 7    1  0.6316620E-012  0.5930189E+02  0.7816164E-02  0.1266605E+00
        -11   -1    0    0    0    0  0.00000000000E+00  0.00000000000E+00  0.45593999997E+02  0.45594000000E+02  0.51100000000E-03 0.  1.
         11   -1    0    0    0    0 -0.00000000000E+00 -0.00000000000E+00 -0.45593999997E+02  0.45594000000E+02  0.51100000000E-03 0. -1.
    9900012    2    1    2    0    0 -0.23131127631E-01  0.27414154822E+02  0.16284583723E+02  0.59301888812E+02  0.49999899300E+02 0.  0.
         12    1    1    2    0    0  0.23131127631E-01 -0.27414154822E+02 -0.16284583723E+02  0.31886111188E+02  0.00000000000E+00 0. -1.
         11    1    3    3    0    0  0.13914518483E+02  0.79736571408E+01  0.81116268311E+00  0.16057740127E+02  0.51100000000E-03 0. -1.
        -11    1    3    3    0    0  0.11291033837E+01  0.17887894894E+02  0.20551226766E+02  0.27269114031E+02  0.51100000000E-03 0.  1.
        -12    1    3    3    0    0 -0.15066752994E+02  0.15526027876E+01 -0.50778057260E+01  0.15975034654E+02  0.00000000000E+00 0.  1.
</event>
<event>
 7    1  0.6316620E-012  0.5930194E+02  0.7816164E-02  0.1266605E+00
        -11   -1    0    0    0    0  0.00000000000E+00  0.00000000000E+00  0.45593999997E+02  0.45594000000E+02  0.51100000000E-03 0. -1.
         11   -1    0    0    0    0 -0.00000000000E+00 -0.00000000000E+00 -0.45593999997E+02  0.45594000000E+02  0.51100000000E-03 0.  1.
    9900012    2    1    2    0    0 -0.13730210104E+02  0.20279627417E+01 -0.28706961641E+02  0.59301938013E+02  0.49999989031E+02 0.  0.
         12    1    1    2    0    0  0.13730210104E+02 -0.20279627417E+01  0.28706961641E+02  0.31886061987E+02  0.00000000000E+00 0. -1.
         11    1    3    3    0    0 -0.35863516375E+01  0.60032302134E+01 -0.69930942440E+00  0.70277823668E+01  0.51100000000E-03 0. -1.
        -11    1    3    3    0    0  0.12378582384E+02  0.76836153393E+01 -0.10730546671E+00  0.14569789334E+02  0.51100000000E-03 0.  1.
        -12    1    3    3    0    0 -0.22522440850E+02 -0.11658882811E+02 -0.27900346750E+02  0.37704366312E+02  0.00000000000E+00 0.  1.
</event>
<event>
 7    1  0.6316620E-012  0.5930194E+02  0.7816164E-02  0.1266605E+00
        -11   -1    0    0    0    0  0.00000000000E+00  0.00000000000E+00  0.45593999997E+02  0.45594000000E+02  0.51100000000E-03 0.  1.
         11   -1    0    0    0    0 -0.00000000000E+00 -0.00000000000E+00 -0.45593999997E+02  0.45594000000E+02  0.51100000000E-03 0. -1.
    9900012    2    1    2    0    0 -0.16688470516E+02 -0.21730140309E+02  0.16310015775E+02  0.59301942536E+02  0.49999997279E+02 0.  0.
         12    1    1    2    0    0  0.16688470516E+02  0.21730140309E+02 -0.16310015775E+02  0.31886057464E+02  0.00000000000E+00 0. -1.
         11    1    3    3    0    0 -0.10490552538E+02 -0.68339278069E+01  0.13339011944E+02  0.18294357101E+02  0.51100000000E-03 0. -1.
        -11    1    3    3    0    0 -0.12251470240E+02 -0.21279575371E+02 -0.89998641183E+01  0.26151795453E+02  0.51100000000E-03 0.  1.
         12    1    3    3    0    0  0.60535522619E+01  0.63833628696E+01  0.11970867949E+02  0.14855789981E+02  0.00000000000E+00 0. -1.
</event>
<event>
 7    1  0.6316620E-012  0.5930195E+02  0.7816164E-02  0.1266605E+00
        -11   -1    0    0    0    0  0.00000000000E+00  0.00000000000E+00  0.45593999997E+02  0.45594000000E+02  0.51100000000E-03 0.  1.
         11   -1    0    0    0    0 -0.00000000000E+00 -0.00000000000E+00 -0.45593999997E+02  0.45594000000E+02  0.51100000000E-03 0. -1.
    9900012    2    1    2    0    0  0.22493315798E+02 -0.10155063396E+02  0.20190233972E+02  0.59301951075E+02  0.50000012853E+02 0.  0.
         12    1    1    2    0    0 -0.22493315798E+02  0.10155063396E+02 -0.20190233972E+02  0.31886048925E+02  0.00000000000E+00 0. -1.
         11    1    3    3    0    0  0.16680002782E+02  0.63982670801E+01 -0.27973470566E+01  0.18082739429E+02  0.51100000000E-03 0. -1.
        -11    1    3    3    0    0  0.10074566686E+02  0.53892689867E+01  0.10977543847E+02  0.15844481162E+02  0.51100000000E-03 0.  1.
        -12    1    3    3    0    0 -0.42612536700E+01 -0.21942599463E+02  0.12010037182E+02  0.25374730484E+02  0.00000000000E+00 0.  1.
</event>
<event>
 7    1  0.6316620E-012  0.5930195E+02  0.7816164E-02  0.1266605E+00
        -11   -1    0    0    0    0  0.00000000000E+00  0.00000000000E+00  0.45593999997E+02  0.45594000000E+02  0.51100000000E-03 0.  1.
         11   -1    0    0    0    0 -0.00000000000E+00 -0.00000000000E+00 -0.45593999997E+02  0.45594000000E+02  0.51100000000E-03 0. -1.
    9900012    2    1    2    0    0  0.22050698054E+02 -0.93523732462E+01  0.21048040380E+02  0.59301950169E+02  0.50000011200E+02 0.  0.
         12    1    1    2    0    0 -0.22050698054E+02  0.93523732462E+01 -0.21048040380E+02  0.31886049831E+02  0.00000000000E+00 0. -1.
         11    1    3    3    0    0  0.96818299998E+01 -0.14317981502E+02  0.10872409760E+02  0.20419395698E+02  0.51100000000E-03 0. -1.
        -11    1    3    3    0    0  0.19681245959E+02 -0.84151673638E+01  0.17878284923E+01  0.21479357887E+02  0.51100000000E-03 0.  1.
         12    1    3    3    0    0 -0.73123779048E+01  0.13380775619E+02  0.83878021268E+01  0.17403196583E+02  0.00000000000E+00 0. -1.
</event>
<event>
 7    1  0.6316620E-012  0.5930196E+02  0.7816164E-02  0.1266605E+00
        -11   -1    0    0    0    0  0.00000000000E+00  0.00000000000E+00  0.45593999997E+02  0.45594000000E+02  0.51100000000E-03 0. -1.
         11   -1    0    0    0    0 -0.00000000000E+00 -0.00000000000E+00 -0.45593999997E+02  0.45594000000E+02  0.51100000000E-03 0.  1.
    9900012    2    1    2    0    0 -0.11596972618E+02  0.35070979023E+01 -0.29494580884E+02  0.59301955857E+02  0.50000021573E+02 0.  0.
         12    1    1    2    0    0  0.11596972618E+02 -0.35070979023E+01  0.29494580884E+02  0.31886044143E+02  0.00000000000E+00 0. -1.
         11    1    3    3    0    0  0.52830459512E+01  0.84291908553E+01 -0.15800864847E+02  0.18671613834E+02  0.51100000000E-03 0. -1.
        -11    1    3    3    0    0  0.67496636527E+01  0.85261138259E+01 -0.21109463365E+01  0.11077394599E+02  0.51100000000E-03 0.  1.
         12    1    3    3    0    0 -0.23629682222E+02 -0.13448206779E+02 -0.11582769700E+02  0.29552947424E+02  0.00000000000E+00 0. -1.
</event>
<event>
 7    1  0.6316620E-012  0.5930195E+02  0.7816164E-02  0.1266605E+00
        -11   -1    0    0    0    0  0.00000000000E+00  0.00000000000E+00  0.45593999997E+02  0.45594000000E+02  0.51100000000E-03 0.  1.
         11   -1    0    0    0    0 -0.00000000000E+00 -0.00000000000E+00 -0.45593999997E+02  0.45594000000E+02  0.51100000000E-03 0. -1.
    9900012    2    1    2    0    0  0.26089160984E+02  0.25617785300E+01  0.18152494915E+02  0.59301951300E+02  0.50000013262E+02 0.  0.
         12    1    1    2    0    0 -0.26089160984E+02 -0.25617785300E+01 -0.18152494915E+02  0.31886048700E+02  0.00000000000E+00 0. -1.
         11    1    3    3    0    0  0.94623397004E+00 -0.61391931086E+01  0.70884104453E-01  0.62120910785E+01  0.51100000000E-03 0. -1.
        -11    1    3    3    0    0  0.52694640054E+01  0.15346892240E+02  0.26033700535E+02  0.30676504301E+02  0.51100000000E-03 0.  1.
         12    1    3    3    0    0  0.19873463009E+02 -0.66459206016E+01 -0.79520897245E+01  0.22413355920E+02  0.00000000000E+00 0. -1.
</event>
<event>
 7    1  0.6316620E-012  0.5930194E+02  0.7816164E-02  0.1266605E+00
        -11   -1    0    0    0    0  0.00000000000E+00  0.00000000000E+00  0.45593999997E+02  0.45594000000E+02  0.51100000000E-03 0.  1.
         11   -1    0    0    0    0 -0.00000000000E+00 -0.00000000000E+00 -0.45593999997E+02  0.45594000000E+02  0.51100000000E-03 0. -1.
    9900012    2    1    2    0    0 -0.15778470609E+02 -0.24375462681E+02  0.13175644894E+02  0.59301938248E+02  0.49999989459E+02 0.  0.
         12    1    1    2    0    0  0.15778470609E+02  0.24375462681E+02 -0.13175644894E+02  0.31886061752E+02  0.00000000000E+00 0. -1.
         11    1    3    3    0    0 -0.40465380296E+01  0.14663304231E+02  0.25955653860E+01  0.15431264398E+02  0.51100000000E-03 0. -1.
        -11    1    3    3    0    0  0.24716471625E+01 -0.79191165779E+01  0.10633661876E+01  0.83637428810E+01  0.51100000000E-03 0.  1.
        -12    1    3    3    0    0 -0.14203579742E+02 -0.31119650334E+02  0.95167133204E+01  0.35506930969E+02  0.00000000000E+00 0.  1.
</event>
<event>
 7    1  0.6316620E-012  0.5930193E+02  0.7816164E-02  0.1266605E+00
        -11   -1    0    0    0    0  0.00000000000E+00  0.00000000000E+00  0.45593999997E+02  0.45594000000E+02  0.51100000000E-03 0. -1.
         11   -1    0    0    0    0 -0.00000000000E+00 -0.00000000000E+00 -0.45593999997E+02  0.45594000000E+02  0.51100000000E-03 0.  1.
    9900012    2    1    2    0    0  0.21248913125E+02 -0.10428262916E+02 -0.21364842127E+02  0.59301930070E+02  0.49999974545E+02 0.  0.
         12    1    1    2    0    0 -0.21248913125E+02  0.10428262916E+02  0.21364842127E+02  0.31886069930E+02  0.00000000000E+00 0. -1.
         11    1    3    3    0    0  0.18025486560E+02  0.12051518335E+01 -0.17137493489E+01  0.18146831507E+02  0.51100000000E-03 0. -1.
        -11    1    3    3    0    0  0.82642671727E+01  0.27532911110E+01  0.65112773949E+01  0.10875452056E+02  0.51100000000E-03 0.  1.
        -12    1    3    3    0    0 -0.50408406074E+01 -0.14386705861E+02 -0.26162370173E+02  0.30279646508E+02  0.00000000000E+00 0.  1.
</event>
<event>
 7    1  0.6316620E-012  0.5930196E+02  0.7816164E-02  0.1266605E+00
        -11   -1    0    0    0    0  0.00000000000E+00  0.00000000000E+00  0.45593999997E+02  0.45594000000E+02  0.51100000000E-03 0. -1.
         11   -1    0    0    0    0 -0.00000000000E+00 -0.00000000000E+00 -0.45593999997E+02  0.45594000000E+02  0.51100000000E-03 0.  1.
    9900012    2    1    2    0    0 -0.27882284757E+02  0.57313508887E+01  0.14368351959E+02  0.59301957218E+02  0.50000024056E+02 0.  0.
         12    1    1    2    0    0  0.27882284757E+02 -0.57313508887E+01 -0.14368351959E+02  0.31886042782E+02  0.00000000000E+00 0. -1.
         11    1    3    3    0    0 -0.99483489686E+01 -0.43402759394E+01  0.57175584888E+01  0.12267767432E+02  0.51100000000E-03 0. -1.
        -11    1    3    3    0    0 -0.24580580481E+01 -0.34867139414E+01 -0.15053258205E+02  0.15646079583E+02  0.51100000000E-03 0.  1.
         12    1    3    3    0    0 -0.15475877740E+02  0.13558340769E+02  0.23704051675E+02  0.31388110202E+02  0.00000000000E+00 0. -1.
</event>
<event>
 7    1  0.6316620E-012  0.5930195E+02  0.7816164E-02  0.1266605E+00
        -11   -1    0    0    0    0  0.00000000000E+00  0.00000000000E+00  0.45593999997E+02  0.45594000000E+02  0.51100000000E-03 0.  1.
         11   -1    0    0    0    0 -0.00000000000E+00 -0.00000000000E+00 -0.45593999997E+02  0.45594000000E+02  0.51100000000E-03 0. -1.
    9900012    2    1    2    0    0 -0.24165946821E+02  0.20366325604E+02  0.42355515244E+01  0.59301951310E+02  0.50000013281E+02 0.  0.
         12    1    1    2    0    0  0.24165946821E+02 -0.20366325604E+02 -0.42355515244E+01  0.31886048690E+02  0.00000000000E+00 0. -1.
         11    1    3    3    0    0 -0.10753978123E+02  0.93880164478E+01 -0.23655538408E+01  0.14469925485E+02  0.51100000000E-03 0. -1.
        -11    1    3    3    0    0  0.21431929849E+00  0.23152202956E+02 -0.43084192307E+01  0.23550645660E+02  0.51100000000E-03 0.  1.
        -12    1    3    3    0    0 -0.13626287997E+02 -0.12173893800E+02  0.10909524596E+02  0.21281380165E+02  0.00000000000E+00 0.  1.
</event>
<event>
 7    1  0.6316620E-012  0.5930192E+02  0.7816164E-02  0.1266605E+00
        -11   -1    0    0    0    0  0.00000000000E+00  0.00000000000E+00  0.45593999997E+02  0.45594000000E+02  0.51100000000E-03 0.  1.
         11   -1    0    0    0    0 -0.00000000000E+00 -0.00000000000E+00 -0.45593999997E+02  0.45594000000E+02  0.51100000000E-03 0. -1.
    9900012    2    1    2    0    0  0.14451582652E+02  0.21193770898E+02  0.18939323884E+02  0.59301919099E+02  0.49999954537E+02 0.  0.
         12    1    1    2    0    0 -0.14451582652E+02 -0.21193770898E+02 -0.18939323884E+02  0.31886080901E+02  0.00000000000E+00 0. -1.
         11    1    3    3    0    0 -0.19564392055E+01  0.84103496208E+01  0.68205688705E+01  0.11003717330E+02  0.51100000000E-03 0. -1.
        -11    1    3    3    0    0  0.34974862209E+01 -0.14366199559E+02  0.10607525153E+02  0.18197244016E+02  0.51100000000E-03 0.  1.
         12    1    3    3    0    0  0.12910535637E+02  0.27149620836E+02  0.15112298598E+01  0.30100957753E+02  0.00000000000E+00 0. -1.
</event>
<event>
 7    1  0.6316620E-012  0.5930195E+02  0.7816164E-02  0.1266605E+00
        -11   -1    0    0    0    0  0.00000000000E+00  0.00000000000E+00  0.45593999997E+02  0.45594000000E+02  0.51100000000E-03 0. -1.
         11   -1    0    0    0    0 -0.00000000000E+00 -0.00000000000E+00 -0.45593999997E+02  0.45594000000E+02  0.51100000000E-03 0.  1.
    9900012    2    1    2    0    0 -0.22491346483E+02  0.35760889097E+00 -0.22599378864E+02  0.59301945434E+02  0.50000002566E+02 0.  0.
         12    1    1    2    0    0  0.22491346483E+02 -0.35760889097E+00  0.22599378864E+02  0.31886054566E+02  0.00000000000E+00 0. -1.
         11    1    3    3    0    0  0.29250831756E+01  0.62598910016E+01 -0.98294647104E+01  0.12015020753E+02  0.51100000000E-03 0. -1.
        -11    1    3    3    0    0  0.65537636905E+01 -0.10832470047E+02 -0.68721160289E+01  0.14405561593E+02  0.51100000000E-03 0.  1.
         12    1    3    3    0    0 -0.31970193349E+02  0.49301879362E+01 -0.58977981242E+01  0.32881363089E+02  0.00000000000E+00 0. -1.
</event>
<event>
 7    1  0.6316620E-012  0.5930195E+02  0.7816164E-02  0.1266605E+00
        -11   -1    0    0    0    0  0.00000000000E+00  0.00000000000E+00  0.45593999997E+02  0.45594000000E+02  0.51100000000E-03 0.  1.
         11   -1    0    0    0    0 -0.00000000000E+00 -0.00000000000E+00 -0.45593999997E+02  0.45594000000E+02  0.51100000000E-03 0. -1.
    9900012    2    1    2    0    0  0.64211035129E+01 -0.31225628101E+02  0.67058306012E+00  0.59301951291E+02  0.50000013246E+02 0.  0.
         12    1    1    2    0    0 -0.64211035129E+01  0.31225628101E+02 -0.67058306012E+00  0.31886048709E+02  0.00000000000E+00 0. -1.
         11    1    3    3    0    0 -0.23244118773E+01 -0.77454130596E+01 -0.12952627033E+00  0.80877123684E+01  0.51100000000E-03 0. -1.
        -11    1    3    3    0    0 -0.86662454105E+01 -0.30275277407E+02  0.54366069023E+01  0.31957048150E+02  0.51100000000E-03 0.  1.
        -12    1    3    3    0    0  0.17411760801E+02  0.67950623651E+01 -0.46364975719E+01  0.19257190773E+02  0.00000000000E+00 0.  1.
</event>
<event>
 7    1  0.6316620E-012  0.5930194E+02  0.7816164E-02  0.1266605E+00
        -11   -1    0    0    0    0  0.00000000000E+00  0.00000000000E+00  0.45593999997E+02  0.45594000000E+02  0.51100000000E-03 0.  1.
         11   -1    0    0    0    0 -0.00000000000E+00 -0.00000000000E+00 -0.45593999997E+02  0.45594000000E+02  0.51100000000E-03 0. -1.
    9900012    2    1    2    0    0 -0.12277152316E+02  0.29410778677E+02 -0.99908358111E+00  0.59301944437E+02  0.50000000747E+02 0.  0.
         12    1    1    2    0    0  0.12277152316E+02 -0.29410778677E+02  0.99908358111E+00  0.31886055563E+02  0.00000000000E+00 0. -1.
         11    1    3    3    0    0  0.14866213863E+02 -0.35156693516E+01 -0.26789367639E+00  0.15278612924E+02  0.51100000000E-03 0. -1.
        -11    1    3    3    0    0 -0.58094075401E-01  0.21815948102E+01  0.19977703069E+01  0.29586850623E+01  0.51100000000E-03 0.  1.
         12    1    3    3    0    0 -0.27085272103E+02  0.30744853218E+02 -0.27289602116E+01  0.41064646451E+02  0.00000000000E+00 0. -1.
</event>
<event>
 7    1  0.6316620E-012  0.5930194E+02  0.7816164E-02  0.1266605E+00
        -11   -1    0    0    0    0  0.00000000000E+00  0.00000000000E+00  0.45593999997E+02  0.45594000000E+02  0.51100000000E-03 0.  1.
         11   -1    0    0    0    0 -0.00000000000E+00 -0.00000000000E+00 -0.45593999997E+02  0.45594000000E+02  0.51100000000E-03 0. -1.
    9900012    2    1    2    0    0 -0.13534827063E+02 -0.27269503119E+02  0.94817366955E+01  0.59301942314E+02  0.49999996875E+02 0.  0.
         12    1    1    2    0    0  0.13534827063E+02  0.27269503119E+02 -0.94817366955E+01  0.31886057686E+02  0.00000000000E+00 0. -1.
         11    1    3    3    0    0 -0.51997151460E+01 -0.22974618511E+02 -0.10784827441E+02  0.25907192757E+02  0.51100000000E-03 0. -1.
        -11    1    3    3    0    0 -0.57490224553E+01  0.83117168378E+01  0.90532515936E+00  0.10146699458E+02  0.51100000000E-03 0.  1.
         12    1    3    3    0    0 -0.25860894622E+01 -0.12606601445E+02  0.19361238977E+02  0.23248050099E+02  0.00000000000E+00 0. -1.
</event>
<event>
 7    1  0.6316620E-012  0.5930194E+02  0.7816164E-02  0.1266605E+00
        -11   -1    0    0    0    0  0.00000000000E+00  0.00000000000E+00  0.45593999997E+02  0.45594000000E+02  0.51100000000E-03 0.  1.
         11   -1    0    0    0    0 -0.00000000000E+00 -0.00000000000E+00 -0.45593999997E+02  0.45594000000E+02  0.51100000000E-03 0. -1.
    9900012    2    1    2    0    0 -0.28814819743E+02  0.65472952029E+01 -0.11981647881E+02  0.59301940393E+02  0.49999993372E+02 0.  0.
         12    1    1    2    0    0  0.28814819743E+02 -0.65472952029E+01  0.11981647881E+02  0.31886059607E+02  0.00000000000E+00 0. -1.
         11    1    3    3    0    0 -0.11151722316E+02 -0.44363626036E+01 -0.14519687851E+02  0.18837822574E+02  0.51100000000E-03 0. -1.
        -11    1    3    3    0    0 -0.62478498665E+01  0.19125213428E+02 -0.92516322294E+01  0.22145024628E+02  0.51100000000E-03 0.  1.
        -12    1    3    3    0    0 -0.11415247561E+02 -0.81415556211E+01  0.11789672199E+02  0.18319093192E+02  0.00000000000E+00 0.  1.
</event>
<event>
 7    1  0.6316620E-012  0.5930194E+02  0.7816164E-02  0.1266605E+00
        -11   -1    0    0    0    0  0.00000000000E+00  0.00000000000E+00  0.45593999997E+02  0.45594000000E+02  0.51100000000E-03 0.  1.
         11   -1    0    0    0    0 -0.00000000000E+00 -0.00000000000E+00 -0.45593999997E+02  0.45594000000E+02  0.51100000000E-03 0. -1.
    9900012    2    1    2    0    0  0.16438014964E+02  0.50085978378E+01  0.26859378495E+02  0.59301943464E+02  0.49999998972E+02 0.  0.
         12    1    1    2    0    0 -0.16438014964E+02 -0.50085978378E+01 -0.26859378495E+02  0.31886056536E+02  0.00000000000E+00 0. -1.
         11    1    3    3    0    0  0.12520005969E+02 -0.71152230914E+01  0.87272960828E+01  0.16838724604E+02  0.51100000000E-03 0. -1.
        -11    1    3    3    0    0  0.18177797263E+02  0.29558613517E+01  0.17642507881E+02  0.25503480435E+02  0.51100000000E-03 0.  1.
         12    1    3    3    0    0 -0.14259788268E+02  0.91679595775E+01  0.48957453076E+00  0.16959738426E+02  0.00000000000E+00 0. -1.
</event>
<event>
 7    1  0.6316620E-012  0.5930201E+02  0.7816164E-02  0.1266605E+00
        -11   -1    0    0    0    0  0.00000000000E+00  0.00000000000E+00  0.45593999997E+02  0.45594000000E+02  0.51100000000E-03 0.  1.
         11   -1    0    0    0    0 -0.00000000000E+00 -0.00000000000E+00 -0.45593999997E+02  0.45594000000E+02  0.51100000000E-03 0. -1.
    9900012    2    1    2    0    0 -0.18486613430E+02 -0.22893022904E+02  0.12282965563E+02  0.59302005946E+02  0.50000112924E+02 0.  0.
         12    1    1    2    0    0  0.18486613430E+02  0.22893022904E+02 -0.12282965563E+02  0.31885994054E+02  0.00000000000E+00 0. -1.
         11    1    3    3    0    0 -0.31340551334E+01  0.19371922329E+01 -0.84189926678E+01  0.91899103983E+01  0.51100000000E-03 0.  1.
        -11    1    3    3    0    0 -0.93592436274E+01  0.71712223776E+01  0.51125706201E+00  0.11801832727E+02  0.51100000000E-03 0. -1.
        -12    1    3    3    0    0 -0.59933146696E+01 -0.32001437514E+02  0.20190701169E+02  0.38310262821E+02  0.00000000000E+00 0.  1.
</event>
<event>
 7    1  0.6316620E-012  0.5930196E+02  0.7816164E-02  0.1266605E+00
        -11   -1    0    0    0    0  0.00000000000E+00  0.00000000000E+00  0.45593999997E+02  0.45594000000E+02  0.51100000000E-03 0. -1.
         11   -1    0    0    0    0 -0.00000000000E+00 -0.00000000000E+00 -0.45593999997E+02  0.45594000000E+02  0.51100000000E-03 0.  1.
    9900012    2    1    2    0    0  0.29318159835E+02 -0.11914581180E+02 -0.38997233845E+01  0.59301959430E+02  0.50000028089E+02 0.  0.
         12    1    1    2    0    0 -0.29318159835E+02  0.11914581180E+02  0.38997233845E+01  0.31886040570E+02  0.00000000000E+00 0. -1.
         11    1    3    3    0    0  0.15891171136E+01 -0.74390545957E+01  0.10362225683E+02  0.12854592481E+02  0.51100000000E-03 0. -1.
        -11    1    3    3    0    0  0.24698243242E+02 -0.17783582273E+02 -0.82479225438E+01  0.31532320629E+02  0.51100000000E-03 0.  1.
         12    1    3    3    0    0  0.30307994787E+01  0.13308055689E+02 -0.60140265236E+01  0.14915046320E+02  0.00000000000E+00 0. -1.
</event>
<event>
 7    1  0.6316620E-012  0.5930196E+02  0.7816164E-02  0.1266605E+00
        -11   -1    0    0    0    0  0.00000000000E+00  0.00000000000E+00  0.45593999997E+02  0.45594000000E+02  0.51100000000E-03 0. -1.
         11   -1    0    0    0    0 -0.00000000000E+00 -0.00000000000E+00 -0.45593999997E+02  0.45594000000E+02  0.51100000000E-03 0.  1.
    9900012    2    1    2    0    0 -0.23452463277E+01  0.86549318314E+01 -0.30599207970E+02  0.59301959893E+02  0.50000028934E+02 0.  0.
         12    1    1    2    0    0  0.23452463277E+01 -0.86549318314E+01  0.30599207970E+02  0.31886040107E+02  0.00000000000E+00 0. -1.
         11    1    3    3    0    0 -0.52821266609E+01  0.38654909437E+01 -0.15795985106E+01  0.67333508756E+01  0.51100000000E-03 0. -1.
        -11    1    3    3    0    0 -0.73092976140E+01  0.31279935716E+01 -0.38012372255E+02  0.38834914962E+02  0.51100000000E-03 0.  1.
        -12    1    3    3    0    0  0.10246177947E+02  0.16614473160E+01  0.89927627959E+01  0.13733694056E+02  0.00000000000E+00 0.  1.
</event>
<event>
 7    1  0.6316620E-012  0.5930202E+02  0.7816164E-02  0.1266604E+00
        -11   -1    0    0    0    0  0.00000000000E+00  0.00000000000E+00  0.45593999997E+02  0.45594000000E+02  0.51100000000E-03 0.  1.
         11   -1    0    0    0    0 -0.00000000000E+00 -0.00000000000E+00 -0.45593999997E+02  0.45594000000E+02  0.51100000000E-03 0. -1.
    9900012    2    1    2    0    0  0.29349784245E+02  0.42237042729E+01  0.11724590969E+02  0.59302022731E+02  0.50000143535E+02 0.  0.
         12    1    1    2    0    0 -0.29349784245E+02 -0.42237042729E+01 -0.11724590969E+02  0.31885977269E+02  0.00000000000E+00 0. -1.
         11    1    3    3    0    0  0.20277348667E+02 -0.12091173105E+02 -0.19685440636E+00  0.23609449124E+02  0.51100000000E-03 0. -1.
        -11    1    3    3    0    0  0.17965086097E+02  0.82646641066E+01  0.12974293031E+02  0.23651242487E+02  0.51100000000E-03 0.  1.
         12    1    3    3    0    0 -0.88926505184E+01  0.80502132714E+01 -0.10528476553E+01  0.12041331120E+02  0.00000000000E+00 0. -1.
</event>
<event>
 7    1  0.6316620E-012  0.5930189E+02  0.7816164E-02  0.1266605E+00
        -11   -1    0    0    0    0  0.00000000000E+00  0.00000000000E+00  0.45593999997E+02  0.45594000000E+02  0.51100000000E-03 0.  1.
         11   -1    0    0    0    0 -0.00000000000E+00 -0.00000000000E+00 -0.45593999997E+02  0.45594000000E+02  0.51100000000E-03 0. -1.
    9900012    2    1    2    0    0  0.36498409608E+01 -0.15233601373E+02  0.27773013573E+02  0.59301886522E+02  0.49999895123E+02 0.  0.
         12    1    1    2    0    0 -0.36498409608E+01  0.15233601373E+02 -0.27773013573E+02  0.31886113478E+02  0.00000000000E+00 0. -1.
         11    1    3    3    0    0 -0.42853924548E+00  0.52795679472E+01  0.96641982084E+01  0.11020626610E+02  0.51100000000E-03 0.  1.
        -11    1    3    3    0    0  0.18304176020E+02  0.16807073409E+01  0.68536724456E+01  0.19617351074E+02  0.51100000000E-03 0. -1.
        -12    1    3    3    0    0 -0.14225795813E+02 -0.22193876661E+02  0.11255142919E+02  0.28663908838E+02  0.00000000000E+00 0.  1.
</event>
<event>
 7    1  0.6316620E-012  0.5930195E+02  0.7816164E-02  0.1266605E+00
        -11   -1    0    0    0    0  0.00000000000E+00  0.00000000000E+00  0.45593999997E+02  0.45594000000E+02  0.51100000000E-03 0. -1.
         11   -1    0    0    0    0 -0.00000000000E+00 -0.00000000000E+00 -0.45593999997E+02  0.45594000000E+02  0.51100000000E-03 0.  1.
    9900012    2    1    2    0    0  0.30699667307E+02  0.82465194718E+01 -0.24990551951E+01  0.59301953945E+02  0.50000018086E+02 0.  0.
         12    1    1    2    0    0 -0.30699667307E+02 -0.82465194718E+01  0.24990551951E+01  0.31886046055E+02  0.00000000000E+00 0. -1.
         11    1    3    3    0    0  0.43171058916E+01 -0.10574622229E+02  0.16652078169E+01  0.11542658095E+02  0.51100000000E-03 0. -1.
        -11    1    3    3    0    0  0.31211390538E+02  0.36627101119E+01 -0.47978316652E+00  0.31429230612E+02  0.51100000000E-03 0.  1.
         12    1    3    3    0    0 -0.48288291228E+01  0.15158431589E+02 -0.36844798455E+01  0.16330065238E+02  0.00000000000E+00 0. -1.
</event>
<event>
 7    1  0.6316620E-012  0.5930195E+02  0.7816164E-02  0.1266605E+00
        -11   -1    0    0    0    0  0.00000000000E+00  0.00000000000E+00  0.45593999997E+02  0.45594000000E+02  0.51100000000E-03 0. -1.
         11   -1    0    0    0    0 -0.00000000000E+00 -0.00000000000E+00 -0.45593999997E+02  0.45594000000E+02  0.51100000000E-03 0.  1.
    9900012    2    1    2    0    0  0.24576701769E+02 -0.78093815488E+00  0.20300146998E+02  0.59301951289E+02  0.50000013243E+02 0.  0.
         12    1    1    2    0    0 -0.24576701769E+02  0.78093815488E+00 -0.20300146998E+02  0.31886048711E+02  0.00000000000E+00 0. -1.
         11    1    3    3    0    0 -0.60311300880E+01  0.72716753862E+00  0.17641367860E+02  0.18658005333E+02  0.51100000000E-03 0. -1.
        -11    1    3    3    0    0  0.54964333825E+01 -0.10641537147E+02 -0.47975407176E+01  0.12902305607E+02  0.51100000000E-03 0.  1.
        -12    1    3    3    0    0  0.25111398475E+02  0.91334314540E+01  0.74563198556E+01  0.27741640349E+02  0.00000000000E+00 0.  1.
</event>
<event>
 7    1  0.6316620E-012  0.5930198E+02  0.7816164E-02  0.1266605E+00
        -11   -1    0    0    0    0  0.00000000000E+00  0.00000000000E+00  0.45593999997E+02  0.45594000000E+02  0.51100000000E-03 0.  1.
         11   -1    0    0    0    0 -0.00000000000E+00 -0.00000000000E+00 -0.45593999997E+02  0.45594000000E+02  0.51100000000E-03 0. -1.
    9900012    2    1    2    0    0  0.83200350272E+01 -0.82564565987E+01  0.29653439336E+02  0.59301976058E+02  0.50000058415E+02 0.  0.
         12    1    1    2    0    0 -0.83200350272E+01  0.82564565987E+01 -0.29653439336E+02  0.31886023942E+02  0.00000000000E+00 0. -1.
         11    1    3    3    0    0 -0.12170996179E+02 -0.10886222228E+02  0.37174454582E+01  0.16747011177E+02  0.51100000000E-03 0. -1.
        -11    1    3    3    0    0 -0.14229959657E+01 -0.78981213859E+01  0.12281760341E+02  0.14671294294E+02  0.51100000000E-03 0.  1.
         12    1    3    3    0    0  0.21914027172E+02  0.10527887015E+02  0.13654233537E+02  0.27883670586E+02  0.00000000000E+00 0. -1.
</event>
<event>
 7    1  0.6316620E-012  0.5930195E+02  0.7816164E-02  0.1266605E+00
        -11   -1    0    0    0    0  0.00000000000E+00  0.00000000000E+00  0.45593999997E+02  0.45594000000E+02  0.51100000000E-03 0. -1.
         11   -1    0    0    0    0 -0.00000000000E+00 -0.00000000000E+00 -0.45593999997E+02  0.45594000000E+02  0.51100000000E-03 0.  1.
    9900012    2    1    2    0    0 -0.13451281265E+02 -0.21114874861E+02 -0.19747033492E+02  0.59301949134E+02  0.50000009313E+02 0.  0.
         12    1    1    2    0    0  0.13451281265E+02  0.21114874861E+02  0.19747033492E+02  0.31886050866E+02  0.00000000000E+00 0. -1.
         11    1    3    3    0    0  0.49674933356E+01  0.96242190180E+01  0.52996042352E+01  0.12057669222E+02  0.51100000000E-03 0. -1.
        -11    1    3    3    0    0 -0.84943452938E+01 -0.95650627581E+01 -0.19315907734E+02  0.23167835881E+02  0.51100000000E-03 0.  1.
        -12    1    3    3    0    0 -0.99244293070E+01 -0.21174031121E+02 -0.57307299932E+01  0.24076444032E+02  0.00000000000E+00 0.  1.
</event>
<event>
 7    1  0.6316620E-012  0.5930195E+02  0.7816164E-02  0.1266605E+00
        -11   -1    0    0    0    0  0.00000000000E+00  0.00000000000E+00  0.45593999997E+02  0.45594000000E+02  0.51100000000E-03 0.  1.
         11   -1    0    0    0    0 -0.00000000000E+00 -0.00000000000E+00 -0.45593999997E+02  0.45594000000E+02  0.51100000000E-03 0. -1.
    9900012    2    1    2    0    0 -0.12055881932E+02  0.98894030034E+01  0.27813225747E+02  0.59301951211E+02  0.50000013100E+02 0.  0.
         12    1    1    2    0    0  0.12055881932E+02 -0.98894030034E+01 -0.27813225747E+02  0.31886048789E+02  0.00000000000E+00 0. -1.
         11    1    3    3    0    0 -0.23192333394E+01  0.12003401061E+02  0.12994093962E+02  0.17841159112E+02  0.51100000000E-03 0. -1.
        -11    1    3    3    0    0  0.86872051622E+01  0.10023032956E+02  0.14141001089E+02  0.19388053931E+02  0.51100000000E-03 0.  1.
        -12    1    3    3    0    0 -0.18423853755E+02 -0.12137031014E+02  0.67813069686E+00  0.22072738168E+02  0.00000000000E+00 0.  1.
</event>
<event>
 7    1  0.6316620E-012  0.5930193E+02  0.7816164E-02  0.1266605E+00
        -11   -1    0    0    0    0  0.00000000000E+00  0.00000000000E+00  0.45593999997E+02  0.45594000000E+02  0.51100000000E-03 0. -1.
         11   -1    0    0    0    0 -0.00000000000E+00 -0.00000000000E+00 -0.45593999997E+02  0.45594000000E+02  0.51100000000E-03 0.  1.
    9900012    2    1    2    0    0  0.20824753724E+02  0.17316086684E+02  0.16828666101E+02  0.59301933632E+02  0.49999981040E+02 0.  0.
         12    1    1    2    0    0 -0.20824753724E+02 -0.17316086684E+02 -0.16828666101E+02  0.31886066368E+02  0.00000000000E+00 0. -1.
         11    1    3    3    0    0 -0.32980085037E+01 -0.75960487538E+01 -0.82677150854E+00  0.83222814269E+01  0.51100000000E-03 0. -1.
        -11    1    3    3    0    0  0.37841989519E+01  0.61157520668E+01 -0.96852241343E+01  0.12063422062E+02  0.51100000000E-03 0.  1.
         12    1    3    3    0    0  0.20338563276E+02  0.18796383371E+02  0.27340661743E+02  0.38916230143E+02  0.00000000000E+00 0. -1.
</event>
<event>
 7    1  0.6316620E-012  0.5930196E+02  0.7816164E-02  0.1266605E+00
        -11   -1    0    0    0    0  0.00000000000E+00  0.00000000000E+00  0.45593999997E+02  0.45594000000E+02  0.51100000000E-03 0.  1.
         11   -1    0    0    0    0 -0.00000000000E+00 -0.00000000000E+00 -0.45593999997E+02  0.45594000000E+02  0.51100000000E-03 0. -1.
    9900012    2    1    2    0    0  0.30819770486E+02 -0.18090219199E+01  0.79742345834E+01  0.59301964965E+02  0.50000038184E+02 0.  0.
         12    1    1    2    0    0 -0.30819770486E+02  0.18090219199E+01 -0.79742345834E+01  0.31886035035E+02  0.00000000000E+00 0. -1.
         11    1    3    3    0    0  0.23833395924E+01 -0.71118271974E+01 -0.91602094028E+01  0.11839249565E+02  0.51100000000E-03 0. -1.
        -11    1    3    3    0    0  0.56980147430E+01  0.12019028052E+02 -0.57680310756E+01  0.14498089187E+02  0.51100000000E-03 0.  1.
         12    1    3    3    0    0  0.22738416150E+02 -0.67162227745E+01  0.22902475062E+02  0.32964626213E+02  0.00000000000E+00 0. -1.
</event>
<event>
 7    1  0.6316620E-012  0.5930195E+02  0.7816164E-02  0.1266605E+00
        -11   -1    0    0    0    0  0.00000000000E+00  0.00000000000E+00  0.45593999997E+02  0.45594000000E+02  0.51100000000E-03 0.  1.
         11   -1    0    0    0    0 -0.00000000000E+00 -0.00000000000E+00 -0.45593999997E+02  0.45594000000E+02  0.51100000000E-03 0. -1.
    9900012    2    1    2    0    0  0.27507949645E+02 -0.15835026820E+02  0.30471208631E+01  0.59301947977E+02  0.50000007202E+02 0.  0.
         12    1    1    2    0    0 -0.27507949645E+02  0.15835026820E+02 -0.30471208631E+01  0.31886052023E+02  0.00000000000E+00 0. -1.
         11    1    3    3    0    0  0.70821162881E+01  0.45682159833E+01 -0.11941569935E+02  0.14615952284E+02  0.51100000000E-03 0. -1.
        -11    1    3    3    0    0  0.43002809783E+01 -0.23592495671E+02  0.26392533116E+01  0.24126001053E+02  0.51100000000E-03 0.  1.
         12    1    3    3    0    0  0.16125552379E+02  0.31892528674E+01  0.12349437487E+02  0.20559994640E+02  0.00000000000E+00 0. -1.
</event>
<event>
 7    1  0.6316620E-012  0.5930194E+02  0.7816164E-02  0.1266605E+00
        -11   -1    0    0    0    0  0.00000000000E+00  0.00000000000E+00  0.45593999997E+02  0.45594000000E+02  0.51100000000E-03 0.  1.
         11   -1    0    0    0    0 -0.00000000000E+00 -0.00000000000E+00 -0.45593999997E+02  0.45594000000E+02  0.51100000000E-03 0. -1.
    9900012    2    1    2    0    0  0.27419714218E+02  0.16238410663E+02 -0.10928281717E+01  0.59301937495E+02  0.49999988086E+02 0.  0.
         12    1    1    2    0    0 -0.27419714218E+02 -0.16238410663E+02  0.10928281717E+01  0.31886062505E+02  0.00000000000E+00 0. -1.
         11    1    3    3    0    0  0.70692380436E+01 -0.21448813449E+01 -0.50140272059E+01  0.89283319598E+01  0.51100000000E-03 0. -1.
        -11    1    3    3    0    0  0.61627254978E+01  0.15637441334E+02  0.21709198960E+02  0.27455383385E+02  0.51100000000E-03 0.  1.
         12    1    3    3    0    0  0.14187750676E+02  0.27458506739E+01 -0.17787999926E+02  0.22918222151E+02  0.00000000000E+00 0. -1.
</event>
<event>
 7    1  0.6316620E-012  0.5930195E+02  0.7816164E-02  0.1266605E+00
        -11   -1    0    0    0    0  0.00000000000E+00  0.00000000000E+00  0.45593999997E+02  0.45594000000E+02  0.51100000000E-03 0. -1.
         11   -1    0    0    0    0 -0.00000000000E+00 -0.00000000000E+00 -0.45593999997E+02  0.45594000000E+02  0.51100000000E-03 0.  1.
    9900012    2    1    2    0    0 -0.27650480843E+02 -0.11867805610E+02 -0.10551114895E+02  0.59301954049E+02  0.50000018277E+02 0.  0.
         12    1    1    2    0    0  0.27650480843E+02  0.11867805610E+02  0.10551114895E+02  0.31886045951E+02  0.00000000000E+00 0. -1.
         11    1    3    3    0    0 -0.10786794990E+01  0.10792517949E+02 -0.11252307775E+02  0.15628705118E+02  0.51100000000E-03 0. -1.
        -11    1    3    3    0    0 -0.16412313539E+02  0.72594431358E+00  0.62529790871E+01  0.17578133535E+02  0.51100000000E-03 0.  1.
         12    1    3    3    0    0 -0.10159487805E+02 -0.23386267872E+02 -0.55517862072E+01  0.26095115396E+02  0.00000000000E+00 0. -1.
</event>
<event>
 7    1  0.6316620E-012  0.5930202E+02  0.7816164E-02  0.1266604E+00
        -11   -1    0    0    0    0  0.00000000000E+00  0.00000000000E+00  0.45593999997E+02  0.45594000000E+02  0.51100000000E-03 0. -1.
         11   -1    0    0    0    0 -0.00000000000E+00 -0.00000000000E+00 -0.45593999997E+02  0.45594000000E+02  0.51100000000E-03 0.  1.
    9900012    2    1    2    0    0  0.27421857002E+02 -0.15990363639E+02  0.30109207121E+01  0.59302021667E+02  0.50000141595E+02 0.  0.
         12    1    1    2    0    0 -0.27421857002E+02  0.15990363639E+02 -0.30109207121E+01  0.31885978333E+02  0.00000000000E+00 0. -1.
         11    1    3    3    0    0  0.62960350258E+01 -0.38674992512E+01  0.31828850390E+01  0.80453940199E+01  0.51100000000E-03 0. -1.
        -11    1    3    3    0    0  0.31255221590E+02  0.46819575501E+01  0.75764527731E+00  0.31613029430E+02  0.51100000000E-03 0.  1.
         12    1    3    3    0    0 -0.10129399614E+02 -0.16804821938E+02 -0.92960960418E+00  0.19643598217E+02  0.00000000000E+00 0. -1.
</event>
<event>
 7    1  0.6316620E-012  0.5930184E+02  0.7816164E-02  0.1266605E+00
        -11   -1    0    0    0    0  0.00000000000E+00  0.00000000000E+00  0.45593999997E+02  0.45594000000E+02  0.51100000000E-03 0. -1.
         11   -1    0    0    0    0 -0.00000000000E+00 -0.00000000000E+00 -0.45593999997E+02  0.45594000000E+02  0.51100000000E-03 0.  1.
    9900012    2    1    2    0    0 -0.47717688676E+01 -0.27573815090E+02 -0.15285350185E+02  0.59301843332E+02  0.49999816355E+02 0.  0.
         12    1    1    2    0    0  0.47717688676E+01  0.27573815090E+02  0.15285350185E+02  0.31886156668E+02  0.00000000000E+00 0. -1.
         11    1    3    3    0    0 -0.94496404037E+01 -0.13437285953E+02 -0.13463629814E+01  0.16482386085E+02  0.51100000000E-03 0. -1.
        -11    1    3    3    0    0  0.12327970564E+02 -0.11408338078E+02 -0.24370958386E+02  0.29598524437E+02  0.51100000000E-03 0.  1.
         12    1    3    3    0    0 -0.76500990283E+01 -0.27281910597E+01  0.10431971183E+02  0.13220932810E+02  0.00000000000E+00 0. -1.
</event>
<event>
 7    1  0.6316620E-012  0.5930195E+02  0.7816164E-02  0.1266605E+00
        -11   -1    0    0    0    0  0.00000000000E+00  0.00000000000E+00  0.45593999997E+02  0.45594000000E+02  0.51100000000E-03 0.  1.
         11   -1    0    0    0    0 -0.00000000000E+00 -0.00000000000E+00 -0.45593999997E+02  0.45594000000E+02  0.51100000000E-03 0. -1.
    9900012    2    1    2    0    0 -0.10027732845E+02  0.54877859115E+01  0.29766578673E+02  0.59301946213E+02  0.50000003985E+02 0.  0.
         12    1    1    2    0    0  0.10027732845E+02 -0.54877859115E+01 -0.29766578673E+02  0.31886053787E+02  0.00000000000E+00 0. -1.
         11    1    3    3    0    0  0.71157277570E+01 -0.37643097133E+01  0.92631612590E+00  0.81031889375E+01  0.51100000000E-03 0. -1.
        -11    1    3    3    0    0 -0.11118727424E+02  0.32009297052E+01 -0.75528604692E+01  0.13817299014E+02  0.51100000000E-03 0.  1.
        -12    1    3    3    0    0 -0.60247331771E+01  0.60511659197E+01  0.36393123016E+02  0.37381458261E+02  0.00000000000E+00 0.  1.
</event>
<event>
 7    1  0.6316620E-012  0.5930187E+02  0.7816164E-02  0.1266605E+00
        -11   -1    0    0    0    0  0.00000000000E+00  0.00000000000E+00  0.45593999997E+02  0.45594000000E+02  0.51100000000E-03 0.  1.
         11   -1    0    0    0    0 -0.00000000000E+00 -0.00000000000E+00 -0.45593999997E+02  0.45594000000E+02  0.51100000000E-03 0. -1.
    9900012    2    1    2    0    0 -0.19112738965E+02  0.17402827568E+02  0.18670025426E+02  0.59301873746E+02  0.49999871822E+02 0.  0.
         12    1    1    2    0    0  0.19112738965E+02 -0.17402827568E+02 -0.18670025426E+02  0.31886126254E+02  0.00000000000E+00 0. -1.
         11    1    3    3    0    0 -0.93929202687E+01 -0.70597196251E+01 -0.12110944147E+02  0.16874286970E+02  0.51100000000E-03 0. -1.
        -11    1    3    3    0    0  0.20037425090E+01  0.15866412150E+01  0.32895897927E+00  0.25769417259E+01  0.51100000000E-03 0.  1.
        -12    1    3    3    0    0 -0.11723561205E+02  0.22875905978E+02  0.30452010594E+02  0.39850645050E+02  0.00000000000E+00 0.  1.
</event>
<event>
 7    1  0.6316620E-012  0.5930192E+02  0.7816164E-02  0.1266605E+00
        -11   -1    0    0    0    0  0.00000000000E+00  0.00000000000E+00  0.45593999997E+02  0.45594000000E+02  0.51100000000E-03 0. -1.
         11   -1    0    0    0    0 -0.00000000000E+00 -0.00000000000E+00 -0.45593999997E+02  0.45594000000E+02  0.51100000000E-03 0.  1.
    9900012    2    1    2    0    0  0.19078839043E+02 -0.26680905736E+01 -0.25408690402E+02  0.59301915975E+02  0.49999948838E+02 0.  0.
         12    1    1    2    0    0 -0.19078839043E+02  0.26680905736E+01  0.25408690402E+02  0.31886084025E+02  0.00000000000E+00 0. -1.
         11    1    3    3    0    0  0.20519214928E+02  0.17497346774E+02 -0.86333931706E+01  0.28314851285E+02  0.51100000000E-03 0. -1.
        -11    1    3    3    0    0  0.49070567436E+01 -0.11289351317E+01 -0.71137985411E+01  0.87154936958E+01  0.51100000000E-03 0.  1.
         12    1    3    3    0    0 -0.63474326295E+01 -0.19036502215E+02 -0.96614986905E+01  0.22271570994E+02  0.00000000000E+00 0. -1.
</event>
<event>
 7    1  0.6316620E-012  0.5930194E+02  0.7816164E-02  0.1266605E+00
        -11   -1    0    0    0    0  0.00000000000E+00  0.00000000000E+00  0.45593999997E+02  0.45594000000E+02  0.51100000000E-03 0.  1.
         11   -1    0    0    0    0 -0.00000000000E+00 -0.00000000000E+00 -0.45593999997E+02  0.45594000000E+02  0.51100000000E-03 0. -1.
    9900012    2    1    2    0    0  0.55840384175E+01 -0.28921269142E+02 -0.12210641214E+02  0.59301936388E+02  0.49999986067E+02 0.  0.
         12    1    1    2    0    0 -0.55840384175E+01  0.28921269142E+02  0.12210641214E+02  0.31886063612E+02  0.00000000000E+00 0. -1.
         11    1    3    3    0    0 -0.23604455210E+01 -0.14374191642E+02 -0.12947737372E+02  0.19489304547E+02  0.51100000000E-03 0. -1.
        -11    1    3    3    0    0 -0.54088870563E+01  0.69393730565E+01 -0.91107957789E+01  0.12665605299E+02  0.51100000000E-03 0.  1.
         12    1    3    3    0    0  0.13353370995E+02 -0.21486450557E+02  0.98478919371E+01  0.27147026542E+02  0.00000000000E+00 0. -1.
</event>
<event>
 7    1  0.6316620E-012  0.5930194E+02  0.7816164E-02  0.1266605E+00
        -11   -1    0    0    0    0  0.00000000000E+00  0.00000000000E+00  0.45593999997E+02  0.45594000000E+02  0.51100000000E-03 0.  1.
         11   -1    0    0    0    0 -0.00000000000E+00 -0.00000000000E+00 -0.45593999997E+02  0.45594000000E+02  0.51100000000E-03 0. -1.
    9900012    2    1    2    0    0  0.18718819159E+02  0.11320435135E+02  0.23198584863E+02  0.59301940633E+02  0.49999993809E+02 0.  0.
         12    1    1    2    0    0 -0.18718819159E+02 -0.11320435135E+02 -0.23198584863E+02  0.31886059367E+02  0.00000000000E+00 0. -1.
         11    1    3    3    0    0  0.12571105188E+02 -0.39615261718E+01 -0.70901097227E+01  0.14966496965E+02  0.51100000000E-03 0. -1.
        -11    1    3    3    0    0  0.73412296867E+01 -0.50911863996E+01  0.19041947375E+02  0.21033534947E+02  0.51100000000E-03 0.  1.
         12    1    3    3    0    0 -0.11935157163E+01  0.20373147707E+02  0.11246747211E+02  0.23301908721E+02  0.00000000000E+00 0. -1.
</event>
<event>
 7    1  0.6316620E-012  0.5930194E+02  0.7816164E-02  0.1266605E+00
        -11   -1    0    0    0    0  0.00000000000E+00  0.00000000000E+00  0.45593999997E+02  0.45594000000E+02  0.51100000000E-03 0.  1.
         11   -1    0    0    0    0 -0.00000000000E+00 -0.00000000000E+00 -0.45593999997E+02  0.45594000000E+02  0.51100000000E-03 0. -1.
    9900012    2    1    2    0    0 -0.25686467173E+02  0.42922279084E+01  0.18398445994E+02  0.59301942997E+02  0.49999998119E+02 0.  0.
         12    1    1    2    0    0  0.25686467173E+02 -0.42922279084E+01 -0.18398445994E+02  0.31886057003E+02  0.00000000000E+00 0. -1.
         11    1    3    3    0    0 -0.14894873686E+02  0.84196450408E+01  0.16332383732E+02  0.23653634887E+02  0.51100000000E-03 0. -1.
        -11    1    3    3    0    0 -0.23034446604E+02 -0.34697736798E+01  0.20888633977E+01  0.23387783356E+02  0.51100000000E-03 0.  1.
         12    1    3    3    0    0  0.12242853117E+02 -0.65764345258E+00 -0.22801135408E-01  0.12260524754E+02  0.00000000000E+00 0. -1.
</event>
<event>
 7    1  0.6316620E-012  0.5930196E+02  0.7816164E-02  0.1266605E+00
        -11   -1    0    0    0    0  0.00000000000E+00  0.00000000000E+00  0.45593999997E+02  0.45594000000E+02  0.51100000000E-03 0.  1.
         11   -1    0    0    0    0 -0.00000000000E+00 -0.00000000000E+00 -0.45593999997E+02  0.45594000000E+02  0.51100000000E-03 0. -1.
    9900012    2    1    2    0    0  0.11017225810E+02 -0.23168529331E+01  0.29832408957E+02  0.59301957658E+02  0.50000024858E+02 0.  0.
         12    1    1    2    0    0 -0.11017225810E+02  0.23168529331E+01 -0.29832408957E+02  0.31886042342E+02  0.00000000000E+00 0. -1.
         11    1    3    3    0    0  0.16207396662E+02  0.35648888235E+01  0.20090172667E+01  0.16715989038E+02  0.51100000000E-03 0. -1.
        -11    1    3    3    0    0  0.76177468048E+01  0.70789099256E+01  0.20424849151E+02  0.22919762111E+02  0.51100000000E-03 0.  1.
         12    1    3    3    0    0 -0.12807917657E+02 -0.12960651682E+02  0.73985425394E+01  0.19666206509E+02  0.00000000000E+00 0. -1.
</event>
<event>
 7    1  0.6316620E-012  0.5930193E+02  0.7816164E-02  0.1266605E+00
        -11   -1    0    0    0    0  0.00000000000E+00  0.00000000000E+00  0.45593999997E+02  0.45594000000E+02  0.51100000000E-03 0.  1.
         11   -1    0    0    0    0 -0.00000000000E+00 -0.00000000000E+00 -0.45593999997E+02  0.45594000000E+02  0.51100000000E-03 0. -1.
    9900012    2    1    2    0    0  0.80196231309E+01 -0.16095410288E+02  0.26331439828E+02  0.59301932338E+02  0.49999978681E+02 0.  0.
         12    1    1    2    0    0 -0.80196231309E+01  0.16095410288E+02 -0.26331439828E+02  0.31886067662E+02  0.00000000000E+00 0. -1.
         11    1    3    3    0    0  0.35042145402E+01  0.76847946395E+01 -0.95522337749E+01  0.12750716001E+02  0.51100000000E-03 0. -1.
        -11    1    3    3    0    0 -0.43462664275E+01 -0.84616439774E+01  0.45034582902E+01  0.10524760686E+02  0.51100000000E-03 0.  1.
        -12    1    3    3    0    0  0.88616750182E+01 -0.15318560950E+02  0.31380215313E+02  0.36026455651E+02  0.00000000000E+00 0.  1.
</event>
<event>
 7    1  0.6316620E-012  0.5930196E+02  0.7816164E-02  0.1266605E+00
        -11   -1    0    0    0    0  0.00000000000E+00  0.00000000000E+00  0.45593999997E+02  0.45594000000E+02  0.51100000000E-03 0.  1.
         11   -1    0    0    0    0 -0.00000000000E+00 -0.00000000000E+00 -0.45593999997E+02  0.45594000000E+02  0.51100000000E-03 0. -1.
    9900012    2    1    2    0    0  0.19135607127E+02  0.15759441086E+02  0.20054623748E+02  0.59301962662E+02  0.50000033984E+02 0.  0.
         12    1    1    2    0    0 -0.19135607127E+02 -0.15759441086E+02 -0.20054623748E+02  0.31886037338E+02  0.00000000000E+00 0. -1.
         11    1    3    3    0    0 -0.33523837714E+01 -0.60530675787E+01 -0.10119262971E+01  0.69930035861E+01  0.51100000000E-03 0. -1.
        -11    1    3    3    0    0  0.75029420476E+01 -0.10097056663E+02  0.45318438190E+01  0.13370949902E+02  0.51100000000E-03 0.  1.
        -12    1    3    3    0    0  0.14985048850E+02  0.31909565328E+02  0.16534706226E+02  0.38938009174E+02  0.00000000000E+00 0.  1.
</event>
<event>
 7    1  0.6316620E-012  0.5930194E+02  0.7816164E-02  0.1266605E+00
        -11   -1    0    0    0    0  0.00000000000E+00  0.00000000000E+00  0.45593999997E+02  0.45594000000E+02  0.51100000000E-03 0. -1.
         11   -1    0    0    0    0 -0.00000000000E+00 -0.00000000000E+00 -0.45593999997E+02  0.45594000000E+02  0.51100000000E-03 0.  1.
    9900012    2    1    2    0    0  0.31851238845E+02 -0.10839870004E+01  0.10218537870E+01  0.59301943033E+02  0.49999998186E+02 0.  0.
         12    1    1    2    0    0 -0.31851238845E+02  0.10839870004E+01 -0.10218537870E+01  0.31886056967E+02  0.00000000000E+00 0. -1.
         11    1    3    3    0    0  0.13499234005E+02 -0.11898735009E+02  0.73946277778E+01  0.19454812612E+02  0.51100000000E-03 0. -1.
        -11    1    3    3    0    0  0.25477364059E+02 -0.82627093089E+00 -0.60298353827E+01  0.26194230625E+02  0.51100000000E-03 0.  1.
        -12    1    3    3    0    0 -0.71253592194E+01  0.11641018939E+02 -0.34293860810E+00  0.13652899796E+02  0.00000000000E+00 0.  1.
</event>
<event>
 7    1  0.6316620E-012  0.5930194E+02  0.7816164E-02  0.1266605E+00
        -11   -1    0    0    0    0  0.00000000000E+00  0.00000000000E+00  0.45593999997E+02  0.45594000000E+02  0.51100000000E-03 0.  1.
         11   -1    0    0    0    0 -0.00000000000E+00 -0.00000000000E+00 -0.45593999997E+02  0.45594000000E+02  0.51100000000E-03 0. -1.
    9900012    2    1    2    0    0 -0.29083877148E+01 -0.25652940334E+02  0.18713332076E+02  0.59301939343E+02  0.49999991456E+02 0.  0.
         12    1    1    2    0    0  0.29083877148E+01  0.25652940334E+02 -0.18713332076E+02  0.31886060657E+02  0.00000000000E+00 0. -1.
         11    1    3    3    0    0 -0.27360318665E+01  0.33749082614E+01  0.42765154700E+01  0.60962661501E+01  0.51100000000E-03 0. -1.
        -11    1    3    3    0    0  0.35088547811E+01 -0.20414064751E+01  0.23998702085E+02  0.24339620052E+02  0.51100000000E-03 0.  1.
        -12    1    3    3    0    0 -0.36812106295E+01 -0.26986442120E+02 -0.95618854790E+01  0.28866053140E+02  0.00000000000E+00 0.  1.
</event>
<event>
 7    1  0.6316620E-012  0.5930194E+02  0.7816164E-02  0.1266605E+00
        -11   -1    0    0    0    0  0.00000000000E+00  0.00000000000E+00  0.45593999997E+02  0.45594000000E+02  0.51100000000E-03 0.  1.
         11   -1    0    0    0    0 -0.00000000000E+00 -0.00000000000E+00 -0.45593999997E+02  0.45594000000E+02  0.51100000000E-03 0. -1.
    9900012    2    1    2    0    0 -0.18475222100E+02  0.25397953422E+02  0.55073397517E+01  0.59301942533E+02  0.49999997274E+02 0.  0.
         12    1    1    2    0    0  0.18475222100E+02 -0.25397953422E+02 -0.55073397517E+01  0.31886057467E+02  0.00000000000E+00 0. -1.
         11    1    3    3    0    0 -0.91083944808E+01 -0.51106819260E+01  0.82887284979E+00  0.10477067826E+02  0.51100000000E-03 0. -1.
        -11    1    3    3    0    0  0.21839895360E+01 -0.52378513878E+01  0.93823962701E+01  0.10965138279E+02  0.51100000000E-03 0.  1.
        -12    1    3    3    0    0 -0.11550817155E+02  0.35746486735E+02 -0.47039293681E+01  0.37859736428E+02  0.00000000000E+00 0.  1.
</event>
<event>
 7    1  0.6316620E-012  0.5930195E+02  0.7816164E-02  0.1266605E+00
        -11   -1    0    0    0    0  0.00000000000E+00  0.00000000000E+00  0.45593999997E+02  0.45594000000E+02  0.51100000000E-03 0.  1.
         11   -1    0    0    0    0 -0.00000000000E+00 -0.00000000000E+00 -0.45593999997E+02  0.45594000000E+02  0.51100000000E-03 0. -1.
    9900012    2    1    2    0    0  0.15404655582E+02 -0.27556969667E+02 -0.44755109249E+01  0.59301949933E+02  0.50000010770E+02 0.  0.
         12    1    1    2    0    0 -0.15404655582E+02  0.27556969667E+02  0.44755109249E+01  0.31886050067E+02  0.00000000000E+00 0. -1.
         11    1    3    3    0    0 -0.71683328451E+00  0.64147561620E+01 -0.13994383361E+02  0.15411220344E+02  0.51100000000E-03 0. -1.
        -11    1    3    3    0    0 -0.24767848467E+01 -0.10119983847E+02 -0.34596640078E+01  0.10978060464E+02  0.51100000000E-03 0.  1.
         12    1    3    3    0    0  0.18598273713E+02 -0.23851741982E+02  0.12978536444E+02  0.32912669125E+02  0.00000000000E+00 0. -1.
</event>
<event>
 7    1  0.6316620E-012  0.5930192E+02  0.7816164E-02  0.1266605E+00
        -11   -1    0    0    0    0  0.00000000000E+00  0.00000000000E+00  0.45593999997E+02  0.45594000000E+02  0.51100000000E-03 0.  1.
         11   -1    0    0    0    0 -0.00000000000E+00 -0.00000000000E+00 -0.45593999997E+02  0.45594000000E+02  0.51100000000E-03 0. -1.
    9900012    2    1    2    0    0 -0.25561301926E+02 -0.18246862883E+02 -0.55130831965E+01  0.59301917651E+02  0.49999951895E+02 0.  0.
         12    1    1    2    0    0  0.25561301926E+02  0.18246862883E+02  0.55130831965E+01  0.31886082349E+02  0.00000000000E+00 0. -1.
         11    1    3    3    0    0  0.35632317623E+01 -0.10756598944E+02 -0.11651010591E+02  0.16252602546E+02  0.51100000000E-03 0.  1.
        -11    1    3    3    0    0 -0.68640927089E+01 -0.17052449450E+02  0.26062124863E+01  0.18565940449E+02  0.51100000000E-03 0. -1.
        -12    1    3    3    0    0 -0.22260440980E+02  0.95621855120E+01  0.35317149085E+01  0.24483374656E+02  0.00000000000E+00 0.  1.
</event>
<event>
 7    1  0.6316620E-012  0.5930194E+02  0.7816164E-02  0.1266605E+00
        -11   -1    0    0    0    0  0.00000000000E+00  0.00000000000E+00  0.45593999997E+02  0.45594000000E+02  0.51100000000E-03 0.  1.
         11   -1    0    0    0    0 -0.00000000000E+00 -0.00000000000E+00 -0.45593999997E+02  0.45594000000E+02  0.51100000000E-03 0. -1.
    9900012    2    1    2    0    0  0.26651385072E+02  0.17498863106E+02 -0.46313035867E+00  0.59301936806E+02  0.49999986829E+02 0.  0.
         12    1    1    2    0    0 -0.26651385072E+02 -0.17498863106E+02  0.46313035867E+00  0.31886063194E+02  0.00000000000E+00 0. -1.
         11    1    3    3    0    0  0.17202797463E+02 -0.78112997435E+01 -0.76376038349E+01  0.20378558262E+02  0.51100000000E-03 0. -1.
        -11    1    3    3    0    0  0.97924456495E+01 -0.21369736700E+01  0.54767861477E+01  0.11421638894E+02  0.51100000000E-03 0.  1.
        -12    1    3    3    0    0 -0.34385804024E+00  0.27447136520E+02  0.16976873285E+01  0.27501739649E+02  0.00000000000E+00 0.  1.
</event>
<event>
 7    1  0.6316620E-012  0.5930192E+02  0.7816164E-02  0.1266605E+00
        -11   -1    0    0    0    0  0.00000000000E+00  0.00000000000E+00  0.45593999997E+02  0.45594000000E+02  0.51100000000E-03 0.  1.
         11   -1    0    0    0    0 -0.00000000000E+00 -0.00000000000E+00 -0.45593999997E+02  0.45594000000E+02  0.51100000000E-03 0. -1.
    9900012    2    1    2    0    0 -0.22131585549E+02  0.15224244757E+02 -0.17179555613E+02  0.59301924067E+02  0.49999963597E+02 0.  0.
         12    1    1    2    0    0  0.22131585549E+02 -0.15224244757E+02  0.17179555613E+02  0.31886075933E+02  0.00000000000E+00 0. -1.
         11    1    3    3    0    0 -0.83688067756E+01  0.62538543764E+01  0.11220090170E+02  0.15330950561E+02  0.51100000000E-03 0. -1.
        -11    1    3    3    0    0 -0.16707952292E+02 -0.13687559988E+01 -0.38929668271E+01  0.17210007373E+02  0.51100000000E-03 0.  1.
         12    1    3    3    0    0  0.29451735193E+01  0.10339146379E+02 -0.24506678957E+02  0.26760966133E+02  0.00000000000E+00 0. -1.
</event>
<event>
 7    1  0.6316620E-012  0.5930195E+02  0.7816164E-02  0.1266605E+00
        -11   -1    0    0    0    0  0.00000000000E+00  0.00000000000E+00  0.45593999997E+02  0.45594000000E+02  0.51100000000E-03 0. -1.
         11   -1    0    0    0    0 -0.00000000000E+00 -0.00000000000E+00 -0.45593999997E+02  0.45594000000E+02  0.51100000000E-03 0.  1.
    9900012    2    1    2    0    0 -0.15052594793E+01  0.94988977083E+01 -0.30401075519E+02  0.59301948873E+02  0.50000008837E+02 0.  0.
         12    1    1    2    0    0  0.15052594793E+01 -0.94988977083E+01  0.30401075519E+02  0.31886051127E+02  0.00000000000E+00 0. -1.
         11    1    3    3    0    0 -0.21710252769E+01 -0.16126934204E+02 -0.20199918845E+02  0.25938929801E+02  0.51100000000E-03 0.  1.
        -11    1    3    3    0    0  0.51159764221E+01 -0.61207069939E+00 -0.16863762903E+01  0.54214122280E+01  0.51100000000E-03 0. -1.
        -12    1    3    3    0    0 -0.44502106245E+01  0.26237902612E+02 -0.85147803832E+01  0.27941606845E+02  0.00000000000E+00 0.  1.
</event>
<event>
 7    1  0.6316620E-012  0.5930193E+02  0.7816164E-02  0.1266605E+00
        -11   -1    0    0    0    0  0.00000000000E+00  0.00000000000E+00  0.45593999997E+02  0.45594000000E+02  0.51100000000E-03 0. -1.
         11   -1    0    0    0    0 -0.00000000000E+00 -0.00000000000E+00 -0.45593999997E+02  0.45594000000E+02  0.51100000000E-03 0.  1.
    9900012    2    1    2    0    0 -0.15408003244E+02 -0.25268712837E+02  0.11866208110E+02  0.59301932395E+02  0.49999978785E+02 0.  0.
         12    1    1    2    0    0  0.15408003244E+02  0.25268712837E+02 -0.11866208110E+02  0.31886067605E+02  0.00000000000E+00 0. -1.
         11    1    3    3    0    0  0.35173996693E+01 -0.85980392735E+00  0.26210884701E+01  0.44700635629E+01  0.51100000000E-03 0. -1.
        -11    1    3    3    0    0 -0.19215807199E+02 -0.17539618573E+02  0.25962966802E+02  0.36755422884E+02  0.51100000000E-03 0.  1.
        -12    1    3    3    0    0  0.29040428605E+00 -0.68692903367E+01 -0.16717847162E+02  0.18076445948E+02  0.00000000000E+00 0.  1.
</event>
<event>
 7    1  0.6316620E-012  0.5930195E+02  0.7816164E-02  0.1266605E+00
        -11   -1    0    0    0    0  0.00000000000E+00  0.00000000000E+00  0.45593999997E+02  0.45594000000E+02  0.51100000000E-03 0. -1.
         11   -1    0    0    0    0 -0.00000000000E+00 -0.00000000000E+00 -0.45593999997E+02  0.45594000000E+02  0.51100000000E-03 0.  1.
    9900012    2    1    2    0    0 -0.35804090960E+01 -0.29549442102E+02 -0.11433769083E+02  0.59301953941E+02  0.50000018080E+02 0.  0.
         12    1    1    2    0    0  0.35804090960E+01  0.29549442102E+02  0.11433769083E+02  0.31886046059E+02  0.00000000000E+00 0. -1.
         11    1    3    3    0    0  0.13106016051E+01 -0.17473145287E+02  0.10469939053E+02  0.20411959897E+02  0.51100000000E-03 0.  1.
        -11    1    3    3    0    0  0.79905646307E+01  0.42410094356E+01 -0.51229499476E+00  0.90607797994E+01  0.51100000000E-03 0. -1.
         12    1    3    3    0    0 -0.12881575332E+02 -0.16317306250E+02 -0.21391413141E+02  0.29829214245E+02  0.00000000000E+00 0. -1.
</event>
<event>
 7    1  0.6316620E-012  0.5930196E+02  0.7816164E-02  0.1266605E+00
        -11   -1    0    0    0    0  0.00000000000E+00  0.00000000000E+00  0.45593999997E+02  0.45594000000E+02  0.51100000000E-03 0. -1.
         11   -1    0    0    0    0 -0.00000000000E+00 -0.00000000000E+00 -0.45593999997E+02  0.45594000000E+02  0.51100000000E-03 0.  1.
    9900012    2    1    2    0    0  0.24712576716E+02  0.15565217121E+02  0.12795784016E+02  0.59301960413E+02  0.50000029882E+02 0.  0.
         12    1    1    2    0    0 -0.24712576716E+02 -0.15565217121E+02 -0.12795784016E+02  0.31886039587E+02  0.00000000000E+00 0. -1.
         11    1    3    3    0    0 -0.48683999609E+01  0.30895918687E+01 -0.13207421983E+02  0.14411207160E+02  0.51100000000E-03 0. -1.
        -11    1    3    3    0    0  0.59542832473E+01  0.40162079099E+01 -0.18328933038E+01  0.74123486891E+01  0.51100000000E-03 0.  1.
        -12    1    3    3    0    0  0.23626693430E+02  0.84594173423E+01  0.27836099304E+02  0.37478404564E+02  0.00000000000E+00 0.  1.
</event>
<event>
 7    1  0.6316620E-012  0.5930203E+02  0.7816164E-02  0.1266604E+00
        -11   -1    0    0    0    0  0.00000000000E+00  0.00000000000E+00  0.45593999997E+02  0.45594000000E+02  0.51100000000E-03 0.  1.
         11   -1    0    0    0    0 -0.00000000000E+00 -0.00000000000E+00 -0.45593999997E+02  0.45594000000E+02  0.51100000000E-03 0. -1.
    9900012    2    1    2    0    0 -0.12899368235E+02 -0.28867766789E+02 -0.41198816873E+01  0.59302029960E+02  0.50000156720E+02 0.  0.
         12    1    1    2    0    0  0.12899368235E+02  0.28867766789E+02  0.41198816873E+01  0.31885970040E+02  0.00000000000E+00 0. -1.
         11    1    3    3    0    0  0.82210384332E+00 -0.43216786517E+01  0.78589926586E+01  0.90064713937E+01  0.51100000000E-03 0. -1.
        -11    1    3    3    0    0 -0.22913825518E+02 -0.11179031620E+02  0.58839536951E+01  0.26165531892E+02  0.51100000000E-03 0.  1.
         12    1    3    3    0    0  0.91923534398E+01 -0.13367056518E+02 -0.17862828041E+02  0.24130026675E+02  0.00000000000E+00 0. -1.
</event>
<event>
 7    1  0.6316620E-012  0.5930190E+02  0.7816164E-02  0.1266605E+00
        -11   -1    0    0    0    0  0.00000000000E+00  0.00000000000E+00  0.45593999997E+02  0.45594000000E+02  0.51100000000E-03 0.  1.
         11   -1    0    0    0    0 -0.00000000000E+00 -0.00000000000E+00 -0.45593999997E+02  0.45594000000E+02  0.51100000000E-03 0. -1.
    9900012    2    1    2    0    0  0.17347315005E+02  0.25447799689E+02  0.82585429293E+01  0.59301899922E+02  0.49999919561E+02 0.  0.
         12    1    1    2    0    0 -0.17347315005E+02 -0.25447799689E+02 -0.82585429293E+01  0.31886100078E+02  0.00000000000E+00 0. -1.
         11    1    3    3    0    0 -0.21083818690E+01 -0.52209026921E+01  0.65472623297E+01  0.86353774266E+01  0.51100000000E-03 0. -1.
        -11    1    3    3    0    0 -0.90968225712E+01  0.10384540654E+02  0.66014166055E+01  0.15302600006E+02  0.51100000000E-03 0.  1.
        -12    1    3    3    0    0  0.28552519445E+02  0.20284161727E+02 -0.48901360058E+01  0.35363922489E+02  0.00000000000E+00 0.  1.
</event>
<event>
 7    1  0.6316620E-012  0.5930195E+02  0.7816164E-02  0.1266605E+00
        -11   -1    0    0    0    0  0.00000000000E+00  0.00000000000E+00  0.45593999997E+02  0.45594000000E+02  0.51100000000E-03 0.  1.
         11   -1    0    0    0    0 -0.00000000000E+00 -0.00000000000E+00 -0.45593999997E+02  0.45594000000E+02  0.51100000000E-03 0. -1.
    9900012    2    1    2    0    0  0.80889196190E+01  0.30774790358E+02 -0.20498762782E+01  0.59301947643E+02  0.50000006593E+02 0.  0.
         12    1    1    2    0    0 -0.80889196190E+01 -0.30774790358E+02  0.20498762782E+01  0.31886052357E+02  0.00000000000E+00 0. -1.
         11    1    3    3    0    0 -0.34791371004E+01 -0.69092311930E+01  0.41341252369E+01  0.87711380320E+01  0.51100000000E-03 0. -1.
        -11    1    3    3    0    0  0.13214573306E+02  0.12639493359E+01  0.12147623708E+01  0.13330347462E+02  0.51100000000E-03 0.  1.
         12    1    3    3    0    0 -0.16465165867E+01  0.36420072215E+02 -0.73987638859E+01  0.37200462148E+02  0.00000000000E+00 0. -1.
</event>
<event>
 7    1  0.6316620E-012  0.5930190E+02  0.7816164E-02  0.1266605E+00
        -11   -1    0    0    0    0  0.00000000000E+00  0.00000000000E+00  0.45593999997E+02  0.45594000000E+02  0.51100000000E-03 0.  1.
         11   -1    0    0    0    0 -0.00000000000E+00 -0.00000000000E+00 -0.45593999997E+02  0.45594000000E+02  0.51100000000E-03 0. -1.
    9900012    2    1    2    0    0  0.16836330025E+02 -0.13901939372E+02  0.23237846546E+02  0.59301898967E+02  0.49999917819E+02 0.  0.
         12    1    1    2    0    0 -0.16836330025E+02  0.13901939372E+02 -0.23237846546E+02  0.31886101033E+02  0.00000000000E+00 0. -1.
         11    1    3    3    0    0  0.42618681856E+01  0.70287378869E+01 -0.22319162094E+01  0.85175188254E+01  0.51100000000E-03 0.  1.
        -11    1    3    3    0    0  0.10244633690E+02  0.79347656272E+01  0.15395074529E+02  0.20122657504E+02  0.51100000000E-03 0. -1.
        -12    1    3    3    0    0  0.23298281497E+01 -0.28865442887E+02  0.10074688226E+02  0.30661722637E+02  0.00000000000E+00 0.  1.
</event>
<event>
 7    1  0.6316620E-012  0.5930190E+02  0.7816164E-02  0.1266605E+00
        -11   -1    0    0    0    0  0.00000000000E+00  0.00000000000E+00  0.45593999997E+02  0.45594000000E+02  0.51100000000E-03 0.  1.
         11   -1    0    0    0    0 -0.00000000000E+00 -0.00000000000E+00 -0.45593999997E+02  0.45594000000E+02  0.51100000000E-03 0. -1.
    9900012    2    1    2    0    0  0.24376831716E+02  0.83634776998E+01  0.18776193256E+02  0.59301904019E+02  0.49999927033E+02 0.  0.
         12    1    1    2    0    0 -0.24376831716E+02 -0.83634776998E+01 -0.18776193256E+02  0.31886095981E+02  0.00000000000E+00 0. -1.
         11    1    3    3    0    0  0.11863784242E+02  0.30323807351E+01  0.88977764535E+01  0.15136549658E+02  0.51100000000E-03 0. -1.
        -11    1    3    3    0    0  0.12807096261E+02 -0.15872965374E+01  0.24665318193E+02  0.27837369609E+02  0.51100000000E-03 0.  1.
         12    1    3    3    0    0 -0.29404878713E+00  0.69183935022E+01 -0.14786901390E+02  0.16327984752E+02  0.00000000000E+00 0. -1.
</event>
<event>
 7    1  0.6316620E-012  0.5930194E+02  0.7816164E-02  0.1266605E+00
        -11   -1    0    0    0    0  0.00000000000E+00  0.00000000000E+00  0.45593999997E+02  0.45594000000E+02  0.51100000000E-03 0.  1.
         11   -1    0    0    0    0 -0.00000000000E+00 -0.00000000000E+00 -0.45593999997E+02  0.45594000000E+02  0.51100000000E-03 0. -1.
    9900012    2    1    2    0    0 -0.55700377104E+01  0.61820136830E+00  0.31389704186E+02  0.59301936870E+02  0.49999986946E+02 0.  0.
         12    1    1    2    0    0  0.55700377104E+01 -0.61820136830E+00 -0.31389704186E+02  0.31886063130E+02  0.00000000000E+00 0. -1.
         11    1    3    3    0    0 -0.74866685280E+01  0.12431908666E+02 -0.66252351061E+01  0.15952940143E+02  0.51100000000E-03 0. -1.
        -11    1    3    3    0    0 -0.24450360622E+01  0.35615702545E+01  0.46105164247E+01  0.63182154115E+01  0.51100000000E-03 0.  1.
        -12    1    3    3    0    0  0.43616668799E+01 -0.15375277552E+02  0.33404422868E+02  0.37030781316E+02  0.00000000000E+00 0.  1.
</event>
<event>
 7    1  0.6316620E-012  0.5930194E+02  0.7816164E-02  0.1266605E+00
        -11   -1    0    0    0    0  0.00000000000E+00  0.00000000000E+00  0.45593999997E+02  0.45594000000E+02  0.51100000000E-03 0.  1.
         11   -1    0    0    0    0 -0.00000000000E+00 -0.00000000000E+00 -0.45593999997E+02  0.45594000000E+02  0.51100000000E-03 0. -1.
    9900012    2    1    2    0    0 -0.25699653978E+02 -0.17863151249E+02  0.60955897582E+01  0.59301943461E+02  0.49999998966E+02 0.  0.
         12    1    1    2    0    0  0.25699653978E+02  0.17863151249E+02 -0.60955897582E+01  0.31886056539E+02  0.00000000000E+00 0. -1.
         11    1    3    3    0    0  0.77252651239E+01  0.45048527726E+00 -0.78595844491E+01  0.11029765464E+02  0.51100000000E-03 0. -1.
        -11    1    3    3    0    0  0.24290162129E+01  0.31938153957E+01  0.31150571710E+01  0.50797793243E+01  0.51100000000E-03 0.  1.
        -12    1    3    3    0    0 -0.35853935314E+02 -0.21507451922E+02  0.10840117036E+02  0.43192398672E+02  0.00000000000E+00 0.  1.
</event>
<event>
 7    1  0.6316620E-012  0.5930192E+02  0.7816164E-02  0.1266605E+00
        -11   -1    0    0    0    0  0.00000000000E+00  0.00000000000E+00  0.45593999997E+02  0.45594000000E+02  0.51100000000E-03 0. -1.
         11   -1    0    0    0    0 -0.00000000000E+00 -0.00000000000E+00 -0.45593999997E+02  0.45594000000E+02  0.51100000000E-03 0.  1.
    9900012    2    1    2    0    0  0.18468506769E+02  0.18571886673E+02 -0.18185737953E+02  0.59301924955E+02  0.49999965216E+02 0.  0.
         12    1    1    2    0    0 -0.18468506769E+02 -0.18571886673E+02  0.18185737953E+02  0.31886075045E+02  0.00000000000E+00 0. -1.
         11    1    3    3    0    0  0.87075002743E+01  0.68914889112E+01 -0.17080789433E+02  0.20373182087E+02  0.51100000000E-03 0. -1.
        -11    1    3    3    0    0  0.23040290841E+02  0.61446342525E+01  0.28312132541E+01  0.24013065213E+02  0.51100000000E-03 0.  1.
         12    1    3    3    0    0 -0.13279284347E+02  0.55357635097E+01 -0.39361617743E+01  0.14915677655E+02  0.00000000000E+00 0. -1.
</event>
<event>
 7    1  0.6316620E-012  0.5930189E+02  0.7816164E-02  0.1266605E+00
        -11   -1    0    0    0    0  0.00000000000E+00  0.00000000000E+00  0.45593999997E+02  0.45594000000E+02  0.51100000000E-03 0. -1.
         11   -1    0    0    0    0 -0.00000000000E+00 -0.00000000000E+00 -0.45593999997E+02  0.45594000000E+02  0.51100000000E-03 0.  1.
    9900012    2    1    2    0    0 -0.21708302744E+02  0.65057031051E+01 -0.22430998110E+02  0.59301886140E+02  0.49999894426E+02 0.  0.
         12    1    1    2    0    0  0.21708302744E+02 -0.65057031051E+01  0.22430998110E+02  0.31886113860E+02  0.00000000000E+00 0. -1.
         11    1    3    3    0    0 -0.13211902030E+02  0.80827666708E+01  0.79516494522E+01  0.17410175231E+02  0.51100000000E-03 0. -1.
        -11    1    3    3    0    0 -0.17327970694E+02  0.32467023857E+01 -0.13370909578E+02  0.22126474368E+02  0.51100000000E-03 0.  1.
         12    1    3    3    0    0  0.88315699804E+01 -0.48237659514E+01 -0.17011737984E+02  0.19765236541E+02  0.00000000000E+00 0. -1.
</event>
<event>
 7    1  0.6316620E-012  0.5930197E+02  0.7816164E-02  0.1266605E+00
        -11   -1    0    0    0    0  0.00000000000E+00  0.00000000000E+00  0.45593999997E+02  0.45594000000E+02  0.51100000000E-03 0.  1.
         11   -1    0    0    0    0 -0.00000000000E+00 -0.00000000000E+00 -0.45593999997E+02  0.45594000000E+02  0.51100000000E-03 0. -1.
    9900012    2    1    2    0    0 -0.29880094809E+02 -0.20688916716E+01 -0.10937028539E+02  0.59301969018E+02  0.50000045575E+02 0.  0.
         12    1    1    2    0    0  0.29880094809E+02  0.20688916716E+01  0.10937028539E+02  0.31886030982E+02  0.00000000000E+00 0. -1.
         11    1    3    3    0    0 -0.33190249564E+02  0.31224340898E+01 -0.21538960674E+01  0.33406309723E+02  0.51100000000E-03 0. -1.
        -11    1    3    3    0    0 -0.65643074813E+01 -0.52851502219E+01 -0.12725339648E+02  0.15262935989E+02  0.51100000000E-03 0.  1.
        -12    1    3    3    0    0  0.98744622360E+01  0.93824460533E-01  0.39422071764E+01  0.10632723306E+02  0.00000000000E+00 0.  1.
</event>
<event>
 7    1  0.6316620E-012  0.5930194E+02  0.7816164E-02  0.1266605E+00
        -11   -1    0    0    0    0  0.00000000000E+00  0.00000000000E+00  0.45593999997E+02  0.45594000000E+02  0.51100000000E-03 0.  1.
         11   -1    0    0    0    0 -0.00000000000E+00 -0.00000000000E+00 -0.45593999997E+02  0.45594000000E+02  0.51100000000E-03 0. -1.
    9900012    2    1    2    0    0 -0.50178159176E+01 -0.16075821891E+01  0.31447703175E+02  0.59301939847E+02  0.49999992376E+02 0.  0.
         12    1    1    2    0    0  0.50178159176E+01  0.16075821891E+01 -0.31447703175E+02  0.31886060153E+02  0.00000000000E+00 0. -1.
         11    1    3    3    0    0 -0.94144595382E+01  0.85765569670E+01 -0.83267013550E+01  0.15215890822E+02  0.51100000000E-03 0. -1.
        -11    1    3    3    0    0  0.22625460773E+01  0.40356919713E+01  0.90967254772E+01  0.10205701304E+02  0.51100000000E-03 0.  1.
        -12    1    3    3    0    0  0.21340975432E+01 -0.14219831127E+02  0.30677679053E+02  0.33880347721E+02  0.00000000000E+00 0.  1.
</event>
<event>
 7    1  0.6316620E-012  0.5930195E+02  0.7816164E-02  0.1266605E+00
        -11   -1    0    0    0    0  0.00000000000E+00  0.00000000000E+00  0.45593999997E+02  0.45594000000E+02  0.51100000000E-03 0. -1.
         11   -1    0    0    0    0 -0.00000000000E+00 -0.00000000000E+00 -0.45593999997E+02  0.45594000000E+02  0.51100000000E-03 0.  1.
    9900012    2    1    2    0    0 -0.14043969292E+02  0.13482317430E+02 -0.25252999866E+02  0.59301953538E+02  0.50000017345E+02 0.  0.
         12    1    1    2    0    0  0.14043969292E+02 -0.13482317430E+02  0.25252999866E+02  0.31886046462E+02  0.00000000000E+00 0. -1.
         11    1    3    3    0    0  0.26443494891E+01  0.15525062925E+02 -0.21078004277E+01  0.15889083862E+02  0.51100000000E-03 0. -1.
        -11    1    3    3    0    0 -0.12319721518E+02  0.78393720459E+01  0.31905003392E+01  0.14946925605E+02  0.51100000000E-03 0.  1.
         12    1    3    3    0    0 -0.43685972628E+01 -0.98821175410E+01 -0.26335699777E+02  0.28465944072E+02  0.00000000000E+00 0. -1.
</event>
<event>
 7    1  0.6316620E-012  0.5930198E+02  0.7816164E-02  0.1266605E+00
        -11   -1    0    0    0    0  0.00000000000E+00  0.00000000000E+00  0.45593999997E+02  0.45594000000E+02  0.51100000000E-03 0. -1.
         11   -1    0    0    0    0 -0.00000000000E+00 -0.00000000000E+00 -0.45593999997E+02  0.45594000000E+02  0.51100000000E-03 0.  1.
    9900012    2    1    2    0    0  0.11046405676E+02 -0.29663218990E+02  0.38456067790E+01  0.59301979071E+02  0.50000063911E+02 0.  0.
         12    1    1    2    0    0 -0.11046405676E+02  0.29663218990E+02 -0.38456067790E+01  0.31886020929E+02  0.00000000000E+00 0. -1.
         11    1    3    3    0    0  0.24544854210E+01 -0.19841009105E+02  0.75323753196E+01  0.21364147987E+02  0.51100000000E-03 0. -1.
        -11    1    3    3    0    0 -0.56622003479E+01 -0.16492017661E+02 -0.10965912869E+02  0.20598504912E+02  0.51100000000E-03 0.  1.
        -12    1    3    3    0    0  0.14254120603E+02  0.66698077765E+01  0.72791443288E+01  0.17339326172E+02  0.00000000000E+00 0.  1.
</event>
<event>
 7    1  0.6316620E-012  0.5930195E+02  0.7816164E-02  0.1266605E+00
        -11   -1    0    0    0    0  0.00000000000E+00  0.00000000000E+00  0.45593999997E+02  0.45594000000E+02  0.51100000000E-03 0. -1.
         11   -1    0    0    0    0 -0.00000000000E+00 -0.00000000000E+00 -0.45593999997E+02  0.45594000000E+02  0.51100000000E-03 0.  1.
    9900012    2    1    2    0    0 -0.25727153029E+02 -0.13889419248E+02  0.12724699481E+02  0.59301947455E+02  0.50000006251E+02 0.  0.
         12    1    1    2    0    0  0.25727153029E+02  0.13889419248E+02 -0.12724699481E+02  0.31886052545E+02  0.00000000000E+00 0. -1.
         11    1    3    3    0    0 -0.13006180701E+02  0.46395648725E+01  0.22037119405E+02  0.26006171009E+02  0.51100000000E-03 0. -1.
        -11    1    3    3    0    0 -0.10699442946E+02  0.23686638081E+01 -0.27392926925E+01  0.11295679365E+02  0.51100000000E-03 0.  1.
         12    1    3    3    0    0 -0.20215293818E+01 -0.20897647929E+02 -0.65731272314E+01  0.22000097081E+02  0.00000000000E+00 0. -1.
</event>
<event>
 7    1  0.6316620E-012  0.5930196E+02  0.7816164E-02  0.1266605E+00
        -11   -1    0    0    0    0  0.00000000000E+00  0.00000000000E+00  0.45593999997E+02  0.45594000000E+02  0.51100000000E-03 0.  1.
         11   -1    0    0    0    0 -0.00000000000E+00 -0.00000000000E+00 -0.45593999997E+02  0.45594000000E+02  0.51100000000E-03 0. -1.
    9900012    2    1    2    0    0 -0.10093461872E+02 -0.17171248811E+02  0.24899593955E+02  0.59301960149E+02  0.50000029401E+02 0.  0.
         12    1    1    2    0    0  0.10093461872E+02  0.17171248811E+02 -0.24899593955E+02  0.31886039851E+02  0.00000000000E+00 0. -1.
         11    1    3    3    0    0 -0.57606300872E+01  0.45550528323E+01  0.84796945513E+01  0.11217779872E+02  0.51100000000E-03 0. -1.
        -11    1    3    3    0    0 -0.12536082714E+02 -0.88509616471E+01  0.25906328134E+02  0.30110309356E+02  0.51100000000E-03 0.  1.
        -12    1    3    3    0    0  0.82032509292E+01 -0.12875339996E+02 -0.94864287303E+01  0.17973870921E+02  0.00000000000E+00 0.  1.
</event>
<event>
 7    1  0.6316620E-012  0.5930195E+02  0.7816164E-02  0.1266605E+00
        -11   -1    0    0    0    0  0.00000000000E+00  0.00000000000E+00  0.45593999997E+02  0.45594000000E+02  0.51100000000E-03 0.  1.
         11   -1    0    0    0    0 -0.00000000000E+00 -0.00000000000E+00 -0.45593999997E+02  0.45594000000E+02  0.51100000000E-03 0. -1.
    9900012    2    1    2    0    0 -0.11832153345E+02  0.29543312006E+02  0.19781488996E+01  0.59301949600E+02  0.50000010162E+02 0.  0.
         12    1    1    2    0    0  0.11832153345E+02 -0.29543312006E+02 -0.19781488996E+01  0.31886050400E+02  0.00000000000E+00 0. -1.
         11    1    3    3    0    0  0.21262275526E+01 -0.85369316495E+00 -0.79621816536E+01  0.82852865111E+01  0.51100000000E-03 0. -1.
        -11    1    3    3    0    0 -0.83392970915E+01  0.13153599638E+02 -0.14027753022E+02  0.20960413033E+02  0.51100000000E-03 0.  1.
        -12    1    3    3    0    0 -0.56190838063E+01  0.17243405533E+02  0.23968083575E+02  0.30056250056E+02  0.00000000000E+00 0.  1.
</event>
<event>
 7    1  0.6316620E-012  0.5930194E+02  0.7816164E-02  0.1266605E+00
        -11   -1    0    0    0    0  0.00000000000E+00  0.00000000000E+00  0.45593999997E+02  0.45594000000E+02  0.51100000000E-03 0.  1.
         11   -1    0    0    0    0 -0.00000000000E+00 -0.00000000000E+00 -0.45593999997E+02  0.45594000000E+02  0.51100000000E-03 0. -1.
    9900012    2    1    2    0    0  0.13303498062E+02 -0.11595307175E+02  0.26557235183E+02  0.59301938002E+02  0.49999989011E+02 0.  0.
         12    1    1    2    0    0 -0.13303498062E+02  0.11595307175E+02 -0.26557235183E+02  0.31886061998E+02  0.00000000000E+00 0. -1.
         11    1    3    3    0    0  0.32890371976E+01 -0.78778694720E+01 -0.25954371301E+01  0.89227174820E+01  0.51100000000E-03 0. -1.
        -11    1    3    3    0    0  0.15040066393E+02 -0.19181161008E+02  0.21080497036E+02  0.32225888509E+02  0.51100000000E-03 0.  1.
        -12    1    3    3    0    0 -0.50256055286E+01  0.15463723305E+02  0.80721752777E+01  0.18153332011E+02  0.00000000000E+00 0.  1.
</event>
<event>
 7    1  0.6316620E-012  0.5930191E+02  0.7816164E-02  0.1266605E+00
        -11   -1    0    0    0    0  0.00000000000E+00  0.00000000000E+00  0.45593999997E+02  0.45594000000E+02  0.51100000000E-03 0. -1.
         11   -1    0    0    0    0 -0.00000000000E+00 -0.00000000000E+00 -0.45593999997E+02  0.45594000000E+02  0.51100000000E-03 0.  1.
    9900012    2    1    2    0    0 -0.13672268839E+02 -0.28424774906E+02 -0.46715947404E+01  0.59301912734E+02  0.49999942929E+02 0.  0.
         12    1    1    2    0    0  0.13672268839E+02  0.28424774906E+02  0.46715947404E+01  0.31886087266E+02  0.00000000000E+00 0. -1.
         11    1    3    3    0    0  0.36255752072E+01  0.11801404084E+01 -0.10329682474E+01  0.39502595646E+01  0.51100000000E-03 0. -1.
        -11    1    3    3    0    0 -0.14250724835E+02 -0.32264796713E+01 -0.19541403420E+02  0.24399995436E+02  0.51100000000E-03 0.  1.
        -12    1    3    3    0    0 -0.30471192117E+01 -0.26378435643E+02  0.15902776927E+02  0.30951657734E+02  0.00000000000E+00 0.  1.
</event>
<event>
 7    1  0.6316620E-012  0.5930191E+02  0.7816164E-02  0.1266605E+00
        -11   -1    0    0    0    0  0.00000000000E+00  0.00000000000E+00  0.45593999997E+02  0.45594000000E+02  0.51100000000E-03 0.  1.
         11   -1    0    0    0    0 -0.00000000000E+00 -0.00000000000E+00 -0.45593999997E+02  0.45594000000E+02  0.51100000000E-03 0. -1.
    9900012    2    1    2    0    0 -0.23028703688E+02  0.20271791306E+02  0.86865533283E+01  0.59301907028E+02  0.49999932521E+02 0.  0.
         12    1    1    2    0    0  0.23028703688E+02 -0.20271791306E+02 -0.86865533283E+01  0.31886092972E+02  0.00000000000E+00 0. -1.
         11    1    3    3    0    0 -0.17399184762E+02  0.87613842064E+01  0.41633624215E+01  0.19920518832E+02  0.51100000000E-03 0. -1.
        -11    1    3    3    0    0  0.86899418096E+01  0.85129520245E+01  0.16482416869E+02  0.20485495037E+02  0.51100000000E-03 0.  1.
         12    1    3    3    0    0 -0.14319460735E+02  0.29974550752E+01 -0.11959225962E+02  0.18895893159E+02  0.00000000000E+00 0. -1.
</event>
<event>
 7    1  0.6316620E-012  0.5930194E+02  0.7816164E-02  0.1266605E+00
        -11   -1    0    0    0    0  0.00000000000E+00  0.00000000000E+00  0.45593999997E+02  0.45594000000E+02  0.51100000000E-03 0.  1.
         11   -1    0    0    0    0 -0.00000000000E+00 -0.00000000000E+00 -0.45593999997E+02  0.45594000000E+02  0.51100000000E-03 0. -1.
    9900012    2    1    2    0    0  0.10081911872E+02  0.26851546086E+02  0.13930919542E+02  0.59301937316E+02  0.49999987759E+02 0.  0.
         12    1    1    2    0    0 -0.10081911872E+02 -0.26851546086E+02 -0.13930919542E+02  0.31886062684E+02  0.00000000000E+00 0. -1.
         11    1    3    3    0    0  0.27144039693E+01  0.30622203595E+02  0.92909132767E+01  0.32115547818E+02  0.51100000000E-03 0. -1.
        -11    1    3    3    0    0 -0.48141933759E+01  0.74664875067E+01  0.57397647956E+01  0.10576851787E+02  0.51100000000E-03 0.  1.
        -12    1    3    3    0    0  0.12181701279E+02 -0.11237145015E+02 -0.10997585305E+01  0.16609537711E+02  0.00000000000E+00 0.  1.
</event>
<event>
 7    1  0.6316620E-012  0.5930194E+02  0.7816164E-02  0.1266605E+00
        -11   -1    0    0    0    0  0.00000000000E+00  0.00000000000E+00  0.45593999997E+02  0.45594000000E+02  0.51100000000E-03 0. -1.
         11   -1    0    0    0    0 -0.00000000000E+00 -0.00000000000E+00 -0.45593999997E+02  0.45594000000E+02  0.51100000000E-03 0.  1.
    9900012    2    1    2    0    0  0.16856063573E+02  0.20941061573E+02 -0.17148356488E+02  0.59301936129E+02  0.49999985594E+02 0.  0.
         12    1    1    2    0    0 -0.16856063573E+02 -0.20941061573E+02  0.17148356488E+02  0.31886063871E+02  0.00000000000E+00 0. -1.
         11    1    3    3    0    0 -0.78913177839E+01 -0.20716805638E+01  0.58731827344E+01  0.10052812165E+02  0.51100000000E-03 0. -1.
        -11    1    3    3    0    0 -0.16192336591E+01  0.15873164952E+02 -0.11146610202E+02  0.19463458133E+02  0.51100000000E-03 0.  1.
        -12    1    3    3    0    0  0.26366615016E+02  0.71395771850E+01 -0.11874929020E+02  0.29785665832E+02  0.00000000000E+00 0.  1.
</event>
<event>
 7    1  0.6316620E-012  0.5930192E+02  0.7816164E-02  0.1266605E+00
        -11   -1    0    0    0    0  0.00000000000E+00  0.00000000000E+00  0.45593999997E+02  0.45594000000E+02  0.51100000000E-03 0. -1.
         11   -1    0    0    0    0 -0.00000000000E+00 -0.00000000000E+00 -0.45593999997E+02  0.45594000000E+02  0.51100000000E-03 0.  1.
    9900012    2    1    2    0    0 -0.95530516530E+01  0.28639819176E+02 -0.10257779829E+02  0.59301920195E+02  0.49999956535E+02 0.  0.
         12    1    1    2    0    0  0.95530516530E+01 -0.28639819176E+02  0.10257779829E+02  0.31886079805E+02  0.00000000000E+00 0. -1.
         11    1    3    3    0    0  0.18770851476E+01  0.16036327022E+01 -0.91754086623E+01  0.95017477801E+01  0.51100000000E-03 0. -1.
        -11    1    3    3    0    0 -0.64892158788E+01 -0.85672054683E+01 -0.77397350258E+01  0.13244260296E+02  0.51100000000E-03 0.  1.
         12    1    3    3    0    0 -0.49409209217E+01  0.35603391942E+02  0.66573638590E+01  0.36555912119E+02  0.00000000000E+00 0. -1.
</event>
<event>
 7    1  0.6316620E-012  0.5930192E+02  0.7816164E-02  0.1266605E+00
        -11   -1    0    0    0    0  0.00000000000E+00  0.00000000000E+00  0.45593999997E+02  0.45594000000E+02  0.51100000000E-03 0. -1.
         11   -1    0    0    0    0 -0.00000000000E+00 -0.00000000000E+00 -0.45593999997E+02  0.45594000000E+02  0.51100000000E-03 0.  1.
    9900012    2    1    2    0    0 -0.10329145110E+02  0.20358916175E+02 -0.22260852109E+02  0.59301917720E+02  0.49999952021E+02 0.  0.
         12    1    1    2    0    0  0.10329145110E+02 -0.20358916175E+02  0.22260852109E+02  0.31886082280E+02  0.00000000000E+00 0. -1.
         11    1    3    3    0    0 -0.13108120093E+02 -0.30481987787E+01 -0.97326598234E+01  0.16608401358E+02  0.51100000000E-03 0. -1.
        -11    1    3    3    0    0  0.42722355157E+01  0.13466987149E+02 -0.23745950925E+02  0.27631176681E+02  0.51100000000E-03 0.  1.
         12    1    3    3    0    0 -0.14932605327E+01  0.99401278051E+01  0.11217758639E+02  0.15062339681E+02  0.00000000000E+00 0. -1.
</event>
<event>
 7    1  0.6316620E-012  0.5930176E+02  0.7816164E-02  0.1266605E+00
        -11   -1    0    0    0    0  0.00000000000E+00  0.00000000000E+00  0.45593999997E+02  0.45594000000E+02  0.51100000000E-03 0. -1.
         11   -1    0    0    0    0 -0.00000000000E+00 -0.00000000000E+00 -0.45593999997E+02  0.45594000000E+02  0.51100000000E-03 0.  1.
    9900012    2    1    2    0    0  0.16130006838E+02  0.25727306899E+02 -0.97293728006E+01  0.59301762593E+02  0.49999669105E+02 0.  0.
         12    1    1    2    0    0 -0.16130006838E+02 -0.25727306899E+02  0.97293728006E+01  0.31886237407E+02  0.00000000000E+00 0. -1.
         11    1    3    3    0    0 -0.53556143105E+01  0.11020622412E+02  0.13008390293E+02  0.17870504785E+02  0.51100000000E-03 0. -1.
        -11    1    3    3    0    0 -0.86793775251E+00  0.11634054134E+02 -0.48378365122E+01  0.12629694926E+02  0.51100000000E-03 0.  1.
        -12    1    3    3    0    0  0.22353558901E+02  0.30726303529E+01 -0.17899926581E+02  0.28801562882E+02  0.00000000000E+00 0.  1.
</event>
<event>
 7    1  0.6316620E-012  0.5930195E+02  0.7816164E-02  0.1266605E+00
        -11   -1    0    0    0    0  0.00000000000E+00  0.00000000000E+00  0.45593999997E+02  0.45594000000E+02  0.51100000000E-03 0.  1.
         11   -1    0    0    0    0 -0.00000000000E+00 -0.00000000000E+00 -0.45593999997E+02  0.45594000000E+02  0.51100000000E-03 0. -1.
    9900012    2    1    2    0    0 -0.60212192735E+01  0.18233126647E+02  0.25456201458E+02  0.59301950048E+02  0.50000010979E+02 0.  0.
         12    1    1    2    0    0  0.60212192735E+01 -0.18233126647E+02 -0.25456201458E+02  0.31886049952E+02  0.00000000000E+00 0. -1.
         11    1    3    3    0    0  0.58771170782E+01  0.60271313619E+01 -0.59608505277E+00  0.84393207817E+01  0.51100000000E-03 0. -1.
        -11    1    3    3    0    0  0.13614311056E+02  0.35241923762E+01  0.10512052902E+01  0.14102284576E+02  0.51100000000E-03 0.  1.
        -12    1    3    3    0    0 -0.25512647408E+02  0.86818029087E+01  0.25001081221E+02  0.36760344690E+02  0.00000000000E+00 0.  1.
</event>
<event>
 7    1  0.6316620E-012  0.5930193E+02  0.7816164E-02  0.1266605E+00
        -11   -1    0    0    0    0  0.00000000000E+00  0.00000000000E+00  0.45593999997E+02  0.45594000000E+02  0.51100000000E-03 0.  1.
         11   -1    0    0    0    0 -0.00000000000E+00 -0.00000000000E+00 -0.45593999997E+02  0.45594000000E+02  0.51100000000E-03 0. -1.
    9900012    2    1    2    0    0  0.25368590298E+02  0.34008158806E+00  0.19314262069E+02  0.59301925477E+02  0.49999966168E+02 0.  0.
         12    1    1    2    0    0 -0.25368590298E+02 -0.34008158806E+00 -0.19314262069E+02  0.31886074523E+02  0.00000000000E+00 0. -1.
         11    1    3    3    0    0 -0.82463542485E+00 -0.51296027896E+01  0.97651868718E+00  0.52864390066E+01  0.51100000000E-03 0. -1.
        -11    1    3    3    0    0  0.92999181974E+01 -0.72522826314E+01 -0.12136157967E+02  0.16922482451E+02  0.51100000000E-03 0.  1.
        -12    1    3    3    0    0  0.16893307526E+02  0.12721967009E+02  0.30473901349E+02  0.37093004019E+02  0.00000000000E+00 0.  1.
</event>
<event>
 7    1  0.6316620E-012  0.5930195E+02  0.7816164E-02  0.1266605E+00
        -11   -1    0    0    0    0  0.00000000000E+00  0.00000000000E+00  0.45593999997E+02  0.45594000000E+02  0.51100000000E-03 0.  1.
         11   -1    0    0    0    0 -0.00000000000E+00 -0.00000000000E+00 -0.45593999997E+02  0.45594000000E+02  0.51100000000E-03 0. -1.
    9900012    2    1    2    0    0 -0.95816258381E+00 -0.11776606735E+02  0.29616104141E+02  0.59301950289E+02  0.50000011418E+02 0.  0.
         12    1    1    2    0    0  0.95816258381E+00  0.11776606735E+02 -0.29616104141E+02  0.31886049711E+02  0.00000000000E+00 0. -1.
         11    1    3    3    0    0 -0.48998688044E+00  0.39268671631E+01  0.13655325304E+01  0.41862933739E+01  0.51100000000E-03 0. -1.
        -11    1    3    3    0    0 -0.66002120241E+01 -0.28108811141E+02  0.29428492190E+02  0.41227469184E+02  0.51100000000E-03 0.  1.
         12    1    3    3    0    0  0.61320363208E+01  0.12405337243E+02 -0.11779205794E+01  0.13888187731E+02  0.00000000000E+00 0. -1.
</event>
<event>
 7    1  0.6316620E-012  0.5930196E+02  0.7816164E-02  0.1266605E+00
        -11   -1    0    0    0    0  0.00000000000E+00  0.00000000000E+00  0.45593999997E+02  0.45594000000E+02  0.51100000000E-03 0. -1.
         11   -1    0    0    0    0 -0.00000000000E+00 -0.00000000000E+00 -0.45593999997E+02  0.45594000000E+02  0.51100000000E-03 0.  1.
    9900012    2    1    2    0    0 -0.31667961178E+02  0.23519972755E+01 -0.28858216702E+01  0.59301958805E+02  0.50000026950E+02 0.  0.
         12    1    1    2    0    0  0.31667961178E+02 -0.23519972755E+01  0.28858216702E+01  0.31886041195E+02  0.00000000000E+00 0. -1.
         11    1    3    3    0    0 -0.49958781194E+01  0.20614630752E+02  0.38218864482E+01  0.21552925915E+02  0.51100000000E-03 0. -1.
        -11    1    3    3    0    0 -0.68117335537E+01 -0.18080328655E+01  0.57603549442E+01  0.91022187511E+01  0.51100000000E-03 0.  1.
        -12    1    3    3    0    0 -0.19860349505E+02 -0.16454600611E+02 -0.12468063063E+02  0.28646814138E+02  0.00000000000E+00 0.  1.
</event>
<event>
 7    1  0.6316620E-012  0.5930194E+02  0.7816164E-02  0.1266605E+00
        -11   -1    0    0    0    0  0.00000000000E+00  0.00000000000E+00  0.45593999997E+02  0.45594000000E+02  0.51100000000E-03 0.  1.
         11   -1    0    0    0    0 -0.00000000000E+00 -0.00000000000E+00 -0.45593999997E+02  0.45594000000E+02  0.51100000000E-03 0. -1.
    9900012    2    1    2    0    0 -0.17372248039E+02 -0.22546162085E+02  0.14373464771E+02  0.59301938528E+02  0.49999989969E+02 0.  0.
         12    1    1    2    0    0  0.17372248039E+02  0.22546162085E+02 -0.14373464771E+02  0.31886061472E+02  0.00000000000E+00 0. -1.
         11    1    3    3    0    0 -0.28381162447E+02 -0.13723288275E+02  0.47958086076E+01  0.31887596388E+02  0.51100000000E-03 0. -1.
        -11    1    3    3    0    0 -0.30982471746E+01 -0.10962325931E+02  0.48733427730E+01  0.12390367041E+02  0.51100000000E-03 0.  1.
        -12    1    3    3    0    0  0.14107161583E+02  0.21394521203E+01  0.47043133902E+01  0.15023975099E+02  0.00000000000E+00 0.  1.
</event>
<event>
 7    1  0.6316620E-012  0.5930193E+02  0.7816164E-02  0.1266605E+00
        -11   -1    0    0    0    0  0.00000000000E+00  0.00000000000E+00  0.45593999997E+02  0.45594000000E+02  0.51100000000E-03 0.  1.
         11   -1    0    0    0    0 -0.00000000000E+00 -0.00000000000E+00 -0.45593999997E+02  0.45594000000E+02  0.51100000000E-03 0. -1.
    9900012    2    1    2    0    0  0.13650138001E+02 -0.62229348481E+01 -0.28136631812E+02  0.59301933524E+02  0.49999980844E+02 0.  0.
         12    1    1    2    0    0 -0.13650138001E+02  0.62229348481E+01  0.28136631812E+02  0.31886066476E+02  0.00000000000E+00 0. -1.
         11    1    3    3    0    0 -0.48035703694E+01 -0.58873429399E+01  0.20469565317E+01  0.78692519650E+01  0.51100000000E-03 0. -1.
        -11    1    3    3    0    0  0.79177458293E+01  0.14081955409E+02  0.23845472566E+00  0.16157011731E+02  0.51100000000E-03 0.  1.
        -12    1    3    3    0    0  0.10535962541E+02 -0.14417547317E+02 -0.30422043070E+02  0.35275669828E+02  0.00000000000E+00 0.  1.
</event>
<event>
 7    1  0.6316620E-012  0.5930195E+02  0.7816164E-02  0.1266605E+00
        -11   -1    0    0    0    0  0.00000000000E+00  0.00000000000E+00  0.45593999997E+02  0.45594000000E+02  0.51100000000E-03 0.  1.
         11   -1    0    0    0    0 -0.00000000000E+00 -0.00000000000E+00 -0.45593999997E+02  0.45594000000E+02  0.51100000000E-03 0. -1.
    9900012    2    1    2    0    0 -0.19974481218E+02  0.18278725336E+02  0.16841271523E+02  0.59301950913E+02  0.50000012557E+02 0.  0.
         12    1    1    2    0    0  0.19974481218E+02 -0.18278725336E+02 -0.16841271523E+02  0.31886049087E+02  0.00000000000E+00 0. -1.
         11    1    3    3    0    0  0.52641187963E+01  0.12044707561E+01  0.11381733697E+01  0.55187983641E+01  0.51100000000E-03 0. -1.
        -11    1    3    3    0    0 -0.13662940223E+02 -0.10331457248E+02 -0.46352448171E+01  0.17745434319E+02  0.51100000000E-03 0.  1.
         12    1    3    3    0    0 -0.11575659792E+02  0.27405711828E+02  0.20338342971E+02  0.36037718230E+02  0.00000000000E+00 0. -1.
</event>
<event>
 7    1  0.6316620E-012  0.5930197E+02  0.7816164E-02  0.1266605E+00
        -11   -1    0    0    0    0  0.00000000000E+00  0.00000000000E+00  0.45593999997E+02  0.45594000000E+02  0.51100000000E-03 0.  1.
         11   -1    0    0    0    0 -0.00000000000E+00 -0.00000000000E+00 -0.45593999997E+02  0.45594000000E+02  0.51100000000E-03 0. -1.
    9900012    2    1    2    0    0 -0.56395327912E+01  0.10866380444E+01  0.31364531536E+02  0.59301969347E+02  0.50000046176E+02 0.  0.
         12    1    1    2    0    0  0.56395327912E+01 -0.10866380444E+01 -0.31364531536E+02  0.31886030653E+02  0.00000000000E+00 0. -1.
         11    1    3    3    0    0  0.15323157930E+02 -0.41932095486E+01  0.50710733386E+01  0.16676269377E+02  0.51100000000E-03 0. -1.
        -11    1    3    3    0    0 -0.57131346808E+01 -0.14373330624E+01 -0.46336827720E+01  0.74951217806E+01  0.51100000000E-03 0.  1.
        -12    1    3    3    0    0 -0.15249556040E+02  0.67171806555E+01  0.30927140969E+02  0.35130578189E+02  0.00000000000E+00 0.  1.
</event>
<event>
 7    1  0.6316620E-012  0.5930195E+02  0.7816164E-02  0.1266605E+00
        -11   -1    0    0    0    0  0.00000000000E+00  0.00000000000E+00  0.45593999997E+02  0.45594000000E+02  0.51100000000E-03 0. -1.
         11   -1    0    0    0    0 -0.00000000000E+00 -0.00000000000E+00 -0.45593999997E+02  0.45594000000E+02  0.51100000000E-03 0.  1.
    9900012    2    1    2    0    0 -0.97496289042E+01 -0.30355123475E+02  0.48074318620E+00  0.59301954479E+02  0.50000019061E+02 0.  0.
         12    1    1    2    0    0  0.97496289042E+01  0.30355123475E+02 -0.48074318620E+00  0.31886045521E+02  0.00000000000E+00 0. -1.
         11    1    3    3    0    0 -0.33481608592E+01 -0.17949847212E+02  0.74631992326E+01  0.19725783612E+02  0.51100000000E-03 0. -1.
        -11    1    3    3    0    0 -0.66134241646E+01 -0.25084317098E+02 -0.22416888805E+01  0.26038154941E+02  0.51100000000E-03 0.  1.
         12    1    3    3    0    0  0.21195611966E+00  0.12679040835E+02 -0.47407671659E+01  0.13538015926E+02  0.00000000000E+00 0. -1.
</event>
<event>
 7    1  0.6316620E-012  0.5930194E+02  0.7816164E-02  0.1266605E+00
        -11   -1    0    0    0    0  0.00000000000E+00  0.00000000000E+00  0.45593999997E+02  0.45594000000E+02  0.51100000000E-03 0.  1.
         11   -1    0    0    0    0 -0.00000000000E+00 -0.00000000000E+00 -0.45593999997E+02  0.45594000000E+02  0.51100000000E-03 0. -1.
    9900012    2    1    2    0    0 -0.18346539383E+01 -0.30728297337E+02  0.83142459113E+01  0.59301938823E+02  0.49999990508E+02 0.  0.
         12    1    1    2    0    0  0.18346539383E+01  0.30728297337E+02 -0.83142459113E+01  0.31886061177E+02  0.00000000000E+00 0. -1.
         11    1    3    3    0    0  0.14614884116E+02 -0.18680672959E+02  0.26974702435E+01  0.23871295020E+02  0.51100000000E-03 0. -1.
        -11    1    3    3    0    0  0.48182056241E+00 -0.14047434131E+02  0.10671833314E+02  0.17647962581E+02  0.51100000000E-03 0.  1.
         12    1    3    3    0    0 -0.16931358617E+02  0.19998097529E+01 -0.50550576458E+01  0.17782681223E+02  0.00000000000E+00 0. -1.
</event>
<event>
 7    1  0.6316620E-012  0.5930235E+02  0.7816164E-02  0.1266603E+00
        -11   -1    0    0    0    0  0.00000000000E+00  0.00000000000E+00  0.45593999997E+02  0.45594000000E+02  0.51100000000E-03 0. -1.
         11   -1    0    0    0    0 -0.00000000000E+00 -0.00000000000E+00 -0.45593999997E+02  0.45594000000E+02  0.51100000000E-03 0.  1.
    9900012    2    1    2    0    0 -0.56948228315E+01  0.29544553877E+02 -0.10553811057E+02  0.59302351211E+02  0.50000742599E+02 0.  0.
         12    1    1    2    0    0  0.56948228315E+01 -0.29544553877E+02  0.10553811057E+02  0.31885648789E+02  0.00000000000E+00 0. -1.
         11    1    3    3    0    0  0.84799717775E+00  0.12798223560E+02 -0.57446579794E+01  0.14053993065E+02  0.51100000000E-03 0. -1.
        -11    1    3    3    0    0 -0.20256432759E+02  0.19990489445E+02 -0.10095919437E+02  0.30197190696E+02  0.51100000000E-03 0.  1.
         12    1    3    3    0    0  0.13713612750E+02 -0.32441591280E+01  0.52867663590E+01  0.15051167451E+02  0.00000000000E+00 0. -1.
</event>
<event>
 7    1  0.6316620E-012  0.5930197E+02  0.7816164E-02  0.1266605E+00
        -11   -1    0    0    0    0  0.00000000000E+00  0.00000000000E+00  0.45593999997E+02  0.45594000000E+02  0.51100000000E-03 0.  1.
         11   -1    0    0    0    0 -0.00000000000E+00 -0.00000000000E+00 -0.45593999997E+02  0.45594000000E+02  0.51100000000E-03 0. -1.
    9900012    2    1    2    0    0  0.11323341035E+02  0.17027377334E+02 -0.24465674982E+02  0.59301970404E+02  0.50000048105E+02 0.  0.
         12    1    1    2    0    0 -0.11323341035E+02 -0.17027377334E+02  0.24465674982E+02  0.31886029596E+02  0.00000000000E+00 0. -1.
         11    1    3    3    0    0 -0.33825993387E+00  0.50509853098E+01 -0.12899291819E+01  0.52240587610E+01  0.51100000000E-03 0. -1.
        -11    1    3    3    0    0 -0.76650381361E+01 -0.26974976116E+01  0.10056482816E+02  0.12929120228E+02  0.51100000000E-03 0.  1.
        -12    1    3    3    0    0  0.19326639105E+02  0.14673889635E+02 -0.33232228616E+02  0.41148791415E+02  0.00000000000E+00 0.  1.
</event>
<event>
 7    1  0.6316620E-012  0.5930195E+02  0.7816164E-02  0.1266605E+00
        -11   -1    0    0    0    0  0.00000000000E+00  0.00000000000E+00  0.45593999997E+02  0.45594000000E+02  0.51100000000E-03 0.  1.
         11   -1    0    0    0    0 -0.00000000000E+00 -0.00000000000E+00 -0.45593999997E+02  0.45594000000E+02  0.51100000000E-03 0. -1.
    9900012    2    1    2    0    0  0.28147359967E+02  0.17688218251E+01  0.14876753733E+02  0.59301946538E+02  0.50000004578E+02 0.  0.
         12    1    1    2    0    0 -0.28147359967E+02 -0.17688218251E+01 -0.14876753733E+02  0.31886053462E+02  0.00000000000E+00 0. -1.
         11    1    3    3    0    0 -0.21820504232E+01  0.18117062140E+01 -0.81439133027E+01  0.86236272878E+01  0.51100000000E-03 0. -1.
        -11    1    3    3    0    0 -0.13533478416E+01  0.97068743140E+01 -0.83729189301E+00  0.98364636584E+01  0.51100000000E-03 0.  1.
        -12    1    3    3    0    0  0.31682758232E+02 -0.97497587029E+01  0.23857958929E+02  0.40841855592E+02  0.00000000000E+00 0.  1.
</event>
<event>
 7    1  0.6316620E-012  0.5930165E+02  0.7816164E-02  0.1266606E+00
        -11   -1    0    0    0    0  0.00000000000E+00  0.00000000000E+00  0.45593999997E+02  0.45594000000E+02  0.51100000000E-03 0.  1.
         11   -1    0    0    0    0 -0.00000000000E+00 -0.00000000000E+00 -0.45593999997E+02  0.45594000000E+02  0.51100000000E-03 0. -1.
    9900012    2    1    2    0    0 -0.14356551772E+02  0.20244404237E+02  0.20019803549E+02  0.59301654712E+02  0.49999472355E+02 0.  0.
         12    1    1    2    0    0  0.14356551772E+02 -0.20244404237E+02 -0.20019803549E+02  0.31886345288E+02  0.00000000000E+00 0. -1.
         11    1    3    3    0    0 -0.13112364856E+02 -0.10889363633E+00  0.14275484551E+02  0.19383896135E+02  0.51100000000E-03 0. -1.
        -11    1    3    3    0    0 -0.71984557968E+01  0.22902076010E+02  0.15231166241E+02  0.28430815619E+02  0.51100000000E-03 0.  1.
        -12    1    3    3    0    0  0.59542688809E+01 -0.25487781370E+01 -0.94868472437E+01  0.11486942958E+02  0.00000000000E+00 0.  1.
</event>
<event>
 7    1  0.6316620E-012  0.5930195E+02  0.7816164E-02  0.1266605E+00
        -11   -1    0    0    0    0  0.00000000000E+00  0.00000000000E+00  0.45593999997E+02  0.45594000000E+02  0.51100000000E-03 0. -1.
         11   -1    0    0    0    0 -0.00000000000E+00 -0.00000000000E+00 -0.45593999997E+02  0.45594000000E+02  0.51100000000E-03 0.  1.
    9900012    2    1    2    0    0  0.14282873083E+02  0.27068469314E+02 -0.89452723022E+01  0.59301946763E+02  0.50000004988E+02 0.  0.
         12    1    1    2    0    0 -0.14282873083E+02 -0.27068469314E+02  0.89452723022E+01  0.31886053237E+02  0.00000000000E+00 0. -1.
         11    1    3    3    0    0 -0.60407144167E+00  0.32187035453E+01  0.36700356610E+01  0.49187515523E+01  0.51100000000E-03 0. -1.
        -11    1    3    3    0    0  0.66939824891E+01  0.35490496564E+02 -0.16382660708E+02  0.39658244036E+02  0.51100000000E-03 0.  1.
         12    1    3    3    0    0  0.81929620357E+01 -0.11640730796E+02  0.37673527447E+01  0.14724951174E+02  0.00000000000E+00 0. -1.
</event>
<event>
 7    1  0.6316620E-012  0.5930196E+02  0.7816164E-02  0.1266605E+00
        -11   -1    0    0    0    0  0.00000000000E+00  0.00000000000E+00  0.45593999997E+02  0.45594000000E+02  0.51100000000E-03 0.  1.
         11   -1    0    0    0    0 -0.00000000000E+00 -0.00000000000E+00 -0.45593999997E+02  0.45594000000E+02  0.51100000000E-03 0. -1.
    9900012    2    1    2    0    0  0.16215012849E+02  0.23394902714E+02  0.14369112321E+02  0.59301960679E+02  0.50000030368E+02 0.  0.
         12    1    1    2    0    0 -0.16215012849E+02 -0.23394902714E+02 -0.14369112321E+02  0.31886039321E+02  0.00000000000E+00 0. -1.
         11    1    3    3    0    0 -0.60521174898E+01  0.28681877860E+01  0.32551033033E+01  0.74464975030E+01  0.51100000000E-03 0. -1.
        -11    1    3    3    0    0  0.11389775464E+02  0.17544531416E+01 -0.14348379448E+02  0.18403290032E+02  0.51100000000E-03 0.  1.
         12    1    3    3    0    0  0.10877354874E+02  0.18772261786E+02  0.25462388466E+02  0.33452173144E+02  0.00000000000E+00 0. -1.
</event>
<event>
 7    1  0.6316620E-012  0.5930195E+02  0.7816164E-02  0.1266605E+00
        -11   -1    0    0    0    0  0.00000000000E+00  0.00000000000E+00  0.45593999997E+02  0.45594000000E+02  0.51100000000E-03 0. -1.
         11   -1    0    0    0    0 -0.00000000000E+00 -0.00000000000E+00 -0.45593999997E+02  0.45594000000E+02  0.51100000000E-03 0.  1.
    9900012    2    1    2    0    0  0.31825209112E+02  0.40038056412E+00  0.19277236142E+01  0.59301947281E+02  0.50000005934E+02 0.  0.
         12    1    1    2    0    0 -0.31825209112E+02 -0.40038056412E+00 -0.19277236142E+01  0.31886052719E+02  0.00000000000E+00 0. -1.
         11    1    3    3    0    0 -0.35409005508E+01 -0.10192868431E+02 -0.72043290211E+01  0.12974394031E+02  0.51100000000E-03 0. -1.
        -11    1    3    3    0    0  0.84525492747E+01  0.86506773799E+01  0.14430523579E+02  0.18828696699E+02  0.51100000000E-03 0.  1.
        -12    1    3    3    0    0  0.26913560388E+02  0.19425716157E+01 -0.52984709437E+01  0.27498856551E+02  0.00000000000E+00 0.  1.
</event>
<event>
 7    1  0.6316620E-012  0.5930196E+02  0.7816164E-02  0.1266605E+00
        -11   -1    0    0    0    0  0.00000000000E+00  0.00000000000E+00  0.45593999997E+02  0.45594000000E+02  0.51100000000E-03 0. -1.
         11   -1    0    0    0    0 -0.00000000000E+00 -0.00000000000E+00 -0.45593999997E+02  0.45594000000E+02  0.51100000000E-03 0.  1.
    9900012    2    1    2    0    0 -0.10917612160E+02 -0.43745557694E+00 -0.29955533227E+02  0.59301959268E+02  0.50000027795E+02 0.  0.
         12    1    1    2    0    0  0.10917612160E+02  0.43745557694E+00  0.29955533227E+02  0.31886040732E+02  0.00000000000E+00 0. -1.
         11    1    3    3    0    0  0.93259151431E+01  0.28429895306E+01 -0.12304988684E+02  0.15699300287E+02  0.51100000000E-03 0. -1.
        -11    1    3    3    0    0 -0.61426076639E+00  0.10765323203E+01 -0.22810485217E+02  0.22844134351E+02  0.51100000000E-03 0.  1.
         12    1    3    3    0    0 -0.19629266537E+02 -0.43569774279E+01  0.51599406740E+01  0.20758524631E+02  0.00000000000E+00 0. -1.
</event>
<event>
 7    1  0.6316620E-012  0.5930198E+02  0.7816164E-02  0.1266605E+00
        -11   -1    0    0    0    0  0.00000000000E+00  0.00000000000E+00  0.45593999997E+02  0.45594000000E+02  0.51100000000E-03 0.  1.
         11   -1    0    0    0    0 -0.00000000000E+00 -0.00000000000E+00 -0.45593999997E+02  0.45594000000E+02  0.51100000000E-03 0. -1.
    9900012    2    1    2    0    0 -0.32277299877E+01  0.10480159326E+02  0.29941050125E+02  0.59301976997E+02  0.50000060127E+02 0.  0.
         12    1    1    2    0    0  0.32277299877E+01 -0.10480159326E+02 -0.29941050125E+02  0.31886023003E+02  0.00000000000E+00 0. -1.
         11    1    3    3    0    0 -0.17967152047E+02 -0.40014433978E+01  0.31583189665E+01  0.18676324073E+02  0.51100000000E-03 0. -1.
        -11    1    3    3    0    0 -0.33037937777E+01 -0.10770667342E+01  0.12215507814E+02  0.12700147932E+02  0.51100000000E-03 0.  1.
         12    1    3    3    0    0  0.18043215837E+02  0.15558669458E+02  0.14567223345E+02  0.27925504991E+02  0.00000000000E+00 0. -1.
</event>
<event>
 7    1  0.6316620E-012  0.5930175E+02  0.7816164E-02  0.1266605E+00
        -11   -1    0    0    0    0  0.00000000000E+00  0.00000000000E+00  0.45593999997E+02  0.45594000000E+02  0.51100000000E-03 0.  1.
         11   -1    0    0    0    0 -0.00000000000E+00 -0.00000000000E+00 -0.45593999997E+02  0.45594000000E+02  0.51100000000E-03 0. -1.
    9900012    2    1    2    0    0  0.69784911298E+01  0.30948284305E+02 -0.31995653489E+01  0.59301751266E+02  0.49999648448E+02 0.  0.
         12    1    1    2    0    0 -0.69784911298E+01 -0.30948284305E+02  0.31995653489E+01  0.31886248734E+02  0.00000000000E+00 0. -1.
         11    1    3    3    0    0  0.10030008831E+02  0.10272259848E+02 -0.37355848944E+01  0.14834924816E+02  0.51100000000E-03 0. -1.
        -11    1    3    3    0    0  0.14058251046E+02  0.14838122223E+02 -0.10810310306E+02  0.23122869691E+02  0.51100000000E-03 0.  1.
        -12    1    3    3    0    0 -0.17109768747E+02  0.58379022338E+01  0.11346329852E+02  0.21343956760E+02  0.00000000000E+00 0.  1.
</event>
<event>
 7    1  0.6316620E-012  0.5930201E+02  0.7816164E-02  0.1266605E+00
        -11   -1    0    0    0    0  0.00000000000E+00  0.00000000000E+00  0.45593999997E+02  0.45594000000E+02  0.51100000000E-03 0.  1.
         11   -1    0    0    0    0 -0.00000000000E+00 -0.00000000000E+00 -0.45593999997E+02  0.45594000000E+02  0.51100000000E-03 0. -1.
    9900012    2    1    2    0    0 -0.20049042257E+02 -0.24642547704E+02  0.27380300369E+01  0.59302014657E+02  0.50000128812E+02 0.  0.
         12    1    1    2    0    0  0.20049042257E+02  0.24642547704E+02 -0.27380300369E+01  0.31885985343E+02  0.00000000000E+00 0. -1.
         11    1    3    3    0    0 -0.95625379836E+01  0.94612690104E+01  0.29593661043E+01  0.13773728325E+02  0.51100000000E-03 0. -1.
        -11    1    3    3    0    0 -0.16223834791E+02 -0.71490544235E+01  0.21925103962E+01  0.17864179146E+02  0.51100000000E-03 0.  1.
         12    1    3    3    0    0  0.57373305177E+01 -0.26954762291E+02 -0.24138464636E+01  0.27664107186E+02  0.00000000000E+00 0. -1.
</event>
<event>
 7    1  0.6316620E-012  0.5930187E+02  0.7816164E-02  0.1266605E+00
        -11   -1    0    0    0    0  0.00000000000E+00  0.00000000000E+00  0.45593999997E+02  0.45594000000E+02  0.51100000000E-03 0.  1.
         11   -1    0    0    0    0 -0.00000000000E+00 -0.00000000000E+00 -0.45593999997E+02  0.45594000000E+02  0.51100000000E-03 0. -1.
    9900012    2    1    2    0    0 -0.13541804912E+01 -0.31088438221E+02 -0.69570341419E+01  0.59301872611E+02  0.49999869753E+02 0.  0.
         12    1    1    2    0    0  0.13541804912E+01  0.31088438221E+02  0.69570341419E+01  0.31886127389E+02  0.00000000000E+00 0. -1.
         11    1    3    3    0    0 -0.19800643916E+02 -0.17046335198E+02 -0.69355460207E+01  0.27032292578E+02  0.51100000000E-03 0. -1.
        -11    1    3    3    0    0  0.52424744062E+01  0.61240884822E+01 -0.11268017335E+01  0.81398820658E+01  0.51100000000E-03 0.  1.
        -12    1    3    3    0    0  0.13203989018E+02 -0.20166191505E+02  0.11053136123E+01  0.24129697967E+02  0.00000000000E+00 0.  1.
</event>
<event>
 7    1  0.6316620E-012  0.5930195E+02  0.7816164E-02  0.1266605E+00
        -11   -1    0    0    0    0  0.00000000000E+00  0.00000000000E+00  0.45593999997E+02  0.45594000000E+02  0.51100000000E-03 0. -1.
         11   -1    0    0    0    0 -0.00000000000E+00 -0.00000000000E+00 -0.45593999997E+02  0.45594000000E+02  0.51100000000E-03 0.  1.
    9900012    2    1    2    0    0  0.90111987293E+01 -0.19272591824E+02 -0.23750488411E+02  0.59301949791E+02  0.50000010511E+02 0.  0.
         12    1    1    2    0    0 -0.90111987293E+01  0.19272591824E+02  0.23750488411E+02  0.31886050209E+02  0.00000000000E+00 0. -1.
         11    1    3    3    0    0  0.16726809519E+02  0.37413043425E+01 -0.11056634429E+02  0.20396879174E+02  0.51100000000E-03 0. -1.
        -11    1    3    3    0    0 -0.26110765770E+01  0.10968292376E+01 -0.13943549278E+02  0.14228257870E+02  0.51100000000E-03 0.  1.
         12    1    3    3    0    0 -0.51045342123E+01 -0.24110725404E+02  0.12496952966E+01  0.24676812748E+02  0.00000000000E+00 0. -1.
</event>
<event>
 7    1  0.6316620E-012  0.5930200E+02  0.7816164E-02  0.1266605E+00
        -11   -1    0    0    0    0  0.00000000000E+00  0.00000000000E+00  0.45593999997E+02  0.45594000000E+02  0.51100000000E-03 0.  1.
         11   -1    0    0    0    0 -0.00000000000E+00 -0.00000000000E+00 -0.45593999997E+02  0.45594000000E+02  0.51100000000E-03 0. -1.
    9900012    2    1    2    0    0 -0.17725149231E+02  0.14912789233E+02  0.21912203735E+02  0.59302001968E+02  0.50000105670E+02 0.  0.
         12    1    1    2    0    0  0.17725149231E+02 -0.14912789233E+02 -0.21912203735E+02  0.31885998032E+02  0.00000000000E+00 0. -1.
         11    1    3    3    0    0 -0.18999844044E+02 -0.53189050145E+01  0.14424927445E+02  0.24441017907E+02  0.51100000000E-03 0. -1.
        -11    1    3    3    0    0 -0.96986305039E+01  0.55078360014E+01  0.11547372382E+02  0.16054329642E+02  0.51100000000E-03 0.  1.
         12    1    3    3    0    0  0.10973325317E+02  0.14723858246E+02 -0.40600960929E+01  0.18806654419E+02  0.00000000000E+00 0. -1.
</event>
<event>
 7    1  0.6316620E-012  0.5930194E+02  0.7816164E-02  0.1266605E+00
        -11   -1    0    0    0    0  0.00000000000E+00  0.00000000000E+00  0.45593999997E+02  0.45594000000E+02  0.51100000000E-03 0. -1.
         11   -1    0    0    0    0 -0.00000000000E+00 -0.00000000000E+00 -0.45593999997E+02  0.45594000000E+02  0.51100000000E-03 0.  1.
    9900012    2    1    2    0    0  0.45987664160E+01  0.14880370907E+02 -0.27823489149E+02  0.59301942870E+02  0.49999997889E+02 0.  0.
         12    1    1    2    0    0 -0.45987664160E+01 -0.14880370907E+02  0.27823489149E+02  0.31886057130E+02  0.00000000000E+00 0. -1.
         11    1    3    3    0    0 -0.12474266941E+02 -0.60245586346E+01 -0.68582049427E+01  0.15457607116E+02  0.51100000000E-03 0. -1.
        -11    1    3    3    0    0  0.26763006392E+01  0.20747025302E+02 -0.20721662733E+02  0.29444676101E+02  0.51100000000E-03 0.  1.
         12    1    3    3    0    0  0.14396732718E+02  0.15790424019E+00 -0.24362147264E+00  0.14399659653E+02  0.00000000000E+00 0. -1.
</event>
<event>
 7    1  0.6316620E-012  0.5930194E+02  0.7816164E-02  0.1266605E+00
        -11   -1    0    0    0    0  0.00000000000E+00  0.00000000000E+00  0.45593999997E+02  0.45594000000E+02  0.51100000000E-03 0. -1.
         11   -1    0    0    0    0 -0.00000000000E+00 -0.00000000000E+00 -0.45593999997E+02  0.45594000000E+02  0.51100000000E-03 0.  1.
    9900012    2    1    2    0    0  0.11104611458E+02 -0.14969489729E+02 -0.25871275370E+02  0.59301938662E+02  0.49999990213E+02 0.  0.
         12    1    1    2    0    0 -0.11104611458E+02  0.14969489729E+02  0.25871275370E+02  0.31886061338E+02  0.00000000000E+00 0. -1.
         11    1    3    3    0    0 -0.70564453058E+01 -0.64360708896E+01 -0.66312839383E+01  0.11627138762E+02  0.51100000000E-03 0. -1.
        -11    1    3    3    0    0  0.35940181298E+01  0.14764233363E+02 -0.11712482343E+02  0.19185457931E+02  0.51100000000E-03 0.  1.
         12    1    3    3    0    0  0.14567038634E+02 -0.23297652203E+02 -0.75275090888E+01  0.28489341969E+02  0.00000000000E+00 0. -1.
</event>
<event>
 7    1  0.6316620E-012  0.5930194E+02  0.7816164E-02  0.1266605E+00
        -11   -1    0    0    0    0  0.00000000000E+00  0.00000000000E+00  0.45593999997E+02  0.45594000000E+02  0.51100000000E-03 0. -1.
         11   -1    0    0    0    0 -0.00000000000E+00 -0.00000000000E+00 -0.45593999997E+02  0.45594000000E+02  0.51100000000E-03 0.  1.
    9900012    2    1    2    0    0  0.26837380178E+02  0.46469136287E+01 -0.16579563082E+02  0.59301942027E+02  0.49999996350E+02 0.  0.
         12    1    1    2    0    0 -0.26837380178E+02 -0.46469136287E+01  0.16579563082E+02  0.31886057973E+02  0.00000000000E+00 0. -1.
         11    1    3    3    0    0  0.24116572668E+02 -0.71536182972E+01  0.20703787338E+01  0.25240241685E+02  0.51100000000E-03 0. -1.
        -11    1    3    3    0    0  0.72705522418E+00 -0.56568581895E+01  0.27836650998E+01  0.63464514119E+01  0.51100000000E-03 0.  1.
        -12    1    3    3    0    0  0.19937522866E+01  0.17457390115E+02 -0.21433606915E+02  0.27715248929E+02  0.00000000000E+00 0.  1.
</event>
<event>
 7    1  0.6316620E-012  0.5930195E+02  0.7816164E-02  0.1266605E+00
        -11   -1    0    0    0    0  0.00000000000E+00  0.00000000000E+00  0.45593999997E+02  0.45594000000E+02  0.51100000000E-03 0. -1.
         11   -1    0    0    0    0 -0.00000000000E+00 -0.00000000000E+00 -0.45593999997E+02  0.45594000000E+02  0.51100000000E-03 0.  1.
    9900012    2    1    2    0    0 -0.20942685080E+02 -0.18404588050E+02 -0.15472397723E+02  0.59301952723E+02  0.50000015858E+02 0.  0.
         12    1    1    2    0    0  0.20942685080E+02  0.18404588050E+02  0.15472397723E+02  0.31886047277E+02  0.00000000000E+00 0. -1.
         11    1    3    3    0    0 -0.11602999806E+01  0.65999246272E+01  0.96408031731E+01  0.11740970455E+02  0.51100000000E-03 0. -1.
        -11    1    3    3    0    0 -0.11272412346E+02 -0.11293531326E+02  0.19260745607E+01  0.16072364275E+02  0.51100000000E-03 0.  1.
         12    1    3    3    0    0 -0.85099727530E+01 -0.13710981352E+02 -0.27039275457E+02  0.31488617993E+02  0.00000000000E+00 0. -1.
</event>
<event>
 7    1  0.6316620E-012  0.5930193E+02  0.7816164E-02  0.1266605E+00
        -11   -1    0    0    0    0  0.00000000000E+00  0.00000000000E+00  0.45593999997E+02  0.45594000000E+02  0.51100000000E-03 0. -1.
         11   -1    0    0    0    0 -0.00000000000E+00 -0.00000000000E+00 -0.45593999997E+02  0.45594000000E+02  0.51100000000E-03 0.  1.
    9900012    2    1    2    0    0 -0.92341956417E+00 -0.15871947654E+02 -0.27639649376E+02  0.59301927121E+02  0.49999969166E+02 0.  0.
         12    1    1    2    0    0  0.92341956417E+00  0.15871947654E+02  0.27639649376E+02  0.31886072879E+02  0.00000000000E+00 0. -1.
         11    1    3    3    0    0 -0.75762431781E+01 -0.15774010111E+02 -0.76868873165E+01  0.19113008464E+02  0.51100000000E-03 0. -1.
        -11    1    3    3    0    0  0.12715726072E+02 -0.57273606539E+01 -0.26294918426E+02  0.29764325708E+02  0.51100000000E-03 0.  1.
         12    1    3    3    0    0 -0.60629024578E+01  0.56294231107E+01  0.63421563660E+01  0.10424592949E+02  0.00000000000E+00 0. -1.
</event>
<event>
 7    1  0.6316620E-012  0.5930194E+02  0.7816164E-02  0.1266605E+00
        -11   -1    0    0    0    0  0.00000000000E+00  0.00000000000E+00  0.45593999997E+02  0.45594000000E+02  0.51100000000E-03 0. -1.
         11   -1    0    0    0    0 -0.00000000000E+00 -0.00000000000E+00 -0.45593999997E+02  0.45594000000E+02  0.51100000000E-03 0.  1.
    9900012    2    1    2    0    0  0.17468917149E+02 -0.45922396729E+01 -0.26276782652E+02  0.59301936616E+02  0.49999986484E+02 0.  0.
         12    1    1    2    0    0 -0.17468917149E+02  0.45922396729E+01  0.26276782652E+02  0.31886063384E+02  0.00000000000E+00 0. -1.
         11    1    3    3    0    0  0.19403579948E+02  0.60425741549E+01 -0.20682643722E+02  0.28996264739E+02  0.51100000000E-03 0. -1.
        -11    1    3    3    0    0  0.25785770272E+00  0.92390010761E+01  0.89201084046E+00  0.92855433379E+01  0.51100000000E-03 0.  1.
        -12    1    3    3    0    0 -0.21925205019E+01 -0.19873814904E+02 -0.64861497706E+01  0.21020128540E+02  0.00000000000E+00 0.  1.
</event>
<event>
 7    1  0.6316620E-012  0.5930196E+02  0.7816164E-02  0.1266605E+00
        -11   -1    0    0    0    0  0.00000000000E+00  0.00000000000E+00  0.45593999997E+02  0.45594000000E+02  0.51100000000E-03 0. -1.
         11   -1    0    0    0    0 -0.00000000000E+00 -0.00000000000E+00 -0.45593999997E+02  0.45594000000E+02  0.51100000000E-03 0.  1.
    9900012    2    1    2    0    0  0.11946941062E+02  0.14800290048E+02 -0.25591824274E+02  0.59301961427E+02  0.50000031731E+02 0.  0.
         12    1    1    2    0    0 -0.11946941062E+02 -0.14800290048E+02  0.25591824274E+02  0.31886038573E+02  0.00000000000E+00 0. -1.
         11    1    3    3    0    0  0.13956025442E+01 -0.11776642061E+00  0.41131021073E+01  0.43450183656E+01  0.51100000000E-03 0. -1.
        -11    1    3    3    0    0  0.17300719788E+02 -0.63963587538E+01 -0.86459507522E+00  0.18465531008E+02  0.51100000000E-03 0.  1.
         12    1    3    3    0    0 -0.67493812705E+01  0.21314415223E+02 -0.28840331306E+02  0.36491412053E+02  0.00000000000E+00 0. -1.
</event>
<event>
 7    1  0.6316620E-012  0.5930197E+02  0.7816164E-02  0.1266605E+00
        -11   -1    0    0    0    0  0.00000000000E+00  0.00000000000E+00  0.45593999997E+02  0.45594000000E+02  0.51100000000E-03 0.  1.
         11   -1    0    0    0    0 -0.00000000000E+00 -0.00000000000E+00 -0.45593999997E+02  0.45594000000E+02  0.51100000000E-03 0. -1.
    9900012    2    1    2    0    0  0.18524244848E+02 -0.17742131657E+02  0.18941705065E+02  0.59301967420E+02  0.50000042661E+02 0.  0.
         12    1    1    2    0    0 -0.18524244848E+02  0.17742131657E+02 -0.18941705065E+02  0.31886032580E+02  0.00000000000E+00 0. -1.
         11    1    3    3    0    0  0.53593618192E+01 -0.56379535676E+01 -0.54542807842E+01  0.95004451829E+01  0.51100000000E-03 0. -1.
        -11    1    3    3    0    0 -0.11483735435E+02 -0.14012152539E+02  0.63650757715E+01  0.19202364129E+02  0.51100000000E-03 0.  1.
         12    1    3    3    0    0  0.24648618464E+02  0.19079744491E+01  0.18030910078E+02  0.30599158108E+02  0.00000000000E+00 0. -1.
</event>
<event>
 7    1  0.6316620E-012  0.5930184E+02  0.7816164E-02  0.1266605E+00
        -11   -1    0    0    0    0  0.00000000000E+00  0.00000000000E+00  0.45593999997E+02  0.45594000000E+02  0.51100000000E-03 0.  1.
         11   -1    0    0    0    0 -0.00000000000E+00 -0.00000000000E+00 -0.45593999997E+02  0.45594000000E+02  0.51100000000E-03 0. -1.
    9900012    2    1    2    0    0  0.15386408691E+02  0.22634955525E+02 -0.16359836910E+02  0.59301842380E+02  0.49999814619E+02 0.  0.
         12    1    1    2    0    0 -0.15386408691E+02 -0.22634955525E+02  0.16359836910E+02  0.31886157620E+02  0.00000000000E+00 0. -1.
         11    1    3    3    0    0  0.42226885820E+01 -0.85058220424E+01 -0.54138608164E+01  0.10931148004E+02  0.51100000000E-03 0. -1.
        -11    1    3    3    0    0  0.20872009571E+02  0.89254559596E+01 -0.73554936759E+01  0.23862268021E+02  0.51100000000E-03 0.  1.
         12    1    3    3    0    0 -0.97082894619E+01  0.22215321608E+02 -0.35904824178E+01  0.24508426355E+02  0.00000000000E+00 0. -1.
</event>
<event>
 7    1  0.6316620E-012  0.5930193E+02  0.7816164E-02  0.1266605E+00
        -11   -1    0    0    0    0  0.00000000000E+00  0.00000000000E+00  0.45593999997E+02  0.45594000000E+02  0.51100000000E-03 0. -1.
         11   -1    0    0    0    0 -0.00000000000E+00 -0.00000000000E+00 -0.45593999997E+02  0.45594000000E+02  0.51100000000E-03 0.  1.
    9900012    2    1    2    0    0  0.89515422453E+01  0.23188151986E+02 -0.19972503141E+02  0.59301931211E+02  0.49999976625E+02 0.  0.
         12    1    1    2    0    0 -0.89515422453E+01 -0.23188151986E+02  0.19972503141E+02  0.31886068789E+02  0.00000000000E+00 0. -1.
         11    1    3    3    0    0 -0.32582645980E+01 -0.99805697263E+00 -0.12825983743E+02  0.13270955698E+02  0.51100000000E-03 0. -1.
        -11    1    3    3    0    0  0.21633890055E+02  0.11892880591E+02 -0.14768212601E+02  0.28767445340E+02  0.51100000000E-03 0.  1.
         12    1    3    3    0    0 -0.94240832121E+01  0.12293328368E+02  0.76216932031E+01  0.17263530173E+02  0.00000000000E+00 0. -1.
</event>
<event>
 7    1  0.6316620E-012  0.5930194E+02  0.7816164E-02  0.1266605E+00
        -11   -1    0    0    0    0  0.00000000000E+00  0.00000000000E+00  0.45593999997E+02  0.45594000000E+02  0.51100000000E-03 0. -1.
         11   -1    0    0    0    0 -0.00000000000E+00 -0.00000000000E+00 -0.45593999997E+02  0.45594000000E+02  0.51100000000E-03 0.  1.
    9900012    2    1    2    0    0  0.12691456079E+01  0.17033350137E+02 -0.26925364792E+02  0.59301936953E+02  0.49999987097E+02 0.  0.
         12    1    1    2    0    0 -0.12691456079E+01 -0.17033350137E+02  0.26925364792E+02  0.31886063047E+02  0.00000000000E+00 0. -1.
         11    1    3    3    0    0  0.42358726127E+01  0.98447574791E+01  0.60813052090E+01  0.12322505424E+02  0.51100000000E-03 0. -1.
        -11    1    3    3    0    0  0.48645643358E+01 -0.63035302606E+01  0.23768835802E+01  0.83095159749E+01  0.51100000000E-03 0.  1.
        -12    1    3    3    0    0 -0.78312913405E+01  0.13492122918E+02 -0.35383553582E+02  0.38669915554E+02  0.00000000000E+00 0.  1.
</event>
<event>
 7    1  0.6316620E-012  0.5930195E+02  0.7816164E-02  0.1266605E+00
        -11   -1    0    0    0    0  0.00000000000E+00  0.00000000000E+00  0.45593999997E+02  0.45594000000E+02  0.51100000000E-03 0.  1.
         11   -1    0    0    0    0 -0.00000000000E+00 -0.00000000000E+00 -0.45593999997E+02  0.45594000000E+02  0.51100000000E-03 0. -1.
    9900012    2    1    2    0    0  0.24871981693E+02 -0.17609228828E+02  0.93818720226E+01  0.59301953900E+02  0.50000018005E+02 0.  0.
         12    1    1    2    0    0 -0.24871981693E+02  0.17609228828E+02 -0.93818720226E+01  0.31886046100E+02  0.00000000000E+00 0. -1.
         11    1    3    3    0    0  0.16532498885E+02 -0.14636512934E+02 -0.10907248954E+02  0.24627608699E+02  0.51100000000E-03 0. -1.
        -11    1    3    3    0    0  0.16706387943E+02 -0.57171835999E+01  0.18713326841E+02  0.25728936786E+02  0.51100000000E-03 0.  1.
         12    1    3    3    0    0 -0.83669051361E+01  0.27444677054E+01  0.15757941355E+01  0.89454084143E+01  0.00000000000E+00 0. -1.
</event>
<event>
 7    1  0.6316620E-012  0.5930185E+02  0.7816164E-02  0.1266605E+00
        -11   -1    0    0    0    0  0.00000000000E+00  0.00000000000E+00  0.45593999997E+02  0.45594000000E+02  0.51100000000E-03 0. -1.
         11   -1    0    0    0    0 -0.00000000000E+00 -0.00000000000E+00 -0.45593999997E+02  0.45594000000E+02  0.51100000000E-03 0.  1.
    9900012    2    1    2    0    0 -0.44558364911E+01 -0.10313306246E+02 -0.29841378002E+02  0.59301849314E+02  0.49999827264E+02 0.  0.
         12    1    1    2    0    0  0.44558364911E+01  0.10313306246E+02  0.29841378002E+02  0.31886150686E+02  0.00000000000E+00 0. -1.
         11    1    3    3    0    0 -0.12492472164E+02 -0.15627848668E+02 -0.40449690899E+01  0.20412086860E+02  0.51100000000E-03 0. -1.
        -11    1    3    3    0    0  0.40837721154E+01 -0.33185495200E+01 -0.28528300193E+02  0.29009548045E+02  0.51100000000E-03 0.  1.
         12    1    3    3    0    0  0.39528635577E+01  0.86330919424E+01  0.27318912817E+01  0.98802144089E+01  0.00000000000E+00 0. -1.
</event>
<event>
 7    1  0.6316620E-012  0.5930201E+02  0.7816164E-02  0.1266605E+00
        -11   -1    0    0    0    0  0.00000000000E+00  0.00000000000E+00  0.45593999997E+02  0.45594000000E+02  0.51100000000E-03 0. -1.
         11   -1    0    0    0    0 -0.00000000000E+00 -0.00000000000E+00 -0.45593999997E+02  0.45594000000E+02  0.51100000000E-03 0.  1.
    9900012    2    1    2    0    0 -0.18657270241E+02  0.14820340700E+02 -0.21189148788E+02  0.59302011578E+02  0.50000123196E+02 0.  0.
         12    1    1    2    0    0  0.18657270241E+02 -0.14820340700E+02  0.21189148788E+02  0.31885988422E+02  0.00000000000E+00 0. -1.
         11    1    3    3    0    0 -0.29599926129E+01 -0.14076445902E+02 -0.63623600433E+01  0.15728557184E+02  0.51100000000E-03 0. -1.
        -11    1    3    3    0    0 -0.16903189252E+02  0.11964275930E+02  0.48215020943E+00  0.20714588446E+02  0.51100000000E-03 0.  1.
        -12    1    3    3    0    0  0.12059116246E+01  0.16932510673E+02 -0.15308938954E+02  0.22858865948E+02  0.00000000000E+00 0.  1.
</event>
<event>
 7    1  0.6316620E-012  0.5930181E+02  0.7816164E-02  0.1266605E+00
        -11   -1    0    0    0    0  0.00000000000E+00  0.00000000000E+00  0.45593999997E+02  0.45594000000E+02  0.51100000000E-03 0.  1.
         11   -1    0    0    0    0 -0.00000000000E+00 -0.00000000000E+00 -0.45593999997E+02  0.45594000000E+02  0.51100000000E-03 0. -1.
    9900012    2    1    2    0    0  0.87477862405E+01  0.16751275247E+02 -0.25682677923E+02  0.59301812837E+02  0.49999760739E+02 0.  0.
         12    1    1    2    0    0 -0.87477862405E+01 -0.16751275247E+02  0.25682677923E+02  0.31886187163E+02  0.00000000000E+00 0. -1.
         11    1    3    3    0    0 -0.84554082291E+01  0.22271673629E+01 -0.16906258923E+01  0.89057520150E+01  0.51100000000E-03 0. -1.
        -11    1    3    3    0    0  0.13139236158E+02  0.17754116008E+02  0.35485064269E+01  0.22370517656E+02  0.51100000000E-03 0.  1.
        -12    1    3    3    0    0  0.40639583114E+01 -0.32300081243E+01 -0.27540558457E+02  0.28025543166E+02  0.00000000000E+00 0.  1.
</event>
<event>
 7    1  0.6316620E-012  0.5930190E+02  0.7816164E-02  0.1266605E+00
        -11   -1    0    0    0    0  0.00000000000E+00  0.00000000000E+00  0.45593999997E+02  0.45594000000E+02  0.51100000000E-03 0.  1.
         11   -1    0    0    0    0 -0.00000000000E+00 -0.00000000000E+00 -0.45593999997E+02  0.45594000000E+02  0.51100000000E-03 0. -1.
    9900012    2    1    2    0    0 -0.20403733425E+02 -0.15499933707E+02  0.18977962234E+02  0.59301900628E+02  0.49999920850E+02 0.  0.
         12    1    1    2    0    0  0.20403733425E+02  0.15499933707E+02 -0.18977962234E+02  0.31886099372E+02  0.00000000000E+00 0. -1.
         11    1    3    3    0    0 -0.20634857342E+02 -0.30763142154E+01  0.46007939928E+00  0.20867983132E+02  0.51100000000E-03 0. -1.
        -11    1    3    3    0    0 -0.36692173171E+01  0.27051021446E+01 -0.70943040081E+01  0.84326676060E+01  0.51100000000E-03 0.  1.
        -12    1    3    3    0    0  0.39003412348E+01 -0.15128721636E+02  0.25612186843E+02  0.30001249890E+02  0.00000000000E+00 0.  1.
</event>
<event>
 7    1  0.6316620E-012  0.5930201E+02  0.7816164E-02  0.1266605E+00
        -11   -1    0    0    0    0  0.00000000000E+00  0.00000000000E+00  0.45593999997E+02  0.45594000000E+02  0.51100000000E-03 0. -1.
         11   -1    0    0    0    0 -0.00000000000E+00 -0.00000000000E+00 -0.45593999997E+02  0.45594000000E+02  0.51100000000E-03 0.  1.
    9900012    2    1    2    0    0 -0.29354996842E+02 -0.10318763656E+02 -0.69658883994E+01  0.59302010535E+02  0.50000121293E+02 0.  0.
         12    1    1    2    0    0  0.29354996842E+02  0.10318763656E+02  0.69658883994E+01  0.31885989465E+02  0.00000000000E+00 0. -1.
         11    1    3    3    0    0 -0.16957807226E+01  0.60429219636E+01  0.31525792577E+01  0.70236268661E+01  0.51100000000E-03 0. -1.
        -11    1    3    3    0    0 -0.23941776773E+02  0.85506020344E+01 -0.84338854452E+00  0.25436838929E+02  0.51100000000E-03 0.  1.
         12    1    3    3    0    0 -0.37174393458E+01 -0.24912287654E+02 -0.92750791126E+01  0.26841544739E+02  0.00000000000E+00 0. -1.
</event>
<event>
 7    1  0.6316620E-012  0.5930166E+02  0.7816164E-02  0.1266606E+00
        -11   -1    0    0    0    0  0.00000000000E+00  0.00000000000E+00  0.45593999997E+02  0.45594000000E+02  0.51100000000E-03 0.  1.
         11   -1    0    0    0    0 -0.00000000000E+00 -0.00000000000E+00 -0.45593999997E+02  0.45594000000E+02  0.51100000000E-03 0. -1.
    9900012    2    1    2    0    0  0.10525681922E+02 -0.26800847294E+02  0.13699031475E+02  0.59301657172E+02  0.49999476841E+02 0.  0.
         12    1    1    2    0    0 -0.10525681922E+02  0.26800847294E+02 -0.13699031475E+02  0.31886342828E+02  0.00000000000E+00 0. -1.
         11    1    3    3    0    0 -0.12349711778E+02 -0.75951751353E+01  0.11305131896E+02  0.18384995887E+02  0.51100000000E-03 0. -1.
        -11    1    3    3    0    0  0.12284197475E+01 -0.18749320723E+02 -0.17537678442E+01  0.18871188213E+02  0.51100000000E-03 0.  1.
         12    1    3    3    0    0  0.21646973952E+02 -0.45635143560E+00  0.41476674236E+01  0.22045473072E+02  0.00000000000E+00 0. -1.
</event>
<event>
 7    1  0.6316620E-012  0.5930180E+02  0.7816164E-02  0.1266605E+00
        -11   -1    0    0    0    0  0.00000000000E+00  0.00000000000E+00  0.45593999997E+02  0.45594000000E+02  0.51100000000E-03 0.  1.
         11   -1    0    0    0    0 -0.00000000000E+00 -0.00000000000E+00 -0.45593999997E+02  0.45594000000E+02  0.51100000000E-03 0. -1.
    9900012    2    1    2    0    0  0.18039451029E+02 -0.85512894042E+01  0.24863300059E+02  0.59301795558E+02  0.49999729226E+02 0.  0.
         12    1    1    2    0    0 -0.18039451029E+02  0.85512894042E+01 -0.24863300059E+02  0.31886204442E+02  0.00000000000E+00 0. -1.
         11    1    3    3    0    0 -0.11818116446E+01 -0.21787722164E+02  0.63818684997E+01  0.22733890157E+02  0.51100000000E-03 0. -1.
        -11    1    3    3    0    0  0.40511268638E+01 -0.25433582946E+01 -0.32027609507E+01  0.57565595845E+01  0.51100000000E-03 0.  1.
         12    1    3    3    0    0  0.15170135810E+02  0.15779791055E+02  0.21684192510E+02  0.30811345816E+02  0.00000000000E+00 0. -1.
</event>
<event>
 7    1  0.6316620E-012  0.5930194E+02  0.7816164E-02  0.1266605E+00
        -11   -1    0    0    0    0  0.00000000000E+00  0.00000000000E+00  0.45593999997E+02  0.45594000000E+02  0.51100000000E-03 0. -1.
         11   -1    0    0    0    0 -0.00000000000E+00 -0.00000000000E+00 -0.45593999997E+02  0.45594000000E+02  0.51100000000E-03 0.  1.
    9900012    2    1    2    0    0 -0.12242851873E+02  0.17811036461E+02 -0.23443554529E+02  0.59301942063E+02  0.49999996417E+02 0.  0.
         12    1    1    2    0    0  0.12242851873E+02 -0.17811036461E+02  0.23443554529E+02  0.31886057937E+02  0.00000000000E+00 0. -1.
         11    1    3    3    0    0  0.82554493178E+01  0.16713724851E+02 -0.12669822034E+02  0.22539419524E+02  0.51100000000E-03 0. -1.
        -11    1    3    3    0    0 -0.51775134458E+01 -0.70471529941E+01 -0.16346484902E+02  0.18538516114E+02  0.51100000000E-03 0.  1.
         12    1    3    3    0    0 -0.15320787745E+02  0.81444646041E+01  0.55727524066E+01  0.18224006426E+02  0.00000000000E+00 0. -1.
</event>
<event>
 7    1  0.6316620E-012  0.5930194E+02  0.7816164E-02  0.1266605E+00
        -11   -1    0    0    0    0  0.00000000000E+00  0.00000000000E+00  0.45593999997E+02  0.45594000000E+02  0.51100000000E-03 0.  1.
         11   -1    0    0    0    0 -0.00000000000E+00 -0.00000000000E+00 -0.45593999997E+02  0.45594000000E+02  0.51100000000E-03 0. -1.
    9900012    2    1    2    0    0 -0.31222121764E+02  0.61940981792E+01  0.18796476702E+01  0.59301940114E+02  0.49999992863E+02 0.  0.
         12    1    1    2    0    0  0.31222121764E+02 -0.61940981792E+01 -0.18796476702E+01  0.31886059886E+02  0.00000000000E+00 0. -1.
         11    1    3    3    0    0 -0.53814589989E+01  0.17527447653E+02  0.80461184994E+01  0.20022775666E+02  0.51100000000E-03 0. -1.
        -11    1    3    3    0    0 -0.12088903089E+01  0.44578795170E+01 -0.87624266051E+01  0.99052625326E+01  0.51100000000E-03 0.  1.
        -12    1    3    3    0    0 -0.24631772456E+02 -0.15791228991E+02  0.25959557759E+01  0.29373901916E+02  0.00000000000E+00 0.  1.
</event>
<event>
 7    1  0.6316620E-012  0.5930193E+02  0.7816164E-02  0.1266605E+00
        -11   -1    0    0    0    0  0.00000000000E+00  0.00000000000E+00  0.45593999997E+02  0.45594000000E+02  0.51100000000E-03 0.  1.
         11   -1    0    0    0    0 -0.00000000000E+00 -0.00000000000E+00 -0.45593999997E+02  0.45594000000E+02  0.51100000000E-03 0. -1.
    9900012    2    1    2    0    0  0.18630025593E+01  0.33110607550E+01  0.31658927418E+02  0.59301928008E+02  0.49999970783E+02 0.  0.
         12    1    1    2    0    0 -0.18630025593E+01 -0.33110607550E+01 -0.31658927418E+02  0.31886071992E+02  0.00000000000E+00 0. -1.
         11    1    3    3    0    0 -0.10263918933E+02  0.37691107196E+01 -0.92104139063E+01  0.14296361497E+02  0.51100000000E-03 0. -1.
        -11    1    3    3    0    0  0.36754719429E+01 -0.64766155535E+01  0.24660835811E+02  0.25760676742E+02  0.51100000000E-03 0.  1.
        -12    1    3    3    0    0  0.84514495494E+01  0.60185655889E+01  0.16208505513E+02  0.19244889768E+02  0.00000000000E+00 0.  1.
</event>
<event>
 7    1  0.6316620E-012  0.5930194E+02  0.7816164E-02  0.1266605E+00
        -11   -1    0    0    0    0  0.00000000000E+00  0.00000000000E+00  0.45593999997E+02  0.45594000000E+02  0.51100000000E-03 0.  1.
         11   -1    0    0    0    0 -0.00000000000E+00 -0.00000000000E+00 -0.45593999997E+02  0.45594000000E+02  0.51100000000E-03 0. -1.
    9900012    2    1    2    0    0 -0.28585845562E+02 -0.38817801812E+01  0.13583142123E+02  0.59301944524E+02  0.50000000905E+02 0.  0.
         12    1    1    2    0    0  0.28585845562E+02  0.38817801812E+01 -0.13583142123E+02  0.31886055476E+02  0.00000000000E+00 0. -1.
         11    1    3    3    0    0 -0.96570158898E+01  0.43222492979E+00  0.22650274249E+02  0.24626808525E+02  0.51100000000E-03 0. -1.
        -11    1    3    3    0    0  0.34315196866E+01  0.34222309718E+01  0.51497976050E+01  0.70715916043E+01  0.51100000000E-03 0.  1.
         12    1    3    3    0    0 -0.22360349359E+02 -0.77362360828E+01 -0.14216929731E+02  0.27603544395E+02  0.00000000000E+00 0. -1.
</event>
<event>
 7    1  0.6316620E-012  0.5930195E+02  0.7816164E-02  0.1266605E+00
        -11   -1    0    0    0    0  0.00000000000E+00  0.00000000000E+00  0.45593999997E+02  0.45594000000E+02  0.51100000000E-03 0.  1.
         11   -1    0    0    0    0 -0.00000000000E+00 -0.00000000000E+00 -0.45593999997E+02  0.45594000000E+02  0.51100000000E-03 0. -1.
    9900012    2    1    2    0    0  0.15524406417E+02 -0.24254780829E+02  0.13690102232E+02  0.59301945261E+02  0.50000002250E+02 0.  0.
         12    1    1    2    0    0 -0.15524406417E+02  0.24254780829E+02 -0.13690102232E+02  0.31886054739E+02  0.00000000000E+00 0. -1.
         11    1    3    3    0    0  0.24337578309E+02 -0.15647826422E+01  0.11961917292E+02  0.27163463112E+02  0.51100000000E-03 0. -1.
        -11    1    3    3    0    0  0.54589243896E+01 -0.61766710568E+01  0.56081891884E+01  0.99701006549E+01  0.51100000000E-03 0.  1.
         12    1    3    3    0    0 -0.14272096281E+02 -0.16513327130E+02 -0.38800042479E+01  0.22168381495E+02  0.00000000000E+00 0. -1.
</event>
<event>
 7    1  0.6316620E-012  0.5930201E+02  0.7816164E-02  0.1266605E+00
        -11   -1    0    0    0    0  0.00000000000E+00  0.00000000000E+00  0.45593999997E+02  0.45594000000E+02  0.51100000000E-03 0. -1.
         11   -1    0    0    0    0 -0.00000000000E+00 -0.00000000000E+00 -0.45593999997E+02  0.45594000000E+02  0.51100000000E-03 0.  1.
    9900012    2    1    2    0    0  0.55697887802E+01 -0.18713950142E+02 -0.25208771714E+02  0.59302005452E+02  0.50000112023E+02 0.  0.
         12    1    1    2    0    0 -0.55697887802E+01  0.18713950142E+02  0.25208771714E+02  0.31885994548E+02  0.00000000000E+00 0. -1.
         11    1    3    3    0    0 -0.55436276548E+01 -0.27865495749E+02 -0.19822960434E+02  0.34643432588E+02  0.51100000000E-03 0. -1.
        -11    1    3    3    0    0  0.94286055110E+01 -0.18472376602E+01 -0.87903227356E+01  0.13022314038E+02  0.51100000000E-03 0.  1.
         12    1    3    3    0    0  0.16848109241E+01  0.10998783267E+02  0.34045114549E+01  0.11636258825E+02  0.00000000000E+00 0. -1.
</event>
<event>
 7    1  0.6316620E-012  0.5930196E+02  0.7816164E-02  0.1266605E+00
        -11   -1    0    0    0    0  0.00000000000E+00  0.00000000000E+00  0.45593999997E+02  0.45594000000E+02  0.51100000000E-03 0.  1.
         11   -1    0    0    0    0 -0.00000000000E+00 -0.00000000000E+00 -0.45593999997E+02  0.45594000000E+02  0.51100000000E-03 0. -1.
    9900012    2    1    2    0    0  0.20842719499E+02  0.19100625087E+02 -0.14746751202E+02  0.59301960644E+02  0.50000030304E+02 0.  0.
         12    1    1    2    0    0 -0.20842719499E+02 -0.19100625087E+02  0.14746751202E+02  0.31886039356E+02  0.00000000000E+00 0. -1.
         11    1    3    3    0    0  0.11989940330E+02  0.20346073429E+02 -0.21054976801E+02  0.31639112210E+02  0.51100000000E-03 0. -1.
        -11    1    3    3    0    0  0.51805896980E+00 -0.47626809335E+00 -0.96325363878E+01  0.96582075934E+01  0.51100000000E-03 0.  1.
        -12    1    3    3    0    0  0.83347201988E+01 -0.76918024892E+00  0.15940761987E+02  0.18004640840E+02  0.00000000000E+00 0.  1.
</event>
<event>
 7    1  0.6316620E-012  0.5930191E+02  0.7816164E-02  0.1266605E+00
        -11   -1    0    0    0    0  0.00000000000E+00  0.00000000000E+00  0.45593999997E+02  0.45594000000E+02  0.51100000000E-03 0.  1.
         11   -1    0    0    0    0 -0.00000000000E+00 -0.00000000000E+00 -0.45593999997E+02  0.45594000000E+02  0.51100000000E-03 0. -1.
    9900012    2    1    2    0    0  0.24759722905E+02 -0.15755195942E+02  0.12468062173E+02  0.59301911311E+02  0.49999940333E+02 0.  0.
         12    1    1    2    0    0 -0.24759722905E+02  0.15755195942E+02 -0.12468062173E+02  0.31886088689E+02  0.00000000000E+00 0. -1.
         11    1    3    3    0    0  0.85856983197E-01 -0.67096835209E+01  0.16556345713E+02  0.17864484543E+02  0.51100000000E-03 0. -1.
        -11    1    3    3    0    0  0.11722418849E+02 -0.20115590992E+02  0.19445770885E+01  0.23363079526E+02  0.51100000000E-03 0.  1.
         12    1    3    3    0    0  0.12951447073E+02  0.11070078571E+02 -0.60328606284E+01  0.18074347242E+02  0.00000000000E+00 0. -1.
</event>
<event>
 7    1  0.6316620E-012  0.5930197E+02  0.7816164E-02  0.1266605E+00
        -11   -1    0    0    0    0  0.00000000000E+00  0.00000000000E+00  0.45593999997E+02  0.45594000000E+02  0.51100000000E-03 0.  1.
         11   -1    0    0    0    0 -0.00000000000E+00 -0.00000000000E+00 -0.45593999997E+02  0.45594000000E+02  0.51100000000E-03 0. -1.
    9900012    2    1    2    0    0 -0.19694743823E+02  0.17585894784E+02 -0.17876587746E+02  0.59301968277E+02  0.50000044225E+02 0.  0.
         12    1    1    2    0    0  0.19694743823E+02 -0.17585894784E+02  0.17876587746E+02  0.31886031723E+02  0.00000000000E+00 0. -1.
         11    1    3    3    0    0 -0.24328413597E+02  0.10958761786E+02 -0.11197442564E+02  0.28936981326E+02  0.51100000000E-03 0. -1.
        -11    1    3    3    0    0 -0.99859256624E+01  0.89494069772E+01  0.14318855933E+01  0.13485580936E+02  0.51100000000E-03 0.  1.
        -12    1    3    3    0    0  0.14619595437E+02 -0.23222739789E+01 -0.81110307746E+01  0.16879406015E+02  0.00000000000E+00 0.  1.
</event>
<event>
 7    1  0.6316620E-012  0.5930198E+02  0.7816164E-02  0.1266605E+00
        -11   -1    0    0    0    0  0.00000000000E+00  0.00000000000E+00  0.45593999997E+02  0.45594000000E+02  0.51100000000E-03 0.  1.
         11   -1    0    0    0    0 -0.00000000000E+00 -0.00000000000E+00 -0.45593999997E+02  0.45594000000E+02  0.51100000000E-03 0. -1.
    9900012    2    1    2    0    0  0.13818835756E+02 -0.14241482070E+02  0.24958734425E+02  0.59301977085E+02  0.50000060289E+02 0.  0.
         12    1    1    2    0    0 -0.13818835756E+02  0.14241482070E+02 -0.24958734425E+02  0.31886022915E+02  0.00000000000E+00 0. -1.
         11    1    3    3    0    0 -0.10387608384E+02  0.11670356419E+01  0.10090737514E+02  0.14528845927E+02  0.51100000000E-03 0. -1.
        -11    1    3    3    0    0  0.76933223250E+01  0.80544838637E+01  0.11289888721E+02  0.15859492625E+02  0.51100000000E-03 0.  1.
        -12    1    3    3    0    0  0.16513121815E+02 -0.23463001576E+02  0.35781081899E+01  0.28913638533E+02  0.00000000000E+00 0.  1.
</event>
<event>
 7    1  0.6316620E-012  0.5930197E+02  0.7816164E-02  0.1266605E+00
        -11   -1    0    0    0    0  0.00000000000E+00  0.00000000000E+00  0.45593999997E+02  0.45594000000E+02  0.51100000000E-03 0.  1.
         11   -1    0    0    0    0 -0.00000000000E+00 -0.00000000000E+00 -0.45593999997E+02  0.45594000000E+02  0.51100000000E-03 0. -1.
    9900012    2    1    2    0    0 -0.28763514730E+01 -0.22344786849E+01  0.31677317808E+02  0.59301972397E+02  0.50000051739E+02 0.  0.
         12    1    1    2    0    0  0.28763514730E+01  0.22344786849E+01 -0.31677317808E+02  0.31886027603E+02  0.00000000000E+00 0. -1.
         11    1    3    3    0    0  0.14606904097E+02 -0.68347914688E+01  0.61024420150E+01  0.17242848388E+02  0.51100000000E-03 0.  1.
        -11    1    3    3    0    0 -0.15590084567E+02 -0.10079204094E+02  0.13428164956E+02  0.22911933709E+02  0.51100000000E-03 0. -1.
        -12    1    3    3    0    0 -0.18931710036E+01  0.14679516878E+02  0.12146710837E+02  0.19147190300E+02  0.00000000000E+00 0.  1.
</event>
<event>
 7    1  0.6316620E-012  0.5930196E+02  0.7816164E-02  0.1266605E+00
        -11   -1    0    0    0    0  0.00000000000E+00  0.00000000000E+00  0.45593999997E+02  0.45594000000E+02  0.51100000000E-03 0. -1.
         11   -1    0    0    0    0 -0.00000000000E+00 -0.00000000000E+00 -0.45593999997E+02  0.45594000000E+02  0.51100000000E-03 0.  1.
    9900012    2    1    2    0    0 -0.26046230929E+02  0.15719693327E+02 -0.95501113316E+01  0.59301960259E+02  0.50000029603E+02 0.  0.
         12    1    1    2    0    0  0.26046230929E+02 -0.15719693327E+02  0.95501113316E+01  0.31886039741E+02  0.00000000000E+00 0. -1.
         11    1    3    3    0    0 -0.15809070991E+02  0.83027145804E+01  0.36579534341E+01  0.18227518169E+02  0.51100000000E-03 0.  1.
        -11    1    3    3    0    0  0.37787384881E+01  0.63536311549E+00  0.11359492088E+02  0.11988353165E+02  0.51100000000E-03 0. -1.
        -12    1    3    3    0    0 -0.14015898426E+02  0.67816156311E+01 -0.24567556854E+02  0.29086088926E+02  0.00000000000E+00 0.  1.
</event>
<event>
 7    1  0.6316620E-012  0.5930195E+02  0.7816164E-02  0.1266605E+00
        -11   -1    0    0    0    0  0.00000000000E+00  0.00000000000E+00  0.45593999997E+02  0.45594000000E+02  0.51100000000E-03 0.  1.
         11   -1    0    0    0    0 -0.00000000000E+00 -0.00000000000E+00 -0.45593999997E+02  0.45594000000E+02  0.51100000000E-03 0. -1.
    9900012    2    1    2    0    0  0.10343411682E+02 -0.27573497301E+02  0.12224416643E+02  0.59301948490E+02  0.50000008138E+02 0.  0.
         12    1    1    2    0    0 -0.10343411682E+02  0.27573497301E+02 -0.12224416643E+02  0.31886051510E+02  0.00000000000E+00 0. -1.
         11    1    3    3    0    0  0.13908316567E+02 -0.23009770239E+02  0.23646571658E+02  0.35805741825E+02  0.51100000000E-03 0.  1.
        -11    1    3    3    0    0 -0.52237973819E+01  0.40056891259E+01  0.25187477769E+01  0.70482405667E+01  0.51100000000E-03 0. -1.
        -12    1    3    3    0    0  0.16588924969E+01 -0.85694161879E+01 -0.13940902792E+02  0.16447966098E+02  0.00000000000E+00 0.  1.
</event>
<event>
 7    1  0.6316620E-012  0.5930196E+02  0.7816164E-02  0.1266605E+00
        -11   -1    0    0    0    0  0.00000000000E+00  0.00000000000E+00  0.45593999997E+02  0.45594000000E+02  0.51100000000E-03 0.  1.
         11   -1    0    0    0    0 -0.00000000000E+00 -0.00000000000E+00 -0.45593999997E+02  0.45594000000E+02  0.51100000000E-03 0. -1.
    9900012    2    1    2    0    0  0.24489578899E+01  0.22059250705E+02  0.22893478465E+02  0.59301963987E+02  0.50000036400E+02 0.  0.
         12    1    1    2    0    0 -0.24489578899E+01 -0.22059250705E+02 -0.22893478465E+02  0.31886036013E+02  0.00000000000E+00 0. -1.
         11    1    3    3    0    0  0.85812407529E+01 -0.32828458647E+01  0.12790580281E+02  0.15748451162E+02  0.51100000000E-03 0. -1.
        -11    1    3    3    0    0  0.10075371097E+02  0.19090929597E+02  0.14028062067E+02  0.25744188106E+02  0.51100000000E-03 0.  1.
         12    1    3    3    0    0 -0.16207653960E+02  0.62511669724E+01 -0.39251638832E+01  0.17809324718E+02  0.00000000000E+00 0. -1.
</event>
<event>
 7    1  0.6316620E-012  0.5930190E+02  0.7816164E-02  0.1266605E+00
        -11   -1    0    0    0    0  0.00000000000E+00  0.00000000000E+00  0.45593999997E+02  0.45594000000E+02  0.51100000000E-03 0.  1.
         11   -1    0    0    0    0 -0.00000000000E+00 -0.00000000000E+00 -0.45593999997E+02  0.45594000000E+02  0.51100000000E-03 0. -1.
    9900012    2    1    2    0    0 -0.24281748922E+02  0.19937551748E+02 -0.54418712014E+01  0.59301901735E+02  0.49999922868E+02 0.  0.
         12    1    1    2    0    0  0.24281748922E+02 -0.19937551748E+02  0.54418712014E+01  0.31886098265E+02  0.00000000000E+00 0. -1.
         11    1    3    3    0    0 -0.41027929668E+00  0.10391118969E+02 -0.82699398365E+01  0.13286669549E+02  0.51100000000E-03 0. -1.
        -11    1    3    3    0    0  0.98044433165E+01  0.19807347636E+01 -0.41022005413E+01  0.10811034571E+02  0.51100000000E-03 0.  1.
        -12    1    3    3    0    0 -0.33675912941E+02  0.75656980149E+01  0.69302691763E+01  0.35204197615E+02  0.00000000000E+00 0.  1.
</event>
<event>
 7    1  0.6316620E-012  0.5930197E+02  0.7816164E-02  0.1266605E+00
        -11   -1    0    0    0    0  0.00000000000E+00  0.00000000000E+00  0.45593999997E+02  0.45594000000E+02  0.51100000000E-03 0.  1.
         11   -1    0    0    0    0 -0.00000000000E+00 -0.00000000000E+00 -0.45593999997E+02  0.45594000000E+02  0.51100000000E-03 0. -1.
    9900012    2    1    2    0    0  0.28568691439E+02 -0.12412068880E+02 -0.68182856500E+01  0.59301974791E+02  0.50000056105E+02 0.  0.
         12    1    1    2    0    0 -0.28568691439E+02  0.12412068880E+02  0.68182856500E+01  0.31886025209E+02  0.00000000000E+00 0. -1.
         11    1    3    3    0    0  0.82566008589E+01  0.14333645144E+02 -0.95139525337E+01  0.19082456182E+02  0.51100000000E-03 0. -1.
        -11    1    3    3    0    0 -0.47170348104E+01 -0.48448557732E+01  0.15729489293E+01  0.69424212967E+01  0.51100000000E-03 0.  1.
        -12    1    3    3    0    0  0.25029125391E+02 -0.21900858250E+02  0.11227179544E+01  0.33277097312E+02  0.00000000000E+00 0.  1.
</event>
<event>
 7    1  0.6316620E-012  0.5930195E+02  0.7816164E-02  0.1266605E+00
        -11   -1    0    0    0    0  0.00000000000E+00  0.00000000000E+00  0.45593999997E+02  0.45594000000E+02  0.51100000000E-03 0.  1.
         11   -1    0    0    0    0 -0.00000000000E+00 -0.00000000000E+00 -0.45593999997E+02  0.45594000000E+02  0.51100000000E-03 0. -1.
    9900012    2    1    2    0    0 -0.14285003379E+02 -0.16506363130E+02  0.23242175852E+02  0.59301951583E+02  0.50000013779E+02 0.  0.
         12    1    1    2    0    0  0.14285003379E+02  0.16506363130E+02 -0.23242175852E+02  0.31886048417E+02  0.00000000000E+00 0. -1.
         11    1    3    3    0    0  0.30583811791E+01 -0.56962015999E+01  0.18841091205E+01  0.67342613212E+01  0.51100000000E-03 0. -1.
        -11    1    3    3    0    0 -0.90072137211E+01 -0.22891928817E+02  0.27285185619E+02  0.36737605508E+02  0.51100000000E-03 0.  1.
         12    1    3    3    0    0 -0.83361708370E+01  0.12081767287E+02 -0.59271188873E+01  0.15830084753E+02  0.00000000000E+00 0. -1.
</event>
<event>
 7    1  0.6316620E-012  0.5930195E+02  0.7816164E-02  0.1266605E+00
        -11   -1    0    0    0    0  0.00000000000E+00  0.00000000000E+00  0.45593999997E+02  0.45594000000E+02  0.51100000000E-03 0. -1.
         11   -1    0    0    0    0 -0.00000000000E+00 -0.00000000000E+00 -0.45593999997E+02  0.45594000000E+02  0.51100000000E-03 0.  1.
    9900012    2    1    2    0    0 -0.31301188510E+02  0.45077291032E+01 -0.40787491936E+01  0.59301949464E+02  0.50000009915E+02 0.  0.
         12    1    1    2    0    0  0.31301188510E+02 -0.45077291032E+01  0.40787491936E+01  0.31886050536E+02  0.00000000000E+00 0. -1.
         11    1    3    3    0    0  0.35827590968E+01  0.83429989312E+01  0.43818478062E+01  0.10081784781E+02  0.51100000000E-03 0. -1.
        -11    1    3    3    0    0 -0.18462694835E+02  0.14238074260E+02  0.18413706113E+00  0.23315826512E+02  0.51100000000E-03 0.  1.
         12    1    3    3    0    0 -0.16421252772E+02 -0.18073344088E+02 -0.86447340609E+01  0.25904338171E+02  0.00000000000E+00 0. -1.
</event>
<event>
 7    1  0.6316620E-012  0.5930195E+02  0.7816164E-02  0.1266605E+00
        -11   -1    0    0    0    0  0.00000000000E+00  0.00000000000E+00  0.45593999997E+02  0.45594000000E+02  0.51100000000E-03 0. -1.
         11   -1    0    0    0    0 -0.00000000000E+00 -0.00000000000E+00 -0.45593999997E+02  0.45594000000E+02  0.51100000000E-03 0.  1.
    9900012    2    1    2    0    0  0.30719328598E+02 -0.14074611020E+01 -0.84298213352E+01  0.59301953145E+02  0.50000016628E+02 0.  0.
         12    1    1    2    0    0 -0.30719328598E+02  0.14074611020E+01  0.84298213352E+01  0.31886046855E+02  0.00000000000E+00 0. -1.
         11    1    3    3    0    0  0.10236940177E+02  0.16649468294E+02 -0.11042743853E+02  0.22448650978E+02  0.51100000000E-03 0. -1.
        -11    1    3    3    0    0  0.74701932508E+01  0.54547004300E+01  0.36923146833E+01  0.99594544011E+01  0.51100000000E-03 0.  1.
         12    1    3    3    0    0  0.13012195170E+02 -0.23511629826E+02 -0.10793921650E+01  0.26893847766E+02  0.00000000000E+00 0. -1.
</event>
<event>
 7    1  0.6316620E-012  0.5930194E+02  0.7816164E-02  0.1266605E+00
        -11   -1    0    0    0    0  0.00000000000E+00  0.00000000000E+00  0.45593999997E+02  0.45594000000E+02  0.51100000000E-03 0.  1.
         11   -1    0    0    0    0 -0.00000000000E+00 -0.00000000000E+00 -0.45593999997E+02  0.45594000000E+02  0.51100000000E-03 0. -1.
    9900012    2    1    2    0    0 -0.17633177472E+02 -0.56005292443E+01  0.25969717655E+02  0.59301935479E+02  0.49999984409E+02 0.  0.
         12    1    1    2    0    0  0.17633177472E+02  0.56005292443E+01 -0.25969717655E+02  0.31886064521E+02  0.00000000000E+00 0. -1.
         11    1    3    3    0    0  0.77349486362E+01  0.28426169277E+01  0.13598435150E+02  0.15900545280E+02  0.51100000000E-03 0. -1.
        -11    1    3    3    0    0 -0.26247323351E+02 -0.47710827280E+01  0.21020506346E+02  0.33963905853E+02  0.51100000000E-03 0.  1.
         12    1    3    3    0    0  0.87919724292E+00 -0.36720634440E+01 -0.86492238409E+01  0.94374843459E+01  0.00000000000E+00 0. -1.
</event>
<event>
 7    1  0.6316620E-012  0.5930193E+02  0.7816164E-02  0.1266605E+00
        -11   -1    0    0    0    0  0.00000000000E+00  0.00000000000E+00  0.45593999997E+02  0.45594000000E+02  0.51100000000E-03 0. -1.
         11   -1    0    0    0    0 -0.00000000000E+00 -0.00000000000E+00 -0.45593999997E+02  0.45594000000E+02  0.51100000000E-03 0.  1.
    9900012    2    1    2    0    0 -0.11511344207E+02  0.29118691382E+02  0.60259543008E+01  0.59301931593E+02  0.49999977322E+02 0.  0.
         12    1    1    2    0    0  0.11511344207E+02 -0.29118691382E+02 -0.60259543008E+01  0.31886068407E+02  0.00000000000E+00 0. -1.
         11    1    3    3    0    0  0.12982344840E+01 -0.77242091513E+01 -0.10606406336E+02  0.13185017081E+02  0.51100000000E-03 0. -1.
        -11    1    3    3    0    0 -0.39282450771E+01  0.40859769586E+01 -0.34941160115E+01  0.66584655931E+01  0.51100000000E-03 0.  1.
         12    1    3    3    0    0 -0.88813336141E+01  0.32756923574E+02  0.20126476649E+02  0.39458448919E+02  0.00000000000E+00 0. -1.
</event>
<event>
 7    1  0.6316620E-012  0.5930196E+02  0.7816164E-02  0.1266605E+00
        -11   -1    0    0    0    0  0.00000000000E+00  0.00000000000E+00  0.45593999997E+02  0.45594000000E+02  0.51100000000E-03 0. -1.
         11   -1    0    0    0    0 -0.00000000000E+00 -0.00000000000E+00 -0.45593999997E+02  0.45594000000E+02  0.51100000000E-03 0.  1.
    9900012    2    1    2    0    0 -0.30094571214E+02  0.10395956856E+02  0.17206361503E+01  0.59301957219E+02  0.50000024057E+02 0.  0.
         12    1    1    2    0    0  0.30094571214E+02 -0.10395956856E+02 -0.17206361503E+01  0.31886042781E+02  0.00000000000E+00 0. -1.
         11    1    3    3    0    0 -0.12932251704E+02 -0.97747771108E+01  0.16099478904E+02  0.22846939028E+02  0.51100000000E-03 0. -1.
        -11    1    3    3    0    0 -0.12756765739E+02  0.22821537591E+01 -0.12382649105E+02  0.17924098221E+02  0.51100000000E-03 0.  1.
        -12    1    3    3    0    0 -0.44055537706E+01  0.17888580208E+02 -0.19961936487E+01  0.18530919970E+02  0.00000000000E+00 0.  1.
</event>
<event>
 7    1  0.6316620E-012  0.5930194E+02  0.7816164E-02  0.1266605E+00
        -11   -1    0    0    0    0  0.00000000000E+00  0.00000000000E+00  0.45593999997E+02  0.45594000000E+02  0.51100000000E-03 0. -1.
         11   -1    0    0    0    0 -0.00000000000E+00 -0.00000000000E+00 -0.45593999997E+02  0.45594000000E+02  0.51100000000E-03 0.  1.
    9900012    2    1    2    0    0 -0.30572304889E+02  0.33514433488E+01  0.84156249555E+01  0.59301941258E+02  0.49999994948E+02 0.  0.
         12    1    1    2    0    0  0.30572304889E+02 -0.33514433488E+01 -0.84156249555E+01  0.31886058742E+02  0.00000000000E+00 0. -1.
         11    1    3    3    0    0 -0.12777020387E+02  0.35551650460E+00 -0.19354507712E+01  0.12927668463E+02  0.51100000000E-03 0.  1.
        -11    1    3    3    0    0 -0.18540227946E+02  0.14201004387E+01  0.25258793010E+02  0.31365002186E+02  0.51100000000E-03 0. -1.
         12    1    3    3    0    0  0.74494344467E+00  0.15758264055E+01 -0.14907717283E+02  0.15009270608E+02  0.00000000000E+00 0. -1.
</event>
<event>
 7    1  0.6316620E-012  0.5930198E+02  0.7816164E-02  0.1266605E+00
        -11   -1    0    0    0    0  0.00000000000E+00  0.00000000000E+00  0.45593999997E+02  0.45594000000E+02  0.51100000000E-03 0. -1.
         11   -1    0    0    0    0 -0.00000000000E+00 -0.00000000000E+00 -0.45593999997E+02  0.45594000000E+02  0.51100000000E-03 0.  1.
    9900012    2    1    2    0    0  0.11624183440E+02 -0.25730970143E+02  0.14816005143E+02  0.59301976831E+02  0.50000059825E+02 0.  0.
         12    1    1    2    0    0 -0.11624183440E+02  0.25730970143E+02 -0.14816005143E+02  0.31886023169E+02  0.00000000000E+00 0. -1.
         11    1    3    3    0    0  0.14422987030E+02 -0.31052462729E+02  0.46485177484E-01  0.34238577037E+02  0.51100000000E-03 0. -1.
        -11    1    3    3    0    0  0.53189943230E+01 -0.20381034770E+01 -0.10774817066E+01  0.57971142373E+01  0.51100000000E-03 0.  1.
         12    1    3    3    0    0 -0.81177979123E+01  0.73595960630E+01  0.15847001672E+02  0.19266285557E+02  0.00000000000E+00 0. -1.
</event>
<event>
 7    1  0.6316620E-012  0.5930205E+02  0.7816164E-02  0.1266604E+00
        -11   -1    0    0    0    0  0.00000000000E+00  0.00000000000E+00  0.45593999997E+02  0.45594000000E+02  0.51100000000E-03 0. -1.
         11   -1    0    0    0    0 -0.00000000000E+00 -0.00000000000E+00 -0.45593999997E+02  0.45594000000E+02  0.51100000000E-03 0.  1.
    9900012    2    1    2    0    0 -0.24807265267E+02 -0.20020163230E+02  0.71146956816E+00  0.59302054276E+02  0.50000201066E+02 0.  0.
         12    1    1    2    0    0  0.24807265267E+02  0.20020163230E+02 -0.71146956816E+00  0.31885945724E+02  0.00000000000E+00 0. -1.
         11    1    3    3    0    0  0.28027252068E+01  0.18397213066E+01  0.11158674435E+01  0.35334124417E+01  0.51100000000E-03 0. -1.
        -11    1    3    3    0    0 -0.16277179576E+02  0.11735752022E+02 -0.26553004840E+01  0.20241666715E+02  0.51100000000E-03 0.  1.
        -12    1    3    3    0    0 -0.11332810898E+02 -0.33595636558E+02  0.22509026086E+01  0.35526975120E+02  0.00000000000E+00 0.  1.
</event>
<event>
 7    1  0.6316620E-012  0.5930196E+02  0.7816164E-02  0.1266605E+00
        -11   -1    0    0    0    0  0.00000000000E+00  0.00000000000E+00  0.45593999997E+02  0.45594000000E+02  0.51100000000E-03 0.  1.
         11   -1    0    0    0    0 -0.00000000000E+00 -0.00000000000E+00 -0.45593999997E+02  0.45594000000E+02  0.51100000000E-03 0. -1.
    9900012    2    1    2    0    0  0.17682165880E+02 -0.75484220546E+01  0.25437800297E+02  0.59301963092E+02  0.50000034769E+02 0.  0.
         12    1    1    2    0    0 -0.17682165880E+02  0.75484220546E+01 -0.25437800297E+02  0.31886036908E+02  0.00000000000E+00 0. -1.
         11    1    3    3    0    0  0.64342952772E+01 -0.11988976195E+02 -0.51845910778E+01  0.14560758593E+02  0.51100000000E-03 0. -1.
        -11    1    3    3    0    0  0.20885284141E+02  0.55319827486E+01  0.14820321744E+02  0.26199997398E+02  0.51100000000E-03 0.  1.
        -12    1    3    3    0    0 -0.96374135390E+01 -0.10914286086E+01  0.15802069631E+02  0.18541207101E+02  0.00000000000E+00 0.  1.
</event>
<event>
 7    1  0.6316620E-012  0.5930194E+02  0.7816164E-02  0.1266605E+00
        -11   -1    0    0    0    0  0.00000000000E+00  0.00000000000E+00  0.45593999997E+02  0.45594000000E+02  0.51100000000E-03 0.  1.
         11   -1    0    0    0    0 -0.00000000000E+00 -0.00000000000E+00 -0.45593999997E+02  0.45594000000E+02  0.51100000000E-03 0. -1.
    9900012    2    1    2    0    0 -0.22526148686E+02  0.22053988961E+02  0.47869456779E+01  0.59301942661E+02  0.49999997507E+02 0.  0.
         12    1    1    2    0    0  0.22526148686E+02 -0.22053988961E+02 -0.47869456779E+01  0.31886057339E+02  0.00000000000E+00 0. -1.
         11    1    3    3    0    0 -0.20986497382E+02 -0.34056440104E+00  0.51890421098E+01  0.21621175147E+02  0.51100000000E-03 0. -1.
        -11    1    3    3    0    0 -0.14886661159E+02  0.66631851088E+01 -0.38652480400E+01  0.16761588795E+02  0.51100000000E-03 0.  1.
         12    1    3    3    0    0  0.13347009855E+02  0.15731368253E+02  0.34631516081E+01  0.20919178719E+02  0.00000000000E+00 0. -1.
</event>
<event>
 7    1  0.6316620E-012  0.5930192E+02  0.7816164E-02  0.1266605E+00
        -11   -1    0    0    0    0  0.00000000000E+00  0.00000000000E+00  0.45593999997E+02  0.45594000000E+02  0.51100000000E-03 0.  1.
         11   -1    0    0    0    0 -0.00000000000E+00 -0.00000000000E+00 -0.45593999997E+02  0.45594000000E+02  0.51100000000E-03 0. -1.
    9900012    2    1    2    0    0 -0.17636068644E+02  0.26559301064E+02 -0.54270869454E+00  0.59301922741E+02  0.49999961179E+02 0.  0.
         12    1    1    2    0    0  0.17636068644E+02 -0.26559301064E+02  0.54270869454E+00  0.31886077259E+02  0.00000000000E+00 0. -1.
         11    1    3    3    0    0 -0.24336863582E+02  0.80226615698E+01 -0.18282749464E+02  0.31478642853E+02  0.51100000000E-03 0. -1.
        -11    1    3    3    0    0  0.57475119914E+01  0.10578502310E+02  0.56040656360E+01  0.13279463737E+02  0.51100000000E-03 0.  1.
        -12    1    3    3    0    0  0.95328294624E+00  0.79581371835E+01  0.12135975133E+02  0.14543816151E+02  0.00000000000E+00 0.  1.
</event>
<event>
 7    1  0.6316620E-012  0.5930194E+02  0.7816164E-02  0.1266605E+00
        -11   -1    0    0    0    0  0.00000000000E+00  0.00000000000E+00  0.45593999997E+02  0.45594000000E+02  0.51100000000E-03 0. -1.
         11   -1    0    0    0    0 -0.00000000000E+00 -0.00000000000E+00 -0.45593999997E+02  0.45594000000E+02  0.51100000000E-03 0.  1.
    9900012    2    1    2    0    0 -0.11410479576E+02 -0.11992143833E+02 -0.27252713347E+02  0.59301938114E+02  0.49999989214E+02 0.  0.
         12    1    1    2    0    0  0.11410479576E+02  0.11992143833E+02  0.27252713347E+02  0.31886061886E+02  0.00000000000E+00 0. -1.
         11    1    3    3    0    0 -0.96536057820E+01  0.56200930298E+01  0.19361919527E+01  0.11336947993E+02  0.51100000000E-03 0. -1.
        -11    1    3    3    0    0 -0.14482158254E+02 -0.66039139468E+01 -0.20708288398E+01  0.16050947618E+02  0.51100000000E-03 0.  1.
         12    1    3    3    0    0  0.12725284460E+02 -0.11008322916E+02 -0.27118076459E+02  0.31914042503E+02  0.00000000000E+00 0. -1.
</event>
<event>
 7    1  0.6316620E-012  0.5930195E+02  0.7816164E-02  0.1266605E+00
        -11   -1    0    0    0    0  0.00000000000E+00  0.00000000000E+00  0.45593999997E+02  0.45594000000E+02  0.51100000000E-03 0.  1.
         11   -1    0    0    0    0 -0.00000000000E+00 -0.00000000000E+00 -0.45593999997E+02  0.45594000000E+02  0.51100000000E-03 0. -1.
    9900012    2    1    2    0    0  0.26160047319E+02  0.47881520611E+01  0.17591060759E+02  0.59301954549E+02  0.50000019188E+02 0.  0.
         12    1    1    2    0    0 -0.26160047319E+02 -0.47881520611E+01 -0.17591060759E+02  0.31886045451E+02  0.00000000000E+00 0. -1.
         11    1    3    3    0    0 -0.14014834102E+01 -0.66185933041E+01  0.55720878597E+01  0.87645933421E+01  0.51100000000E-03 0. -1.
        -11    1    3    3    0    0 -0.61326346058E+01  0.54571751882E+00 -0.78224958822E+01  0.99548207873E+01  0.51100000000E-03 0.  1.
        -12    1    3    3    0    0  0.33694165335E+02  0.10861027846E+02  0.19841468781E+02  0.40582540420E+02  0.00000000000E+00 0.  1.
</event>
<event>
 7    1  0.6316620E-012  0.5930185E+02  0.7816164E-02  0.1266605E+00
        -11   -1    0    0    0    0  0.00000000000E+00  0.00000000000E+00  0.45593999997E+02  0.45594000000E+02  0.51100000000E-03 0. -1.
         11   -1    0    0    0    0 -0.00000000000E+00 -0.00000000000E+00 -0.45593999997E+02  0.45594000000E+02  0.51100000000E-03 0.  1.
    9900012    2    1    2    0    0 -0.92283374420E+01  0.20602508869E+02 -0.22518898004E+02  0.59301853307E+02  0.49999834546E+02 0.  0.
         12    1    1    2    0    0  0.92283374420E+01 -0.20602508869E+02  0.22518898004E+02  0.31886146693E+02  0.00000000000E+00 0. -1.
         11    1    3    3    0    0 -0.14059231514E+02  0.11198545497E+02 -0.18636309963E+02  0.25891725731E+02  0.51100000000E-03 0. -1.
        -11    1    3    3    0    0  0.35662985026E+01  0.17171159286E+01 -0.17380498248E+02  0.17825506774E+02  0.51100000000E-03 0.  1.
         12    1    3    3    0    0  0.12645955697E+01  0.76868474431E+01  0.13497910207E+02  0.15584620802E+02  0.00000000000E+00 0. -1.
</event>
<event>
 7    1  0.6316620E-012  0.5930199E+02  0.7816164E-02  0.1266605E+00
        -11   -1    0    0    0    0  0.00000000000E+00  0.00000000000E+00  0.45593999997E+02  0.45594000000E+02  0.51100000000E-03 0.  1.
         11   -1    0    0    0    0 -0.00000000000E+00 -0.00000000000E+00 -0.45593999997E+02  0.45594000000E+02  0.51100000000E-03 0. -1.
    9900012    2    1    2    0    0  0.61461707671E+01  0.31280545398E+02  0.68552759679E+00  0.59301986082E+02  0.50000076697E+02 0.  0.
         12    1    1    2    0    0 -0.61461707671E+01 -0.31280545398E+02 -0.68552759679E+00  0.31886013918E+02  0.00000000000E+00 0. -1.
         11    1    3    3    0    0 -0.64839200181E+01  0.98968330712E+01  0.53987399447E+01  0.13005188076E+02  0.51100000000E-03 0. -1.
        -11    1    3    3    0    0 -0.54850230089E+01  0.22146020844E+02 -0.13112315792E+02  0.26314721019E+02  0.51100000000E-03 0.  1.
        -12    1    3    3    0    0  0.18115113794E+02 -0.76230851703E+00  0.83991034440E+01  0.19982076987E+02  0.00000000000E+00 0.  1.
</event>
<event>
 7    1  0.6316620E-012  0.5930191E+02  0.7816164E-02  0.1266605E+00
        -11   -1    0    0    0    0  0.00000000000E+00  0.00000000000E+00  0.45593999997E+02  0.45594000000E+02  0.51100000000E-03 0.  1.
         11   -1    0    0    0    0 -0.00000000000E+00 -0.00000000000E+00 -0.45593999997E+02  0.45594000000E+02  0.51100000000E-03 0. -1.
    9900012    2    1    2    0    0  0.41922288258E+00  0.27022280453E+02  0.16921691367E+02  0.59301905423E+02  0.49999929593E+02 0.  0.
         12    1    1    2    0    0 -0.41922288258E+00 -0.27022280453E+02 -0.16921691367E+02  0.31886094577E+02  0.00000000000E+00 0. -1.
         11    1    3    3    0    0 -0.11343136225E+02 -0.68378254043E+01  0.34987845666E+01  0.13699054325E+02  0.51100000000E-03 0. -1.
        -11    1    3    3    0    0  0.17281243911E+01  0.65580720575E+01  0.15011017063E+02  0.16471956670E+02  0.51100000000E-03 0.  1.
         12    1    3    3    0    0  0.10034234717E+02  0.27302033799E+02 -0.15881102628E+01  0.29130894428E+02  0.00000000000E+00 0. -1.
</event>
<event>
 7    1  0.6316620E-012  0.5930178E+02  0.7816164E-02  0.1266605E+00
        -11   -1    0    0    0    0  0.00000000000E+00  0.00000000000E+00  0.45593999997E+02  0.45594000000E+02  0.51100000000E-03 0.  1.
         11   -1    0    0    0    0 -0.00000000000E+00 -0.00000000000E+00 -0.45593999997E+02  0.45594000000E+02  0.51100000000E-03 0. -1.
    9900012    2    1    2    0    0 -0.65108323681E+01  0.83649653868E+01  0.30072704654E+02  0.59301778066E+02  0.49999697324E+02 0.  0.
         12    1    1    2    0    0  0.65108323681E+01 -0.83649653868E+01 -0.30072704654E+02  0.31886221934E+02  0.00000000000E+00 0. -1.
         11    1    3    3    0    0 -0.81040327325E+01 -0.80025756106E+01 -0.94988569220E+00  0.11428860224E+02  0.51100000000E-03 0. -1.
        -11    1    3    3    0    0  0.46929106206E+01  0.70817945045E+01 -0.54605914560E+01  0.10099172382E+02  0.51100000000E-03 0.  1.
        -12    1    3    3    0    0 -0.30997102562E+01  0.92857464929E+01  0.36483181802E+02  0.37773745459E+02  0.00000000000E+00 0.  1.
</event>
<event>
 7    1  0.6316620E-012  0.5930195E+02  0.7816164E-02  0.1266605E+00
        -11   -1    0    0    0    0  0.00000000000E+00  0.00000000000E+00  0.45593999997E+02  0.45594000000E+02  0.51100000000E-03 0.  1.
         11   -1    0    0    0    0 -0.00000000000E+00 -0.00000000000E+00 -0.45593999997E+02  0.45594000000E+02  0.51100000000E-03 0. -1.
    9900012    2    1    2    0    0  0.17309609394E+02 -0.22290753946E+02  0.14839817021E+02  0.59301945712E+02  0.50000003072E+02 0.  0.
         12    1    1    2    0    0 -0.17309609394E+02  0.22290753946E+02 -0.14839817021E+02  0.31886054288E+02  0.00000000000E+00 0. -1.
         11    1    3    3    0    0  0.23258166085E+01  0.49710734724E+01  0.77237196951E+00  0.55423418412E+01  0.51100000000E-03 0. -1.
        -11    1    3    3    0    0  0.17857376398E+02 -0.49827166862E+00 -0.73937096277E+01  0.19333936713E+02  0.51100000000E-03 0.  1.
        -12    1    3    3    0    0 -0.28735836125E+01 -0.26763555750E+02  0.21461154679E+02  0.34425667158E+02  0.00000000000E+00 0.  1.
</event>
<event>
 7    1  0.6316620E-012  0.5930196E+02  0.7816164E-02  0.1266605E+00
        -11   -1    0    0    0    0  0.00000000000E+00  0.00000000000E+00  0.45593999997E+02  0.45594000000E+02  0.51100000000E-03 0. -1.
         11   -1    0    0    0    0 -0.00000000000E+00 -0.00000000000E+00 -0.45593999997E+02  0.45594000000E+02  0.51100000000E-03 0.  1.
    9900012    2    1    2    0    0 -0.29365067540E+02  0.24716269499E+01  0.12177995172E+02  0.59301957633E+02  0.50000024813E+02 0.  0.
         12    1    1    2    0    0  0.29365067540E+02 -0.24716269499E+01 -0.12177995172E+02  0.31886042367E+02  0.00000000000E+00 0. -1.
         11    1    3    3    0    0  0.27691509203E+01 -0.11578222489E+02 -0.20204432982E+01  0.12074999967E+02  0.51100000000E-03 0. -1.
        -11    1    3    3    0    0 -0.20506588402E+02  0.89061120349E+01 -0.61906415784E+01  0.23198341382E+02  0.51100000000E-03 0.  1.
         12    1    3    3    0    0 -0.11627630059E+02  0.51437374043E+01  0.20389080049E+02  0.24028616283E+02  0.00000000000E+00 0. -1.
</event>
<event>
 7    1  0.6316620E-012  0.5930198E+02  0.7816164E-02  0.1266605E+00
        -11   -1    0    0    0    0  0.00000000000E+00  0.00000000000E+00  0.45593999997E+02  0.45594000000E+02  0.51100000000E-03 0.  1.
         11   -1    0    0    0    0 -0.00000000000E+00 -0.00000000000E+00 -0.45593999997E+02  0.45594000000E+02  0.51100000000E-03 0. -1.
    9900012    2    1    2    0    0  0.29489614954E+02  0.11296029724E+02  0.44137093859E+01  0.59301976287E+02  0.50000058834E+02 0.  0.
         12    1    1    2    0    0 -0.29489614954E+02 -0.11296029724E+02 -0.44137093859E+01  0.31886023713E+02  0.00000000000E+00 0. -1.
         11    1    3    3    0    0  0.24377028783E+02  0.29493570087E+00 -0.12356662008E+02  0.27331549820E+02  0.51100000000E-03 0. -1.
        -11    1    3    3    0    0  0.13613640201E+02  0.12015442191E+01  0.53151824312E+01  0.14663767339E+02  0.51100000000E-03 0.  1.
        -12    1    3    3    0    0 -0.85010540300E+01  0.97995498044E+01  0.11455188963E+02  0.17306659128E+02  0.00000000000E+00 0.  1.
</event>
<event>
 7    1  0.6316620E-012  0.5930192E+02  0.7816164E-02  0.1266605E+00
        -11   -1    0    0    0    0  0.00000000000E+00  0.00000000000E+00  0.45593999997E+02  0.45594000000E+02  0.51100000000E-03 0.  1.
         11   -1    0    0    0    0 -0.00000000000E+00 -0.00000000000E+00 -0.45593999997E+02  0.45594000000E+02  0.51100000000E-03 0. -1.
    9900012    2    1    2    0    0  0.14703123152E+02 -0.17896814407E+02  0.21914478706E+02  0.59301918815E+02  0.49999954018E+02 0.  0.
         12    1    1    2    0    0 -0.14703123152E+02  0.17896814407E+02 -0.21914478706E+02  0.31886081185E+02  0.00000000000E+00 0. -1.
         11    1    3    3    0    0 -0.78544937574E+01  0.56874730520E+00 -0.40216517676E+01  0.88425238978E+01  0.51100000000E-03 0. -1.
        -11    1    3    3    0    0 -0.51882223784E+01  0.39134800438E+01  0.87150108830E+01  0.10871264529E+02  0.51100000000E-03 0.  1.
         12    1    3    3    0    0  0.27745839288E+02 -0.22379041756E+02  0.17221119591E+02  0.39588130389E+02  0.00000000000E+00 0. -1.
</event>
<event>
 7    1  0.6316620E-012  0.5930194E+02  0.7816164E-02  0.1266605E+00
        -11   -1    0    0    0    0  0.00000000000E+00  0.00000000000E+00  0.45593999997E+02  0.45594000000E+02  0.51100000000E-03 0.  1.
         11   -1    0    0    0    0 -0.00000000000E+00 -0.00000000000E+00 -0.45593999997E+02  0.45594000000E+02  0.51100000000E-03 0. -1.
    9900012    2    1    2    0    0 -0.10155498223E+02  0.22686520129E+02  0.19972691038E+02  0.59301941495E+02  0.49999995380E+02 0.  0.
         12    1    1    2    0    0  0.10155498223E+02 -0.22686520129E+02 -0.19972691038E+02  0.31886058505E+02  0.00000000000E+00 0. -1.
         11    1    3    3    0    0 -0.80750729836E+01  0.17045807308E+02  0.33973553264E+01  0.19165290865E+02  0.51100000000E-03 0. -1.
        -11    1    3    3    0    0  0.77614771140E+01  0.11554427695E+02 -0.57276572785E+01  0.15051623983E+02  0.51100000000E-03 0.  1.
        -12    1    3    3    0    0 -0.98419023530E+01 -0.59137148746E+01  0.22302992990E+02  0.25085026647E+02  0.00000000000E+00 0.  1.
</event>
<event>
 7    1  0.6316620E-012  0.5930195E+02  0.7816164E-02  0.1266605E+00
        -11   -1    0    0    0    0  0.00000000000E+00  0.00000000000E+00  0.45593999997E+02  0.45594000000E+02  0.51100000000E-03 0.  1.
         11   -1    0    0    0    0 -0.00000000000E+00 -0.00000000000E+00 -0.45593999997E+02  0.45594000000E+02  0.51100000000E-03 0. -1.
    9900012    2    1    2    0    0  0.25850891342E+02  0.50564637959E+01 -0.17968970510E+02  0.59301948026E+02  0.50000007291E+02 0.  0.
         12    1    1    2    0    0 -0.25850891342E+02 -0.50564637959E+01  0.17968970510E+02  0.31886051974E+02  0.00000000000E+00 0. -1.
         11    1    3    3    0    0 -0.14667242184E-01  0.88741946340E+01 -0.10440645901E+02  0.13702504611E+02  0.51100000000E-03 0. -1.
        -11    1    3    3    0    0  0.96071949862E+01  0.16202572363E+02 -0.39567297494E+00  0.18840862614E+02  0.51100000000E-03 0.  1.
         12    1    3    3    0    0  0.16258363598E+02 -0.20020303201E+02 -0.71326516345E+01  0.26758580801E+02  0.00000000000E+00 0. -1.
</event>
<event>
 7    1  0.6316620E-012  0.5930193E+02  0.7816164E-02  0.1266605E+00
        -11   -1    0    0    0    0  0.00000000000E+00  0.00000000000E+00  0.45593999997E+02  0.45594000000E+02  0.51100000000E-03 0.  1.
         11   -1    0    0    0    0 -0.00000000000E+00 -0.00000000000E+00 -0.45593999997E+02  0.45594000000E+02  0.51100000000E-03 0. -1.
    9900012    2    1    2    0    0  0.25752919155E+02  0.12052598078E+01  0.18763151517E+02  0.59301931709E+02  0.49999977534E+02 0.  0.
         12    1    1    2    0    0 -0.25752919155E+02 -0.12052598078E+01 -0.18763151517E+02  0.31886068291E+02  0.00000000000E+00 0. -1.
         11    1    3    3    0    0 -0.11347781383E+01  0.10696653040E+01 -0.11346278681E+02  0.11452944837E+02  0.51100000000E-03 0. -1.
        -11    1    3    3    0    0 -0.36419993691E+01 -0.25641790714E+01  0.10651375383E+02  0.11545170918E+02  0.51100000000E-03 0.  1.
         12    1    3    3    0    0  0.30529696662E+02  0.26997735752E+01  0.19458054815E+02  0.36303815954E+02  0.00000000000E+00 0. -1.
</event>
<event>
 7    1  0.6316620E-012  0.5930176E+02  0.7816164E-02  0.1266605E+00
        -11   -1    0    0    0    0  0.00000000000E+00  0.00000000000E+00  0.45593999997E+02  0.45594000000E+02  0.51100000000E-03 0. -1.
         11   -1    0    0    0    0 -0.00000000000E+00 -0.00000000000E+00 -0.45593999997E+02  0.45594000000E+02  0.51100000000E-03 0.  1.
    9900012    2    1    2    0    0 -0.16967786254E+02  0.26811737103E+02  0.31555637426E+01  0.59301755327E+02  0.49999655854E+02 0.  0.
         12    1    1    2    0    0  0.16967786254E+02 -0.26811737103E+02 -0.31555637426E+01  0.31886244673E+02  0.00000000000E+00 0. -1.
         11    1    3    3    0    0 -0.26625260554E+01  0.48018142199E+01 -0.68612017105E+01  0.87876364270E+01  0.51100000000E-03 0. -1.
        -11    1    3    3    0    0 -0.62244728030E+01 -0.12517581753E+02  0.16225601837E+01  0.14073614192E+02  0.51100000000E-03 0.  1.
         12    1    3    3    0    0 -0.80807873953E+01  0.34527504635E+02  0.83942052695E+01  0.36440504708E+02  0.00000000000E+00 0. -1.
</event>
<event>
 7    1  0.6316620E-012  0.5930197E+02  0.7816164E-02  0.1266605E+00
        -11   -1    0    0    0    0  0.00000000000E+00  0.00000000000E+00  0.45593999997E+02  0.45594000000E+02  0.51100000000E-03 0.  1.
         11   -1    0    0    0    0 -0.00000000000E+00 -0.00000000000E+00 -0.45593999997E+02  0.45594000000E+02  0.51100000000E-03 0. -1.
    9900012    2    1    2    0    0  0.30623834079E+02 -0.71081779751E+01 -0.53266613169E+01  0.59301972831E+02  0.50000052530E+02 0.  0.
         12    1    1    2    0    0 -0.30623834079E+02  0.71081779751E+01  0.53266613169E+01  0.31886027169E+02  0.00000000000E+00 0. -1.
         11    1    3    3    0    0 -0.15536168596E+01 -0.23302754059E+00 -0.65025551627E+01  0.66896375900E+01  0.51100000000E-03 0. -1.
        -11    1    3    3    0    0 -0.32524219351E+00 -0.17784183907E+02  0.39339704627E+01  0.18217000400E+02  0.51100000000E-03 0.  1.
        -12    1    3    3    0    0  0.32502693133E+02  0.10909033472E+02 -0.27580766169E+01  0.34395334841E+02  0.00000000000E+00 0.  1.
</event>
<event>
 7    1  0.6316620E-012  0.5930197E+02  0.7816164E-02  0.1266605E+00
        -11   -1    0    0    0    0  0.00000000000E+00  0.00000000000E+00  0.45593999997E+02  0.45594000000E+02  0.51100000000E-03 0. -1.
         11   -1    0    0    0    0 -0.00000000000E+00 -0.00000000000E+00 -0.45593999997E+02  0.45594000000E+02  0.51100000000E-03 0.  1.
    9900012    2    1    2    0    0  0.24483928074E+02 -0.19689947155E+02  0.54370940310E+01  0.59301972584E+02  0.50000052079E+02 0.  0.
         12    1    1    2    0    0 -0.24483928074E+02  0.19689947155E+02 -0.54370940310E+01  0.31886027416E+02  0.00000000000E+00 0. -1.
         11    1    3    3    0    0  0.73819474695E+00 -0.44220717374E+01 -0.10759384336E+00  0.44845542288E+01  0.51100000000E-03 0. -1.
        -11    1    3    3    0    0  0.14060090474E+02 -0.49459341418E+01 -0.20398778009E+02  0.25263779472E+02  0.51100000000E-03 0.  1.
         12    1    3    3    0    0  0.96856428535E+01 -0.10321941275E+02  0.25943465884E+02  0.29553638883E+02  0.00000000000E+00 0. -1.
</event>
<event>
 7    1  0.6316620E-012  0.5930195E+02  0.7816164E-02  0.1266605E+00
        -11   -1    0    0    0    0  0.00000000000E+00  0.00000000000E+00  0.45593999997E+02  0.45594000000E+02  0.51100000000E-03 0. -1.
         11   -1    0    0    0    0 -0.00000000000E+00 -0.00000000000E+00 -0.45593999997E+02  0.45594000000E+02  0.51100000000E-03 0.  1.
    9900012    2    1    2    0    0  0.30764054285E+02  0.29260389221E+01 -0.78569547747E+01  0.59301945396E+02  0.50000002496E+02 0.  0.
         12    1    1    2    0    0 -0.30764054285E+02 -0.29260389221E+01  0.78569547747E+01  0.31886054604E+02  0.00000000000E+00 0. -1.
         11    1    3    3    0    0  0.11740168340E+02 -0.53448690545E+01  0.72719817545E+01  0.14808136168E+02  0.51100000000E-03 0. -1.
        -11    1    3    3    0    0  0.19711987055E+02 -0.10985671586E+02 -0.85762691144E+01  0.24141246986E+02  0.51100000000E-03 0.  1.
        -12    1    3    3    0    0 -0.68810110987E+00  0.19256579563E+02 -0.65526674148E+01  0.20352562243E+02  0.00000000000E+00 0.  1.
</event>
<event>
 7    1  0.6316620E-012  0.5930193E+02  0.7816164E-02  0.1266605E+00
        -11   -1    0    0    0    0  0.00000000000E+00  0.00000000000E+00  0.45593999997E+02  0.45594000000E+02  0.51100000000E-03 0.  1.
         11   -1    0    0    0    0 -0.00000000000E+00 -0.00000000000E+00 -0.45593999997E+02  0.45594000000E+02  0.51100000000E-03 0. -1.
    9900012    2    1    2    0    0 -0.26421167224E+01  0.31769639148E+02 -0.65622483069E+00  0.59301931202E+02  0.49999976609E+02 0.  0.
         12    1    1    2    0    0  0.26421167224E+01 -0.31769639148E+02  0.65622483069E+00  0.31886068798E+02  0.00000000000E+00 0. -1.
         11    1    3    3    0    0  0.12886331627E+01 -0.66809899802E+01  0.62328098194E+01  0.92273572082E+01  0.51100000000E-03 0. -1.
        -11    1    3    3    0    0  0.10973642868E+02  0.31014414488E+02 -0.35820777414E+01  0.33092990573E+02  0.51100000000E-03 0.  1.
         12    1    3    3    0    0 -0.14904392753E+02  0.74362146399E+01 -0.33069569086E+01  0.16981583421E+02  0.00000000000E+00 0. -1.
</event>
<event>
 7    1  0.6316620E-012  0.5930198E+02  0.7816164E-02  0.1266605E+00
        -11   -1    0    0    0    0  0.00000000000E+00  0.00000000000E+00  0.45593999997E+02  0.45594000000E+02  0.51100000000E-03 0.  1.
         11   -1    0    0    0    0 -0.00000000000E+00 -0.00000000000E+00 -0.45593999997E+02  0.45594000000E+02  0.51100000000E-03 0. -1.
    9900012    2    1    2    0    0  0.47381682399E+01 -0.83931807130E+01  0.30394452747E+02  0.59301976753E+02  0.50000059682E+02 0.  0.
         12    1    1    2    0    0 -0.47381682399E+01  0.83931807130E+01 -0.30394452747E+02  0.31886023247E+02  0.00000000000E+00 0. -1.
         11    1    3    3    0    0 -0.28879080879E+00 -0.50223355885E+01 -0.85711233373E+00  0.51031261701E+01  0.51100000000E-03 0. -1.
        -11    1    3    3    0    0  0.23810798172E+02 -0.69120787085E+01  0.21094057079E+02  0.32552882914E+02  0.51100000000E-03 0.  1.
         12    1    3    3    0    0 -0.18783839124E+02  0.35412335840E+01  0.10157508001E+02  0.21645967669E+02  0.00000000000E+00 0. -1.
</event>
<event>
 7    1  0.6316620E-012  0.5930189E+02  0.7816164E-02  0.1266605E+00
        -11   -1    0    0    0    0  0.00000000000E+00  0.00000000000E+00  0.45593999997E+02  0.45594000000E+02  0.51100000000E-03 0.  1.
         11   -1    0    0    0    0 -0.00000000000E+00 -0.00000000000E+00 -0.45593999997E+02  0.45594000000E+02  0.51100000000E-03 0. -1.
    9900012    2    1    2    0    0 -0.25798908066E+02 -0.14589594992E+02  0.11759417580E+02  0.59301892661E+02  0.49999906320E+02 0.  0.
         12    1    1    2    0    0  0.25798908066E+02  0.14589594992E+02 -0.11759417580E+02  0.31886107339E+02  0.00000000000E+00 0. -1.
         11    1    3    3    0    0 -0.23869224502E+02 -0.24138337323E+02  0.11267758944E+02  0.35768164601E+02  0.51100000000E-03 0. -1.
        -11    1    3    3    0    0 -0.45236840694E+01 -0.22928525338E+00  0.91554154406E+01  0.10214593552E+02  0.51100000000E-03 0.  1.
        -12    1    3    3    0    0  0.25940005052E+01  0.97780275848E+01 -0.86637568047E+01  0.13319134508E+02  0.00000000000E+00 0.  1.
</event>
<event>
 7    1  0.6316620E-012  0.5930196E+02  0.7816164E-02  0.1266605E+00
        -11   -1    0    0    0    0  0.00000000000E+00  0.00000000000E+00  0.45593999997E+02  0.45594000000E+02  0.51100000000E-03 0. -1.
         11   -1    0    0    0    0 -0.00000000000E+00 -0.00000000000E+00 -0.45593999997E+02  0.45594000000E+02  0.51100000000E-03 0.  1.
    9900012    2    1    2    0    0  0.14856966749E+01  0.71961797697E+01 -0.31027850109E+02  0.59301956340E+02  0.50000022455E+02 0.  0.
         12    1    1    2    0    0 -0.14856966749E+01 -0.71961797697E+01  0.31027850109E+02  0.31886043660E+02  0.00000000000E+00 0. -1.
         11    1    3    3    0    0  0.71012778694E+01  0.74382630633E+01  0.72266065263E+01  0.12568999440E+02  0.51100000000E-03 0. -1.
        -11    1    3    3    0    0  0.92080545591E+01  0.24284539940E+01 -0.24691058239E+02  0.26463824644E+02  0.51100000000E-03 0.  1.
         12    1    3    3    0    0 -0.14823635754E+02 -0.26705372875E+01 -0.13563398396E+02  0.20269132256E+02  0.00000000000E+00 0. -1.
</event>
<event>
 7    1  0.6316620E-012  0.5930193E+02  0.7816164E-02  0.1266605E+00
        -11   -1    0    0    0    0  0.00000000000E+00  0.00000000000E+00  0.45593999997E+02  0.45594000000E+02  0.51100000000E-03 0.  1.
         11   -1    0    0    0    0 -0.00000000000E+00 -0.00000000000E+00 -0.45593999997E+02  0.45594000000E+02  0.51100000000E-03 0. -1.
    9900012    2    1    2    0    0 -0.82917433161E+01  0.13916875552E+02  0.27464322499E+02  0.59301930272E+02  0.49999974913E+02 0.  0.
         12    1    1    2    0    0  0.82917433161E+01 -0.13916875552E+02 -0.27464322499E+02  0.31886069728E+02  0.00000000000E+00 0. -1.
         11    1    3    3    0    0 -0.22203410801E+01 -0.34323871034E+01  0.19824348508E+01  0.45432635780E+01  0.51100000000E-03 0. -1.
        -11    1    3    3    0    0 -0.34627254253E+01 -0.40256733914E+01  0.31860733723E+02  0.32300199183E+02  0.51100000000E-03 0.  1.
        -12    1    3    3    0    0 -0.26086768107E+01  0.21374936047E+02 -0.63788460748E+01  0.22458467512E+02  0.00000000000E+00 0.  1.
</event>
<event>
 7    1  0.6316620E-012  0.5930192E+02  0.7816164E-02  0.1266605E+00
        -11   -1    0    0    0    0  0.00000000000E+00  0.00000000000E+00  0.45593999997E+02  0.45594000000E+02  0.51100000000E-03 0. -1.
         11   -1    0    0    0    0 -0.00000000000E+00 -0.00000000000E+00 -0.45593999997E+02  0.45594000000E+02  0.51100000000E-03 0.  1.
    9900012    2    1    2    0    0  0.27831736931E+02  0.27962314376E+00  0.15557574310E+02  0.59301923288E+02  0.49999962176E+02 0.  0.
         12    1    1    2    0    0 -0.27831736931E+02 -0.27962314376E+00 -0.15557574310E+02  0.31886076712E+02  0.00000000000E+00 0. -1.
         11    1    3    3    0    0 -0.39945219108E+00 -0.89217964249E+00  0.14147306159E+02  0.14181037282E+02  0.51100000000E-03 0. -1.
        -11    1    3    3    0    0 -0.77164741165E+01 -0.17951094760E+01  0.41563756538E+01  0.89466110711E+01  0.51100000000E-03 0.  1.
        -12    1    3    3    0    0  0.35947663238E+02  0.29669122623E+01 -0.27461075033E+01  0.36174274935E+02  0.00000000000E+00 0.  1.
</event>
<event>
 7    1  0.6316620E-012  0.5930184E+02  0.7816164E-02  0.1266605E+00
        -11   -1    0    0    0    0  0.00000000000E+00  0.00000000000E+00  0.45593999997E+02  0.45594000000E+02  0.51100000000E-03 0.  1.
         11   -1    0    0    0    0 -0.00000000000E+00 -0.00000000000E+00 -0.45593999997E+02  0.45594000000E+02  0.51100000000E-03 0. -1.
    9900012    2    1    2    0    0  0.85486423669E+01 -0.17756240372E+02 -0.25067192203E+02  0.59301835549E+02  0.49999802160E+02 0.  0.
         12    1    1    2    0    0 -0.85486423669E+01  0.17756240372E+02  0.25067192203E+02  0.31886164451E+02  0.00000000000E+00 0. -1.
         11    1    3    3    0    0  0.21212448399E+02 -0.11216782373E+02 -0.39404186623E+00  0.23998738365E+02  0.51100000000E-03 0. -1.
        -11    1    3    3    0    0  0.46576012705E+01  0.29014722124E+01 -0.46214214880E+01  0.71742126694E+01  0.51100000000E-03 0.  1.
         12    1    3    3    0    0 -0.17321407302E+02 -0.94409302113E+01 -0.20051728849E+02  0.28128884514E+02  0.00000000000E+00 0. -1.
</event>
<event>
 7    1  0.6316620E-012  0.5930196E+02  0.7816164E-02  0.1266605E+00
        -11   -1    0    0    0    0  0.00000000000E+00  0.00000000000E+00  0.45593999997E+02  0.45594000000E+02  0.51100000000E-03 0. -1.
         11   -1    0    0    0    0 -0.00000000000E+00 -0.00000000000E+00 -0.45593999997E+02  0.45594000000E+02  0.51100000000E-03 0.  1.
    9900012    2    1    2    0    0  0.22797542481E+02 -0.94291784613E+01 -0.20201036915E+02  0.59301964780E+02  0.50000037847E+02 0.  0.
         12    1    1    2    0    0 -0.22797542481E+02  0.94291784613E+01  0.20201036915E+02  0.31886035220E+02  0.00000000000E+00 0. -1.
         11    1    3    3    0    0  0.13872166774E+01  0.14274897867E+02  0.46679874761E+01  0.15082678362E+02  0.51100000000E-03 0. -1.
        -11    1    3    3    0    0  0.96075360140E+01 -0.19402622982E+02 -0.77727935732E+01  0.23003974592E+02  0.51100000000E-03 0.  1.
        -12    1    3    3    0    0  0.11802789789E+02 -0.43014533464E+01 -0.17096230818E+02  0.21215311826E+02  0.00000000000E+00 0.  1.
</event>
<event>
 7    1  0.6316620E-012  0.5930194E+02  0.7816164E-02  0.1266605E+00
        -11   -1    0    0    0    0  0.00000000000E+00  0.00000000000E+00  0.45593999997E+02  0.45594000000E+02  0.51100000000E-03 0. -1.
         11   -1    0    0    0    0 -0.00000000000E+00 -0.00000000000E+00 -0.45593999997E+02  0.45594000000E+02  0.51100000000E-03 0.  1.
    9900012    2    1    2    0    0 -0.64438901076E+01  0.12507483108E+02 -0.28613987273E+02  0.59301935316E+02  0.49999984111E+02 0.  0.
         12    1    1    2    0    0  0.64438901076E+01 -0.12507483108E+02  0.28613987273E+02  0.31886064684E+02  0.00000000000E+00 0. -1.
         11    1    3    3    0    0  0.21429391627E+01  0.19449214929E+02 -0.49581513139E+01  0.20185326708E+02  0.51100000000E-03 0. -1.
        -11    1    3    3    0    0  0.17371992555E+01  0.19614777252E+01 -0.25254820277E+02  0.25390376201E+02  0.51100000000E-03 0.  1.
         12    1    3    3    0    0 -0.10324028526E+02 -0.89032095459E+01  0.15989843186E+01  0.13726232406E+02  0.00000000000E+00 0. -1.
</event>
<event>
 7    1  0.6316620E-012  0.5930195E+02  0.7816164E-02  0.1266605E+00
        -11   -1    0    0    0    0  0.00000000000E+00  0.00000000000E+00  0.45593999997E+02  0.45594000000E+02  0.51100000000E-03 0. -1.
         11   -1    0    0    0    0 -0.00000000000E+00 -0.00000000000E+00 -0.45593999997E+02  0.45594000000E+02  0.51100000000E-03 0.  1.
    9900012    2    1    2    0    0 -0.20011298690E+02 -0.10626112010E+02 -0.22435547185E+02  0.59301951182E+02  0.50000013048E+02 0.  0.
         12    1    1    2    0    0  0.20011298690E+02  0.10626112010E+02  0.22435547185E+02  0.31886048818E+02  0.00000000000E+00 0. -1.
         11    1    3    3    0    0  0.37650280563E+01 -0.11218215141E+02 -0.13905810367E+02  0.18259116885E+02  0.51100000000E-03 0. -1.
        -11    1    3    3    0    0 -0.22080573796E+01 -0.11029029757E+02  0.58049982603E+01  0.12657528188E+02  0.51100000000E-03 0.  1.
         12    1    3    3    0    0 -0.21568269367E+02  0.11621132888E+02 -0.14334735078E+02  0.28385306108E+02  0.00000000000E+00 0. -1.
</event>
<event>
 7    1  0.6316620E-012  0.5930196E+02  0.7816164E-02  0.1266605E+00
        -11   -1    0    0    0    0  0.00000000000E+00  0.00000000000E+00  0.45593999997E+02  0.45594000000E+02  0.51100000000E-03 0.  1.
         11   -1    0    0    0    0 -0.00000000000E+00 -0.00000000000E+00 -0.45593999997E+02  0.45594000000E+02  0.51100000000E-03 0. -1.
    9900012    2    1    2    0    0  0.21774877447E+02 -0.18821210048E+02  0.13723557893E+02  0.59301964236E+02  0.50000036856E+02 0.  0.
         12    1    1    2    0    0 -0.21774877447E+02  0.18821210048E+02 -0.13723557893E+02  0.31886035764E+02  0.00000000000E+00 0. -1.
         11    1    3    3    0    0  0.40651861812E+01  0.58736991140E+01  0.12311475674E+02  0.14233710461E+02  0.51100000000E-03 0. -1.
        -11    1    3    3    0    0  0.46876916060E+01  0.81901454017E+01 -0.15972097777E+01  0.95709985701E+01  0.51100000000E-03 0.  1.
         12    1    3    3    0    0  0.13021999659E+02 -0.32885054563E+02  0.30092919971E+01  0.35497255205E+02  0.00000000000E+00 0. -1.
</event>
<event>
 7    1  0.6316620E-012  0.5930195E+02  0.7816164E-02  0.1266605E+00
        -11   -1    0    0    0    0  0.00000000000E+00  0.00000000000E+00  0.45593999997E+02  0.45594000000E+02  0.51100000000E-03 0.  1.
         11   -1    0    0    0    0 -0.00000000000E+00 -0.00000000000E+00 -0.45593999997E+02  0.45594000000E+02  0.51100000000E-03 0. -1.
    9900012    2    1    2    0    0  0.79724829941E+00  0.10217420147E+01  0.31859702621E+02  0.59301949559E+02  0.50000010088E+02 0.  0.
         12    1    1    2    0    0 -0.79724829941E+00 -0.10217420147E+01 -0.31859702621E+02  0.31886050441E+02  0.00000000000E+00 0. -1.
         11    1    3    3    0    0  0.20029907863E+02  0.61698658708E+01  0.44968974729E+01  0.21435637173E+02  0.51100000000E-03 0. -1.
        -11    1    3    3    0    0 -0.13053673718E+01 -0.13076240218E+01 -0.23273342538E+01  0.29715904072E+01  0.51100000000E-03 0.  1.
        -12    1    3    3    0    0 -0.17927292192E+02 -0.38404998343E+01  0.29690139402E+02  0.34894721979E+02  0.00000000000E+00 0.  1.
</event>
<event>
 7    1  0.6316620E-012  0.5930196E+02  0.7816164E-02  0.1266605E+00
        -11   -1    0    0    0    0  0.00000000000E+00  0.00000000000E+00  0.45593999997E+02  0.45594000000E+02  0.51100000000E-03 0.  1.
         11   -1    0    0    0    0 -0.00000000000E+00 -0.00000000000E+00 -0.45593999997E+02  0.45594000000E+02  0.51100000000E-03 0. -1.
    9900012    2    1    2    0    0  0.25325716589E+02 -0.15313113185E+02  0.11867447435E+02  0.59301958151E+02  0.50000025758E+02 0.  0.
         12    1    1    2    0    0 -0.25325716589E+02  0.15313113185E+02 -0.11867447435E+02  0.31886041849E+02  0.00000000000E+00 0. -1.
         11    1    3    3    0    0  0.26007167985E+02 -0.26065425912E+01 -0.18833203249E+01  0.26205223651E+02  0.51100000000E-03 0. -1.
        -11    1    3    3    0    0  0.24189547585E+01  0.40755154929E+01  0.15245656143E+02  0.15965312404E+02  0.51100000000E-03 0.  1.
        -12    1    3    3    0    0 -0.31004061553E+01 -0.16782086087E+02 -0.14948883837E+01  0.17131422096E+02  0.00000000000E+00 0.  1.
</event>
<event>
 7    1  0.6316620E-012  0.5930192E+02  0.7816164E-02  0.1266605E+00
        -11   -1    0    0    0    0  0.00000000000E+00  0.00000000000E+00  0.45593999997E+02  0.45594000000E+02  0.51100000000E-03 0. -1.
         11   -1    0    0    0    0 -0.00000000000E+00 -0.00000000000E+00 -0.45593999997E+02  0.45594000000E+02  0.51100000000E-03 0.  1.
    9900012    2    1    2    0    0 -0.49153897424E+01  0.21172761780E+02 -0.23329706457E+02  0.59301919948E+02  0.49999956085E+02 0.  0.
         12    1    1    2    0    0  0.49153897424E+01 -0.21172761780E+02  0.23329706457E+02  0.31886080052E+02  0.00000000000E+00 0. -1.
         11    1    3    3    0    0  0.10523764174E+02 -0.53342323720E+01 -0.46403981109E+01  0.12678207376E+02  0.51100000000E-03 0. -1.
        -11    1    3    3    0    0 -0.11323625490E+02  0.12624785127E+02 -0.25498414007E+02  0.30623174408E+02  0.51100000000E-03 0.  1.
         12    1    3    3    0    0 -0.41155284264E+01  0.13882209025E+02  0.68091056605E+01  0.16000538164E+02  0.00000000000E+00 0. -1.
</event>
<event>
 7    1  0.6316620E-012  0.5930195E+02  0.7816164E-02  0.1266605E+00
        -11   -1    0    0    0    0  0.00000000000E+00  0.00000000000E+00  0.45593999997E+02  0.45594000000E+02  0.51100000000E-03 0.  1.
         11   -1    0    0    0    0 -0.00000000000E+00 -0.00000000000E+00 -0.45593999997E+02  0.45594000000E+02  0.51100000000E-03 0. -1.
    9900012    2    1    2    0    0 -0.16069073315E+02  0.26420496391E+02 -0.77757739877E+01  0.59301946499E+02  0.50000004508E+02 0.  0.
         12    1    1    2    0    0  0.16069073315E+02 -0.26420496391E+02  0.77757739877E+01  0.31886053501E+02  0.00000000000E+00 0. -1.
         11    1    3    3    0    0 -0.18732755425E+02  0.58224572121E+01 -0.15747823128E+01  0.19679864669E+02  0.51100000000E-03 0.  1.
        -11    1    3    3    0    0  0.17840692197E+02  0.11008874625E+02 -0.12587060807E+01  0.21001665645E+02  0.51100000000E-03 0. -1.
         12    1    3    3    0    0 -0.15177010087E+02  0.95891645536E+01 -0.49422855942E+01  0.18620416185E+02  0.00000000000E+00 0. -1.
</event>
<event>
 7    1  0.6316620E-012  0.5930193E+02  0.7816164E-02  0.1266605E+00
        -11   -1    0    0    0    0  0.00000000000E+00  0.00000000000E+00  0.45593999997E+02  0.45594000000E+02  0.51100000000E-03 0.  1.
         11   -1    0    0    0    0 -0.00000000000E+00 -0.00000000000E+00 -0.45593999997E+02  0.45594000000E+02  0.51100000000E-03 0. -1.
    9900012    2    1    2    0    0  0.15459254045E+02  0.10431673656E+02  0.25863349060E+02  0.59301934462E+02  0.49999982555E+02 0.  0.
         12    1    1    2    0    0 -0.15459254045E+02 -0.10431673656E+02 -0.25863349060E+02  0.31886065538E+02  0.00000000000E+00 0. -1.
         11    1    3    3    0    0  0.19097235479E+02  0.21594984360E+01  0.99240384940E+01  0.21629941671E+02  0.51100000000E-03 0. -1.
        -11    1    3    3    0    0 -0.65714011368E+00 -0.15904876956E+01  0.24326055255E+02  0.24386849915E+02  0.51100000000E-03 0.  1.
         12    1    3    3    0    0 -0.29808413200E+01  0.98626629152E+01 -0.83867446889E+01  0.13285142876E+02  0.00000000000E+00 0. -1.
</event>
<event>
 7    1  0.6316620E-012  0.5930188E+02  0.7816164E-02  0.1266605E+00
        -11   -1    0    0    0    0  0.00000000000E+00  0.00000000000E+00  0.45593999997E+02  0.45594000000E+02  0.51100000000E-03 0.  1.
         11   -1    0    0    0    0 -0.00000000000E+00 -0.00000000000E+00 -0.45593999997E+02  0.45594000000E+02  0.51100000000E-03 0. -1.
    9900012    2    1    2    0    0  0.13321180485E+02 -0.15956376500E+02  0.24179846285E+02  0.59301878146E+02  0.49999879848E+02 0.  0.
         12    1    1    2    0    0 -0.13321180485E+02  0.15956376500E+02 -0.24179846285E+02  0.31886121854E+02  0.00000000000E+00 0. -1.
         11    1    3    3    0    0  0.14210669037E+02 -0.13532649503E+02 -0.39332160036E+00  0.19627287617E+02  0.51100000000E-03 0. -1.
        -11    1    3    3    0    0  0.12861837848E+02 -0.91570300018E+01  0.11365818365E+02  0.19454045817E+02  0.51100000000E-03 0.  1.
        -12    1    3    3    0    0 -0.13751326400E+02  0.67333030049E+01  0.13207349520E+02  0.20220544712E+02  0.00000000000E+00 0.  1.
</event>
<event>
 7    1  0.6316620E-012  0.5930194E+02  0.7816164E-02  0.1266605E+00
        -11   -1    0    0    0    0  0.00000000000E+00  0.00000000000E+00  0.45593999997E+02  0.45594000000E+02  0.51100000000E-03 0. -1.
         11   -1    0    0    0    0 -0.00000000000E+00 -0.00000000000E+00 -0.45593999997E+02  0.45594000000E+02  0.51100000000E-03 0.  1.
    9900012    2    1    2    0    0 -0.15434035850E+02  0.19549823032E+02 -0.19907674056E+02  0.59301944592E+02  0.50000001029E+02 0.  0.
         12    1    1    2    0    0  0.15434035850E+02 -0.19549823032E+02  0.19907674056E+02  0.31886055408E+02  0.00000000000E+00 0. -1.
         11    1    3    3    0    0 -0.57836308636E+00 -0.19644856205E+01 -0.12573697188E+02  0.12739370818E+02  0.51100000000E-03 0. -1.
        -11    1    3    3    0    0 -0.19031715599E+02  0.46773717865E+01 -0.17654661245E+02  0.26377472764E+02  0.51100000000E-03 0.  1.
         12    1    3    3    0    0  0.41760428352E+01  0.16836936866E+02  0.10320684377E+02  0.20185101010E+02  0.00000000000E+00 0. -1.
</event>
<event>
 7    1  0.6316620E-012  0.5930195E+02  0.7816164E-02  0.1266605E+00
        -11   -1    0    0    0    0  0.00000000000E+00  0.00000000000E+00  0.45593999997E+02  0.45594000000E+02  0.51100000000E-03 0.  1.
         11   -1    0    0    0    0 -0.00000000000E+00 -0.00000000000E+00 -0.45593999997E+02  0.45594000000E+02  0.51100000000E-03 0. -1.
    9900012    2    1    2    0    0 -0.84084647673E+01 -0.62107480897E+01  0.30123824606E+02  0.59301945361E+02  0.50000002432E+02 0.  0.
         12    1    1    2    0    0  0.84084647673E+01  0.62107480897E+01 -0.30123824606E+02  0.31886054639E+02  0.00000000000E+00 0. -1.
         11    1    3    3    0    0 -0.76592317471E+01 -0.62961140832E+01  0.70580509686E+01  0.12170495768E+02  0.51100000000E-03 0. -1.
        -11    1    3    3    0    0 -0.71550223116E+01 -0.15894793191E+02 -0.10937687726E+01  0.17465254801E+02  0.51100000000E-03 0.  1.
         12    1    3    3    0    0  0.64057892915E+01  0.15980159185E+02  0.24159542410E+02  0.29666194792E+02  0.00000000000E+00 0. -1.
</event>
<event>
 7    1  0.6316620E-012  0.5930196E+02  0.7816164E-02  0.1266605E+00
        -11   -1    0    0    0    0  0.00000000000E+00  0.00000000000E+00  0.45593999997E+02  0.45594000000E+02  0.51100000000E-03 0.  1.
         11   -1    0    0    0    0 -0.00000000000E+00 -0.00000000000E+00 -0.45593999997E+02  0.45594000000E+02  0.51100000000E-03 0. -1.
    9900012    2    1    2    0    0 -0.29362337486E+02 -0.37292480521E+01 -0.11860247983E+02  0.59301958604E+02  0.50000026584E+02 0.  0.
         12    1    1    2    0    0  0.29362337486E+02  0.37292480521E+01  0.11860247983E+02  0.31886041396E+02  0.00000000000E+00 0. -1.
         11    1    3    3    0    0 -0.43904413726E+01  0.23055871046E+01 -0.13341389316E+02  0.14233213850E+02  0.51100000000E-03 0. -1.
        -11    1    3    3    0    0 -0.52185714856E+01 -0.14485406168E+02 -0.12159586097E+02  0.19619276605E+02  0.51100000000E-03 0.  1.
        -12    1    3    3    0    0 -0.19753324627E+02  0.84505710109E+01  0.13640727431E+02  0.25449468149E+02  0.00000000000E+00 0.  1.
</event>
<event>
 7    1  0.6316620E-012  0.5930195E+02  0.7816164E-02  0.1266605E+00
        -11   -1    0    0    0    0  0.00000000000E+00  0.00000000000E+00  0.45593999997E+02  0.45594000000E+02  0.51100000000E-03 0.  1.
         11   -1    0    0    0    0 -0.00000000000E+00 -0.00000000000E+00 -0.45593999997E+02  0.45594000000E+02  0.51100000000E-03 0. -1.
    9900012    2    1    2    0    0 -0.21626725401E+02 -0.10979838780E+02  0.20698982630E+02  0.59301953003E+02  0.50000016369E+02 0.  0.
         12    1    1    2    0    0  0.21626725401E+02  0.10979838780E+02 -0.20698982630E+02  0.31886046997E+02  0.00000000000E+00 0. -1.
         11    1    3    3    0    0  0.76502181378E+01  0.10985478455E+02  0.39962440982E+01  0.13970559817E+02  0.51100000000E-03 0. -1.
        -11    1    3    3    0    0  0.72877120305E-01  0.47111616512E+00  0.71595775401E+01  0.71754311598E+01  0.51100000000E-03 0.  1.
         12    1    3    3    0    0 -0.29349820659E+02 -0.22436433400E+02  0.95431609916E+01  0.38155962026E+02  0.00000000000E+00 0. -1.
</event>
<event>
 7    1  0.6316620E-012  0.5930194E+02  0.7816164E-02  0.1266605E+00
        -11   -1    0    0    0    0  0.00000000000E+00  0.00000000000E+00  0.45593999997E+02  0.45594000000E+02  0.51100000000E-03 0.  1.
         11   -1    0    0    0    0 -0.00000000000E+00 -0.00000000000E+00 -0.45593999997E+02  0.45594000000E+02  0.51100000000E-03 0. -1.
    9900012    2    1    2    0    0 -0.30442654931E+01  0.31557548038E+02  0.34020999405E+01  0.59301942317E+02  0.49999996880E+02 0.  0.
         12    1    1    2    0    0  0.30442654931E+01 -0.31557548038E+02 -0.34020999405E+01  0.31886057683E+02  0.00000000000E+00 0. -1.
         11    1    3    3    0    0 -0.14243879923E+02  0.90489401570E+01 -0.45383336553E+01  0.17474779136E+02  0.51100000000E-03 0. -1.
        -11    1    3    3    0    0 -0.42845047186E+01 -0.42904697242E+01  0.90073227061E+01  0.10858037287E+02  0.51100000000E-03 0.  1.
         12    1    3    3    0    0  0.15484119148E+02  0.26799077605E+02 -0.10668891103E+01  0.30969125894E+02  0.00000000000E+00 0. -1.
</event>
<event>
 7    1  0.6316620E-012  0.5930160E+02  0.7816164E-02  0.1266606E+00
        -11   -1    0    0    0    0  0.00000000000E+00  0.00000000000E+00  0.45593999997E+02  0.45594000000E+02  0.51100000000E-03 0.  1.
         11   -1    0    0    0    0 -0.00000000000E+00 -0.00000000000E+00 -0.45593999997E+02  0.45594000000E+02  0.51100000000E-03 0. -1.
    9900012    2    1    2    0    0 -0.29071012499E+02  0.13090362671E+02  0.51080149583E+00  0.59301603516E+02  0.49999378985E+02 0.  0.
         12    1    1    2    0    0  0.29071012499E+02 -0.13090362671E+02 -0.51080149583E+00  0.31886396484E+02  0.00000000000E+00 0. -1.
         11    1    3    3    0    0 -0.28675733430E+02 -0.81063118103E+01  0.13118801034E+02  0.32559375298E+02  0.51100000000E-03 0. -1.
        -11    1    3    3    0    0  0.29302163491E+01  0.98107296736E+00 -0.18615951234E+01  0.36075211273E+01  0.51100000000E-03 0.  1.
        -12    1    3    3    0    0 -0.33254954175E+01  0.20215601514E+02 -0.10746404415E+02  0.23134707091E+02  0.00000000000E+00 0.  1.
</event>
<event>
 7    1  0.6316620E-012  0.5930194E+02  0.7816164E-02  0.1266605E+00
        -11   -1    0    0    0    0  0.00000000000E+00  0.00000000000E+00  0.45593999997E+02  0.45594000000E+02  0.51100000000E-03 0.  1.
         11   -1    0    0    0    0 -0.00000000000E+00 -0.00000000000E+00 -0.45593999997E+02  0.45594000000E+02  0.51100000000E-03 0. -1.
    9900012    2    1    2    0    0  0.29883762591E+01  0.24969711420E+02  0.19603677063E+02  0.59301936659E+02  0.49999986560E+02 0.  0.
         12    1    1    2    0    0 -0.29883762591E+01 -0.24969711420E+02 -0.19603677063E+02  0.31886063341E+02  0.00000000000E+00 0. -1.
         11    1    3    3    0    0  0.18344000479E+02  0.10290483194E+02 -0.41087660800E+00  0.21037234081E+02  0.51100000000E-03 0. -1.
        -11    1    3    3    0    0  0.15390029853E+01  0.11770937738E+02  0.17189683044E+02  0.20890397526E+02  0.51100000000E-03 0.  1.
        -12    1    3    3    0    0 -0.16894627205E+02  0.29082904884E+01  0.28248706270E+01  0.17374305051E+02  0.00000000000E+00 0.  1.
</event>
<event>
 7    1  0.6316620E-012  0.5930195E+02  0.7816164E-02  0.1266605E+00
        -11   -1    0    0    0    0  0.00000000000E+00  0.00000000000E+00  0.45593999997E+02  0.45594000000E+02  0.51100000000E-03 0.  1.
         11   -1    0    0    0    0 -0.00000000000E+00 -0.00000000000E+00 -0.45593999997E+02  0.45594000000E+02  0.51100000000E-03 0. -1.
    9900012    2    1    2    0    0  0.18888056093E+02 -0.10706767054E+02  0.23352232369E+02  0.59301948499E+02  0.50000008154E+02 0.  0.
         12    1    1    2    0    0 -0.18888056093E+02  0.10706767054E+02 -0.23352232369E+02  0.31886051501E+02  0.00000000000E+00 0. -1.
         11    1    3    3    0    0  0.20761236916E+02 -0.59214496452E+01  0.22250790725E+02  0.31003067789E+02  0.51100000000E-03 0. -1.
        -11    1    3    3    0    0  0.80489609289E+01 -0.12858603989E+02  0.26976244577E+01  0.15408005924E+02  0.51100000000E-03 0.  1.
         12    1    3    3    0    0 -0.99221417520E+01  0.80732865806E+01 -0.15961828139E+01  0.12890874785E+02  0.00000000000E+00 0. -1.
</event>
<event>
 7    1  0.6316620E-012  0.5930198E+02  0.7816164E-02  0.1266605E+00
        -11   -1    0    0    0    0  0.00000000000E+00  0.00000000000E+00  0.45593999997E+02  0.45594000000E+02  0.51100000000E-03 0.  1.
         11   -1    0    0    0    0 -0.00000000000E+00 -0.00000000000E+00 -0.45593999997E+02  0.45594000000E+02  0.51100000000E-03 0. -1.
    9900012    2    1    2    0    0  0.23120516342E+02 -0.21266224813E+02  0.54687640085E+01  0.59301984673E+02  0.50000074126E+02 0.  0.
         12    1    1    2    0    0 -0.23120516342E+02  0.21266224813E+02 -0.54687640085E+01  0.31886015327E+02  0.00000000000E+00 0. -1.
         11    1    3    3    0    0  0.14333644397E+02  0.23323862949E+01 -0.64382404832E+01  0.15885349486E+02  0.51100000000E-03 0. -1.
        -11    1    3    3    0    0  0.14723172469E+02  0.20794007483E+01  0.76432559425E+01  0.16718704396E+02  0.51100000000E-03 0.  1.
        -12    1    3    3    0    0 -0.59363005242E+01 -0.25678011856E+02  0.42637485492E+01  0.26697930790E+02  0.00000000000E+00 0.  1.
</event>
<event>
 7    1  0.6316620E-012  0.5930196E+02  0.7816164E-02  0.1266605E+00
        -11   -1    0    0    0    0  0.00000000000E+00  0.00000000000E+00  0.45593999997E+02  0.45594000000E+02  0.51100000000E-03 0. -1.
         11   -1    0    0    0    0 -0.00000000000E+00 -0.00000000000E+00 -0.45593999997E+02  0.45594000000E+02  0.51100000000E-03 0.  1.
    9900012    2    1    2    0    0 -0.19596384335E+02 -0.12464405554E+02 -0.21848111479E+02  0.59301958226E+02  0.50000025894E+02 0.  0.
         12    1    1    2    0    0  0.19596384335E+02  0.12464405554E+02  0.21848111479E+02  0.31886041774E+02  0.00000000000E+00 0. -1.
         11    1    3    3    0    0 -0.97265552098E+01  0.38787043439E+01 -0.54201817479E+01  0.11791038719E+02  0.51100000000E-03 0. -1.
        -11    1    3    3    0    0 -0.99206484827E+01 -0.16452422565E+02 -0.29082748488E+02  0.34855526599E+02  0.51100000000E-03 0.  1.
         12    1    3    3    0    0  0.50819357245E-01  0.10931266727E+00  0.12654818757E+02  0.12655392908E+02  0.00000000000E+00 0. -1.
</event>
<event>
 7    1  0.6316620E-012  0.5930193E+02  0.7816164E-02  0.1266605E+00
        -11   -1    0    0    0    0  0.00000000000E+00  0.00000000000E+00  0.45593999997E+02  0.45594000000E+02  0.51100000000E-03 0.  1.
         11   -1    0    0    0    0 -0.00000000000E+00 -0.00000000000E+00 -0.45593999997E+02  0.45594000000E+02  0.51100000000E-03 0. -1.
    9900012    2    1    2    0    0 -0.29498204954E+01  0.21187257891E+02  0.23645717993E+02  0.59301932238E+02  0.49999978499E+02 0.  0.
         12    1    1    2    0    0  0.29498204954E+01 -0.21187257891E+02 -0.23645717993E+02  0.31886067762E+02  0.00000000000E+00 0. -1.
         11    1    3    3    0    0  0.11874426717E+02  0.42371991955E+01  0.39136177575E+01  0.13201222333E+02  0.51100000000E-03 0. -1.
        -11    1    3    3    0    0 -0.52642229734E+01  0.43415146447E+01  0.27598920041E+02  0.28429934586E+02  0.51100000000E-03 0.  1.
         12    1    3    3    0    0 -0.95600242386E+01  0.12608544051E+02 -0.78668198047E+01  0.17670775319E+02  0.00000000000E+00 0. -1.
</event>
<event>
 7    1  0.6316620E-012  0.5930192E+02  0.7816164E-02  0.1266605E+00
        -11   -1    0    0    0    0  0.00000000000E+00  0.00000000000E+00  0.45593999997E+02  0.45594000000E+02  0.51100000000E-03 0.  1.
         11   -1    0    0    0    0 -0.00000000000E+00 -0.00000000000E+00 -0.45593999997E+02  0.45594000000E+02  0.51100000000E-03 0. -1.
    9900012    2    1    2    0    0 -0.23623373005E+02 -0.45144325575E+01  0.20935101890E+02  0.59301916129E+02  0.49999949120E+02 0.  0.
         12    1    1    2    0    0  0.23623373005E+02  0.45144325575E+01 -0.20935101890E+02  0.31886083871E+02  0.00000000000E+00 0. -1.
         11    1    3    3    0    0 -0.15120512297E+02 -0.83569229123E+01  0.32001820816E+01  0.17570122888E+02  0.51100000000E-03 0. -1.
        -11    1    3    3    0    0 -0.41760708156E+01 -0.10630431607E+02 -0.65246615593E+01  0.13153587052E+02  0.51100000000E-03 0.  1.
        -12    1    3    3    0    0 -0.43267898928E+01  0.14472921962E+02  0.24259581367E+02  0.28578206190E+02  0.00000000000E+00 0.  1.
</event>
<event>
 7    1  0.6316620E-012  0.5930194E+02  0.7816164E-02  0.1266605E+00
        -11   -1    0    0    0    0  0.00000000000E+00  0.00000000000E+00  0.45593999997E+02  0.45594000000E+02  0.51100000000E-03 0.  1.
         11   -1    0    0    0    0 -0.00000000000E+00 -0.00000000000E+00 -0.45593999997E+02  0.45594000000E+02  0.51100000000E-03 0. -1.
    9900012    2    1    2    0    0 -0.23254043719E+02  0.12012202378E+02  0.18212004199E+02  0.59301942667E+02  0.49999997519E+02 0.  0.
         12    1    1    2    0    0  0.23254043719E+02 -0.12012202378E+02 -0.18212004199E+02  0.31886057333E+02  0.00000000000E+00 0. -1.
         11    1    3    3    0    0 -0.81219713894E+01 -0.13233974649E+01 -0.30725040721E+01  0.87839673061E+01  0.51100000000E-03 0. -1.
        -11    1    3    3    0    0 -0.27684811210E+02  0.53920626516E+01  0.21809694890E+02  0.35653694098E+02  0.51100000000E-03 0.  1.
         12    1    3    3    0    0  0.12552738880E+02  0.79435371915E+01 -0.52518661880E+00  0.14864281264E+02  0.00000000000E+00 0. -1.
</event>
<event>
 7    1  0.6316620E-012  0.5930197E+02  0.7816164E-02  0.1266605E+00
        -11   -1    0    0    0    0  0.00000000000E+00  0.00000000000E+00  0.45593999997E+02  0.45594000000E+02  0.51100000000E-03 0. -1.
         11   -1    0    0    0    0 -0.00000000000E+00 -0.00000000000E+00 -0.45593999997E+02  0.45594000000E+02  0.51100000000E-03 0.  1.
    9900012    2    1    2    0    0 -0.62862944981E+01 -0.31199069898E+02  0.19544136816E+01  0.59301965536E+02  0.50000039226E+02 0.  0.
         12    1    1    2    0    0  0.62862944981E+01  0.31199069898E+02 -0.19544136816E+01  0.31886034464E+02  0.00000000000E+00 0. -1.
         11    1    3    3    0    0  0.45483890281E+01 -0.11151414916E+02  0.17293593464E+01  0.12166864074E+02  0.51100000000E-03 0. -1.
        -11    1    3    3    0    0 -0.59380171092E+01 -0.22662903926E+02 -0.17059528031E+02  0.28980937846E+02  0.51100000000E-03 0.  1.
        -12    1    3    3    0    0 -0.48966664170E+01  0.26152489441E+01  0.17284582366E+02  0.18154163616E+02  0.00000000000E+00 0.  1.
</event>
<event>
 7    1  0.6316620E-012  0.5930194E+02  0.7816164E-02  0.1266605E+00
        -11   -1    0    0    0    0  0.00000000000E+00  0.00000000000E+00  0.45593999997E+02  0.45594000000E+02  0.51100000000E-03 0. -1.
         11   -1    0    0    0    0 -0.00000000000E+00 -0.00000000000E+00 -0.45593999997E+02  0.45594000000E+02  0.51100000000E-03 0.  1.
    9900012    2    1    2    0    0  0.21938674282E+02  0.60591161417E+00 -0.23131105528E+02  0.59301943469E+02  0.49999998981E+02 0.  0.
         12    1    1    2    0    0 -0.21938674282E+02 -0.60591161417E+00  0.23131105528E+02  0.31886056531E+02  0.00000000000E+00 0. -1.
         11    1    3    3    0    0 -0.78538340808E+01 -0.80588274500E+01 -0.91866612820E+01  0.14526601647E+02  0.51100000000E-03 0. -1.
        -11    1    3    3    0    0  0.12544236106E+02 -0.17496221621E+01  0.80027058261E+01  0.14982067213E+02  0.51100000000E-03 0.  1.
        -12    1    3    3    0    0  0.17248272257E+02  0.10414361226E+02 -0.21947150073E+02  0.29793274609E+02  0.00000000000E+00 0.  1.
</event>
<event>
 7    1  0.6316620E-012  0.5930161E+02  0.7816164E-02  0.1266606E+00
        -11   -1    0    0    0    0  0.00000000000E+00  0.00000000000E+00  0.45593999997E+02  0.45594000000E+02  0.51100000000E-03 0. -1.
         11   -1    0    0    0    0 -0.00000000000E+00 -0.00000000000E+00 -0.45593999997E+02  0.45594000000E+02  0.51100000000E-03 0.  1.
    9900012    2    1    2    0    0 -0.93080434861E+01  0.22001250945E+02 -0.21119825947E+02  0.59301611608E+02  0.49999393742E+02 0.  0.
         12    1    1    2    0    0  0.93080434861E+01 -0.22001250945E+02  0.21119825947E+02  0.31886388392E+02  0.00000000000E+00 0. -1.
         11    1    3    3    0    0 -0.59388596975E+01 -0.11297868910E+01 -0.49746999519E+01  0.78290556773E+01  0.51100000000E-03 0. -1.
        -11    1    3    3    0    0 -0.57773504278E+01  0.16544117789E+02 -0.30681212093E+02  0.35333021200E+02  0.51100000000E-03 0.  1.
         12    1    3    3    0    0  0.24081666391E+01  0.65869200476E+01  0.14536086098E+02  0.16139534731E+02  0.00000000000E+00 0. -1.
</event>
<event>
 7    1  0.6316620E-012  0.5930192E+02  0.7816164E-02  0.1266605E+00
        -11   -1    0    0    0    0  0.00000000000E+00  0.00000000000E+00  0.45593999997E+02  0.45594000000E+02  0.51100000000E-03 0.  1.
         11   -1    0    0    0    0 -0.00000000000E+00 -0.00000000000E+00 -0.45593999997E+02  0.45594000000E+02  0.51100000000E-03 0. -1.
    9900012    2    1    2    0    0  0.10535321558E+02  0.80551784443E+00  0.30084552739E+02  0.59301918823E+02  0.49999954032E+02 0.  0.
         12    1    1    2    0    0 -0.10535321558E+02 -0.80551784443E+00 -0.30084552739E+02  0.31886081177E+02  0.00000000000E+00 0. -1.
         11    1    3    3    0    0 -0.58119300099E+01 -0.84477105359E+01  0.50753022920E+01  0.11441199122E+02  0.51100000000E-03 0.  1.
        -11    1    3    3    0    0 -0.97576729265E+01  0.89160671186E+01  0.14761457001E+02  0.19814364659E+02  0.51100000000E-03 0. -1.
        -12    1    3    3    0    0  0.26104924495E+02  0.33716126178E+00  0.10247793446E+02  0.28046355041E+02  0.00000000000E+00 0.  1.
</event>
<event>
 7    1  0.6316620E-012  0.5930202E+02  0.7816164E-02  0.1266605E+00
        -11   -1    0    0    0    0  0.00000000000E+00  0.00000000000E+00  0.45593999997E+02  0.45594000000E+02  0.51100000000E-03 0.  1.
         11   -1    0    0    0    0 -0.00000000000E+00 -0.00000000000E+00 -0.45593999997E+02  0.45594000000E+02  0.51100000000E-03 0. -1.
    9900012    2    1    2    0    0  0.77433346641E+01  0.25736148999E+02  0.17158300012E+02  0.59302017871E+02  0.50000134672E+02 0.  0.
         12    1    1    2    0    0 -0.77433346641E+01 -0.25736148999E+02 -0.17158300012E+02  0.31885982129E+02  0.00000000000E+00 0. -1.
         11    1    3    3    0    0  0.79657441086E+01  0.79005720016E+01 -0.11564104071E+02  0.16112126501E+02  0.51100000000E-03 0. -1.
        -11    1    3    3    0    0 -0.12768288421E+02  0.74246527905E+01  0.79176663927E+01  0.16758403851E+02  0.51100000000E-03 0.  1.
        -12    1    3    3    0    0  0.12545878977E+02  0.10410924207E+02  0.20804737690E+02  0.26431487519E+02  0.00000000000E+00 0.  1.
</event>
<event>
 7    1  0.6316620E-012  0.5930200E+02  0.7816164E-02  0.1266605E+00
        -11   -1    0    0    0    0  0.00000000000E+00  0.00000000000E+00  0.45593999997E+02  0.45594000000E+02  0.51100000000E-03 0. -1.
         11   -1    0    0    0    0 -0.00000000000E+00 -0.00000000000E+00 -0.45593999997E+02  0.45594000000E+02  0.51100000000E-03 0.  1.
    9900012    2    1    2    0    0 -0.29846139662E+02  0.51559410623E+01  0.99669995619E+01  0.59302002113E+02  0.50000105934E+02 0.  0.
         12    1    1    2    0    0  0.29846139662E+02 -0.51559410623E+01 -0.99669995619E+01  0.31885997887E+02  0.00000000000E+00 0. -1.
         11    1    3    3    0    0 -0.23953454440E+02  0.85144262262E+01  0.56993968229E+01  0.26052764882E+02  0.51100000000E-03 0. -1.
        -11    1    3    3    0    0 -0.10235262309E+01  0.13510559781E+02  0.73631496076E+01  0.15420726440E+02  0.51100000000E-03 0.  1.
         12    1    3    3    0    0 -0.48691589914E+01 -0.16869044945E+02 -0.30955468686E+01  0.17828510792E+02  0.00000000000E+00 0. -1.
</event>
<event>
 7    1  0.6316620E-012  0.5930193E+02  0.7816164E-02  0.1266605E+00
        -11   -1    0    0    0    0  0.00000000000E+00  0.00000000000E+00  0.45593999997E+02  0.45594000000E+02  0.51100000000E-03 0.  1.
         11   -1    0    0    0    0 -0.00000000000E+00 -0.00000000000E+00 -0.45593999997E+02  0.45594000000E+02  0.51100000000E-03 0. -1.
    9900012    2    1    2    0    0 -0.13866098108E+00  0.65049513938E+01  0.31215182814E+02  0.59301933174E+02  0.49999980206E+02 0.  0.
         12    1    1    2    0    0  0.13866098108E+00 -0.65049513938E+01 -0.31215182814E+02  0.31886066826E+02  0.00000000000E+00 0. -1.
         11    1    3    3    0    0 -0.51679269433E+01  0.82811651461E+01 -0.58276835341E+00  0.97787925780E+01  0.51100000000E-03 0. -1.
        -11    1    3    3    0    0 -0.11491545361E+01 -0.11764335607E+02 -0.34959230539E+01  0.12326460428E+02  0.51100000000E-03 0.  1.
        -12    1    3    3    0    0  0.61784204983E+01  0.99881218544E+01  0.35293874221E+02  0.37196680169E+02  0.00000000000E+00 0.  1.
</event>
<event>
 7    1  0.6316620E-012  0.5930194E+02  0.7816164E-02  0.1266605E+00
        -11   -1    0    0    0    0  0.00000000000E+00  0.00000000000E+00  0.45593999997E+02  0.45594000000E+02  0.51100000000E-03 0.  1.
         11   -1    0    0    0    0 -0.00000000000E+00 -0.00000000000E+00 -0.45593999997E+02  0.45594000000E+02  0.51100000000E-03 0. -1.
    9900012    2    1    2    0    0 -0.31080133044E+01  0.22145019778E+02  0.22730138563E+02  0.59301939617E+02  0.49999991956E+02 0.  0.
         12    1    1    2    0    0  0.31080133044E+01 -0.22145019778E+02 -0.22730138563E+02  0.31886060383E+02  0.00000000000E+00 0. -1.
         11    1    3    3    0    0  0.56085146181E+01  0.31248306631E+01 -0.43855350879E+01  0.77751476618E+01  0.51100000000E-03 0. -1.
        -11    1    3    3    0    0 -0.13970628536E+02  0.20316406216E+02  0.80935837272E+00  0.24669614599E+02  0.51100000000E-03 0.  1.
        -12    1    3    3    0    0  0.52541006133E+01 -0.12962171013E+01  0.26306315278E+02  0.26857177356E+02  0.00000000000E+00 0.  1.
</event>
<event>
 7    1  0.6316620E-012  0.5930201E+02  0.7816164E-02  0.1266605E+00
        -11   -1    0    0    0    0  0.00000000000E+00  0.00000000000E+00  0.45593999997E+02  0.45594000000E+02  0.51100000000E-03 0. -1.
         11   -1    0    0    0    0 -0.00000000000E+00 -0.00000000000E+00 -0.45593999997E+02  0.45594000000E+02  0.51100000000E-03 0.  1.
    9900012    2    1    2    0    0  0.17635054681E+02 -0.12280004303E+02 -0.23556790909E+02  0.59302014721E+02  0.50000128927E+02 0.  0.
         12    1    1    2    0    0 -0.17635054681E+02  0.12280004303E+02  0.23556790909E+02  0.31885985279E+02  0.00000000000E+00 0. -1.
         11    1    3    3    0    0  0.23493707992E+02 -0.36143068636E+00 -0.12470001111E+02  0.26600486374E+02  0.51100000000E-03 0. -1.
        -11    1    3    3    0    0  0.83880247256E+01  0.57669490902E-01 -0.11318923324E+02  0.14088304015E+02  0.51100000000E-03 0.  1.
        -12    1    3    3    0    0 -0.14246678036E+02 -0.11976243107E+02  0.23213352509E+00  0.18613224332E+02  0.00000000000E+00 0.  1.
</event>
<event>
 7    1  0.6316620E-012  0.5930194E+02  0.7816164E-02  0.1266605E+00
        -11   -1    0    0    0    0  0.00000000000E+00  0.00000000000E+00  0.45593999997E+02  0.45594000000E+02  0.51100000000E-03 0. -1.
         11   -1    0    0    0    0 -0.00000000000E+00 -0.00000000000E+00 -0.45593999997E+02  0.45594000000E+02  0.51100000000E-03 0.  1.
    9900012    2    1    2    0    0 -0.40734290513E+01  0.14625714836E+02 -0.28039551754E+02  0.59301940017E+02  0.49999992685E+02 0.  0.
         12    1    1    2    0    0  0.40734290513E+01 -0.14625714836E+02  0.28039551754E+02  0.31886059983E+02  0.00000000000E+00 0. -1.
         11    1    3    3    0    0 -0.85801576732E+01  0.21316553407E+02 -0.75621453395E+01  0.24190919727E+02  0.51100000000E-03 0.  1.
        -11    1    3    3    0    0  0.65120101750E+01  0.70913261733E+01 -0.18749539048E+02  0.21076963685E+02  0.51100000000E-03 0. -1.
        -12    1    3    3    0    0 -0.20052815530E+01 -0.13782164744E+02 -0.17278673663E+01  0.14034056604E+02  0.00000000000E+00 0.  1.
</event>
<event>
 7    1  0.6316620E-012  0.5930199E+02  0.7816164E-02  0.1266605E+00
        -11   -1    0    0    0    0  0.00000000000E+00  0.00000000000E+00  0.45593999997E+02  0.45594000000E+02  0.51100000000E-03 0. -1.
         11   -1    0    0    0    0 -0.00000000000E+00 -0.00000000000E+00 -0.45593999997E+02  0.45594000000E+02  0.51100000000E-03 0.  1.
    9900012    2    1    2    0    0  0.30441104334E+02  0.77783802857E+01  0.54363056509E+01  0.59301992849E+02  0.50000089037E+02 0.  0.
         12    1    1    2    0    0 -0.30441104334E+02 -0.77783802857E+01 -0.54363056509E+01  0.31886007151E+02  0.00000000000E+00 0. -1.
         11    1    3    3    0    0 -0.69242803104E+01 -0.53670526343E+01  0.50279083059E+01  0.10101028363E+02  0.51100000000E-03 0. -1.
        -11    1    3    3    0    0  0.15873843389E+02  0.12314677502E+01  0.13928517135E+02  0.21154172321E+02  0.51100000000E-03 0.  1.
        -12    1    3    3    0    0  0.21491541256E+02  0.11913965170E+02 -0.13520119790E+02  0.28046792165E+02  0.00000000000E+00 0.  1.
</event>
<event>
 7    1  0.6316620E-012  0.5930190E+02  0.7816164E-02  0.1266605E+00
        -11   -1    0    0    0    0  0.00000000000E+00  0.00000000000E+00  0.45593999997E+02  0.45594000000E+02  0.51100000000E-03 0. -1.
         11   -1    0    0    0    0 -0.00000000000E+00 -0.00000000000E+00 -0.45593999997E+02  0.45594000000E+02  0.51100000000E-03 0.  1.
    9900012    2    1    2    0    0  0.11503991176E+02 -0.29736068994E+02  0.38454161958E+00  0.59301898255E+02  0.49999916522E+02 0.  0.
         12    1    1    2    0    0 -0.11503991176E+02  0.29736068994E+02 -0.38454161958E+00  0.31886101745E+02  0.00000000000E+00 0. -1.
         11    1    3    3    0    0 -0.10534387811E+02 -0.15121438560E+02  0.62042417520E+01  0.19445406827E+02  0.51100000000E-03 0. -1.
        -11    1    3    3    0    0  0.51915799832E+01 -0.15219030145E+02  0.80904818067E+01  0.18000757689E+02  0.51100000000E-03 0.  1.
         12    1    3    3    0    0  0.16846799004E+02  0.60439971062E+00 -0.13910181939E+02  0.21855733739E+02  0.00000000000E+00 0. -1.
</event>
<event>
 7    1  0.6316620E-012  0.5930197E+02  0.7816164E-02  0.1266605E+00
        -11   -1    0    0    0    0  0.00000000000E+00  0.00000000000E+00  0.45593999997E+02  0.45594000000E+02  0.51100000000E-03 0. -1.
         11   -1    0    0    0    0 -0.00000000000E+00 -0.00000000000E+00 -0.45593999997E+02  0.45594000000E+02  0.51100000000E-03 0.  1.
    9900012    2    1    2    0    0 -0.23513857841E+02 -0.21067465360E+02 -0.44698423626E+01  0.59301967039E+02  0.50000041966E+02 0.  0.
         12    1    1    2    0    0  0.23513857841E+02  0.21067465360E+02  0.44698423626E+01  0.31886032961E+02  0.00000000000E+00 0. -1.
         11    1    3    3    0    0 -0.24191365308E+02 -0.29518768867E+01  0.76551871674E+01  0.25544815980E+02  0.51100000000E-03 0. -1.
        -11    1    3    3    0    0 -0.52174435058E+01 -0.15070133552E+01  0.62614021780E+01  0.82884234620E+01  0.51100000000E-03 0.  1.
        -12    1    3    3    0    0  0.58949509729E+01 -0.16608575118E+02 -0.18386431708E+02  0.25468727597E+02  0.00000000000E+00 0.  1.
</event>
<event>
 7    1  0.6316620E-012  0.5930193E+02  0.7816164E-02  0.1266605E+00
        -11   -1    0    0    0    0  0.00000000000E+00  0.00000000000E+00  0.45593999997E+02  0.45594000000E+02  0.51100000000E-03 0.  1.
         11   -1    0    0    0    0 -0.00000000000E+00 -0.00000000000E+00 -0.45593999997E+02  0.45594000000E+02  0.51100000000E-03 0. -1.
    9900012    2    1    2    0    0  0.19605488816E+02 -0.21337484668E+02  0.13306316948E+02  0.59301929147E+02  0.49999972862E+02 0.  0.
         12    1    1    2    0    0 -0.19605488816E+02  0.21337484668E+02 -0.13306316948E+02  0.31886070853E+02  0.00000000000E+00 0. -1.
         11    1    3    3    0    0  0.57001462031E+01 -0.81523873490E+01 -0.36613489462E+01  0.10599932198E+02  0.51100000000E-03 0. -1.
        -11    1    3    3    0    0  0.19015859070E+02 -0.40834808837E+01 -0.84642045303E+01  0.21211328833E+02  0.51100000000E-03 0.  1.
        -12    1    3    3    0    0 -0.51105164568E+01 -0.91016164357E+01  0.25431870425E+02  0.27490668117E+02  0.00000000000E+00 0.  1.
</event>
<event>
 7    1  0.6316620E-012  0.5930195E+02  0.7816164E-02  0.1266605E+00
        -11   -1    0    0    0    0  0.00000000000E+00  0.00000000000E+00  0.45593999997E+02  0.45594000000E+02  0.51100000000E-03 0.  1.
         11   -1    0    0    0    0 -0.00000000000E+00 -0.00000000000E+00 -0.45593999997E+02  0.45594000000E+02  0.51100000000E-03 0. -1.
    9900012    2    1    2    0    0 -0.17848210248E+02 -0.47970572715E+01  0.25983646754E+02  0.59301948721E+02  0.50000008560E+02 0.  0.
         12    1    1    2    0    0  0.17848210248E+02  0.47970572715E+01 -0.25983646754E+02  0.31886051279E+02  0.00000000000E+00 0. -1.
         11    1    3    3    0    0 -0.22692886096E+02  0.12359656323E+02  0.43446837784E+01  0.26203138384E+02  0.51100000000E-03 0. -1.
        -11    1    3    3    0    0  0.21409583807E+01  0.32224152811E+01  0.65152173984E+01  0.75773162162E+01  0.51100000000E-03 0.  1.
        -12    1    3    3    0    0  0.27037174677E+01 -0.20379128875E+02  0.15123745577E+02  0.25521494121E+02  0.00000000000E+00 0.  1.
</event>
<event>
 7    1  0.6316620E-012  0.5930213E+02  0.7816164E-02  0.1266604E+00
        -11   -1    0    0    0    0  0.00000000000E+00  0.00000000000E+00  0.45593999997E+02  0.45594000000E+02  0.51100000000E-03 0.  1.
         11   -1    0    0    0    0 -0.00000000000E+00 -0.00000000000E+00 -0.45593999997E+02  0.45594000000E+02  0.51100000000E-03 0. -1.
    9900012    2    1    2    0    0  0.43774243838E+01  0.55759305370E+01  0.31087874816E+02  0.59302128424E+02  0.50000336293E+02 0.  0.
         12    1    1    2    0    0 -0.43774243838E+01 -0.55759305370E+01 -0.31087874816E+02  0.31885871576E+02  0.00000000000E+00 0. -1.
         11    1    3    3    0    0 -0.28940333894E+01  0.16769855502E+02  0.15971137138E+02  0.23338395501E+02  0.51100000000E-03 0. -1.
        -11    1    3    3    0    0  0.15592210981E+02 -0.49073656483E+01  0.18791873212E+02  0.24906500757E+02  0.51100000000E-03 0.  1.
        -12    1    3    3    0    0 -0.83207532075E+01 -0.62865593167E+01 -0.36751355335E+01  0.11057232166E+02  0.00000000000E+00 0.  1.
</event>
<event>
 7    1  0.6316620E-012  0.5930193E+02  0.7816164E-02  0.1266605E+00
        -11   -1    0    0    0    0  0.00000000000E+00  0.00000000000E+00  0.45593999997E+02  0.45594000000E+02  0.51100000000E-03 0.  1.
         11   -1    0    0    0    0 -0.00000000000E+00 -0.00000000000E+00 -0.45593999997E+02  0.45594000000E+02  0.51100000000E-03 0. -1.
    9900012    2    1    2    0    0 -0.20425296893E+02  0.17464485182E+02  0.17161592617E+02  0.59301933184E+02  0.49999980223E+02 0.  0.
         12    1    1    2    0    0  0.20425296893E+02 -0.17464485182E+02 -0.17161592617E+02  0.31886066816E+02  0.00000000000E+00 0. -1.
         11    1    3    3    0    0 -0.13596554932E+02  0.26896819176E+01  0.72254435113E+01  0.15630346414E+02  0.51100000000E-03 0. -1.
        -11    1    3    3    0    0 -0.11193861880E+02  0.89908580121E+01  0.23933562397E+02  0.27909738101E+02  0.51100000000E-03 0.  1.
         12    1    3    3    0    0  0.43651199184E+01  0.57839452528E+01 -0.13997413292E+02  0.15761848668E+02  0.00000000000E+00 0. -1.
</event>
<event>
 7    1  0.6316620E-012  0.5930196E+02  0.7816164E-02  0.1266605E+00
        -11   -1    0    0    0    0  0.00000000000E+00  0.00000000000E+00  0.45593999997E+02  0.45594000000E+02  0.51100000000E-03 0. -1.
         11   -1    0    0    0    0 -0.00000000000E+00 -0.00000000000E+00 -0.45593999997E+02  0.45594000000E+02  0.51100000000E-03 0.  1.
    9900012    2    1    2    0    0  0.18901417176E+02  0.22657899734E+02 -0.12086165154E+02  0.59301962621E+02  0.50000033910E+02 0.  0.
         12    1    1    2    0    0 -0.18901417176E+02 -0.22657899734E+02  0.12086165154E+02  0.31886037379E+02  0.00000000000E+00 0. -1.
         11    1    3    3    0    0  0.90726804884E+01 -0.13927432424E+02 -0.17174939418E+01  0.16710376742E+02  0.51100000000E-03 0. -1.
        -11    1    3    3    0    0  0.50969223332E+01  0.21971102809E+02 -0.14337648923E+02  0.26725945312E+02  0.51100000000E-03 0.  1.
        -12    1    3    3    0    0  0.47318143544E+01  0.14614229348E+02  0.39689777111E+01  0.15865640567E+02  0.00000000000E+00 0.  1.
</event>
<event>
 7    1  0.6316620E-012  0.5930191E+02  0.7816164E-02  0.1266605E+00
        -11   -1    0    0    0    0  0.00000000000E+00  0.00000000000E+00  0.45593999997E+02  0.45594000000E+02  0.51100000000E-03 0.  1.
         11   -1    0    0    0    0 -0.00000000000E+00 -0.00000000000E+00 -0.45593999997E+02  0.45594000000E+02  0.51100000000E-03 0. -1.
    9900012    2    1    2    0    0 -0.20468169226E+02  0.22192565782E+02  0.10259947912E+02  0.59301914342E+02  0.49999945860E+02 0.  0.
         12    1    1    2    0    0  0.20468169226E+02 -0.22192565782E+02 -0.10259947912E+02  0.31886085658E+02  0.00000000000E+00 0. -1.
         11    1    3    3    0    0  0.70060317908E+01  0.24805267222E+01 -0.77251803447E+01  0.10719883670E+02  0.51100000000E-03 0. -1.
        -11    1    3    3    0    0 -0.58869778435E+01  0.15655510322E+02  0.20517921089E+02  0.26471429838E+02  0.51100000000E-03 0.  1.
        -12    1    3    3    0    0 -0.21587223173E+02  0.40565287378E+01 -0.25327928323E+01  0.22110600834E+02  0.00000000000E+00 0.  1.
</event>
<event>
 7    1  0.6316620E-012  0.5930195E+02  0.7816164E-02  0.1266605E+00
        -11   -1    0    0    0    0  0.00000000000E+00  0.00000000000E+00  0.45593999997E+02  0.45594000000E+02  0.51100000000E-03 0.  1.
         11   -1    0    0    0    0 -0.00000000000E+00 -0.00000000000E+00 -0.45593999997E+02  0.45594000000E+02  0.51100000000E-03 0. -1.
    9900012    2    1    2    0    0 -0.35420260956E+01  0.26293607477E+02  0.17686734018E+02  0.59301948140E+02  0.50000007499E+02 0.  0.
         12    1    1    2    0    0  0.35420260956E+01 -0.26293607477E+02 -0.17686734018E+02  0.31886051860E+02  0.00000000000E+00 0. -1.
         11    1    3    3    0    0  0.15579943234E+02  0.12157044680E+02  0.15439941744E+02  0.25078280799E+02  0.51100000000E-03 0. -1.
        -11    1    3    3    0    0 -0.11926852232E+02  0.16995178177E+02  0.10192705812E+02  0.23129572790E+02  0.51100000000E-03 0.  1.
        -12    1    3    3    0    0 -0.71951170975E+01 -0.28586153808E+01 -0.79459135379E+01  0.11094094550E+02  0.00000000000E+00 0.  1.
</event>
<event>
 7    1  0.6316620E-012  0.5930201E+02  0.7816164E-02  0.1266605E+00
        -11   -1    0    0    0    0  0.00000000000E+00  0.00000000000E+00  0.45593999997E+02  0.45594000000E+02  0.51100000000E-03 0. -1.
         11   -1    0    0    0    0 -0.00000000000E+00 -0.00000000000E+00 -0.45593999997E+02  0.45594000000E+02  0.51100000000E-03 0.  1.
    9900012    2    1    2    0    0  0.23133233600E+02  0.35100873730E+01  0.21662158534E+02  0.59302010561E+02  0.50000121340E+02 0.  0.
         12    1    1    2    0    0 -0.23133233600E+02 -0.35100873730E+01 -0.21662158534E+02  0.31885989439E+02  0.00000000000E+00 0. -1.
         11    1    3    3    0    0  0.22476478924E+01 -0.77251871431E+01  0.43105536191E+01  0.91275029558E+01  0.51100000000E-03 0. -1.
        -11    1    3    3    0    0  0.24894654126E+02 -0.87265649888E+01  0.12754965449E+02  0.29301636208E+02  0.51100000000E-03 0.  1.
        -12    1    3    3    0    0 -0.40090684180E+01  0.19961839505E+02  0.45966394652E+01  0.20872871397E+02  0.00000000000E+00 0.  1.
</event>
<event>
 7    1  0.6316620E-012  0.5930216E+02  0.7816164E-02  0.1266604E+00
        -11   -1    0    0    0    0  0.00000000000E+00  0.00000000000E+00  0.45593999997E+02  0.45594000000E+02  0.51100000000E-03 0.  1.
         11   -1    0    0    0    0 -0.00000000000E+00 -0.00000000000E+00 -0.45593999997E+02  0.45594000000E+02  0.51100000000E-03 0. -1.
    9900012    2    1    2    0    0 -0.21295613032E+02  0.23532151182E+02 -0.30727530562E+01  0.59302155413E+02  0.50000385515E+02 0.  0.
         12    1    1    2    0    0  0.21295613032E+02 -0.23532151182E+02  0.30727530562E+01  0.31885844587E+02  0.00000000000E+00 0. -1.
         11    1    3    3    0    0 -0.32796660404E+02  0.20206032850E+02 -0.11108356059E+02  0.40091149544E+02  0.51100000000E-03 0.  1.
        -11    1    3    3    0    0  0.11725291637E+01 -0.37156147526E+01 -0.70264148647E+00  0.39590810738E+01  0.51100000000E-03 0. -1.
        -12    1    3    3    0    0  0.10328518208E+02  0.70417330846E+01  0.87382444891E+01  0.15251924795E+02  0.00000000000E+00 0.  1.
</event>
<event>
 7    1  0.6316620E-012  0.5930200E+02  0.7816164E-02  0.1266605E+00
        -11   -1    0    0    0    0  0.00000000000E+00  0.00000000000E+00  0.45593999997E+02  0.45594000000E+02  0.51100000000E-03 0.  1.
         11   -1    0    0    0    0 -0.00000000000E+00 -0.00000000000E+00 -0.45593999997E+02  0.45594000000E+02  0.51100000000E-03 0. -1.
    9900012    2    1    2    0    0 -0.21964829348E+02  0.15856268303E+02  0.16817911346E+02  0.59301998136E+02  0.50000098681E+02 0.  0.
         12    1    1    2    0    0  0.21964829348E+02 -0.15856268303E+02 -0.16817911346E+02  0.31886001864E+02  0.00000000000E+00 0. -1.
         11    1    3    3    0    0 -0.18232495263E+02  0.66589112867E+01  0.53581916322E+01  0.20136414797E+02  0.51100000000E-03 0. -1.
        -11    1    3    3    0    0 -0.16029256225E+02  0.87237989635E+01  0.17651783803E+02  0.25389509550E+02  0.51100000000E-03 0.  1.
         12    1    3    3    0    0  0.12296922141E+02  0.47355805323E+00 -0.61920640893E+01  0.13776073789E+02  0.00000000000E+00 0. -1.
</event>
<event>
 7    1  0.6316620E-012  0.5930196E+02  0.7816164E-02  0.1266605E+00
        -11   -1    0    0    0    0  0.00000000000E+00  0.00000000000E+00  0.45593999997E+02  0.45594000000E+02  0.51100000000E-03 0.  1.
         11   -1    0    0    0    0 -0.00000000000E+00 -0.00000000000E+00 -0.45593999997E+02  0.45594000000E+02  0.51100000000E-03 0. -1.
    9900012    2    1    2    0    0  0.13294448715E+02  0.25707666593E+02  0.13382565672E+02  0.59301959916E+02  0.50000028976E+02 0.  0.
         12    1    1    2    0    0 -0.13294448715E+02 -0.25707666593E+02 -0.13382565672E+02  0.31886040084E+02  0.00000000000E+00 0. -1.
         11    1    3    3    0    0  0.11840152077E+02  0.29188273071E+02  0.20706976829E+02  0.37695137296E+02  0.51100000000E-03 0. -1.
        -11    1    3    3    0    0  0.55948090394E+01 -0.31833982276E+01  0.52868844306E+01  0.83298895375E+01  0.51100000000E-03 0.  1.
         12    1    3    3    0    0 -0.41405124013E+01 -0.29720825096E+00 -0.12611295587E+02  0.13276933083E+02  0.00000000000E+00 0. -1.
</event>
<event>
 7    1  0.6316620E-012  0.5930194E+02  0.7816164E-02  0.1266605E+00
        -11   -1    0    0    0    0  0.00000000000E+00  0.00000000000E+00  0.45593999997E+02  0.45594000000E+02  0.51100000000E-03 0. -1.
         11   -1    0    0    0    0 -0.00000000000E+00 -0.00000000000E+00 -0.45593999997E+02  0.45594000000E+02  0.51100000000E-03 0.  1.
    9900012    2    1    2    0    0 -0.24997645064E+02 -0.15670605024E+02 -0.12094247441E+02  0.59301938128E+02  0.49999989240E+02 0.  0.
         12    1    1    2    0    0  0.24997645064E+02  0.15670605024E+02  0.12094247441E+02  0.31886061872E+02  0.00000000000E+00 0. -1.
         11    1    3    3    0    0 -0.14399386046E+02 -0.21687048224E+02  0.82150445756E-01  0.26032232485E+02  0.51100000000E-03 0. -1.
        -11    1    3    3    0    0 -0.17646773331E+02 -0.17313401783E+01 -0.14057553666E+02  0.22627880218E+02  0.51100000000E-03 0.  1.
        -12    1    3    3    0    0  0.70485143134E+01  0.77477833786E+01  0.18811557792E+01  0.10641825425E+02  0.00000000000E+00 0.  1.
</event>
<event>
 7    1  0.6316620E-012  0.5930195E+02  0.7816164E-02  0.1266605E+00
        -11   -1    0    0    0    0  0.00000000000E+00  0.00000000000E+00  0.45593999997E+02  0.45594000000E+02  0.51100000000E-03 0. -1.
         11   -1    0    0    0    0 -0.00000000000E+00 -0.00000000000E+00 -0.45593999997E+02  0.45594000000E+02  0.51100000000E-03 0.  1.
    9900012    2    1    2    0    0  0.27077370684E+02 -0.72363746187E+01 -0.15204308278E+02  0.59301951154E+02  0.50000012997E+02 0.  0.
         12    1    1    2    0    0 -0.27077370684E+02  0.72363746187E+01  0.15204308278E+02  0.31886048846E+02  0.00000000000E+00 0. -1.
         11    1    3    3    0    0  0.59241659171E+01 -0.13457865985E+02  0.80363367778E+01  0.16756867481E+02  0.51100000000E-03 0. -1.
        -11    1    3    3    0    0  0.26578626495E+01  0.17613107427E+01  0.64998183780E+01  0.72397574963E+01  0.51100000000E-03 0.  1.
        -12    1    3    3    0    0  0.18495342117E+02  0.44601806241E+01 -0.29740463434E+02  0.35305326177E+02  0.00000000000E+00 0.  1.
</event>
<event>
 7    1  0.6316620E-012  0.5930196E+02  0.7816164E-02  0.1266605E+00
        -11   -1    0    0    0    0  0.00000000000E+00  0.00000000000E+00  0.45593999997E+02  0.45594000000E+02  0.51100000000E-03 0.  1.
         11   -1    0    0    0    0 -0.00000000000E+00 -0.00000000000E+00 -0.45593999997E+02  0.45594000000E+02  0.51100000000E-03 0. -1.
    9900012    2    1    2    0    0  0.25405297425E+02 -0.12778347080E+02  0.14422357639E+02  0.59301957737E+02  0.50000025003E+02 0.  0.
         12    1    1    2    0    0 -0.25405297425E+02  0.12778347080E+02 -0.14422357639E+02  0.31886042263E+02  0.00000000000E+00 0. -1.
         11    1    3    3    0    0  0.26861379695E+02  0.27704970349E+01  0.12099140074E+01  0.27030968631E+02  0.51100000000E-03 0. -1.
        -11    1    3    3    0    0  0.61249385874E+01 -0.16623738006E+02  0.85892314791E+00  0.17737003333E+02  0.51100000000E-03 0.  1.
        -12    1    3    3    0    0 -0.75810208579E+01  0.10748938912E+01  0.12353520484E+02  0.14533985773E+02  0.00000000000E+00 0.  1.
</event>
<event>
 7    1  0.6316620E-012  0.5930186E+02  0.7816164E-02  0.1266605E+00
        -11   -1    0    0    0    0  0.00000000000E+00  0.00000000000E+00  0.45593999997E+02  0.45594000000E+02  0.51100000000E-03 0. -1.
         11   -1    0    0    0    0 -0.00000000000E+00 -0.00000000000E+00 -0.45593999997E+02  0.45594000000E+02  0.51100000000E-03 0.  1.
    9900012    2    1    2    0    0 -0.13549666644E+02 -0.14749943322E+02 -0.24810722147E+02  0.59301855241E+02  0.49999838073E+02 0.  0.
         12    1    1    2    0    0  0.13549666644E+02  0.14749943322E+02  0.24810722147E+02  0.31886144759E+02  0.00000000000E+00 0. -1.
         11    1    3    3    0    0  0.11534733818E+02 -0.86178829343E+01  0.77340940318E+00  0.14419297934E+02  0.51100000000E-03 0. -1.
        -11    1    3    3    0    0 -0.81017915898E+01 -0.14929345211E+02 -0.75260083258E+01  0.18578621504E+02  0.51100000000E-03 0.  1.
         12    1    3    3    0    0 -0.16982608872E+02  0.87972848230E+01 -0.18058123224E+02  0.26303935803E+02  0.00000000000E+00 0. -1.
</event>
<event>
 7    1  0.6316620E-012  0.5930186E+02  0.7816164E-02  0.1266605E+00
        -11   -1    0    0    0    0  0.00000000000E+00  0.00000000000E+00  0.45593999997E+02  0.45594000000E+02  0.51100000000E-03 0.  1.
         11   -1    0    0    0    0 -0.00000000000E+00 -0.00000000000E+00 -0.45593999997E+02  0.45594000000E+02  0.51100000000E-03 0. -1.
    9900012    2    1    2    0    0 -0.22560483165E+02  0.19820619059E+02  0.10718830897E+02  0.59301863885E+02  0.49999853839E+02 0.  0.
         12    1    1    2    0    0  0.22560483165E+02 -0.19820619059E+02 -0.10718830897E+02  0.31886136115E+02  0.00000000000E+00 0. -1.
         11    1    3    3    0    0  0.43838945553E+01  0.59340322914E+01  0.80730298085E-01  0.73781968224E+01  0.51100000000E-03 0.  1.
        -11    1    3    3    0    0 -0.26555004095E+02  0.14706650772E+02  0.23897355264E+02  0.38633371691E+02  0.51100000000E-03 0. -1.
         12    1    3    3    0    0 -0.38937362557E+00 -0.82006400369E+00 -0.13259254665E+02  0.13290295371E+02  0.00000000000E+00 0. -1.
</event>
<event>
 7    1  0.6316620E-012  0.5930192E+02  0.7816164E-02  0.1266605E+00
        -11   -1    0    0    0    0  0.00000000000E+00  0.00000000000E+00  0.45593999997E+02  0.45594000000E+02  0.51100000000E-03 0. -1.
         11   -1    0    0    0    0 -0.00000000000E+00 -0.00000000000E+00 -0.45593999997E+02  0.45594000000E+02  0.51100000000E-03 0.  1.
    9900012    2    1    2    0    0  0.22645801681E+02 -0.29014125724E+01 -0.22259197117E+02  0.59301915496E+02  0.49999947965E+02 0.  0.
         12    1    1    2    0    0 -0.22645801681E+02  0.29014125724E+01  0.22259197117E+02  0.31886084504E+02  0.00000000000E+00 0. -1.
         11    1    3    3    0    0 -0.79333163079E+00 -0.33158214876E+01 -0.11825814316E+02  0.12307474627E+02  0.51100000000E-03 0. -1.
        -11    1    3    3    0    0  0.20006267510E+02  0.13038212009E+02 -0.19704734767E+02  0.30960011056E+02  0.51100000000E-03 0.  1.
         12    1    3    3    0    0  0.34328658019E+01 -0.12623803094E+02  0.92713519648E+01  0.16034429813E+02  0.00000000000E+00 0. -1.
</event>
<event>
 7    1  0.6316620E-012  0.5930195E+02  0.7816164E-02  0.1266605E+00
        -11   -1    0    0    0    0  0.00000000000E+00  0.00000000000E+00  0.45593999997E+02  0.45594000000E+02  0.51100000000E-03 0.  1.
         11   -1    0    0    0    0 -0.00000000000E+00 -0.00000000000E+00 -0.45593999997E+02  0.45594000000E+02  0.51100000000E-03 0. -1.
    9900012    2    1    2    0    0  0.12970591645E+02  0.26697359678E+02  0.11650525471E+02  0.59301952814E+02  0.50000016023E+02 0.  0.
         12    1    1    2    0    0 -0.12970591645E+02 -0.26697359678E+02 -0.11650525471E+02  0.31886047186E+02  0.00000000000E+00 0. -1.
         11    1    3    3    0    0 -0.57433533139E+00 -0.12807364604E+00  0.16488113915E+02  0.16498610992E+02  0.51100000000E-03 0. -1.
        -11    1    3    3    0    0  0.82547635604E+01 -0.37960858065E+01  0.47898599746E+01  0.10271034404E+02  0.51100000000E-03 0.  1.
         12    1    3    3    0    0  0.52901634161E+01  0.30621519131E+02 -0.96274484184E+01  0.32532307417E+02  0.00000000000E+00 0. -1.
</event>
<event>
 7    1  0.6316620E-012  0.5930198E+02  0.7816164E-02  0.1266605E+00
        -11   -1    0    0    0    0  0.00000000000E+00  0.00000000000E+00  0.45593999997E+02  0.45594000000E+02  0.51100000000E-03 0.  1.
         11   -1    0    0    0    0 -0.00000000000E+00 -0.00000000000E+00 -0.45593999997E+02  0.45594000000E+02  0.51100000000E-03 0. -1.
    9900012    2    1    2    0    0  0.12139908204E+02  0.27505358333E+02  0.10620542731E+02  0.59301983690E+02  0.50000072335E+02 0.  0.
         12    1    1    2    0    0 -0.12139908204E+02 -0.27505358333E+02 -0.10620542731E+02  0.31886016310E+02  0.00000000000E+00 0. -1.
         11    1    3    3    0    0  0.48974972409E+00  0.27887006229E+01 -0.81055980385E+01  0.85858852648E+01  0.51100000000E-03 0. -1.
        -11    1    3    3    0    0  0.14149643580E+02 -0.66530162618E+01  0.54035250234E+01  0.16543068692E+02  0.51100000000E-03 0.  1.
         12    1    3    3    0    0 -0.24994851002E+01  0.31369673971E+02  0.13322615746E+02  0.34173029733E+02  0.00000000000E+00 0. -1.
</event>
<event>
 7    1  0.6316620E-012  0.5930210E+02  0.7816164E-02  0.1266604E+00
        -11   -1    0    0    0    0  0.00000000000E+00  0.00000000000E+00  0.45593999997E+02  0.45594000000E+02  0.51100000000E-03 0. -1.
         11   -1    0    0    0    0 -0.00000000000E+00 -0.00000000000E+00 -0.45593999997E+02  0.45594000000E+02  0.51100000000E-03 0.  1.
    9900012    2    1    2    0    0 -0.24073314816E+02  0.75316998457E+01 -0.19505371580E+02  0.59302101718E+02  0.50000287589E+02 0.  0.
         12    1    1    2    0    0  0.24073314816E+02 -0.75316998457E+01  0.19505371580E+02  0.31885898282E+02  0.00000000000E+00 0. -1.
         11    1    3    3    0    0  0.27144901295E+01  0.17445602447E+00 -0.10692638082E+02  0.11033195412E+02  0.51100000000E-03 0. -1.
        -11    1    3    3    0    0 -0.64203619605E+01  0.15759198923E+02 -0.17661910813E+02  0.24525833160E+02  0.51100000000E-03 0.  1.
         12    1    3    3    0    0 -0.20367442985E+02 -0.84019551013E+01  0.88491773157E+01  0.23743073146E+02  0.00000000000E+00 0. -1.
</event>
<event>
 7    1  0.6316620E-012  0.5930201E+02  0.7816164E-02  0.1266605E+00
        -11   -1    0    0    0    0  0.00000000000E+00  0.00000000000E+00  0.45593999997E+02  0.45594000000E+02  0.51100000000E-03 0.  1.
         11   -1    0    0    0    0 -0.00000000000E+00 -0.00000000000E+00 -0.45593999997E+02  0.45594000000E+02  0.51100000000E-03 0. -1.
    9900012    2    1    2    0    0 -0.22757441926E+02  0.40184959070E+01  0.21969683576E+02  0.59302008267E+02  0.50000117157E+02 0.  0.
         12    1    1    2    0    0  0.22757441926E+02 -0.40184959070E+01 -0.21969683576E+02  0.31885991733E+02  0.00000000000E+00 0. -1.
         11    1    3    3    0    0 -0.17975974223E+02  0.17609182163E+02  0.53289867807E+01  0.25721917621E+02  0.51100000000E-03 0. -1.
        -11    1    3    3    0    0 -0.10335939872E+02  0.19324127536E+01  0.12956705858E+02  0.16686584404E+02  0.51100000000E-03 0.  1.
        -12    1    3    3    0    0  0.55544721700E+01 -0.15523099010E+02  0.36839909369E+01  0.16893506243E+02  0.00000000000E+00 0.  1.
</event>
<event>
 7    1  0.6316620E-012  0.5930191E+02  0.7816164E-02  0.1266605E+00
        -11   -1    0    0    0    0  0.00000000000E+00  0.00000000000E+00  0.45593999997E+02  0.45594000000E+02  0.51100000000E-03 0. -1.
         11   -1    0    0    0    0 -0.00000000000E+00 -0.00000000000E+00 -0.45593999997E+02  0.45594000000E+02  0.51100000000E-03 0.  1.
    9900012    2    1    2    0    0 -0.12359776473E+02  0.14785426024E+02 -0.25403737806E+02  0.59301909119E+02  0.49999936335E+02 0.  0.
         12    1    1    2    0    0  0.12359776473E+02 -0.14785426024E+02  0.25403737806E+02  0.31886090881E+02  0.00000000000E+00 0. -1.
         11    1    3    3    0    0  0.10171178891E+01  0.45616312170E+01  0.43160470127E+01  0.63617034069E+01  0.51100000000E-03 0. -1.
        -11    1    3    3    0    0  0.12925027089E+02 -0.29797166514E+01 -0.39966931781E+01  0.13853107709E+02  0.51100000000E-03 0.  1.
         12    1    3    3    0    0 -0.26301921451E+02  0.13203511458E+02 -0.25723091640E+02  0.39087098004E+02  0.00000000000E+00 0. -1.
</event>
<event>
 7    1  0.6316620E-012  0.5930192E+02  0.7816164E-02  0.1266605E+00
        -11   -1    0    0    0    0  0.00000000000E+00  0.00000000000E+00  0.45593999997E+02  0.45594000000E+02  0.51100000000E-03 0.  1.
         11   -1    0    0    0    0 -0.00000000000E+00 -0.00000000000E+00 -0.45593999997E+02  0.45594000000E+02  0.51100000000E-03 0. -1.
    9900012    2    1    2    0    0 -0.22234407408E+02  0.17519489831E+02  0.14677212875E+02  0.59301921933E+02  0.49999959704E+02 0.  0.
         12    1    1    2    0    0  0.22234407408E+02 -0.17519489831E+02 -0.14677212875E+02  0.31886078067E+02  0.00000000000E+00 0. -1.
         11    1    3    3    0    0 -0.78599303569E+01  0.82521354280E+01  0.20169554621E+02  0.23166509841E+02  0.51100000000E-03 0. -1.
        -11    1    3    3    0    0 -0.34739401003E+01 -0.86684938368E+01  0.70355688634E+01  0.11692316910E+02  0.51100000000E-03 0.  1.
        -12    1    3    3    0    0 -0.10900536951E+02  0.17935848239E+02 -0.12527910609E+02  0.24443095183E+02  0.00000000000E+00 0.  1.
</event>
<event>
 7    1  0.6316620E-012  0.5930195E+02  0.7816164E-02  0.1266605E+00
        -11   -1    0    0    0    0  0.00000000000E+00  0.00000000000E+00  0.45593999997E+02  0.45594000000E+02  0.51100000000E-03 0. -1.
         11   -1    0    0    0    0 -0.00000000000E+00 -0.00000000000E+00 -0.45593999997E+02  0.45594000000E+02  0.51100000000E-03 0.  1.
    9900012    2    1    2    0    0 -0.28146795511E+02  0.62808445209E+01 -0.13602539392E+02  0.59301950020E+02  0.50000010928E+02 0.  0.
         12    1    1    2    0    0  0.28146795511E+02 -0.62808445209E+01  0.13602539392E+02  0.31886049980E+02  0.00000000000E+00 0. -1.
         11    1    3    3    0    0 -0.32365085893E+01  0.89294649722E+01  0.92439559648E+01  0.13253718523E+02  0.51100000000E-03 0. -1.
        -11    1    3    3    0    0  0.58109566417E+01 -0.63688327734E+01 -0.23697363300E+01  0.89411911132E+01  0.51100000000E-03 0.  1.
        -12    1    3    3    0    0 -0.30721243564E+02  0.37202123222E+01 -0.20476759027E+02  0.37107040384E+02  0.00000000000E+00 0.  1.
</event>
<event>
 7    1  0.6316620E-012  0.5930183E+02  0.7816164E-02  0.1266605E+00
        -11   -1    0    0    0    0  0.00000000000E+00  0.00000000000E+00  0.45593999997E+02  0.45594000000E+02  0.51100000000E-03 0. -1.
         11   -1    0    0    0    0 -0.00000000000E+00 -0.00000000000E+00 -0.45593999997E+02  0.45594000000E+02  0.51100000000E-03 0.  1.
    9900012    2    1    2    0    0  0.31224197399E+02 -0.61866932541E+01 -0.18714488680E+01  0.59301827487E+02  0.49999787458E+02 0.  0.
         12    1    1    2    0    0 -0.31224197399E+02  0.61866932541E+01  0.18714488680E+01  0.31886172513E+02  0.00000000000E+00 0. -1.
         11    1    3    3    0    0  0.21040230432E+02  0.65330652127E+01  0.30634426360E+01  0.22243131945E+02  0.51100000000E-03 0. -1.
        -11    1    3    3    0    0  0.12144888840E+02 -0.96017325794E+01  0.12087861835E+02  0.19641995761E+02  0.51100000000E-03 0.  1.
        -12    1    3    3    0    0 -0.19609218725E+01 -0.31180258874E+01 -0.17022753339E+02  0.17416699781E+02  0.00000000000E+00 0.  1.
</event>
<event>
 7    1  0.6316620E-012  0.5930192E+02  0.7816164E-02  0.1266605E+00
        -11   -1    0    0    0    0  0.00000000000E+00  0.00000000000E+00  0.45593999997E+02  0.45594000000E+02  0.51100000000E-03 0. -1.
         11   -1    0    0    0    0 -0.00000000000E+00 -0.00000000000E+00 -0.45593999997E+02  0.45594000000E+02  0.51100000000E-03 0.  1.
    9900012    2    1    2    0    0  0.88919608935E+01  0.12938089286E+02 -0.27753577544E+02  0.59301918563E+02  0.49999953558E+02 0.  0.
         12    1    1    2    0    0 -0.88919608935E+01 -0.12938089286E+02  0.27753577544E+02  0.31886081437E+02  0.00000000000E+00 0. -1.
         11    1    3    3    0    0 -0.77161236303E+01 -0.61755117474E+01  0.25384505316E+01  0.10203883603E+02  0.51100000000E-03 0. -1.
        -11    1    3    3    0    0 -0.30551466251E+01 -0.12223932670E+01 -0.17925947196E+02  0.18225469798E+02  0.51100000000E-03 0.  1.
        -12    1    3    3    0    0  0.19663231149E+02  0.20335994300E+02 -0.12366080880E+02  0.30872565162E+02  0.00000000000E+00 0.  1.
</event>
<event>
 7    1  0.6316620E-012  0.5930199E+02  0.7816164E-02  0.1266605E+00
        -11   -1    0    0    0    0  0.00000000000E+00  0.00000000000E+00  0.45593999997E+02  0.45594000000E+02  0.51100000000E-03 0. -1.
         11   -1    0    0    0    0 -0.00000000000E+00 -0.00000000000E+00 -0.45593999997E+02  0.45594000000E+02  0.51100000000E-03 0.  1.
    9900012    2    1    2    0    0 -0.42987449670E+01 -0.30906995291E+02  0.65571504031E+01  0.59301987587E+02  0.50000079441E+02 0.  0.
         12    1    1    2    0    0  0.42987449670E+01  0.30906995291E+02 -0.65571504031E+01  0.31886012413E+02  0.00000000000E+00 0. -1.
         11    1    3    3    0    0  0.12476983965E+02  0.32426927456E+01 -0.15474793233E+01  0.12984023938E+02  0.51100000000E-03 0. -1.
        -11    1    3    3    0    0 -0.78110529791E+01 -0.94219065600E+00 -0.52081001953E+01  0.94352837678E+01  0.51100000000E-03 0.  1.
        -12    1    3    3    0    0 -0.89646759528E+01 -0.33207497381E+02  0.13312729922E+02  0.36882679881E+02  0.00000000000E+00 0.  1.
</event>
<event>
 7    1  0.6316620E-012  0.5930171E+02  0.7816164E-02  0.1266606E+00
        -11   -1    0    0    0    0  0.00000000000E+00  0.00000000000E+00  0.45593999997E+02  0.45594000000E+02  0.51100000000E-03 0.  1.
         11   -1    0    0    0    0 -0.00000000000E+00 -0.00000000000E+00 -0.45593999997E+02  0.45594000000E+02  0.51100000000E-03 0. -1.
    9900012    2    1    2    0    0 -0.21436697859E+02 -0.22190099441E+02  0.80500437819E+01  0.59301706186E+02  0.49999566232E+02 0.  0.
         12    1    1    2    0    0  0.21436697859E+02  0.22190099441E+02 -0.80500437819E+01  0.31886293814E+02  0.00000000000E+00 0. -1.
         11    1    3    3    0    0 -0.17684880930E+02  0.21189294597E+00 -0.50669347285E+01  0.18397655827E+02  0.51100000000E-03 0. -1.
        -11    1    3    3    0    0  0.47919281101E+01 -0.16598616515E+00  0.16190603319E+02  0.16885667369E+02  0.51100000000E-03 0.  1.
         12    1    3    3    0    0 -0.85437450389E+01 -0.22236006222E+02 -0.30736248082E+01  0.24018382990E+02  0.00000000000E+00 0. -1.
</event>
<event>
 7    1  0.6316620E-012  0.5930193E+02  0.7816164E-02  0.1266605E+00
        -11   -1    0    0    0    0  0.00000000000E+00  0.00000000000E+00  0.45593999997E+02  0.45594000000E+02  0.51100000000E-03 0.  1.
         11   -1    0    0    0    0 -0.00000000000E+00 -0.00000000000E+00 -0.45593999997E+02  0.45594000000E+02  0.51100000000E-03 0. -1.
    9900012    2    1    2    0    0 -0.31717713516E+02 -0.18522733928E+01 -0.26976518643E+01  0.59301927916E+02  0.49999970616E+02 0.  0.
         12    1    1    2    0    0  0.31717713516E+02  0.18522733928E+01  0.26976518643E+01  0.31886072084E+02  0.00000000000E+00 0. -1.
         11    1    3    3    0    0 -0.14140309437E+02  0.15298012243E+02  0.32371623221E+01  0.21082142911E+02  0.51100000000E-03 0. -1.
        -11    1    3    3    0    0 -0.15180161273E+02 -0.16577932034E+00  0.70189354802E+01  0.16725137805E+02  0.51100000000E-03 0.  1.
         12    1    3    3    0    0 -0.23972428058E+01 -0.16984506315E+02 -0.12953749667E+02  0.21494647200E+02  0.00000000000E+00 0. -1.
</event>
<event>
 7    1  0.6316620E-012  0.5930204E+02  0.7816164E-02  0.1266604E+00
        -11   -1    0    0    0    0  0.00000000000E+00  0.00000000000E+00  0.45593999997E+02  0.45594000000E+02  0.51100000000E-03 0. -1.
         11   -1    0    0    0    0 -0.00000000000E+00 -0.00000000000E+00 -0.45593999997E+02  0.45594000000E+02  0.51100000000E-03 0.  1.
    9900012    2    1    2    0    0 -0.28124728227E+01 -0.24808167757E+02 -0.19833291621E+02  0.59302036829E+02  0.50000169247E+02 0.  0.
         12    1    1    2    0    0  0.28124728227E+01  0.24808167757E+02  0.19833291621E+02  0.31885963171E+02  0.00000000000E+00 0. -1.
         11    1    3    3    0    0  0.23588768886E+01  0.38473230533E+01  0.24621921471E+01  0.51408739804E+01  0.51100000000E-03 0. -1.
        -11    1    3    3    0    0 -0.10139539674E+02  0.33069076929E+01  0.50542284806E+01  0.11802166288E+02  0.51100000000E-03 0.  1.
        -12    1    3    3    0    0  0.49681899624E+01 -0.31962398503E+02 -0.27349712249E+02  0.42358996561E+02  0.00000000000E+00 0.  1.
</event>
<event>
 7    1  0.6316620E-012  0.5930195E+02  0.7816164E-02  0.1266605E+00
        -11   -1    0    0    0    0  0.00000000000E+00  0.00000000000E+00  0.45593999997E+02  0.45594000000E+02  0.51100000000E-03 0. -1.
         11   -1    0    0    0    0 -0.00000000000E+00 -0.00000000000E+00 -0.45593999997E+02  0.45594000000E+02  0.51100000000E-03 0.  1.
    9900012    2    1    2    0    0 -0.13871489662E+02  0.19985445089E+02 -0.20612713352E+02  0.59301949875E+02  0.50000010664E+02 0.  0.
         12    1    1    2    0    0  0.13871489662E+02 -0.19985445089E+02  0.20612713352E+02  0.31886050125E+02  0.00000000000E+00 0. -1.
         11    1    3    3    0    0 -0.99947488642E+01 -0.87399105069E+01 -0.17249476873E+02  0.21767533007E+02  0.51100000000E-03 0. -1.
        -11    1    3    3    0    0  0.12641308394E+01  0.88892998848E+01 -0.12258973010E+02  0.15195397288E+02  0.51100000000E-03 0.  1.
        -12    1    3    3    0    0 -0.51408716376E+01  0.19836055711E+02  0.88957365314E+01  0.22339019580E+02  0.00000000000E+00 0.  1.
</event>
<event>
 7    1  0.6316620E-012  0.5930203E+02  0.7816164E-02  0.1266604E+00
        -11   -1    0    0    0    0  0.00000000000E+00  0.00000000000E+00  0.45593999997E+02  0.45594000000E+02  0.51100000000E-03 0. -1.
         11   -1    0    0    0    0 -0.00000000000E+00 -0.00000000000E+00 -0.45593999997E+02  0.45594000000E+02  0.51100000000E-03 0.  1.
    9900012    2    1    2    0    0 -0.15273548406E+02 -0.10527924005E+02 -0.25934473722E+02  0.59302025152E+02  0.50000147951E+02 0.  0.
         12    1    1    2    0    0  0.15273548406E+02  0.10527924005E+02  0.25934473722E+02  0.31885974848E+02  0.00000000000E+00 0. -1.
         11    1    3    3    0    0  0.10934068730E+01  0.32821246301E+01  0.43804154900E+01  0.55817489019E+01  0.51100000000E-03 0. -1.
        -11    1    3    3    0    0 -0.22191892595E+02 -0.73298060715E+01 -0.36283263847E+02  0.43158792727E+02  0.51100000000E-03 0.  1.
         12    1    3    3    0    0  0.58249373161E+01 -0.64802425640E+01  0.59683746347E+01  0.10561483523E+02  0.00000000000E+00 0. -1.
</event>
<event>
 7    1  0.6316620E-012  0.5930197E+02  0.7816164E-02  0.1266605E+00
        -11   -1    0    0    0    0  0.00000000000E+00  0.00000000000E+00  0.45593999997E+02  0.45594000000E+02  0.51100000000E-03 0. -1.
         11   -1    0    0    0    0 -0.00000000000E+00 -0.00000000000E+00 -0.45593999997E+02  0.45594000000E+02  0.51100000000E-03 0.  1.
    9900012    2    1    2    0    0 -0.24758114833E+02 -0.15891555218E+02 -0.12296884015E+02  0.59301966477E+02  0.50000040942E+02 0.  0.
         12    1    1    2    0    0  0.24758114833E+02  0.15891555218E+02  0.12296884015E+02  0.31886033523E+02  0.00000000000E+00 0. -1.
         11    1    3    3    0    0  0.65898591042E+01 -0.13997267459E+02 -0.97635152455E+01  0.18294151239E+02  0.51100000000E-03 0. -1.
        -11    1    3    3    0    0 -0.12592016725E+02 -0.11195180730E+02 -0.89925410903E+01  0.19098606031E+02  0.51100000000E-03 0.  1.
         12    1    3    3    0    0 -0.18755957213E+02  0.93008929714E+01  0.64591723206E+01  0.21909209207E+02  0.00000000000E+00 0. -1.
</event>
<event>
 7    1  0.6316620E-012  0.5930186E+02  0.7816164E-02  0.1266605E+00
        -11   -1    0    0    0    0  0.00000000000E+00  0.00000000000E+00  0.45593999997E+02  0.45594000000E+02  0.51100000000E-03 0. -1.
         11   -1    0    0    0    0 -0.00000000000E+00 -0.00000000000E+00 -0.45593999997E+02  0.45594000000E+02  0.51100000000E-03 0.  1.
    9900012    2    1    2    0    0  0.68782573943E+01 -0.12620569199E+02 -0.28462903412E+02  0.59301857832E+02  0.49999842800E+02 0.  0.
         12    1    1    2    0    0 -0.68782573943E+01  0.12620569199E+02  0.28462903412E+02  0.31886142168E+02  0.00000000000E+00 0. -1.
         11    1    3    3    0    0 -0.71756705638E+01  0.29477184163E+01 -0.26916564752E-02  0.77575317858E+01  0.51100000000E-03 0. -1.
        -11    1    3    3    0    0 -0.81358825907E+01 -0.14006173521E+02 -0.10334173033E+01  0.16230632576E+02  0.51100000000E-03 0.  1.
        -12    1    3    3    0    0  0.22189810549E+02 -0.15621140950E+01 -0.27426794452E+02  0.35313693471E+02  0.00000000000E+00 0.  1.
</event>
<event>
 7    1  0.6316620E-012  0.5930193E+02  0.7816164E-02  0.1266605E+00
        -11   -1    0    0    0    0  0.00000000000E+00  0.00000000000E+00  0.45593999997E+02  0.45594000000E+02  0.51100000000E-03 0. -1.
         11   -1    0    0    0    0 -0.00000000000E+00 -0.00000000000E+00 -0.45593999997E+02  0.45594000000E+02  0.51100000000E-03 0.  1.
    9900012    2    1    2    0    0  0.67912577068E+01  0.30308435740E+02 -0.72110425655E+01  0.59301927914E+02  0.49999970612E+02 0.  0.
         12    1    1    2    0    0 -0.67912577068E+01 -0.30308435740E+02  0.72110425655E+01  0.31886072086E+02  0.00000000000E+00 0. -1.
         11    1    3    3    0    0  0.43936547143E+01  0.22652556725E+02  0.94085921192E+01  0.24919151949E+02  0.51100000000E-03 0. -1.
        -11    1    3    3    0    0  0.33842069524E+01  0.17101024087E+02 -0.17677819242E+02  0.24827468154E+02  0.51100000000E-03 0.  1.
        -12    1    3    3    0    0 -0.98660395990E+00 -0.94451450723E+01  0.10581845568E+01  0.95553078112E+01  0.00000000000E+00 0.  1.
</event>
<event>
 7    1  0.6316620E-012  0.5930206E+02  0.7816164E-02  0.1266604E+00
        -11   -1    0    0    0    0  0.00000000000E+00  0.00000000000E+00  0.45593999997E+02  0.45594000000E+02  0.51100000000E-03 0.  1.
         11   -1    0    0    0    0 -0.00000000000E+00 -0.00000000000E+00 -0.45593999997E+02  0.45594000000E+02  0.51100000000E-03 0. -1.
    9900012    2    1    2    0    0 -0.18004368410E+02  0.46612187724E+01 -0.25900364807E+02  0.59302060475E+02  0.50000212371E+02 0.  0.
         12    1    1    2    0    0  0.18004368410E+02 -0.46612187724E+01  0.25900364807E+02  0.31885939525E+02  0.00000000000E+00 0. -1.
         11    1    3    3    0    0 -0.75219988641E+01 -0.12344350674E+02 -0.43793370312E+01  0.15104372002E+02  0.51100000000E-03 0. -1.
        -11    1    3    3    0    0  0.11686213441E+02  0.65562074951E+01 -0.11722573577E+02  0.17803656165E+02  0.51100000000E-03 0.  1.
        -12    1    3    3    0    0 -0.22168582986E+02  0.10449361951E+02 -0.97984541987E+01  0.26394032308E+02  0.00000000000E+00 0.  1.
</event>
<event>
 7    1  0.6316620E-012  0.5930199E+02  0.7816164E-02  0.1266605E+00
        -11   -1    0    0    0    0  0.00000000000E+00  0.00000000000E+00  0.45593999997E+02  0.45594000000E+02  0.51100000000E-03 0. -1.
         11   -1    0    0    0    0 -0.00000000000E+00 -0.00000000000E+00 -0.45593999997E+02  0.45594000000E+02  0.51100000000E-03 0.  1.
    9900012    2    1    2    0    0  0.24712506063E+02 -0.62050790454E+01  0.19170464092E+02  0.59301989660E+02  0.50000083223E+02 0.  0.
         12    1    1    2    0    0 -0.24712506063E+02  0.62050790454E+01 -0.19170464092E+02  0.31886010340E+02  0.00000000000E+00 0. -1.
         11    1    3    3    0    0  0.63122283954E+01 -0.20009511685E+02  0.43190480753E+01  0.21421460307E+02  0.51100000000E-03 0. -1.
        -11    1    3    3    0    0  0.18920956620E+02  0.61290263844E+01 -0.13610724283E+01  0.19935397720E+02  0.51100000000E-03 0.  1.
        -12    1    3    3    0    0 -0.52067895254E+00  0.76754062547E+01  0.16212488445E+02  0.17945131633E+02  0.00000000000E+00 0.  1.
</event>
<event>
 7    1  0.6316620E-012  0.5930195E+02  0.7816164E-02  0.1266605E+00
        -11   -1    0    0    0    0  0.00000000000E+00  0.00000000000E+00  0.45593999997E+02  0.45594000000E+02  0.51100000000E-03 0. -1.
         11   -1    0    0    0    0 -0.00000000000E+00 -0.00000000000E+00 -0.45593999997E+02  0.45594000000E+02  0.51100000000E-03 0.  1.
    9900012    2    1    2    0    0 -0.35614332237E+01  0.27552166295E+02 -0.15649742233E+02  0.59301951231E+02  0.50000013138E+02 0.  0.
         12    1    1    2    0    0  0.35614332237E+01 -0.27552166295E+02  0.15649742233E+02  0.31886048769E+02  0.00000000000E+00 0. -1.
         11    1    3    3    0    0 -0.25986140690E+01 -0.22265031908E+01 -0.12023682754E+02  0.12501162297E+02  0.51100000000E-03 0. -1.
        -11    1    3    3    0    0  0.98689571616E+01  0.17627447565E+02 -0.16470513418E+02  0.26065322473E+02  0.51100000000E-03 0.  1.
         12    1    3    3    0    0 -0.10831776316E+02  0.12151221921E+02  0.12844453940E+02  0.20735466461E+02  0.00000000000E+00 0. -1.
</event>
<event>
 7    1  0.6316620E-012  0.5930197E+02  0.7816164E-02  0.1266605E+00
        -11   -1    0    0    0    0  0.00000000000E+00  0.00000000000E+00  0.45593999997E+02  0.45594000000E+02  0.51100000000E-03 0. -1.
         11   -1    0    0    0    0 -0.00000000000E+00 -0.00000000000E+00 -0.45593999997E+02  0.45594000000E+02  0.51100000000E-03 0.  1.
    9900012    2    1    2    0    0  0.27851209656E+02 -0.15227033389E+02 -0.30275878916E+01  0.59301973067E+02  0.50000052961E+02 0.  0.
         12    1    1    2    0    0 -0.27851209656E+02  0.15227033389E+02  0.30275878916E+01  0.31886026933E+02  0.00000000000E+00 0. -1.
         11    1    3    3    0    0 -0.68907838972E+01 -0.95151125226E+01 -0.70692714240E+01  0.13711122046E+02  0.51100000000E-03 0. -1.
        -11    1    3    3    0    0 -0.46728191748E+01  0.21749607402E+01 -0.28775136186E+00  0.51622179700E+01  0.51100000000E-03 0.  1.
        -12    1    3    3    0    0  0.39414812728E+02 -0.78868816065E+01  0.43294348943E+01  0.40428633051E+02  0.00000000000E+00 0.  1.
</event>
<event>
 7    1  0.6316620E-012  0.5930200E+02  0.7816164E-02  0.1266605E+00
        -11   -1    0    0    0    0  0.00000000000E+00  0.00000000000E+00  0.45593999997E+02  0.45594000000E+02  0.51100000000E-03 0. -1.
         11   -1    0    0    0    0 -0.00000000000E+00 -0.00000000000E+00 -0.45593999997E+02  0.45594000000E+02  0.51100000000E-03 0.  1.
    9900012    2    1    2    0    0 -0.12896438104E+02  0.22288258510E+02 -0.18805118890E+02  0.59301998688E+02  0.50000099688E+02 0.  0.
         12    1    1    2    0    0  0.12896438104E+02 -0.22288258510E+02  0.18805118890E+02  0.31886001312E+02  0.00000000000E+00 0. -1.
         11    1    3    3    0    0 -0.53498338164E+01 -0.38155786466E+00 -0.33091441228E+01  0.63021221310E+01  0.51100000000E-03 0. -1.
        -11    1    3    3    0    0  0.84349235134E+01  0.91490720511E+01 -0.26553843216E+02  0.29325075343E+02  0.51100000000E-03 0.  1.
         12    1    3    3    0    0 -0.15981527801E+02  0.13520744324E+02  0.11057868449E+02  0.23674801215E+02  0.00000000000E+00 0. -1.
</event>
<event>
 7    1  0.6316620E-012  0.5930195E+02  0.7816164E-02  0.1266605E+00
        -11   -1    0    0    0    0  0.00000000000E+00  0.00000000000E+00  0.45593999997E+02  0.45594000000E+02  0.51100000000E-03 0.  1.
         11   -1    0    0    0    0 -0.00000000000E+00 -0.00000000000E+00 -0.45593999997E+02  0.45594000000E+02  0.51100000000E-03 0. -1.
    9900012    2    1    2    0    0  0.14103381937E+02  0.68850375059E+00  0.28589169023E+02  0.59301952818E+02  0.50000016031E+02 0.  0.
         12    1    1    2    0    0 -0.14103381937E+02 -0.68850375059E+00 -0.28589169023E+02  0.31886047182E+02  0.00000000000E+00 0. -1.
         11    1    3    3    0    0  0.14056779826E+02  0.89258297470E+01  0.27122475240E+01  0.16870678192E+02  0.51100000000E-03 0. -1.
        -11    1    3    3    0    0  0.62677015109E+01 -0.27939107344E+01  0.31626229075E+02  0.32362144323E+02  0.51100000000E-03 0.  1.
         12    1    3    3    0    0 -0.62210993998E+01 -0.54434152620E+01 -0.57493075760E+01  0.10069130303E+02  0.00000000000E+00 0. -1.
</event>
<event>
 7    1  0.6316620E-012  0.5930193E+02  0.7816164E-02  0.1266605E+00
        -11   -1    0    0    0    0  0.00000000000E+00  0.00000000000E+00  0.45593999997E+02  0.45594000000E+02  0.51100000000E-03 0. -1.
         11   -1    0    0    0    0 -0.00000000000E+00 -0.00000000000E+00 -0.45593999997E+02  0.45594000000E+02  0.51100000000E-03 0.  1.
    9900012    2    1    2    0    0 -0.14211686830E+02 -0.23183053141E+02 -0.16652186399E+02  0.59301932394E+02  0.49999978784E+02 0.  0.
         12    1    1    2    0    0  0.14211686830E+02  0.23183053141E+02  0.16652186399E+02  0.31886067606E+02  0.00000000000E+00 0. -1.
         11    1    3    3    0    0 -0.83611124176E+01 -0.50511577476E+01 -0.18689143722E+02  0.21088065079E+02  0.51100000000E-03 0. -1.
        -11    1    3    3    0    0 -0.15070063834E+02 -0.14072681267E+02 -0.96661601205E+01  0.22772391919E+02  0.51100000000E-03 0.  1.
         12    1    3    3    0    0  0.92194894210E+01 -0.40592141260E+01  0.11703117444E+02  0.15441475396E+02  0.00000000000E+00 0. -1.
</event>
<event>
 7    1  0.6316620E-012  0.5930196E+02  0.7816164E-02  0.1266605E+00
        -11   -1    0    0    0    0  0.00000000000E+00  0.00000000000E+00  0.45593999997E+02  0.45594000000E+02  0.51100000000E-03 0. -1.
         11   -1    0    0    0    0 -0.00000000000E+00 -0.00000000000E+00 -0.45593999997E+02  0.45594000000E+02  0.51100000000E-03 0.  1.
    9900012    2    1    2    0    0 -0.39919103600E+01  0.22200630044E+02 -0.22536991896E+02  0.59301963458E+02  0.50000035436E+02 0.  0.
         12    1    1    2    0    0  0.39919103600E+01 -0.22200630044E+02  0.22536991896E+02  0.31886036542E+02  0.00000000000E+00 0. -1.
         11    1    3    3    0    0 -0.42579082344E+01  0.17616593136E+02 -0.30684439826E+01  0.18381770453E+02  0.51100000000E-03 0. -1.
        -11    1    3    3    0    0  0.14216316652E+02  0.12173095445E+02 -0.48473427362E+01  0.19333510900E+02  0.51100000000E-03 0.  1.
         12    1    3    3    0    0 -0.13950318777E+02 -0.75890585373E+01 -0.14621205177E+02  0.21586682105E+02  0.00000000000E+00 0. -1.
</event>
<event>
 7    1  0.6316620E-012  0.5930190E+02  0.7816164E-02  0.1266605E+00
        -11   -1    0    0    0    0  0.00000000000E+00  0.00000000000E+00  0.45593999997E+02  0.45594000000E+02  0.51100000000E-03 0. -1.
         11   -1    0    0    0    0 -0.00000000000E+00 -0.00000000000E+00 -0.45593999997E+02  0.45594000000E+02  0.51100000000E-03 0.  1.
    9900012    2    1    2    0    0  0.23687898198E+02 -0.39260575130E+01 -0.20980769698E+02  0.59301903567E+02  0.49999926209E+02 0.  0.
         12    1    1    2    0    0 -0.23687898198E+02  0.39260575130E+01  0.20980769698E+02  0.31886096433E+02  0.00000000000E+00 0. -1.
         11    1    3    3    0    0  0.34861472742E+01 -0.68726299344E+01 -0.42039002027E+01  0.87783279847E+01  0.51100000000E-03 0. -1.
        -11    1    3    3    0    0  0.31397098595E+02 -0.45866872942E+01 -0.18795737462E+02  0.36879469188E+02  0.51100000000E-03 0.  1.
         12    1    3    3    0    0 -0.11195347672E+02  0.75332597155E+01  0.20188679670E+01  0.13644106395E+02  0.00000000000E+00 0. -1.
</event>
<event>
 7    1  0.6316620E-012  0.5930194E+02  0.7816164E-02  0.1266605E+00
        -11   -1    0    0    0    0  0.00000000000E+00  0.00000000000E+00  0.45593999997E+02  0.45594000000E+02  0.51100000000E-03 0.  1.
         11   -1    0    0    0    0 -0.00000000000E+00 -0.00000000000E+00 -0.45593999997E+02  0.45594000000E+02  0.51100000000E-03 0. -1.
    9900012    2    1    2    0    0  0.20338728812E+01  0.29058600279E+02  0.12968504989E+02  0.59301937046E+02  0.49999987267E+02 0.  0.
         12    1    1    2    0    0 -0.20338728812E+01 -0.29058600279E+02 -0.12968504989E+02  0.31886062954E+02  0.00000000000E+00 0. -1.
         11    1    3    3    0    0 -0.84191789615E+00 -0.14719415690E-01  0.66455541237E+01  0.66986888476E+01  0.51100000000E-03 0. -1.
        -11    1    3    3    0    0  0.12792245733E+02 -0.19214132674E+01 -0.98543028949E+01  0.16261631703E+02  0.51100000000E-03 0.  1.
         12    1    3    3    0    0 -0.99164549558E+01  0.30994732962E+02  0.16177253760E+02  0.36341616495E+02  0.00000000000E+00 0. -1.
</event>
<event>
 7    1  0.6316620E-012  0.5930193E+02  0.7816164E-02  0.1266605E+00
        -11   -1    0    0    0    0  0.00000000000E+00  0.00000000000E+00  0.45593999997E+02  0.45594000000E+02  0.51100000000E-03 0.  1.
         11   -1    0    0    0    0 -0.00000000000E+00 -0.00000000000E+00 -0.45593999997E+02  0.45594000000E+02  0.51100000000E-03 0. -1.
    9900012    2    1    2    0    0 -0.55943448539E+01 -0.31300813991E+02  0.23840260479E+01  0.59301933591E+02  0.49999980966E+02 0.  0.
         12    1    1    2    0    0  0.55943448539E+01  0.31300813991E+02 -0.23840260479E+01  0.31886066409E+02  0.00000000000E+00 0. -1.
         11    1    3    3    0    0 -0.22283417309E+01 -0.33409474581E+02  0.21423314008E+02  0.39750684045E+02  0.51100000000E-03 0.  1.
        -11    1    3    3    0    0 -0.97533476657E+00  0.99505338202E+00 -0.11059819845E+02  0.11147242906E+02  0.51100000000E-03 0. -1.
        -12    1    3    3    0    0 -0.23906683565E+01  0.11136072080E+01 -0.79794681159E+01  0.84040066407E+01  0.00000000000E+00 0.  1.
</event>
<event>
 7    1  0.6316620E-012  0.5930196E+02  0.7816164E-02  0.1266605E+00
        -11   -1    0    0    0    0  0.00000000000E+00  0.00000000000E+00  0.45593999997E+02  0.45594000000E+02  0.51100000000E-03 0.  1.
         11   -1    0    0    0    0 -0.00000000000E+00 -0.00000000000E+00 -0.45593999997E+02  0.45594000000E+02  0.51100000000E-03 0. -1.
    9900012    2    1    2    0    0  0.73350223470E+01 -0.14140469469E+02  0.27621803311E+02  0.59301961554E+02  0.50000031964E+02 0.  0.
         12    1    1    2    0    0 -0.73350223470E+01  0.14140469469E+02 -0.27621803311E+02  0.31886038446E+02  0.00000000000E+00 0. -1.
         11    1    3    3    0    0  0.10197742975E+02 -0.95714533901E+01  0.12154372815E+02  0.18529313549E+02  0.51100000000E-03 0. -1.
        -11    1    3    3    0    0 -0.18347378717E+02 -0.10494766662E+02  0.90911740859E+01  0.23009039084E+02  0.51100000000E-03 0.  1.
         12    1    3    3    0    0  0.15484658089E+02  0.59257505829E+01  0.63762564095E+01  0.17763608921E+02  0.00000000000E+00 0. -1.
</event>
<event>
 7    1  0.6316620E-012  0.5930201E+02  0.7816164E-02  0.1266605E+00
        -11   -1    0    0    0    0  0.00000000000E+00  0.00000000000E+00  0.45593999997E+02  0.45594000000E+02  0.51100000000E-03 0.  1.
         11   -1    0    0    0    0 -0.00000000000E+00 -0.00000000000E+00 -0.45593999997E+02  0.45594000000E+02  0.51100000000E-03 0. -1.
    9900012    2    1    2    0    0  0.29767033381E+02 -0.10286834722E+02 -0.49820707171E+01  0.59302011329E+02  0.50000122741E+02 0.  0.
         12    1    1    2    0    0 -0.29767033381E+02  0.10286834722E+02  0.49820707171E+01  0.31885988671E+02  0.00000000000E+00 0. -1.
         11    1    3    3    0    0  0.26089151457E+00 -0.18126685497E+02  0.83104149772E+01  0.19942612388E+02  0.51100000000E-03 0. -1.
        -11    1    3    3    0    0  0.73928738193E+01  0.37928922459E+01  0.55787184921E+01  0.10008132452E+02  0.51100000000E-03 0.  1.
        -12    1    3    3    0    0  0.22113268047E+02  0.40469585295E+01 -0.18871204186E+02  0.29351266489E+02  0.00000000000E+00 0.  1.
</event>
<event>
 7    1  0.6316620E-012  0.5930195E+02  0.7816164E-02  0.1266605E+00
        -11   -1    0    0    0    0  0.00000000000E+00  0.00000000000E+00  0.45593999997E+02  0.45594000000E+02  0.51100000000E-03 0.  1.
         11   -1    0    0    0    0 -0.00000000000E+00 -0.00000000000E+00 -0.45593999997E+02  0.45594000000E+02  0.51100000000E-03 0. -1.
    9900012    2    1    2    0    0 -0.25767288715E+02  0.17682647555E+02  0.63317542519E+01  0.59301948125E+02  0.50000007473E+02 0.  0.
         12    1    1    2    0    0  0.25767288715E+02 -0.17682647555E+02 -0.63317542519E+01  0.31886051875E+02  0.00000000000E+00 0. -1.
         11    1    3    3    0    0  0.24351850767E+01  0.21993582348E+02 -0.15001040963E+01  0.22178775967E+02  0.51100000000E-03 0. -1.
        -11    1    3    3    0    0 -0.48822819087E+01  0.58738404438E+01  0.88064673318E+01  0.11657295798E+02  0.51100000000E-03 0.  1.
         12    1    3    3    0    0 -0.23320191883E+02 -0.10184775237E+02 -0.97460898365E+00  0.25465876360E+02  0.00000000000E+00 0. -1.
</event>
<event>
 7    1  0.6316620E-012  0.5930194E+02  0.7816164E-02  0.1266605E+00
        -11   -1    0    0    0    0  0.00000000000E+00  0.00000000000E+00  0.45593999997E+02  0.45594000000E+02  0.51100000000E-03 0.  1.
         11   -1    0    0    0    0 -0.00000000000E+00 -0.00000000000E+00 -0.45593999997E+02  0.45594000000E+02  0.51100000000E-03 0. -1.
    9900012    2    1    2    0    0  0.18502905401E+02 -0.13302769024E+02  0.22302456568E+02  0.59301941276E+02  0.49999994981E+02 0.  0.
         12    1    1    2    0    0 -0.18502905401E+02  0.13302769024E+02 -0.22302456568E+02  0.31886058724E+02  0.00000000000E+00 0. -1.
         11    1    3    3    0    0  0.10382059233E+02 -0.10541839190E+01  0.64860207671E+01  0.12286859782E+02  0.51100000000E-03 0.  1.
        -11    1    3    3    0    0 -0.70980669902E+01  0.56611928199E+01  0.21060764125E+02  0.22934416167E+02  0.51100000000E-03 0. -1.
         12    1    3    3    0    0  0.15218913158E+02 -0.17909777925E+02 -0.52443283233E+01  0.24080665327E+02  0.00000000000E+00 0. -1.
</event>
<event>
 7    1  0.6316620E-012  0.5930194E+02  0.7816164E-02  0.1266605E+00
        -11   -1    0    0    0    0  0.00000000000E+00  0.00000000000E+00  0.45593999997E+02  0.45594000000E+02  0.51100000000E-03 0. -1.
         11   -1    0    0    0    0 -0.00000000000E+00 -0.00000000000E+00 -0.45593999997E+02  0.45594000000E+02  0.51100000000E-03 0.  1.
    9900012    2    1    2    0    0  0.11280558805E+02 -0.26811224151E+02 -0.13062471505E+02  0.59301938637E+02  0.49999990169E+02 0.  0.
         12    1    1    2    0    0 -0.11280558805E+02  0.26811224151E+02  0.13062471505E+02  0.31886061363E+02  0.00000000000E+00 0. -1.
         11    1    3    3    0    0  0.62997775087E+01 -0.13273362826E+01 -0.11443840401E+02  0.13130517950E+02  0.51100000000E-03 0. -1.
        -11    1    3    3    0    0  0.13705025281E+02 -0.18560575113E+02 -0.15929757427E+02  0.28037115372E+02  0.51100000000E-03 0.  1.
         12    1    3    3    0    0 -0.87242439849E+01 -0.69233127557E+01  0.14311126323E+02  0.18134305315E+02  0.00000000000E+00 0. -1.
</event>
<event>
 7    1  0.6316620E-012  0.5930194E+02  0.7816164E-02  0.1266605E+00
        -11   -1    0    0    0    0  0.00000000000E+00  0.00000000000E+00  0.45593999997E+02  0.45594000000E+02  0.51100000000E-03 0.  1.
         11   -1    0    0    0    0 -0.00000000000E+00 -0.00000000000E+00 -0.45593999997E+02  0.45594000000E+02  0.51100000000E-03 0. -1.
    9900012    2    1    2    0    0 -0.16939054205E+01 -0.29472086636E+02  0.12051881582E+02  0.59301936336E+02  0.49999985973E+02 0.  0.
         12    1    1    2    0    0  0.16939054205E+01  0.29472086636E+02 -0.12051881582E+02  0.31886063664E+02  0.00000000000E+00 0. -1.
         11    1    3    3    0    0  0.28783628205E+01 -0.18063346069E+02 -0.11805373162E+02  0.21770077618E+02  0.51100000000E-03 0. -1.
        -11    1    3    3    0    0  0.56970747827E+01 -0.16081063126E+02  0.10438972833E+02  0.20000735147E+02  0.51100000000E-03 0.  1.
         12    1    3    3    0    0 -0.10269343024E+02  0.46723225591E+01  0.13418281911E+02  0.17531123571E+02  0.00000000000E+00 0. -1.
</event>
<event>
 7    1  0.6316620E-012  0.5930195E+02  0.7816164E-02  0.1266605E+00
        -11   -1    0    0    0    0  0.00000000000E+00  0.00000000000E+00  0.45593999997E+02  0.45594000000E+02  0.51100000000E-03 0.  1.
         11   -1    0    0    0    0 -0.00000000000E+00 -0.00000000000E+00 -0.45593999997E+02  0.45594000000E+02  0.51100000000E-03 0. -1.
    9900012    2    1    2    0    0  0.72672509790E+01  0.15055845697E+01  0.31010330819E+02  0.59301947576E+02  0.50000006471E+02 0.  0.
         12    1    1    2    0    0 -0.72672509790E+01 -0.15055845697E+01 -0.31010330819E+02  0.31886052424E+02  0.00000000000E+00 0. -1.
         11    1    3    3    0    0 -0.22446525933E+01 -0.14518421786E+02 -0.34011179125E+01  0.15079477435E+02  0.51100000000E-03 0. -1.
        -11    1    3    3    0    0 -0.49622605917E+01  0.56898532642E+01  0.29964522203E+01  0.81226342105E+01  0.51100000000E-03 0.  1.
        -12    1    3    3    0    0  0.14474164164E+02  0.10334153091E+02  0.31414996511E+02  0.36099835930E+02  0.00000000000E+00 0.  1.
</event>
<event>
 7    1  0.6316620E-012  0.5930192E+02  0.7816164E-02  0.1266605E+00
        -11   -1    0    0    0    0  0.00000000000E+00  0.00000000000E+00  0.45593999997E+02  0.45594000000E+02  0.51100000000E-03 0.  1.
         11   -1    0    0    0    0 -0.00000000000E+00 -0.00000000000E+00 -0.45593999997E+02  0.45594000000E+02  0.51100000000E-03 0. -1.
    9900012    2    1    2    0    0 -0.16220899070E+02 -0.65464249462E+01  0.26659870244E+02  0.59301922668E+02  0.49999961044E+02 0.  0.
         12    1    1    2    0    0  0.16220899070E+02  0.65464249462E+01 -0.26659870244E+02  0.31886077332E+02  0.00000000000E+00 0. -1.
         11    1    3    3    0    0  0.23763190120E+01  0.14001689162E+02  0.22284951927E+00  0.14203656346E+02  0.51100000000E-03 0. -1.
        -11    1    3    3    0    0 -0.18845640302E+01 -0.11823449930E+02 -0.77017860030E+00  0.11997446610E+02  0.51100000000E-03 0.  1.
        -12    1    3    3    0    0 -0.16712654052E+02 -0.87246641781E+01  0.27207199325E+02  0.33100819712E+02  0.00000000000E+00 0.  1.
</event>
<event>
 7    1  0.6316620E-012  0.5930209E+02  0.7816164E-02  0.1266604E+00
        -11   -1    0    0    0    0  0.00000000000E+00  0.00000000000E+00  0.45593999997E+02  0.45594000000E+02  0.51100000000E-03 0.  1.
         11   -1    0    0    0    0 -0.00000000000E+00 -0.00000000000E+00 -0.45593999997E+02  0.45594000000E+02  0.51100000000E-03 0. -1.
    9900012    2    1    2    0    0  0.24452580165E+02 -0.87490240759E+01 -0.18499650901E+02  0.59302091161E+02  0.50000268336E+02 0.  0.
         12    1    1    2    0    0 -0.24452580165E+02  0.87490240759E+01  0.18499650901E+02  0.31885908839E+02  0.00000000000E+00 0. -1.
         11    1    3    3    0    0 -0.38276558482E+01  0.51407104715E+01 -0.18132650877E+02  0.19232027494E+02  0.51100000000E-03 0. -1.
        -11    1    3    3    0    0 -0.21823107566E+01 -0.87223494652E+01 -0.16695699932E+01  0.91449070337E+01  0.51100000000E-03 0.  1.
        -12    1    3    3    0    0  0.30462546770E+02 -0.51673850822E+01  0.13025699688E+01  0.30925156633E+02  0.00000000000E+00 0.  1.
</event>
<event>
 7    1  0.6316620E-012  0.5930197E+02  0.7816164E-02  0.1266605E+00
        -11   -1    0    0    0    0  0.00000000000E+00  0.00000000000E+00  0.45593999997E+02  0.45594000000E+02  0.51100000000E-03 0. -1.
         11   -1    0    0    0    0 -0.00000000000E+00 -0.00000000000E+00 -0.45593999997E+02  0.45594000000E+02  0.51100000000E-03 0.  1.
    9900012    2    1    2    0    0  0.12199891576E+02  0.18068652373E+02 -0.23268125398E+02  0.59301965242E+02  0.50000038690E+02 0.  0.
         12    1    1    2    0    0 -0.12199891576E+02 -0.18068652373E+02  0.23268125398E+02  0.31886034758E+02  0.00000000000E+00 0. -1.
         11    1    3    3    0    0 -0.36377643515E+01  0.97540312261E+00 -0.17738684498E+01  0.41630938336E+01  0.51100000000E-03 0.  1.
        -11    1    3    3    0    0 -0.16916365093E+01 -0.11072049522E+02 -0.18763151013E+02  0.21851950735E+02  0.51100000000E-03 0. -1.
        -12    1    3    3    0    0  0.17529292437E+02  0.28165298773E+02 -0.27311059352E+01  0.33286920674E+02  0.00000000000E+00 0.  1.
</event>
<event>
 7    1  0.6316620E-012  0.5930193E+02  0.7816164E-02  0.1266605E+00
        -11   -1    0    0    0    0  0.00000000000E+00  0.00000000000E+00  0.45593999997E+02  0.45594000000E+02  0.51100000000E-03 0.  1.
         11   -1    0    0    0    0 -0.00000000000E+00 -0.00000000000E+00 -0.45593999997E+02  0.45594000000E+02  0.51100000000E-03 0. -1.
    9900012    2    1    2    0    0 -0.25532216186E+02 -0.17005082973E+02  0.86979639906E+01  0.59301929564E+02  0.49999973621E+02 0.  0.
         12    1    1    2    0    0  0.25532216186E+02  0.17005082973E+02 -0.86979639906E+01  0.31886070436E+02  0.00000000000E+00 0. -1.
         11    1    3    3    0    0 -0.19750570380E+02  0.58537573135E+01  0.15652341586E+02  0.25871747185E+02  0.51100000000E-03 0. -1.
        -11    1    3    3    0    0 -0.42288988822E+01 -0.34117318587E+01 -0.12091434479E+02  0.13256179240E+02  0.51100000000E-03 0.  1.
        -12    1    3    3    0    0 -0.15527469238E+01 -0.19447108428E+02  0.51370568838E+01  0.20174003138E+02  0.00000000000E+00 0.  1.
</event>
<event>
 7    1  0.6316620E-012  0.5930195E+02  0.7816164E-02  0.1266605E+00
        -11   -1    0    0    0    0  0.00000000000E+00  0.00000000000E+00  0.45593999997E+02  0.45594000000E+02  0.51100000000E-03 0.  1.
         11   -1    0    0    0    0 -0.00000000000E+00 -0.00000000000E+00 -0.45593999997E+02  0.45594000000E+02  0.51100000000E-03 0. -1.
    9900012    2    1    2    0    0 -0.18648467354E+02 -0.13451774637E+02  0.22090831551E+02  0.59301946400E+02  0.50000004327E+02 0.  0.
         12    1    1    2    0    0  0.18648467354E+02  0.13451774637E+02 -0.22090831551E+02  0.31886053600E+02  0.00000000000E+00 0. -1.
         11    1    3    3    0    0 -0.15447322737E+02  0.66315925239E+01 -0.18790866258E+01  0.16915341142E+02  0.51100000000E-03 0. -1.
        -11    1    3    3    0    0 -0.10454495933E+02 -0.17693567408E+02  0.39071325185E+01  0.20919476513E+02  0.51100000000E-03 0.  1.
        -12    1    3    3    0    0  0.72533513159E+01 -0.23897997535E+01  0.20062785659E+02  0.21467128745E+02  0.00000000000E+00 0.  1.
</event>
<event>
 7    1  0.6316620E-012  0.5930197E+02  0.7816164E-02  0.1266605E+00
        -11   -1    0    0    0    0  0.00000000000E+00  0.00000000000E+00  0.45593999997E+02  0.45594000000E+02  0.51100000000E-03 0.  1.
         11   -1    0    0    0    0 -0.00000000000E+00 -0.00000000000E+00 -0.45593999997E+02  0.45594000000E+02  0.51100000000E-03 0. -1.
    9900012    2    1    2    0    0  0.30161917631E+02  0.10193991469E+02  0.17493150718E+01  0.59301971077E+02  0.50000049332E+02 0.  0.
         12    1    1    2    0    0 -0.30161917631E+02 -0.10193991469E+02 -0.17493150718E+01  0.31886028923E+02  0.00000000000E+00 0. -1.
         11    1    3    3    0    0  0.10639544751E+02 -0.45837514943E+01  0.15359603761E+02  0.19238714049E+02  0.51100000000E-03 0. -1.
        -11    1    3    3    0    0 -0.64404558118E+01 -0.17042927144E+01 -0.43112212168E+01  0.79354088339E+01  0.51100000000E-03 0.  1.
         12    1    3    3    0    0  0.25962828692E+02  0.16482035678E+02 -0.92990674728E+01  0.32127848195E+02  0.00000000000E+00 0. -1.
</event>
<event>
 7    1  0.6316620E-012  0.5930188E+02  0.7816164E-02  0.1266605E+00
        -11   -1    0    0    0    0  0.00000000000E+00  0.00000000000E+00  0.45593999997E+02  0.45594000000E+02  0.51100000000E-03 0.  1.
         11   -1    0    0    0    0 -0.00000000000E+00 -0.00000000000E+00 -0.45593999997E+02  0.45594000000E+02  0.51100000000E-03 0. -1.
    9900012    2    1    2    0    0  0.45993524350E+01  0.11963325053E+02  0.29196734498E+02  0.59301882417E+02  0.49999887637E+02 0.  0.
         12    1    1    2    0    0 -0.45993524350E+01 -0.11963325053E+02 -0.29196734498E+02  0.31886117583E+02  0.00000000000E+00 0. -1.
         11    1    3    3    0    0  0.10137934981E+02 -0.16516608533E+02  0.18071431074E+02  0.26498164172E+02  0.51100000000E-03 0.  1.
        -11    1    3    3    0    0  0.13312553498E+01  0.62981249183E+00 -0.87138564908E+00  0.17112036091E+01  0.51100000000E-03 0. -1.
         12    1    3    3    0    0 -0.68698378962E+01  0.27850121095E+02  0.11996689073E+02  0.31092514637E+02  0.00000000000E+00 0. -1.
</event>
<event>
 7    1  0.6316620E-012  0.5930190E+02  0.7816164E-02  0.1266605E+00
        -11   -1    0    0    0    0  0.00000000000E+00  0.00000000000E+00  0.45593999997E+02  0.45594000000E+02  0.51100000000E-03 0.  1.
         11   -1    0    0    0    0 -0.00000000000E+00 -0.00000000000E+00 -0.45593999997E+02  0.45594000000E+02  0.51100000000E-03 0. -1.
    9900012    2    1    2    0    0  0.44236890407E+01  0.66823489684E+01  0.30862610078E+02  0.59301897804E+02  0.49999915698E+02 0.  0.
         12    1    1    2    0    0 -0.44236890407E+01 -0.66823489684E+01 -0.30862610078E+02  0.31886102196E+02  0.00000000000E+00 0. -1.
         11    1    3    3    0    0 -0.33689125265E+01 -0.51214799471E+01  0.21427999485E+02  0.22287626402E+02  0.51100000000E-03 0. -1.
        -11    1    3    3    0    0  0.45337212519E+01  0.18093959012E+02  0.17984267243E+02  0.25910998624E+02  0.51100000000E-03 0.  1.
         12    1    3    3    0    0  0.32588803153E+01 -0.62901300969E+01 -0.85496566502E+01  0.11103272778E+02  0.00000000000E+00 0. -1.
</event>
<event>
 7    1  0.6316620E-012  0.5930217E+02  0.7816164E-02  0.1266604E+00
        -11   -1    0    0    0    0  0.00000000000E+00  0.00000000000E+00  0.45593999997E+02  0.45594000000E+02  0.51100000000E-03 0. -1.
         11   -1    0    0    0    0 -0.00000000000E+00 -0.00000000000E+00 -0.45593999997E+02  0.45594000000E+02  0.51100000000E-03 0.  1.
    9900012    2    1    2    0    0 -0.57602907442E+01 -0.25074078871E+02  0.18836561469E+02  0.59302165706E+02  0.50000404286E+02 0.  0.
         12    1    1    2    0    0  0.57602907442E+01  0.25074078871E+02 -0.18836561469E+02  0.31885834294E+02  0.00000000000E+00 0. -1.
         11    1    3    3    0    0 -0.15307215730E+02 -0.30422813625E+02  0.21350951854E+02  0.40196039451E+02  0.51100000000E-03 0. -1.
        -11    1    3    3    0    0 -0.29934148687E+01 -0.94344728445E+00  0.26979856203E+01  0.41388104599E+01  0.51100000000E-03 0.  1.
        -12    1    3    3    0    0  0.12540339855E+02  0.62921820387E+01 -0.52123760047E+01  0.14967315794E+02  0.00000000000E+00 0.  1.
</event>
<event>
 7    1  0.6316620E-012  0.5930189E+02  0.7816164E-02  0.1266605E+00
        -11   -1    0    0    0    0  0.00000000000E+00  0.00000000000E+00  0.45593999997E+02  0.45594000000E+02  0.51100000000E-03 0. -1.
         11   -1    0    0    0    0 -0.00000000000E+00 -0.00000000000E+00 -0.45593999997E+02  0.45594000000E+02  0.51100000000E-03 0.  1.
    9900012    2    1    2    0    0  0.23073327934E+02 -0.19882377953E+02 -0.94359159665E+01  0.59301891345E+02  0.49999903920E+02 0.  0.
         12    1    1    2    0    0 -0.23073327934E+02  0.19882377953E+02  0.94359159665E+01  0.31886108655E+02  0.00000000000E+00 0. -1.
         11    1    3    3    0    0  0.20386330178E+02 -0.24748976648E+01  0.88143697649E+01  0.22347722281E+02  0.51100000000E-03 0. -1.
        -11    1    3    3    0    0  0.45612591668E+01 -0.16354239434E+02  0.15393946768E+01  0.17048048829E+02  0.51100000000E-03 0.  1.
        -12    1    3    3    0    0 -0.18742614100E+01 -0.10532408535E+01 -0.19789680408E+02  0.19906120234E+02  0.00000000000E+00 0.  1.
</event>
<event>
 7    1  0.6316620E-012  0.5930194E+02  0.7816164E-02  0.1266605E+00
        -11   -1    0    0    0    0  0.00000000000E+00  0.00000000000E+00  0.45593999997E+02  0.45594000000E+02  0.51100000000E-03 0.  1.
         11   -1    0    0    0    0 -0.00000000000E+00 -0.00000000000E+00 -0.45593999997E+02  0.45594000000E+02  0.51100000000E-03 0. -1.
    9900012    2    1    2    0    0 -0.25020307809E+02 -0.19754922922E+02  0.66931654575E+00  0.59301940865E+02  0.49999994233E+02 0.  0.
         12    1    1    2    0    0  0.25020307809E+02  0.19754922922E+02 -0.66931654575E+00  0.31886059135E+02  0.00000000000E+00 0. -1.
         11    1    3    3    0    0 -0.43300746219E+01  0.81394709517E+01  0.53287893872E+01  0.10648780691E+02  0.51100000000E-03 0. -1.
        -11    1    3    3    0    0 -0.62122332537E+01 -0.42034041059E+01  0.13523526189E+02  0.15464352845E+02  0.51100000000E-03 0.  1.
         12    1    3    3    0    0 -0.14477999933E+02 -0.23690989767E+02 -0.18182999030E+02  0.33188807330E+02  0.00000000000E+00 0. -1.
</event>
<event>
 7    1  0.6316620E-012  0.5930196E+02  0.7816164E-02  0.1266605E+00
        -11   -1    0    0    0    0  0.00000000000E+00  0.00000000000E+00  0.45593999997E+02  0.45594000000E+02  0.51100000000E-03 0.  1.
         11   -1    0    0    0    0 -0.00000000000E+00 -0.00000000000E+00 -0.45593999997E+02  0.45594000000E+02  0.51100000000E-03 0. -1.
    9900012    2    1    2    0    0 -0.46559530302E+01 -0.28473787224E+02  0.13575154807E+02  0.59301964099E+02  0.50000036605E+02 0.  0.
         12    1    1    2    0    0  0.46559530302E+01  0.28473787224E+02 -0.13575154807E+02  0.31886035901E+02  0.00000000000E+00 0. -1.
         11    1    3    3    0    0  0.55837009601E+00 -0.16917972691E+02  0.88498680230E+01  0.19101040323E+02  0.51100000000E-03 0. -1.
        -11    1    3    3    0    0 -0.92707514036E+01 -0.24157074105E+02 -0.72429753426E+00  0.25885047191E+02  0.51100000000E-03 0.  1.
         12    1    3    3    0    0  0.40564282774E+01  0.12601259572E+02  0.54495843177E+01  0.14315876585E+02  0.00000000000E+00 0. -1.
</event>
<event>
 7    1  0.6316620E-012  0.5930194E+02  0.7816164E-02  0.1266605E+00
        -11   -1    0    0    0    0  0.00000000000E+00  0.00000000000E+00  0.45593999997E+02  0.45594000000E+02  0.51100000000E-03 0. -1.
         11   -1    0    0    0    0 -0.00000000000E+00 -0.00000000000E+00 -0.45593999997E+02  0.45594000000E+02  0.51100000000E-03 0.  1.
    9900012    2    1    2    0    0 -0.19335013094E+02 -0.26874254457E+01  0.25212220084E+02  0.59301936768E+02  0.49999986760E+02 0.  0.
         12    1    1    2    0    0  0.19335013094E+02  0.26874254457E+01 -0.25212220084E+02  0.31886063232E+02  0.00000000000E+00 0. -1.
         11    1    3    3    0    0 -0.22863120124E+01 -0.71067723720E+01  0.51469784044E+01  0.90677904211E+01  0.51100000000E-03 0. -1.
        -11    1    3    3    0    0  0.33285952151E+01  0.26532665542E+01  0.27980423366E+02  0.28302357879E+02  0.51100000000E-03 0.  1.
        -12    1    3    3    0    0 -0.20377296297E+02  0.17660803721E+01 -0.79151816867E+01  0.21931788468E+02  0.00000000000E+00 0.  1.
</event>
<event>
 7    1  0.6316620E-012  0.5930195E+02  0.7816164E-02  0.1266605E+00
        -11   -1    0    0    0    0  0.00000000000E+00  0.00000000000E+00  0.45593999997E+02  0.45594000000E+02  0.51100000000E-03 0.  1.
         11   -1    0    0    0    0 -0.00000000000E+00 -0.00000000000E+00 -0.45593999997E+02  0.45594000000E+02  0.51100000000E-03 0. -1.
    9900012    2    1    2    0    0  0.19086530411E+02  0.20646677565E+02  0.15037936656E+02  0.59301945423E+02  0.50000002545E+02 0.  0.
         12    1    1    2    0    0 -0.19086530411E+02 -0.20646677565E+02 -0.15037936656E+02  0.31886054577E+02  0.00000000000E+00 0. -1.
         11    1    3    3    0    0 -0.26806730227E+01  0.10377615562E+02 -0.10933359535E+02  0.15310756467E+02  0.51100000000E-03 0. -1.
        -11    1    3    3    0    0  0.50594784095E+01 -0.75245320453E+01  0.10832514924E+01  0.91318310504E+01  0.51100000000E-03 0.  1.
        -12    1    3    3    0    0  0.16707725025E+02  0.17793594049E+02  0.24888044699E+02  0.34859357906E+02  0.00000000000E+00 0.  1.
</event>
<event>
 7    1  0.6316620E-012  0.5930190E+02  0.7816164E-02  0.1266605E+00
        -11   -1    0    0    0    0  0.00000000000E+00  0.00000000000E+00  0.45593999997E+02  0.45594000000E+02  0.51100000000E-03 0.  1.
         11   -1    0    0    0    0 -0.00000000000E+00 -0.00000000000E+00 -0.45593999997E+02  0.45594000000E+02  0.51100000000E-03 0. -1.
    9900012    2    1    2    0    0  0.83512977205E+01 -0.14883551397E+02  0.26934345342E+02  0.59301902171E+02  0.49999923663E+02 0.  0.
         12    1    1    2    0    0 -0.83512977205E+01  0.14883551397E+02 -0.26934345342E+02  0.31886097829E+02  0.00000000000E+00 0. -1.
         11    1    3    3    0    0 -0.16038317309E+01  0.13117446938E+02  0.22542267444E+01  0.13406014652E+02  0.51100000000E-03 0. -1.
        -11    1    3    3    0    0  0.16987583767E+02 -0.16144137597E+02  0.21376337113E+02  0.31720008979E+02  0.51100000000E-03 0.  1.
         12    1    3    3    0    0 -0.70324543160E+01 -0.11856860738E+02  0.33037814841E+01  0.14175878539E+02  0.00000000000E+00 0. -1.
</event>
<event>
 7    1  0.6316620E-012  0.5930192E+02  0.7816164E-02  0.1266605E+00
        -11   -1    0    0    0    0  0.00000000000E+00  0.00000000000E+00  0.45593999997E+02  0.45594000000E+02  0.51100000000E-03 0.  1.
         11   -1    0    0    0    0 -0.00000000000E+00 -0.00000000000E+00 -0.45593999997E+02  0.45594000000E+02  0.51100000000E-03 0. -1.
    9900012    2    1    2    0    0 -0.76713124182E+01  0.18256871550E+02  0.24991189533E+02  0.59301922360E+02  0.49999960484E+02 0.  0.
         12    1    1    2    0    0  0.76713124182E+01 -0.18256871550E+02 -0.24991189533E+02  0.31886077640E+02  0.00000000000E+00 0. -1.
         11    1    3    3    0    0  0.79549937595E+01  0.59731702023E+01 -0.30391557685E+01  0.10401786194E+02  0.51100000000E-03 0. -1.
        -11    1    3    3    0    0  0.67957235073E+01  0.15449954864E+02  0.16006612146E+02  0.23261440109E+02  0.51100000000E-03 0.  1.
         12    1    3    3    0    0 -0.22422029685E+02 -0.31662535168E+01  0.12023733155E+02  0.25638696057E+02  0.00000000000E+00 0. -1.
</event>
<event>
 7    1  0.6316620E-012  0.5930198E+02  0.7816164E-02  0.1266605E+00
        -11   -1    0    0    0    0  0.00000000000E+00  0.00000000000E+00  0.45593999997E+02  0.45594000000E+02  0.51100000000E-03 0.  1.
         11   -1    0    0    0    0 -0.00000000000E+00 -0.00000000000E+00 -0.45593999997E+02  0.45594000000E+02  0.51100000000E-03 0. -1.
    9900012    2    1    2    0    0 -0.19575710128E+02  0.19471705061E+02  0.15948744802E+02  0.59301981344E+02  0.50000068056E+02 0.  0.
         12    1    1    2    0    0  0.19575710128E+02 -0.19471705061E+02 -0.15948744802E+02  0.31886018656E+02  0.00000000000E+00 0. -1.
         11    1    3    3    0    0  0.86211255919E+01  0.14489418604E+01  0.13497065355E+01  0.88456173882E+01  0.51100000000E-03 0. -1.
        -11    1    3    3    0    0 -0.16021862976E+02 -0.26968218951E+01  0.20057552081E+02  0.25812367913E+02  0.51100000000E-03 0.  1.
         12    1    3    3    0    0 -0.12174972744E+02  0.20719585096E+02 -0.54585138150E+01  0.24643996042E+02  0.00000000000E+00 0. -1.
</event>
<event>
 7    1  0.6316620E-012  0.5930191E+02  0.7816164E-02  0.1266605E+00
        -11   -1    0    0    0    0  0.00000000000E+00  0.00000000000E+00  0.45593999997E+02  0.45594000000E+02  0.51100000000E-03 0.  1.
         11   -1    0    0    0    0 -0.00000000000E+00 -0.00000000000E+00 -0.45593999997E+02  0.45594000000E+02  0.51100000000E-03 0. -1.
    9900012    2    1    2    0    0 -0.49937495086E+01  0.13516560335E+02  0.28444471939E+02  0.59301907086E+02  0.49999932627E+02 0.  0.
         12    1    1    2    0    0  0.49937495086E+01 -0.13516560335E+02 -0.28444471939E+02  0.31886092914E+02  0.00000000000E+00 0. -1.
         11    1    3    3    0    0 -0.90773346792E+01  0.10686220617E+02  0.19809911050E+01  0.14160425204E+02  0.51100000000E-03 0. -1.
        -11    1    3    3    0    0 -0.11084566412E+02 -0.94237865433E+01  0.19725269675E+02  0.24510439191E+02  0.51100000000E-03 0.  1.
         12    1    3    3    0    0  0.15168151582E+02  0.12254126262E+02  0.67382111593E+01  0.20631042690E+02  0.00000000000E+00 0. -1.
</event>
<event>
 7    1  0.6316620E-012  0.5930194E+02  0.7816164E-02  0.1266605E+00
        -11   -1    0    0    0    0  0.00000000000E+00  0.00000000000E+00  0.45593999997E+02  0.45594000000E+02  0.51100000000E-03 0.  1.
         11   -1    0    0    0    0 -0.00000000000E+00 -0.00000000000E+00 -0.45593999997E+02  0.45594000000E+02  0.51100000000E-03 0. -1.
    9900012    2    1    2    0    0 -0.25790128598E+02 -0.18735878242E+02 -0.74610183404E+00  0.59301944512E+02  0.50000000884E+02 0.  0.
         12    1    1    2    0    0  0.25790128598E+02  0.18735878242E+02  0.74610183404E+00  0.31886055488E+02  0.00000000000E+00 0. -1.
         11    1    3    3    0    0 -0.18580240164E+02 -0.70684824959E+01  0.48905500240E+01  0.20472084631E+02  0.51100000000E-03 0. -1.
        -11    1    3    3    0    0 -0.14546015345E+02 -0.19097260769E+02  0.43321496935E+01  0.24393840462E+02  0.51100000000E-03 0.  1.
        -12    1    3    3    0    0  0.73361269104E+01  0.74298650221E+01 -0.99688015516E+01  0.14436019419E+02  0.00000000000E+00 0.  1.
</event>
<event>
 7    1  0.6316620E-012  0.5930193E+02  0.7816164E-02  0.1266605E+00
        -11   -1    0    0    0    0  0.00000000000E+00  0.00000000000E+00  0.45593999997E+02  0.45594000000E+02  0.51100000000E-03 0. -1.
         11   -1    0    0    0    0 -0.00000000000E+00 -0.00000000000E+00 -0.45593999997E+02  0.45594000000E+02  0.51100000000E-03 0.  1.
    9900012    2    1    2    0    0  0.29527067792E+02 -0.57623231037E+01  0.10567367353E+02  0.59301931683E+02  0.49999977486E+02 0.  0.
         12    1    1    2    0    0 -0.29527067792E+02  0.57623231037E+01 -0.10567367353E+02  0.31886068317E+02  0.00000000000E+00 0. -1.
         11    1    3    3    0    0  0.18236623564E+01  0.77821804426E+01  0.19214702796E+01  0.82207131764E+01  0.51100000000E-03 0. -1.
        -11    1    3    3    0    0  0.44286494480E+01 -0.15463297859E+01 -0.15051162637E+02  0.15765201195E+02  0.51100000000E-03 0.  1.
         12    1    3    3    0    0  0.23274755988E+02 -0.11998173760E+02  0.23697059710E+02  0.35316017312E+02  0.00000000000E+00 0. -1.
</event>
<event>
 7    1  0.6316620E-012  0.5930197E+02  0.7816164E-02  0.1266605E+00
        -11   -1    0    0    0    0  0.00000000000E+00  0.00000000000E+00  0.45593999997E+02  0.45594000000E+02  0.51100000000E-03 0.  1.
         11   -1    0    0    0    0 -0.00000000000E+00 -0.00000000000E+00 -0.45593999997E+02  0.45594000000E+02  0.51100000000E-03 0. -1.
    9900012    2    1    2    0    0 -0.30499106389E+02  0.67280544063E+01  0.64231536175E+01  0.59301966866E+02  0.50000041651E+02 0.  0.
         12    1    1    2    0    0  0.30499106389E+02 -0.67280544063E+01 -0.64231536175E+01  0.31886033134E+02  0.00000000000E+00 0. -1.
         11    1    3    3    0    0  0.12481307340E+01  0.99983292945E+01  0.83399705592E+01  0.13079737314E+02  0.51100000000E-03 0. -1.
        -11    1    3    3    0    0  0.36186583167E+01  0.42304339632E+01 -0.78115378916E+01  0.95922564615E+01  0.51100000000E-03 0.  1.
        -12    1    3    3    0    0 -0.35365895440E+02 -0.75007088515E+01  0.58947209500E+01  0.36629973091E+02  0.00000000000E+00 0.  1.
</event>
<event>
 7    1  0.6316620E-012  0.5930191E+02  0.7816164E-02  0.1266605E+00
        -11   -1    0    0    0    0  0.00000000000E+00  0.00000000000E+00  0.45593999997E+02  0.45594000000E+02  0.51100000000E-03 0.  1.
         11   -1    0    0    0    0 -0.00000000000E+00 -0.00000000000E+00 -0.45593999997E+02  0.45594000000E+02  0.51100000000E-03 0. -1.
    9900012    2    1    2    0    0  0.64652976803E+01  0.29864871683E+02  0.91111044118E+01  0.59301908074E+02  0.49999934429E+02 0.  0.
         12    1    1    2    0    0 -0.64652976803E+01 -0.29864871683E+02 -0.91111044118E+01  0.31886091926E+02  0.00000000000E+00 0. -1.
         11    1    3    3    0    0 -0.51006510448E+01 -0.91427539140E-01  0.56368327146E+01  0.76025576873E+01  0.51100000000E-03 0. -1.
        -11    1    3    3    0    0  0.18223025788E+02  0.84200046818E+01  0.16216020376E+02  0.25805706052E+02  0.51100000000E-03 0.  1.
         12    1    3    3    0    0 -0.66570770629E+01  0.21536294540E+02 -0.12741748679E+02  0.25893644335E+02  0.00000000000E+00 0. -1.
</event>
<event>
 7    1  0.6316620E-012  0.5930194E+02  0.7816164E-02  0.1266605E+00
        -11   -1    0    0    0    0  0.00000000000E+00  0.00000000000E+00  0.45593999997E+02  0.45594000000E+02  0.51100000000E-03 0. -1.
         11   -1    0    0    0    0 -0.00000000000E+00 -0.00000000000E+00 -0.45593999997E+02  0.45594000000E+02  0.51100000000E-03 0.  1.
    9900012    2    1    2    0    0 -0.37721839890E+01 -0.57950025268E+01 -0.31127306263E+02  0.59301943148E+02  0.49999998396E+02 0.  0.
         12    1    1    2    0    0  0.37721839890E+01  0.57950025268E+01  0.31127306263E+02  0.31886056852E+02  0.00000000000E+00 0. -1.
         11    1    3    3    0    0  0.44448269822E+01  0.16770037365E+02 -0.14933535197E+02  0.22891070614E+02  0.51100000000E-03 0. -1.
        -11    1    3    3    0    0  0.44999213220E+00 -0.65419354872E+01  0.51587079367E+01  0.83433614733E+01  0.51100000000E-03 0.  1.
        -12    1    3    3    0    0 -0.86670031034E+01 -0.16023104405E+02 -0.21352479003E+02  0.28067511061E+02  0.00000000000E+00 0.  1.
</event>
<event>
 7    1  0.6316620E-012  0.5930195E+02  0.7816164E-02  0.1266605E+00
        -11   -1    0    0    0    0  0.00000000000E+00  0.00000000000E+00  0.45593999997E+02  0.45594000000E+02  0.51100000000E-03 0. -1.
         11   -1    0    0    0    0 -0.00000000000E+00 -0.00000000000E+00 -0.45593999997E+02  0.45594000000E+02  0.51100000000E-03 0.  1.
    9900012    2    1    2    0    0 -0.13111102474E+02  0.13569413404E+02 -0.25703891991E+02  0.59301952084E+02  0.50000014692E+02 0.  0.
         12    1    1    2    0    0  0.13111102474E+02 -0.13569413404E+02  0.25703891991E+02  0.31886047916E+02  0.00000000000E+00 0. -1.
         11    1    3    3    0    0  0.11990651857E+02 -0.10062573913E+02 -0.27907073361E+01  0.15900288469E+02  0.51100000000E-03 0. -1.
        -11    1    3    3    0    0 -0.66998006138E+01  0.70777155994E+01 -0.14072958424E+02  0.17118105778E+02  0.51100000000E-03 0.  1.
        -12    1    3    3    0    0 -0.18401953717E+02  0.16554271717E+02 -0.88402262312E+01  0.26283557836E+02  0.00000000000E+00 0.  1.
</event>
<event>
 7    1  0.6316620E-012  0.5930195E+02  0.7816164E-02  0.1266605E+00
        -11   -1    0    0    0    0  0.00000000000E+00  0.00000000000E+00  0.45593999997E+02  0.45594000000E+02  0.51100000000E-03 0.  1.
         11   -1    0    0    0    0 -0.00000000000E+00 -0.00000000000E+00 -0.45593999997E+02  0.45594000000E+02  0.51100000000E-03 0. -1.
    9900012    2    1    2    0    0 -0.16558512033E+02  0.21765573036E+02  0.16394994775E+02  0.59301947501E+02  0.50000006334E+02 0.  0.
         12    1    1    2    0    0  0.16558512033E+02 -0.21765573036E+02 -0.16394994775E+02  0.31886052499E+02  0.00000000000E+00 0. -1.
         11    1    3    3    0    0  0.10165255011E+02  0.46916172688E+01  0.57308439659E+01  0.12577211728E+02  0.51100000000E-03 0. -1.
        -11    1    3    3    0    0 -0.68542194099E+01  0.22892083587E+02  0.10289923851E+02  0.26017500798E+02  0.51100000000E-03 0.  1.
         12    1    3    3    0    0 -0.19869547633E+02 -0.58181278193E+01  0.37422695750E+00  0.20707234974E+02  0.00000000000E+00 0. -1.
</event>
<event>
 7    1  0.6316620E-012  0.5930195E+02  0.7816164E-02  0.1266605E+00
        -11   -1    0    0    0    0  0.00000000000E+00  0.00000000000E+00  0.45593999997E+02  0.45594000000E+02  0.51100000000E-03 0. -1.
         11   -1    0    0    0    0 -0.00000000000E+00 -0.00000000000E+00 -0.45593999997E+02  0.45594000000E+02  0.51100000000E-03 0.  1.
    9900012    2    1    2    0    0  0.19732745371E+02 -0.24958902722E+02  0.20958072438E+01  0.59301945478E+02  0.50000002645E+02 0.  0.
         12    1    1    2    0    0 -0.19732745371E+02  0.24958902722E+02 -0.20958072438E+01  0.31886054522E+02  0.00000000000E+00 0. -1.
         11    1    3    3    0    0 -0.58873904108E+01 -0.17919237251E+02  0.22402199247E+01  0.18994183717E+02  0.51100000000E-03 0. -1.
        -11    1    3    3    0    0  0.35478236838E+01 -0.15417551655E+02 -0.41637814226E+01  0.16359249003E+02  0.51100000000E-03 0.  1.
        -12    1    3    3    0    0  0.22072312098E+02  0.83778861840E+01  0.40193687418E+01  0.23948512758E+02  0.00000000000E+00 0.  1.
</event>
<event>
 7    1  0.6316620E-012  0.5930196E+02  0.7816164E-02  0.1266605E+00
        -11   -1    0    0    0    0  0.00000000000E+00  0.00000000000E+00  0.45593999997E+02  0.45594000000E+02  0.51100000000E-03 0.  1.
         11   -1    0    0    0    0 -0.00000000000E+00 -0.00000000000E+00 -0.45593999997E+02  0.45594000000E+02  0.51100000000E-03 0. -1.
    9900012    2    1    2    0    0  0.64925149127E+01 -0.23841584330E+01  0.31126876785E+02  0.59301961994E+02  0.50000032766E+02 0.  0.
         12    1    1    2    0    0 -0.64925149127E+01  0.23841584330E+01 -0.31126876785E+02  0.31886038006E+02  0.00000000000E+00 0. -1.
         11    1    3    3    0    0 -0.28790170502E+01 -0.38800345191E+01 -0.70317115907E+01  0.85316103521E+01  0.51100000000E-03 0. -1.
        -11    1    3    3    0    0  0.12117612736E+02  0.10889998997E+02  0.63426877520E+01  0.17483086248E+02  0.51100000000E-03 0.  1.
         12    1    3    3    0    0 -0.27460807734E+01 -0.93941229105E+01  0.31815900624E+02  0.33287265394E+02  0.00000000000E+00 0. -1.
</event>
<event>
 7    1  0.6316620E-012  0.5930193E+02  0.7816164E-02  0.1266605E+00
        -11   -1    0    0    0    0  0.00000000000E+00  0.00000000000E+00  0.45593999997E+02  0.45594000000E+02  0.51100000000E-03 0. -1.
         11   -1    0    0    0    0 -0.00000000000E+00 -0.00000000000E+00 -0.45593999997E+02  0.45594000000E+02  0.51100000000E-03 0.  1.
    9900012    2    1    2    0    0 -0.25626111739E+02  0.18966801420E+02 -0.53292792295E+00  0.59301934530E+02  0.49999982678E+02 0.  0.
         12    1    1    2    0    0  0.25626111739E+02 -0.18966801420E+02  0.53292792295E+00  0.31886065470E+02  0.00000000000E+00 0. -1.
         11    1    3    3    0    0 -0.56676042626E+01  0.76414346490E+01 -0.77173786029E+01  0.12250354866E+02  0.51100000000E-03 0. -1.
        -11    1    3    3    0    0  0.10948521828E+02  0.40297636222E+01 -0.54466204552E+01  0.12875356295E+02  0.51100000000E-03 0.  1.
         12    1    3    3    0    0 -0.30907029305E+02  0.72956031492E+01  0.12631071135E+02  0.34176223369E+02  0.00000000000E+00 0. -1.
</event>
<event>
 7    1  0.6316620E-012  0.5930196E+02  0.7816164E-02  0.1266605E+00
        -11   -1    0    0    0    0  0.00000000000E+00  0.00000000000E+00  0.45593999997E+02  0.45594000000E+02  0.51100000000E-03 0.  1.
         11   -1    0    0    0    0 -0.00000000000E+00 -0.00000000000E+00 -0.45593999997E+02  0.45594000000E+02  0.51100000000E-03 0. -1.
    9900012    2    1    2    0    0  0.21773540217E+02 -0.16581480614E+02  0.16361150624E+02  0.59301955989E+02  0.50000021814E+02 0.  0.
         12    1    1    2    0    0 -0.21773540217E+02  0.16581480614E+02 -0.16361150624E+02  0.31886044011E+02  0.00000000000E+00 0. -1.
         11    1    3    3    0    0 -0.80539094156E+01  0.61153456974E+00  0.12602925178E+02  0.14969073275E+02  0.51100000000E-03 0. -1.
        -11    1    3    3    0    0  0.35067460974E+00  0.50717030842E+01 -0.41414511086E+01  0.65571916551E+01  0.51100000000E-03 0.  1.
        -12    1    3    3    0    0  0.29476775022E+02 -0.22264718268E+02  0.78996765543E+01  0.37775691059E+02  0.00000000000E+00 0.  1.
</event>
<event>
 7    1  0.6316620E-012  0.5930196E+02  0.7816164E-02  0.1266605E+00
        -11   -1    0    0    0    0  0.00000000000E+00  0.00000000000E+00  0.45593999997E+02  0.45594000000E+02  0.51100000000E-03 0.  1.
         11   -1    0    0    0    0 -0.00000000000E+00 -0.00000000000E+00 -0.45593999997E+02  0.45594000000E+02  0.51100000000E-03 0. -1.
    9900012    2    1    2    0    0 -0.13673407972E+02  0.92642427969E+01  0.27275106620E+02  0.59301957265E+02  0.50000024141E+02 0.  0.
         12    1    1    2    0    0  0.13673407972E+02 -0.92642427969E+01 -0.27275106620E+02  0.31886042735E+02  0.00000000000E+00 0. -1.
         11    1    3    3    0    0 -0.13775051847E+02 -0.22389581807E+01  0.69541252288E+01  0.15592461162E+02  0.51100000000E-03 0.  1.
        -11    1    3    3    0    0  0.13080018116E+02  0.62185572380E+01  0.25036966410E+02  0.28924159716E+02  0.51100000000E-03 0. -1.
         12    1    3    3    0    0 -0.12978374241E+02  0.52846437397E+01 -0.47159850182E+01  0.14785336387E+02  0.00000000000E+00 0. -1.
</event>
<event>
 7    1  0.6316620E-012  0.5930193E+02  0.7816164E-02  0.1266605E+00
        -11   -1    0    0    0    0  0.00000000000E+00  0.00000000000E+00  0.45593999997E+02  0.45594000000E+02  0.51100000000E-03 0. -1.
         11   -1    0    0    0    0 -0.00000000000E+00 -0.00000000000E+00 -0.45593999997E+02  0.45594000000E+02  0.51100000000E-03 0.  1.
    9900012    2    1    2    0    0  0.28049816072E+02 -0.75116997852E+01 -0.13172076370E+02  0.59301930765E+02  0.49999975813E+02 0.  0.
         12    1    1    2    0    0 -0.28049816072E+02  0.75116997852E+01  0.13172076370E+02  0.31886069235E+02  0.00000000000E+00 0. -1.
         11    1    3    3    0    0  0.67875754902E+01  0.13800121188E+02  0.67696699133E+01  0.16803063912E+02  0.51100000000E-03 0. -1.
        -11    1    3    3    0    0  0.37322967688E+01  0.28176198550E+01  0.23786644701E+01  0.52466242233E+01  0.51100000000E-03 0.  1.
        -12    1    3    3    0    0  0.17529943813E+02 -0.24129440828E+02 -0.22320410754E+02  0.37252242630E+02  0.00000000000E+00 0.  1.
</event>
<event>
 7    1  0.6316620E-012  0.5930180E+02  0.7816164E-02  0.1266605E+00
        -11   -1    0    0    0    0  0.00000000000E+00  0.00000000000E+00  0.45593999997E+02  0.45594000000E+02  0.51100000000E-03 0.  1.
         11   -1    0    0    0    0 -0.00000000000E+00 -0.00000000000E+00 -0.45593999997E+02  0.45594000000E+02  0.51100000000E-03 0. -1.
    9900012    2    1    2    0    0 -0.24050410421E+02  0.11891811527E+02  0.17230570080E+02  0.59301796587E+02  0.49999731103E+02 0.  0.
         12    1    1    2    0    0  0.24050410421E+02 -0.11891811527E+02 -0.17230570080E+02  0.31886203413E+02  0.00000000000E+00 0. -1.
         11    1    3    3    0    0 -0.17956321932E+02 -0.20372580199E+01 -0.74244278712E+00  0.18086766962E+02  0.51100000000E-03 0. -1.
        -11    1    3    3    0    0 -0.57702765140E+01  0.25179970898E+02  0.12346986562E+02  0.28631714983E+02  0.51100000000E-03 0.  1.
        -12    1    3    3    0    0 -0.32381197434E+00 -0.11250901351E+02  0.56260263055E+01  0.12583314642E+02  0.00000000000E+00 0.  1.
</event>
<event>
 7    1  0.6316620E-012  0.5930195E+02  0.7816164E-02  0.1266605E+00
        -11   -1    0    0    0    0  0.00000000000E+00  0.00000000000E+00  0.45593999997E+02  0.45594000000E+02  0.51100000000E-03 0.  1.
         11   -1    0    0    0    0 -0.00000000000E+00 -0.00000000000E+00 -0.45593999997E+02  0.45594000000E+02  0.51100000000E-03 0. -1.
    9900012    2    1    2    0    0 -0.90626750513E+01 -0.19142798144E+01  0.30511036824E+02  0.59301954238E+02  0.50000018621E+02 0.  0.
         12    1    1    2    0    0  0.90626750513E+01  0.19142798144E+01 -0.30511036824E+02  0.31886045762E+02  0.00000000000E+00 0. -1.
         11    1    3    3    0    0 -0.34350360993E+01 -0.17507832539E+02  0.43903914335E+01  0.18373873038E+02  0.51100000000E-03 0. -1.
        -11    1    3    3    0    0  0.93766278276E+01  0.10113408098E+02  0.18903360147E+02  0.23399555506E+02  0.51100000000E-03 0.  1.
        -12    1    3    3    0    0 -0.15004266780E+02  0.54801446264E+01  0.72172852429E+01  0.17528525694E+02  0.00000000000E+00 0.  1.
</event>
<event>
 7    1  0.6316620E-012  0.5930198E+02  0.7816164E-02  0.1266605E+00
        -11   -1    0    0    0    0  0.00000000000E+00  0.00000000000E+00  0.45593999997E+02  0.45594000000E+02  0.51100000000E-03 0.  1.
         11   -1    0    0    0    0 -0.00000000000E+00 -0.00000000000E+00 -0.45593999997E+02  0.45594000000E+02  0.51100000000E-03 0. -1.
    9900012    2    1    2    0    0 -0.25555993098E+02 -0.35066066691E+01  0.18743343714E+02  0.59301984144E+02  0.50000073163E+02 0.  0.
         12    1    1    2    0    0  0.25555993098E+02  0.35066066691E+01 -0.18743343714E+02  0.31886015856E+02  0.00000000000E+00 0. -1.
         11    1    3    3    0    0 -0.21362347312E+02 -0.69202398014E+01  0.16877409233E+02  0.28090684297E+02  0.51100000000E-03 0. -1.
        -11    1    3    3    0    0  0.77952661982E+01  0.56955237156E+01  0.11962350871E+02  0.15372150276E+02  0.51100000000E-03 0.  1.
         12    1    3    3    0    0 -0.11988911985E+02 -0.22818905833E+01 -0.10096416390E+02  0.15839149571E+02  0.00000000000E+00 0. -1.
</event>
<event>
 7    1  0.6316620E-012  0.5930192E+02  0.7816164E-02  0.1266605E+00
        -11   -1    0    0    0    0  0.00000000000E+00  0.00000000000E+00  0.45593999997E+02  0.45594000000E+02  0.51100000000E-03 0.  1.
         11   -1    0    0    0    0 -0.00000000000E+00 -0.00000000000E+00 -0.45593999997E+02  0.45594000000E+02  0.51100000000E-03 0. -1.
    9900012    2    1    2    0    0  0.25315797279E+02  0.87932372296E+01  0.17277486717E+02  0.59301919023E+02  0.49999954397E+02 0.  0.
         12    1    1    2    0    0 -0.25315797279E+02 -0.87932372296E+01 -0.17277486717E+02  0.31886080977E+02  0.00000000000E+00 0. -1.
         11    1    3    3    0    0  0.60676415345E+01  0.12673022313E+02  0.30314599743E+01  0.14373987553E+02  0.51100000000E-03 0. -1.
        -11    1    3    3    0    0  0.30206005575E+02 -0.84757100170E+00  0.14584238565E+02  0.33553258622E+02  0.51100000000E-03 0.  1.
         12    1    3    3    0    0 -0.10957849831E+02 -0.30322140817E+01 -0.33821182198E+00  0.11374672848E+02  0.00000000000E+00 0. -1.
</event>
<event>
 7    1  0.6316620E-012  0.5930195E+02  0.7816164E-02  0.1266605E+00
        -11   -1    0    0    0    0  0.00000000000E+00  0.00000000000E+00  0.45593999997E+02  0.45594000000E+02  0.51100000000E-03 0.  1.
         11   -1    0    0    0    0 -0.00000000000E+00 -0.00000000000E+00 -0.45593999997E+02  0.45594000000E+02  0.51100000000E-03 0. -1.
    9900012    2    1    2    0    0 -0.99371558926E+01 -0.21550565903E+02  0.21296617550E+02  0.59301954822E+02  0.50000019686E+02 0.  0.
         12    1    1    2    0    0  0.99371558926E+01  0.21550565903E+02 -0.21296617550E+02  0.31886045178E+02  0.00000000000E+00 0. -1.
         11    1    3    3    0    0  0.20741366228E+01 -0.91836007226E+00 -0.62420772601E+01  0.66414574254E+01  0.51100000000E-03 0. -1.
        -11    1    3    3    0    0  0.13259683990E+02 -0.33220866632E+01  0.47098240055E+01  0.14458143786E+02  0.51100000000E-03 0.  1.
         12    1    3    3    0    0 -0.25270976506E+02 -0.17310119168E+02  0.22828870805E+02  0.38202353611E+02  0.00000000000E+00 0. -1.
</event>
<event>
 7    1  0.6316620E-012  0.5930192E+02  0.7816164E-02  0.1266605E+00
        -11   -1    0    0    0    0  0.00000000000E+00  0.00000000000E+00  0.45593999997E+02  0.45594000000E+02  0.51100000000E-03 0.  1.
         11   -1    0    0    0    0 -0.00000000000E+00 -0.00000000000E+00 -0.45593999997E+02  0.45594000000E+02  0.51100000000E-03 0. -1.
    9900012    2    1    2    0    0  0.26374529104E+02 -0.14708740043E+02  0.10235202395E+02  0.59301918597E+02  0.49999953621E+02 0.  0.
         12    1    1    2    0    0 -0.26374529104E+02  0.14708740043E+02 -0.10235202395E+02  0.31886081403E+02  0.00000000000E+00 0. -1.
         11    1    3    3    0    0 -0.79449032890E+01  0.62458503719E+01  0.69202210849E+00  0.10129710262E+02  0.51100000000E-03 0. -1.
        -11    1    3    3    0    0  0.31339424151E+02 -0.86909929178E+01 -0.12785953463E+01  0.32547314334E+02  0.51100000000E-03 0.  1.
         12    1    3    3    0    0  0.29800082420E+01 -0.12263597497E+02  0.10821775633E+02  0.16624894001E+02  0.00000000000E+00 0. -1.
</event>
<event>
 7    1  0.6316620E-012  0.5930191E+02  0.7816164E-02  0.1266605E+00
        -11   -1    0    0    0    0  0.00000000000E+00  0.00000000000E+00  0.45593999997E+02  0.45594000000E+02  0.51100000000E-03 0. -1.
         11   -1    0    0    0    0 -0.00000000000E+00 -0.00000000000E+00 -0.45593999997E+02  0.45594000000E+02  0.51100000000E-03 0.  1.
    9900012    2    1    2    0    0 -0.47940359982E+01  0.42234503391E+01 -0.31239440140E+02  0.59301906884E+02  0.49999932259E+02 0.  0.
         12    1    1    2    0    0  0.47940359982E+01 -0.42234503391E+01  0.31239440140E+02  0.31886093116E+02  0.00000000000E+00 0. -1.
         11    1    3    3    0    0 -0.19108129219E+02  0.21187375110E+01 -0.17218416109E+02  0.25808593616E+02  0.51100000000E-03 0. -1.
        -11    1    3    3    0    0 -0.50947454872E+00  0.80097156041E+01  0.43753321391E+01  0.91410415141E+01  0.51100000000E-03 0.  1.
        -12    1    3    3    0    0  0.14823567769E+02 -0.59050027760E+01 -0.18396356170E+02  0.24352271753E+02  0.00000000000E+00 0.  1.
</event>
<event>
 7    1  0.6316620E-012  0.5930194E+02  0.7816164E-02  0.1266605E+00
        -11   -1    0    0    0    0  0.00000000000E+00  0.00000000000E+00  0.45593999997E+02  0.45594000000E+02  0.51100000000E-03 0. -1.
         11   -1    0    0    0    0 -0.00000000000E+00 -0.00000000000E+00 -0.45593999997E+02  0.45594000000E+02  0.51100000000E-03 0.  1.
    9900012    2    1    2    0    0 -0.79731642981E+01 -0.29276859142E+01 -0.30733985259E+02  0.59301944370E+02  0.50000000625E+02 0.  0.
         12    1    1    2    0    0  0.79731642981E+01  0.29276859142E+01  0.30733985259E+02  0.31886055630E+02  0.00000000000E+00 0. -1.
         11    1    3    3    0    0  0.29551700058E+01 -0.20469058203E+01 -0.47920031155E+00  0.36266356861E+01  0.51100000000E-03 0. -1.
        -11    1    3    3    0    0 -0.98466207018E+00 -0.21297271246E+02 -0.24038002892E+02  0.32130498054E+02  0.51100000000E-03 0.  1.
        -12    1    3    3    0    0 -0.99436722337E+01  0.20416491152E+02 -0.62167820552E+01  0.23544810630E+02  0.00000000000E+00 0.  1.
</event>
<event>
 7    1  0.6316620E-012  0.5930195E+02  0.7816164E-02  0.1266605E+00
        -11   -1    0    0    0    0  0.00000000000E+00  0.00000000000E+00  0.45593999997E+02  0.45594000000E+02  0.51100000000E-03 0. -1.
         11   -1    0    0    0    0 -0.00000000000E+00 -0.00000000000E+00 -0.45593999997E+02  0.45594000000E+02  0.51100000000E-03 0.  1.
    9900012    2    1    2    0    0  0.14852726887E+02 -0.13821129138E+02 -0.24598638735E+02  0.59301950790E+02  0.50000012332E+02 0.  0.
         12    1    1    2    0    0 -0.14852726887E+02  0.13821129138E+02  0.24598638735E+02  0.31886049210E+02  0.00000000000E+00 0. -1.
         11    1    3    3    0    0  0.17794410104E+02  0.37780715355E+01 -0.17762534244E+02  0.25424839793E+02  0.51100000000E-03 0. -1.
        -11    1    3    3    0    0  0.11939179265E+02 -0.11047460032E+02 -0.67669136285E+01  0.17617647261E+02  0.51100000000E-03 0.  1.
        -12    1    3    3    0    0 -0.14880862481E+02 -0.65517406412E+01 -0.69190862828E-01  0.16259463736E+02  0.00000000000E+00 0.  1.
</event>
<event>
 7    1  0.6316620E-012  0.5930194E+02  0.7816164E-02  0.1266605E+00
        -11   -1    0    0    0    0  0.00000000000E+00  0.00000000000E+00  0.45593999997E+02  0.45594000000E+02  0.51100000000E-03 0.  1.
         11   -1    0    0    0    0 -0.00000000000E+00 -0.00000000000E+00 -0.45593999997E+02  0.45594000000E+02  0.51100000000E-03 0. -1.
    9900012    2    1    2    0    0  0.95876786303E+01  0.30075945480E+02 -0.44982898070E+01  0.59301942088E+02  0.49999996462E+02 0.  0.
         12    1    1    2    0    0 -0.95876786303E+01 -0.30075945480E+02  0.44982898070E+01  0.31886057912E+02  0.00000000000E+00 0. -1.
         11    1    3    3    0    0  0.95229167492E+01 -0.58078292355E+01 -0.11793939878E+02  0.16233109436E+02  0.51100000000E-03 0. -1.
        -11    1    3    3    0    0  0.89094486509E+01  0.61640439683E+01  0.51251955588E+01  0.11985046645E+02  0.51100000000E-03 0.  1.
        -12    1    3    3    0    0 -0.88446867698E+01  0.29719730747E+02  0.21704545127E+01  0.31083786007E+02  0.00000000000E+00 0.  1.
</event>
<event>
 7    1  0.6316620E-012  0.5930195E+02  0.7816164E-02  0.1266605E+00
        -11   -1    0    0    0    0  0.00000000000E+00  0.00000000000E+00  0.45593999997E+02  0.45594000000E+02  0.51100000000E-03 0.  1.
         11   -1    0    0    0    0 -0.00000000000E+00 -0.00000000000E+00 -0.45593999997E+02  0.45594000000E+02  0.51100000000E-03 0. -1.
    9900012    2    1    2    0    0 -0.14492029099E+02 -0.27121009280E+02 -0.84351893790E+01  0.59301945500E+02  0.50000002684E+02 0.  0.
         12    1    1    2    0    0  0.14492029099E+02  0.27121009280E+02  0.84351893790E+01  0.31886054500E+02  0.00000000000E+00 0. -1.
         11    1    3    3    0    0 -0.13115592200E+02 -0.19378057900E+02  0.51648564934E+01  0.23962546392E+02  0.51100000000E-03 0. -1.
        -11    1    3    3    0    0 -0.15731180950E+02 -0.40057691661E+01 -0.16986467396E+01  0.16321814902E+02  0.51100000000E-03 0.  1.
         12    1    3    3    0    0  0.14354744052E+02 -0.37371822139E+01 -0.11901399133E+02  0.19017584205E+02  0.00000000000E+00 0. -1.
</event>
<event>
 7    1  0.6316620E-012  0.5930191E+02  0.7816164E-02  0.1266605E+00
        -11   -1    0    0    0    0  0.00000000000E+00  0.00000000000E+00  0.45593999997E+02  0.45594000000E+02  0.51100000000E-03 0. -1.
         11   -1    0    0    0    0 -0.00000000000E+00 -0.00000000000E+00 -0.45593999997E+02  0.45594000000E+02  0.51100000000E-03 0.  1.
    9900012    2    1    2    0    0  0.12699871589E+02 -0.22361954688E+02  0.18851503340E+02  0.59301906887E+02  0.49999932264E+02 0.  0.
         12    1    1    2    0    0 -0.12699871589E+02  0.22361954688E+02 -0.18851503340E+02  0.31886093113E+02  0.00000000000E+00 0. -1.
         11    1    3    3    0    0 -0.62857306562E+01 -0.16677965272E+02  0.21998394445E+00  0.17824514823E+02  0.51100000000E-03 0. -1.
        -11    1    3    3    0    0  0.35404909533E+01 -0.81790769036E+01  0.23466510446E+02  0.25101981753E+02  0.51100000000E-03 0.  1.
         12    1    3    3    0    0  0.15445111292E+02  0.24950874872E+01 -0.48349910498E+01  0.16375410310E+02  0.00000000000E+00 0. -1.
</event>
<event>
 7    1  0.6316620E-012  0.5930197E+02  0.7816164E-02  0.1266605E+00
        -11   -1    0    0    0    0  0.00000000000E+00  0.00000000000E+00  0.45593999997E+02  0.45594000000E+02  0.51100000000E-03 0. -1.
         11   -1    0    0    0    0 -0.00000000000E+00 -0.00000000000E+00 -0.45593999997E+02  0.45594000000E+02  0.51100000000E-03 0.  1.
    9900012    2    1    2    0    0  0.74185440507E+01  0.23183287247E+02 -0.20596584223E+02  0.59301970378E+02  0.50000048056E+02 0.  0.
         12    1    1    2    0    0 -0.74185440507E+01 -0.23183287247E+02  0.20596584223E+02  0.31886029622E+02  0.00000000000E+00 0. -1.
         11    1    3    3    0    0  0.17554850115E+02 -0.10944890921E+00 -0.72239753816E+01  0.18983428621E+02  0.51100000000E-03 0. -1.
        -11    1    3    3    0    0 -0.72474311619E+01  0.19071283852E+02 -0.22178262590E+02  0.30134937498E+02  0.51100000000E-03 0.  1.
         12    1    3    3    0    0 -0.28888749028E+01  0.42214523038E+01  0.88056537487E+01  0.10183604259E+02  0.00000000000E+00 0. -1.
</event>
<event>
 7    1  0.6316620E-012  0.5930184E+02  0.7816164E-02  0.1266605E+00
        -11   -1    0    0    0    0  0.00000000000E+00  0.00000000000E+00  0.45593999997E+02  0.45594000000E+02  0.51100000000E-03 0.  1.
         11   -1    0    0    0    0 -0.00000000000E+00 -0.00000000000E+00 -0.45593999997E+02  0.45594000000E+02  0.51100000000E-03 0. -1.
    9900012    2    1    2    0    0 -0.18222061335E+02 -0.11967069084E+02  0.23269569972E+02  0.59301840801E+02  0.49999811739E+02 0.  0.
         12    1    1    2    0    0  0.18222061335E+02  0.11967069084E+02 -0.23269569972E+02  0.31886159199E+02  0.00000000000E+00 0. -1.
         11    1    3    3    0    0 -0.16734923213E+02 -0.16008466509E+01  0.23105643545E+01  0.16969356877E+02  0.51100000000E-03 0. -1.
        -11    1    3    3    0    0 -0.62974109378E+01  0.11916716825E+02  0.11243529373E+02  0.17552278412E+02  0.51100000000E-03 0.  1.
         12    1    3    3    0    0  0.48102728153E+01 -0.22282939258E+02  0.97154762444E+01  0.24780205512E+02  0.00000000000E+00 0. -1.
</event>
<event>
 7    1  0.6316620E-012  0.5930207E+02  0.7816164E-02  0.1266604E+00
        -11   -1    0    0    0    0  0.00000000000E+00  0.00000000000E+00  0.45593999997E+02  0.45594000000E+02  0.51100000000E-03 0.  1.
         11   -1    0    0    0    0 -0.00000000000E+00 -0.00000000000E+00 -0.45593999997E+02  0.45594000000E+02  0.51100000000E-03 0. -1.
    9900012    2    1    2    0    0  0.14833721432E+02 -0.28179501635E+02  0.16090700574E+01  0.59302067202E+02  0.50000224640E+02 0.  0.
         12    1    1    2    0    0 -0.14833721432E+02  0.28179501635E+02 -0.16090700574E+01  0.31885932798E+02  0.00000000000E+00 0. -1.
         11    1    3    3    0    0  0.17570483282E+01  0.26149540634E+01 -0.37567914258E+01  0.49029262344E+01  0.51100000000E-03 0. -1.
        -11    1    3    3    0    0  0.61715496586E+01  0.89343623288E+01  0.87325271633E+01  0.13934413742E+02  0.51100000000E-03 0.  1.
         12    1    3    3    0    0  0.69051234454E+01 -0.39728818028E+02 -0.33666656801E+01  0.40464727226E+02  0.00000000000E+00 0. -1.
</event>
<event>
 7    1  0.6316620E-012  0.5930193E+02  0.7816164E-02  0.1266605E+00
        -11   -1    0    0    0    0  0.00000000000E+00  0.00000000000E+00  0.45593999997E+02  0.45594000000E+02  0.51100000000E-03 0.  1.
         11   -1    0    0    0    0 -0.00000000000E+00 -0.00000000000E+00 -0.45593999997E+02  0.45594000000E+02  0.51100000000E-03 0. -1.
    9900012    2    1    2    0    0 -0.30167830554E+02 -0.51266586645E+01 -0.89632987443E+01  0.59301931666E+02  0.49999977455E+02 0.  0.
         12    1    1    2    0    0  0.30167830554E+02  0.51266586645E+01  0.89632987443E+01  0.31886068334E+02  0.00000000000E+00 0. -1.
         11    1    3    3    0    0 -0.34138542367E+01  0.11686216094E+02 -0.25526690104E+01  0.12439379675E+02  0.51100000000E-03 0. -1.
        -11    1    3    3    0    0 -0.19137797805E+02  0.70569043789E+01 -0.76292968595E+01  0.21777542907E+02  0.51100000000E-03 0.  1.
         12    1    3    3    0    0 -0.76161785127E+01 -0.23869779137E+02  0.12186671257E+01  0.25085009085E+02  0.00000000000E+00 0. -1.
</event>
<event>
 7    1  0.6316620E-012  0.5930195E+02  0.7816164E-02  0.1266605E+00
        -11   -1    0    0    0    0  0.00000000000E+00  0.00000000000E+00  0.45593999997E+02  0.45594000000E+02  0.51100000000E-03 0.  1.
         11   -1    0    0    0    0 -0.00000000000E+00 -0.00000000000E+00 -0.45593999997E+02  0.45594000000E+02  0.51100000000E-03 0. -1.
    9900012    2    1    2    0    0  0.20524733608E+02  0.11384223103E+02  0.21583666891E+02  0.59301954435E+02  0.50000018981E+02 0.  0.
         12    1    1    2    0    0 -0.20524733608E+02 -0.11384223103E+02 -0.21583666891E+02  0.31886045565E+02  0.00000000000E+00 0. -1.
         11    1    3    3    0    0 -0.64077871722E+01 -0.38392091708E+01  0.54097527298E+01  0.92230520090E+01  0.51100000000E-03 0. -1.
        -11    1    3    3    0    0  0.93711558804E+01  0.22375775195E+02  0.19121818814E+02  0.30889121598E+02  0.51100000000E-03 0.  1.
         12    1    3    3    0    0  0.17561364900E+02 -0.71523429212E+01 -0.29479046527E+01  0.19189780828E+02  0.00000000000E+00 0. -1.
</event>
<event>
 7    1  0.6316620E-012  0.5930194E+02  0.7816164E-02  0.1266605E+00
        -11   -1    0    0    0    0  0.00000000000E+00  0.00000000000E+00  0.45593999997E+02  0.45594000000E+02  0.51100000000E-03 0.  1.
         11   -1    0    0    0    0 -0.00000000000E+00 -0.00000000000E+00 -0.45593999997E+02  0.45594000000E+02  0.51100000000E-03 0. -1.
    9900012    2    1    2    0    0  0.28454768615E+02  0.67738376168E+01  0.12694969368E+02  0.59301937524E+02  0.49999988138E+02 0.  0.
         12    1    1    2    0    0 -0.28454768615E+02 -0.67738376168E+01 -0.12694969368E+02  0.31886062476E+02  0.00000000000E+00 0. -1.
         11    1    3    3    0    0  0.27239372514E+02  0.69067219717E+01 -0.82297034381E+01  0.29281636605E+02  0.51100000000E-03 0. -1.
        -11    1    3    3    0    0  0.85653302060E+01  0.56033458290E+01  0.17128582636E+02  0.19953714175E+02  0.51100000000E-03 0.  1.
        -12    1    3    3    0    0 -0.73499341050E+01 -0.57362301839E+01  0.37960901706E+01  0.10066586743E+02  0.00000000000E+00 0.  1.
</event>
<event>
 7    1  0.6316620E-012  0.5930194E+02  0.7816164E-02  0.1266605E+00
        -11   -1    0    0    0    0  0.00000000000E+00  0.00000000000E+00  0.45593999997E+02  0.45594000000E+02  0.51100000000E-03 0.  1.
         11   -1    0    0    0    0 -0.00000000000E+00 -0.00000000000E+00 -0.45593999997E+02  0.45594000000E+02  0.51100000000E-03 0. -1.
    9900012    2    1    2    0    0  0.24108894810E+02  0.28450022705E+01  0.20673369977E+02  0.59301936068E+02  0.49999985483E+02 0.  0.
         12    1    1    2    0    0 -0.24108894810E+02 -0.28450022705E+01 -0.20673369977E+02  0.31886063932E+02  0.00000000000E+00 0. -1.
         11    1    3    3    0    0 -0.10913201665E+02 -0.90578847002E+01  0.94375711411E+01  0.17035580270E+02  0.51100000000E-03 0. -1.
        -11    1    3    3    0    0  0.66330572025E+01 -0.27672288542E+01  0.69977244957E+01  0.10031109199E+02  0.51100000000E-03 0.  1.
         12    1    3    3    0    0  0.28389039273E+02  0.14670115825E+02  0.42380743403E+01  0.32235246599E+02  0.00000000000E+00 0. -1.
</event>
<event>
 7    1  0.6316620E-012  0.5930195E+02  0.7816164E-02  0.1266605E+00
        -11   -1    0    0    0    0  0.00000000000E+00  0.00000000000E+00  0.45593999997E+02  0.45594000000E+02  0.51100000000E-03 0.  1.
         11   -1    0    0    0    0 -0.00000000000E+00 -0.00000000000E+00 -0.45593999997E+02  0.45594000000E+02  0.51100000000E-03 0. -1.
    9900012    2    1    2    0    0  0.14844258301E+02  0.27469994061E+02  0.64627954141E+01  0.59301948147E+02  0.50000007512E+02 0.  0.
         12    1    1    2    0    0 -0.14844258301E+02 -0.27469994061E+02 -0.64627954141E+01  0.31886051853E+02  0.00000000000E+00 0. -1.
         11    1    3    3    0    0 -0.83451599915E+01 -0.48299017452E+00  0.68487958692E+01  0.10806524877E+02  0.51100000000E-03 0. -1.
        -11    1    3    3    0    0 -0.34597505683E+01  0.20247638932E+02 -0.24042712570E+01  0.20681326767E+02  0.51100000000E-03 0.  1.
        -12    1    3    3    0    0  0.26649168861E+02  0.77053453039E+01  0.20182708018E+01  0.27814096503E+02  0.00000000000E+00 0.  1.
</event>
<event>
 7    1  0.6316620E-012  0.5930191E+02  0.7816164E-02  0.1266605E+00
        -11   -1    0    0    0    0  0.00000000000E+00  0.00000000000E+00  0.45593999997E+02  0.45594000000E+02  0.51100000000E-03 0. -1.
         11   -1    0    0    0    0 -0.00000000000E+00 -0.00000000000E+00 -0.45593999997E+02  0.45594000000E+02  0.51100000000E-03 0.  1.
    9900012    2    1    2    0    0  0.28004530981E+02 -0.15192459265E+02  0.12877386833E+01  0.59301908284E+02  0.49999934813E+02 0.  0.
         12    1    1    2    0    0 -0.28004530981E+02  0.15192459265E+02 -0.12877386833E+01  0.31886091716E+02  0.00000000000E+00 0. -1.
         11    1    3    3    0    0 -0.10172210596E+02  0.48104273226E+01  0.57404814253E+01  0.12631991399E+02  0.51100000000E-03 0. -1.
        -11    1    3    3    0    0  0.91826290028E+00 -0.34382409540E+01 -0.46988629930E+01  0.58944059327E+01  0.51100000000E-03 0.  1.
        -12    1    3    3    0    0  0.37258478677E+02 -0.16564645634E+02  0.24612025097E+00  0.40775510953E+02  0.00000000000E+00 0.  1.
</event>
<event>
 7    1  0.6316620E-012  0.5930192E+02  0.7816164E-02  0.1266605E+00
        -11   -1    0    0    0    0  0.00000000000E+00  0.00000000000E+00  0.45593999997E+02  0.45594000000E+02  0.51100000000E-03 0.  1.
         11   -1    0    0    0    0 -0.00000000000E+00 -0.00000000000E+00 -0.45593999997E+02  0.45594000000E+02  0.51100000000E-03 0. -1.
    9900012    2    1    2    0    0  0.37960004844E+01  0.26199995006E+02 -0.17772817666E+02  0.59301915170E+02  0.49999947370E+02 0.  0.
         12    1    1    2    0    0 -0.37960004844E+01 -0.26199995006E+02  0.17772817666E+02  0.31886084830E+02  0.00000000000E+00 0. -1.
         11    1    3    3    0    0 -0.80294178782E+01  0.14647432819E+02 -0.50421984249E+01  0.17448283722E+02  0.51100000000E-03 0.  1.
        -11    1    3    3    0    0  0.20479886069E+02 -0.44389518559E+01 -0.28181316931E+01  0.21144074666E+02  0.51100000000E-03 0. -1.
         12    1    3    3    0    0 -0.86544677068E+01  0.15991514043E+02 -0.99124875485E+01  0.20709556781E+02  0.00000000000E+00 0. -1.
</event>
<event>
 7    1  0.6316620E-012  0.5930194E+02  0.7816164E-02  0.1266605E+00
        -11   -1    0    0    0    0  0.00000000000E+00  0.00000000000E+00  0.45593999997E+02  0.45594000000E+02  0.51100000000E-03 0. -1.
         11   -1    0    0    0    0 -0.00000000000E+00 -0.00000000000E+00 -0.45593999997E+02  0.45594000000E+02  0.51100000000E-03 0.  1.
    9900012    2    1    2    0    0 -0.12710817446E+02 -0.27588377817E+02 -0.96972976762E+01  0.59301936384E+02  0.49999986059E+02 0.  0.
         12    1    1    2    0    0  0.12710817446E+02  0.27588377817E+02  0.96972976762E+01  0.31886063616E+02  0.00000000000E+00 0. -1.
         11    1    3    3    0    0  0.76167770580E+01 -0.27283466310E+02  0.49545366154E+00  0.28331048361E+02  0.51100000000E-03 0. -1.
        -11    1    3    3    0    0 -0.11459995002E+02 -0.82421409605E+01  0.16124908647E+01  0.14207902735E+02  0.51100000000E-03 0.  1.
        -12    1    3    3    0    0 -0.88675995017E+01  0.79372294534E+01 -0.11805242202E+02  0.16762985288E+02  0.00000000000E+00 0.  1.
</event>
<event>
 7    1  0.6316620E-012  0.5930197E+02  0.7816164E-02  0.1266605E+00
        -11   -1    0    0    0    0  0.00000000000E+00  0.00000000000E+00  0.45593999997E+02  0.45594000000E+02  0.51100000000E-03 0.  1.
         11   -1    0    0    0    0 -0.00000000000E+00 -0.00000000000E+00 -0.45593999997E+02  0.45594000000E+02  0.51100000000E-03 0. -1.
    9900012    2    1    2    0    0  0.82089722326E+01  0.30008941991E+02  0.69853667923E+01  0.59301965851E+02  0.50000039800E+02 0.  0.
         12    1    1    2    0    0 -0.82089722326E+01 -0.30008941991E+02 -0.69853667923E+01  0.31886034149E+02  0.00000000000E+00 0. -1.
         11    1    3    3    0    0  0.45421515785E+01 -0.68115393637E+01 -0.10441187194E+02  0.13268255339E+02  0.51100000000E-03 0. -1.
        -11    1    3    3    0    0  0.57367491585E+00  0.24819766256E+01 -0.45024902711E+01  0.51731740529E+01  0.51100000000E-03 0.  1.
        -12    1    3    3    0    0  0.30931457383E+01  0.34338504730E+02  0.21929044258E+02  0.40860536458E+02  0.00000000000E+00 0.  1.
</event>
<event>
 7    1  0.6316620E-012  0.5930200E+02  0.7816164E-02  0.1266605E+00
        -11   -1    0    0    0    0  0.00000000000E+00  0.00000000000E+00  0.45593999997E+02  0.45594000000E+02  0.51100000000E-03 0.  1.
         11   -1    0    0    0    0 -0.00000000000E+00 -0.00000000000E+00 -0.45593999997E+02  0.45594000000E+02  0.51100000000E-03 0. -1.
    9900012    2    1    2    0    0  0.26888712100E+02 -0.17115017467E+02 -0.88890425966E+00  0.59302002884E+02  0.50000107339E+02 0.  0.
         12    1    1    2    0    0 -0.26888712100E+02  0.17115017467E+02  0.88890425966E+00  0.31885997116E+02  0.00000000000E+00 0. -1.
         11    1    3    3    0    0  0.14095058966E+02 -0.15872131208E+02  0.19729374333E+02  0.28980052591E+02  0.51100000000E-03 0. -1.
        -11    1    3    3    0    0 -0.42434322413E+01  0.22953800047E+01 -0.41458701729E+01  0.63611104616E+01  0.51100000000E-03 0.  1.
        -12    1    3    3    0    0  0.17037085376E+02 -0.35382662637E+01 -0.16472408420E+02  0.23960839831E+02  0.00000000000E+00 0.  1.
</event>
<event>
 7    1  0.6316620E-012  0.5930196E+02  0.7816164E-02  0.1266605E+00
        -11   -1    0    0    0    0  0.00000000000E+00  0.00000000000E+00  0.45593999997E+02  0.45594000000E+02  0.51100000000E-03 0.  1.
         11   -1    0    0    0    0 -0.00000000000E+00 -0.00000000000E+00 -0.45593999997E+02  0.45594000000E+02  0.51100000000E-03 0. -1.
    9900012    2    1    2    0    0  0.38280428971E+01 -0.29404864017E+02  0.11722621684E+02  0.59301956040E+02  0.50000021908E+02 0.  0.
         12    1    1    2    0    0 -0.38280428971E+01  0.29404864017E+02 -0.11722621684E+02  0.31886043960E+02  0.00000000000E+00 0. -1.
         11    1    3    3    0    0  0.75874821623E+01 -0.16948295028E+02 -0.87900847110E+01  0.20544590028E+02  0.51100000000E-03 0. -1.
        -11    1    3    3    0    0  0.11304696803E+02 -0.11170267530E+02  0.16928241214E+02  0.23219310872E+02  0.51100000000E-03 0.  1.
        -12    1    3    3    0    0 -0.15064136068E+02 -0.12863014584E+01  0.35844651806E+01  0.15538055141E+02  0.00000000000E+00 0.  1.
</event>
<event>
 7    1  0.6316620E-012  0.5930191E+02  0.7816164E-02  0.1266605E+00
        -11   -1    0    0    0    0  0.00000000000E+00  0.00000000000E+00  0.45593999997E+02  0.45594000000E+02  0.51100000000E-03 0.  1.
         11   -1    0    0    0    0 -0.00000000000E+00 -0.00000000000E+00 -0.45593999997E+02  0.45594000000E+02  0.51100000000E-03 0. -1.
    9900012    2    1    2    0    0 -0.51304237269E+01 -0.31237667906E+02 -0.38222766822E+01  0.59301906748E+02  0.49999932011E+02 0.  0.
         12    1    1    2    0    0  0.51304237269E+01  0.31237667906E+02  0.38222766822E+01  0.31886093252E+02  0.00000000000E+00 0. -1.
         11    1    3    3    0    0 -0.65339054128E+01 -0.23222048050E+02 -0.90404884300E+01  0.25762101368E+02  0.51100000000E-03 0. -1.
        -11    1    3    3    0    0 -0.15015769175E+02 -0.68711386053E+01  0.42548081347E+01  0.17052544156E+02  0.51100000000E-03 0.  1.
         12    1    3    3    0    0  0.16419250861E+02 -0.11444812508E+01  0.96340361311E+00  0.16487261225E+02  0.00000000000E+00 0. -1.
</event>
<event>
 7    1  0.6316620E-012  0.5930211E+02  0.7816164E-02  0.1266604E+00
        -11   -1    0    0    0    0  0.00000000000E+00  0.00000000000E+00  0.45593999997E+02  0.45594000000E+02  0.51100000000E-03 0. -1.
         11   -1    0    0    0    0 -0.00000000000E+00 -0.00000000000E+00 -0.45593999997E+02  0.45594000000E+02  0.51100000000E-03 0.  1.
    9900012    2    1    2    0    0 -0.59005424604E+01  0.27767330119E+02  0.14521328890E+02  0.59302109453E+02  0.50000301695E+02 0.  0.
         12    1    1    2    0    0  0.59005424604E+01 -0.27767330119E+02 -0.14521328890E+02  0.31885890547E+02  0.00000000000E+00 0. -1.
         11    1    3    3    0    0  0.16645356380E+02  0.70163048913E+01  0.11677555516E+02  0.21509572902E+02  0.51100000000E-03 0. -1.
        -11    1    3    3    0    0 -0.71874695593E+01  0.16308234685E+02 -0.68526077380E+01  0.19093885678E+02  0.51100000000E-03 0.  1.
        -12    1    3    3    0    0 -0.15358429282E+02  0.44427905424E+01  0.96963811122E+01  0.18698650873E+02  0.00000000000E+00 0.  1.
</event>
<event>
 7    1  0.6316620E-012  0.5930194E+02  0.7816164E-02  0.1266605E+00
        -11   -1    0    0    0    0  0.00000000000E+00  0.00000000000E+00  0.45593999997E+02  0.45594000000E+02  0.51100000000E-03 0.  1.
         11   -1    0    0    0    0 -0.00000000000E+00 -0.00000000000E+00 -0.45593999997E+02  0.45594000000E+02  0.51100000000E-03 0. -1.
    9900012    2    1    2    0    0 -0.16128784501E+02  0.27447050365E+02  0.18006780684E+01  0.59301941844E+02  0.49999996018E+02 0.  0.
         12    1    1    2    0    0  0.16128784501E+02 -0.27447050365E+02 -0.18006780684E+01  0.31886058156E+02  0.00000000000E+00 0. -1.
         11    1    3    3    0    0 -0.81643875566E+01  0.64478975249E+00  0.36840365589E+01  0.89802618908E+01  0.51100000000E-03 0. -1.
        -11    1    3    3    0    0 -0.12920988413E+02 -0.13347690452E+01 -0.14168695924E+02  0.19222005473E+02  0.51100000000E-03 0.  1.
        -12    1    3    3    0    0  0.49565914677E+01  0.28137029657E+02  0.12285337434E+02  0.31099674480E+02  0.00000000000E+00 0.  1.
</event>
<event>
 7    1  0.6316620E-012  0.5930189E+02  0.7816164E-02  0.1266605E+00
        -11   -1    0    0    0    0  0.00000000000E+00  0.00000000000E+00  0.45593999997E+02  0.45594000000E+02  0.51100000000E-03 0.  1.
         11   -1    0    0    0    0 -0.00000000000E+00 -0.00000000000E+00 -0.45593999997E+02  0.45594000000E+02  0.51100000000E-03 0. -1.
    9900012    2    1    2    0    0 -0.20332117301E+02  0.18158587448E+02  0.16540707057E+02  0.59301885750E+02  0.49999893715E+02 0.  0.
         12    1    1    2    0    0  0.20332117301E+02 -0.18158587448E+02 -0.16540707057E+02  0.31886114250E+02  0.00000000000E+00 0. -1.
         11    1    3    3    0    0 -0.16013791440E+01 -0.20798956867E+01 -0.82957706386E+00  0.27529220106E+01  0.51100000000E-03 0. -1.
        -11    1    3    3    0    0 -0.26365905271E+02 -0.54138286652E+01  0.10707897682E+02  0.28967733336E+02  0.51100000000E-03 0.  1.
         12    1    3    3    0    0  0.76351671141E+01  0.25652311799E+02  0.66623864388E+01  0.27581230404E+02  0.00000000000E+00 0. -1.
</event>
<event>
 7    1  0.6316620E-012  0.5930192E+02  0.7816164E-02  0.1266605E+00
        -11   -1    0    0    0    0  0.00000000000E+00  0.00000000000E+00  0.45593999997E+02  0.45594000000E+02  0.51100000000E-03 0. -1.
         11   -1    0    0    0    0 -0.00000000000E+00 -0.00000000000E+00 -0.45593999997E+02  0.45594000000E+02  0.51100000000E-03 0.  1.
    9900012    2    1    2    0    0  0.19986688409E+02  0.18300681952E+02 -0.16802956508E+02  0.59301921206E+02  0.49999958379E+02 0.  0.
         12    1    1    2    0    0 -0.19986688409E+02 -0.18300681952E+02  0.16802956508E+02  0.31886078794E+02  0.00000000000E+00 0. -1.
         11    1    3    3    0    0 -0.86673891441E+01  0.29071686335E+01 -0.30697812002E+01  0.96435896282E+01  0.51100000000E-03 0. -1.
        -11    1    3    3    0    0  0.13951452024E+01  0.14087517406E+02 -0.17057158666E+02  0.22166443982E+02  0.51100000000E-03 0.  1.
         12    1    3    3    0    0  0.27258932350E+02  0.13059959119E+01  0.33239833582E+01  0.27491887595E+02  0.00000000000E+00 0. -1.
</event>
<event>
 7    1  0.6316620E-012  0.5930197E+02  0.7816164E-02  0.1266605E+00
        -11   -1    0    0    0    0  0.00000000000E+00  0.00000000000E+00  0.45593999997E+02  0.45594000000E+02  0.51100000000E-03 0.  1.
         11   -1    0    0    0    0 -0.00000000000E+00 -0.00000000000E+00 -0.45593999997E+02  0.45594000000E+02  0.51100000000E-03 0. -1.
    9900012    2    1    2    0    0  0.15509504467E+02  0.68320690327E+01  0.27009203921E+02  0.59301968693E+02  0.50000044983E+02 0.  0.
         12    1    1    2    0    0 -0.15509504467E+02 -0.68320690327E+01 -0.27009203921E+02  0.31886031307E+02  0.00000000000E+00 0. -1.
         11    1    3    3    0    0 -0.61147656050E+01  0.70730639050E+01  0.90082878945E+01  0.12983367917E+02  0.51100000000E-03 0. -1.
        -11    1    3    3    0    0  0.17339193946E+02  0.12266047230E+02  0.23785160448E+02  0.31887888283E+02  0.51100000000E-03 0.  1.
         12    1    3    3    0    0  0.42850761257E+01 -0.12507042102E+02 -0.57842444210E+01  0.14430712493E+02  0.00000000000E+00 0. -1.
</event>
<event>
 7    1  0.6316620E-012  0.5930195E+02  0.7816164E-02  0.1266605E+00
        -11   -1    0    0    0    0  0.00000000000E+00  0.00000000000E+00  0.45593999997E+02  0.45594000000E+02  0.51100000000E-03 0. -1.
         11   -1    0    0    0    0 -0.00000000000E+00 -0.00000000000E+00 -0.45593999997E+02  0.45594000000E+02  0.51100000000E-03 0.  1.
    9900012    2    1    2    0    0 -0.12754839681E+02 -0.18403918238E+02 -0.22700884415E+02  0.59301948269E+02  0.50000007735E+02 0.  0.
         12    1    1    2    0    0  0.12754839681E+02  0.18403918238E+02  0.22700884415E+02  0.31886051731E+02  0.00000000000E+00 0. -1.
         11    1    3    3    0    0 -0.10735276876E+02 -0.27936288775E+01 -0.21949817436E+02  0.24593597086E+02  0.51100000000E-03 0. -1.
        -11    1    3    3    0    0  0.69874980185E+01 -0.59597910722E+01 -0.13518840341E+02  0.16343294730E+02  0.51100000000E-03 0.  1.
         12    1    3    3    0    0 -0.90070608235E+01 -0.96504982878E+01  0.12767773363E+02  0.18365056453E+02  0.00000000000E+00 0. -1.
</event>
<event>
 7    1  0.6316620E-012  0.5930196E+02  0.7816164E-02  0.1266605E+00
        -11   -1    0    0    0    0  0.00000000000E+00  0.00000000000E+00  0.45593999997E+02  0.45594000000E+02  0.51100000000E-03 0. -1.
         11   -1    0    0    0    0 -0.00000000000E+00 -0.00000000000E+00 -0.45593999997E+02  0.45594000000E+02  0.51100000000E-03 0.  1.
    9900012    2    1    2    0    0  0.78521453122E+01 -0.22621832484E+02  0.21055076056E+02  0.59301957307E+02  0.50000024217E+02 0.  0.
         12    1    1    2    0    0 -0.78521453122E+01  0.22621832484E+02 -0.21055076056E+02  0.31886042693E+02  0.00000000000E+00 0. -1.
         11    1    3    3    0    0 -0.91737996088E+01 -0.11520615523E+02  0.25852177989E+02  0.29752618176E+02  0.51100000000E-03 0. -1.
        -11    1    3    3    0    0  0.46232610353E+01 -0.27276446533E+01  0.81515064608E+01  0.97602072620E+01  0.51100000000E-03 0.  1.
        -12    1    3    3    0    0  0.12402683886E+02 -0.83735723075E+01 -0.12948608394E+02  0.19789131868E+02  0.00000000000E+00 0.  1.
</event>
<event>
 7    1  0.6316620E-012  0.5930198E+02  0.7816164E-02  0.1266605E+00
        -11   -1    0    0    0    0  0.00000000000E+00  0.00000000000E+00  0.45593999997E+02  0.45594000000E+02  0.51100000000E-03 0.  1.
         11   -1    0    0    0    0 -0.00000000000E+00 -0.00000000000E+00 -0.45593999997E+02  0.45594000000E+02  0.51100000000E-03 0. -1.
    9900012    2    1    2    0    0 -0.19475674977E+02  0.25158397384E+02  0.21144973886E+01  0.59301984665E+02  0.50000074112E+02 0.  0.
         12    1    1    2    0    0  0.19475674977E+02 -0.25158397384E+02 -0.21144973886E+01  0.31886015335E+02  0.00000000000E+00 0. -1.
         11    1    3    3    0    0 -0.20669169483E+02 -0.19035870826E+01 -0.48525068190E+01  0.21316309099E+02  0.51100000000E-03 0. -1.
        -11    1    3    3    0    0 -0.10996248261E+02  0.62725857216E+01  0.56131517487E+01  0.13848114683E+02  0.51100000000E-03 0.  1.
         12    1    3    3    0    0  0.12189742767E+02  0.20789398745E+02  0.13538524588E+01  0.24137560883E+02  0.00000000000E+00 0. -1.
</event>
<event>
 7    1  0.6316620E-012  0.5930194E+02  0.7816164E-02  0.1266605E+00
        -11   -1    0    0    0    0  0.00000000000E+00  0.00000000000E+00  0.45593999997E+02  0.45594000000E+02  0.51100000000E-03 0. -1.
         11   -1    0    0    0    0 -0.00000000000E+00 -0.00000000000E+00 -0.45593999997E+02  0.45594000000E+02  0.51100000000E-03 0.  1.
    9900012    2    1    2    0    0  0.20252063895E+02 -0.24562534531E+02  0.18045490823E+01  0.59301943612E+02  0.49999999243E+02 0.  0.
         12    1    1    2    0    0 -0.20252063895E+02  0.24562534531E+02 -0.18045490823E+01  0.31886056388E+02  0.00000000000E+00 0. -1.
         11    1    3    3    0    0  0.34341021938E+01  0.57064955591E+00 -0.83707047818E+00  0.35804170204E+01  0.51100000000E-03 0. -1.
        -11    1    3    3    0    0 -0.11130336038E+02 -0.16475588025E+02 -0.11770833243E+02  0.23105884457E+02  0.51100000000E-03 0.  1.
         12    1    3    3    0    0  0.27948297739E+02 -0.86575960620E+01  0.14412452803E+02  0.32615642135E+02  0.00000000000E+00 0. -1.
</event>
<event>
 7    1  0.6316620E-012  0.5930169E+02  0.7816164E-02  0.1266606E+00
        -11   -1    0    0    0    0  0.00000000000E+00  0.00000000000E+00  0.45593999997E+02  0.45594000000E+02  0.51100000000E-03 0.  1.
         11   -1    0    0    0    0 -0.00000000000E+00 -0.00000000000E+00 -0.45593999997E+02  0.45594000000E+02  0.51100000000E-03 0. -1.
    9900012    2    1    2    0    0  0.18348431869E+02  0.40618433731E+01  0.25759914116E+02  0.59301691043E+02  0.49999538615E+02 0.  0.
         12    1    1    2    0    0 -0.18348431869E+02 -0.40618433731E+01 -0.25759914116E+02  0.31886308957E+02  0.00000000000E+00 0. -1.
         11    1    3    3    0    0  0.34236940967E+01 -0.42759772639E+01  0.17264994006E+02  0.18113135596E+02  0.51100000000E-03 0. -1.
        -11    1    3    3    0    0  0.25885616182E+02 -0.98422151252E+00  0.58952614796E+01  0.26566669443E+02  0.51100000000E-03 0.  1.
         12    1    3    3    0    0 -0.10960878410E+02  0.93220421495E+01  0.25996586304E+01  0.14621886005E+02  0.00000000000E+00 0. -1.
</event>
<event>
 7    1  0.6316620E-012  0.5930193E+02  0.7816164E-02  0.1266605E+00
        -11   -1    0    0    0    0  0.00000000000E+00  0.00000000000E+00  0.45593999997E+02  0.45594000000E+02  0.51100000000E-03 0.  1.
         11   -1    0    0    0    0 -0.00000000000E+00 -0.00000000000E+00 -0.45593999997E+02  0.45594000000E+02  0.51100000000E-03 0. -1.
    9900012    2    1    2    0    0  0.73377547199E+01  0.57346450425E+01  0.30495776616E+02  0.59301934242E+02  0.49999982154E+02 0.  0.
         12    1    1    2    0    0 -0.73377547199E+01 -0.57346450425E+01 -0.30495776616E+02  0.31886065758E+02  0.00000000000E+00 0. -1.
         11    1    3    3    0    0  0.71819500846E+01  0.15948689381E+01 -0.52440664648E+01  0.90346138432E+01  0.51100000000E-03 0. -1.
        -11    1    3    3    0    0  0.11562418224E+02  0.12959013630E+02  0.30167652839E+02  0.34809665720E+02  0.51100000000E-03 0.  1.
         12    1    3    3    0    0 -0.11406613589E+02 -0.88192375258E+01  0.55721902417E+01  0.15457654679E+02  0.00000000000E+00 0. -1.
</event>
<event>
 7    1  0.6316620E-012  0.5930194E+02  0.7816164E-02  0.1266605E+00
        -11   -1    0    0    0    0  0.00000000000E+00  0.00000000000E+00  0.45593999997E+02  0.45594000000E+02  0.51100000000E-03 0. -1.
         11   -1    0    0    0    0 -0.00000000000E+00 -0.00000000000E+00 -0.45593999997E+02  0.45594000000E+02  0.51100000000E-03 0.  1.
    9900012    2    1    2    0    0  0.15469119598E+02 -0.51452472862E-01 -0.27882328746E+02  0.59301944039E+02  0.50000000020E+02 0.  0.
         12    1    1    2    0    0 -0.15469119598E+02  0.51452472862E-01  0.27882328746E+02  0.31886055961E+02  0.00000000000E+00 0. -1.
         11    1    3    3    0    0 -0.46819314240E+01 -0.51750806146E+01 -0.14913361298E+02  0.16465427012E+02  0.51100000000E-03 0. -1.
        -11    1    3    3    0    0 -0.48511484061E+01 -0.58933935773E+01 -0.13501027443E+02  0.15509463917E+02  0.51100000000E-03 0.  1.
        -12    1    3    3    0    0  0.25002199428E+02  0.11017021719E+02  0.53205999541E+00  0.27327053109E+02  0.00000000000E+00 0.  1.
</event>
<event>
 7    1  0.6316620E-012  0.5930194E+02  0.7816164E-02  0.1266605E+00
        -11   -1    0    0    0    0  0.00000000000E+00  0.00000000000E+00  0.45593999997E+02  0.45594000000E+02  0.51100000000E-03 0. -1.
         11   -1    0    0    0    0 -0.00000000000E+00 -0.00000000000E+00 -0.45593999997E+02  0.45594000000E+02  0.51100000000E-03 0.  1.
    9900012    2    1    2    0    0  0.18252926944E+02 -0.18112156544E+02 -0.18854744807E+02  0.59301937866E+02  0.49999988762E+02 0.  0.
         12    1    1    2    0    0 -0.18252926944E+02  0.18112156544E+02  0.18854744807E+02  0.31886062134E+02  0.00000000000E+00 0. -1.
         11    1    3    3    0    0 -0.28872332457E+01 -0.57217100771E+00 -0.34207066840E+01  0.45127297677E+01  0.51100000000E-03 0.  1.
        -11    1    3    3    0    0 -0.47193105641E+01 -0.12227273049E+02  0.11235573591E+02  0.17263146080E+02  0.51100000000E-03 0. -1.
         12    1    3    3    0    0  0.25859470754E+02 -0.53127124874E+01 -0.26669611714E+02  0.37526062018E+02  0.00000000000E+00 0. -1.
</event>
<event>
 7    1  0.6316620E-012  0.5930201E+02  0.7816164E-02  0.1266605E+00
        -11   -1    0    0    0    0  0.00000000000E+00  0.00000000000E+00  0.45593999997E+02  0.45594000000E+02  0.51100000000E-03 0. -1.
         11   -1    0    0    0    0 -0.00000000000E+00 -0.00000000000E+00 -0.45593999997E+02  0.45594000000E+02  0.51100000000E-03 0.  1.
    9900012    2    1    2    0    0 -0.26280666486E+02 -0.55321236011E+01 -0.17188319197E+02  0.59302013434E+02  0.50000126580E+02 0.  0.
         12    1    1    2    0    0  0.26280666486E+02  0.55321236011E+01  0.17188319197E+02  0.31885986566E+02  0.00000000000E+00 0. -1.
         11    1    3    3    0    0 -0.30066920952E+01 -0.15887987257E+02 -0.14777538733E+02  0.21905341534E+02  0.51100000000E-03 0. -1.
        -11    1    3    3    0    0  0.42728098599E+01 -0.19635999954E+01 -0.52967180854E+01  0.70829267806E+01  0.51100000000E-03 0.  1.
        -12    1    3    3    0    0 -0.27546784250E+02  0.12319463652E+02  0.28859376214E+01  0.30313745119E+02  0.00000000000E+00 0.  1.
</event>
<event>
 7    1  0.6316620E-012  0.5930196E+02  0.7816164E-02  0.1266605E+00
        -11   -1    0    0    0    0  0.00000000000E+00  0.00000000000E+00  0.45593999997E+02  0.45594000000E+02  0.51100000000E-03 0. -1.
         11   -1    0    0    0    0 -0.00000000000E+00 -0.00000000000E+00 -0.45593999997E+02  0.45594000000E+02  0.51100000000E-03 0.  1.
    9900012    2    1    2    0    0  0.13110369162E+02  0.12995144515E+02 -0.25999304452E+02  0.59301962421E+02  0.50000033544E+02 0.  0.
         12    1    1    2    0    0 -0.13110369162E+02 -0.12995144515E+02  0.25999304452E+02  0.31886037579E+02  0.00000000000E+00 0. -1.
         11    1    3    3    0    0  0.56957019942E+01 -0.25120194021E+01 -0.11092954834E+01  0.63231162739E+01  0.51100000000E-03 0. -1.
        -11    1    3    3    0    0  0.61032668890E+01  0.16259048240E+02  0.86520835623E+01  0.19402707714E+02  0.51100000000E-03 0.  1.
        -12    1    3    3    0    0  0.13114002786E+01 -0.75188432346E+00 -0.33542092531E+02  0.33576138433E+02  0.00000000000E+00 0.  1.
</event>
<event>
 7    1  0.6316620E-012  0.5930195E+02  0.7816164E-02  0.1266605E+00
        -11   -1    0    0    0    0  0.00000000000E+00  0.00000000000E+00  0.45593999997E+02  0.45594000000E+02  0.51100000000E-03 0.  1.
         11   -1    0    0    0    0 -0.00000000000E+00 -0.00000000000E+00 -0.45593999997E+02  0.45594000000E+02  0.51100000000E-03 0. -1.
    9900012    2    1    2    0    0 -0.11935630689E+02  0.18656581741E+02  0.22938891018E+02  0.59301952215E+02  0.50000014932E+02 0.  0.
         12    1    1    2    0    0  0.11935630689E+02 -0.18656581741E+02 -0.22938891018E+02  0.31886047785E+02  0.00000000000E+00 0. -1.
         11    1    3    3    0    0  0.68035626584E+01  0.11316906882E+02 -0.62468203085E+01  0.14607655885E+02  0.51100000000E-03 0. -1.
        -11    1    3    3    0    0 -0.27149394740E+01  0.13367384568E+02  0.39527686915E+01  0.14201487497E+02  0.51100000000E-03 0.  1.
        -12    1    3    3    0    0 -0.16024253873E+02 -0.60277097093E+01  0.25232942635E+02  0.30492808834E+02  0.00000000000E+00 0.  1.
</event>
<event>
 7    1  0.6316620E-012  0.5930194E+02  0.7816164E-02  0.1266605E+00
        -11   -1    0    0    0    0  0.00000000000E+00  0.00000000000E+00  0.45593999997E+02  0.45594000000E+02  0.51100000000E-03 0.  1.
         11   -1    0    0    0    0 -0.00000000000E+00 -0.00000000000E+00 -0.45593999997E+02  0.45594000000E+02  0.51100000000E-03 0. -1.
    9900012    2    1    2    0    0  0.44667364655E+01 -0.57214594852E+01  0.31048894667E+02  0.59301942023E+02  0.49999996344E+02 0.  0.
         12    1    1    2    0    0 -0.44667364655E+01  0.57214594852E+01 -0.31048894667E+02  0.31886057977E+02  0.00000000000E+00 0. -1.
         11    1    3    3    0    0  0.12910352722E+02 -0.66698075142E+01  0.17180233538E+02  0.22501643592E+02  0.51100000000E-03 0. -1.
        -11    1    3    3    0    0  0.95647784227E+01  0.54447806022E+01  0.14529396632E+02  0.18227286930E+02  0.51100000000E-03 0.  1.
        -12    1    3    3    0    0 -0.18008394679E+02 -0.44964325731E+01 -0.66073550279E+00  0.18573011501E+02  0.00000000000E+00 0.  1.
</event>
<event>
 7    1  0.6316620E-012  0.5930193E+02  0.7816164E-02  0.1266605E+00
        -11   -1    0    0    0    0  0.00000000000E+00  0.00000000000E+00  0.45593999997E+02  0.45594000000E+02  0.51100000000E-03 0.  1.
         11   -1    0    0    0    0 -0.00000000000E+00 -0.00000000000E+00 -0.45593999997E+02  0.45594000000E+02  0.51100000000E-03 0. -1.
    9900012    2    1    2    0    0 -0.24354408716E+02 -0.15307870951E+02  0.13756929506E+02  0.59301933350E+02  0.49999980526E+02 0.  0.
         12    1    1    2    0    0  0.24354408716E+02  0.15307870951E+02 -0.13756929506E+02  0.31886066650E+02  0.00000000000E+00 0. -1.
         11    1    3    3    0    0  0.13452044943E+02 -0.37190618243E+01  0.43865688269E+01  0.14629795635E+02  0.51100000000E-03 0. -1.
        -11    1    3    3    0    0 -0.37336733145E+01 -0.54520349946E+01  0.75070237148E+01  0.10001020314E+02  0.51100000000E-03 0.  1.
        -12    1    3    3    0    0 -0.34072780345E+02 -0.61367741325E+01  0.18633369647E+01  0.34671117401E+02  0.00000000000E+00 0.  1.
</event>
<event>
 7    1  0.6316620E-012  0.5930195E+02  0.7816164E-02  0.1266605E+00
        -11   -1    0    0    0    0  0.00000000000E+00  0.00000000000E+00  0.45593999997E+02  0.45594000000E+02  0.51100000000E-03 0.  1.
         11   -1    0    0    0    0 -0.00000000000E+00 -0.00000000000E+00 -0.45593999997E+02  0.45594000000E+02  0.51100000000E-03 0. -1.
    9900012    2    1    2    0    0 -0.20567145108E+02  0.17626173660E+02 -0.16823510994E+02  0.59301953240E+02  0.50000016802E+02 0.  0.
         12    1    1    2    0    0  0.20567145108E+02 -0.17626173660E+02  0.16823510994E+02  0.31886046760E+02  0.00000000000E+00 0. -1.
         11    1    3    3    0    0 -0.19996180944E+02  0.17615071609E+02 -0.12600366413E+02  0.29477232471E+02  0.51100000000E-03 0. -1.
        -11    1    3    3    0    0 -0.75591286554E+01  0.60643412596E+01  0.93077237649E+01  0.13436903769E+02  0.51100000000E-03 0.  1.
        -12    1    3    3    0    0  0.69881644910E+01 -0.60532392085E+01 -0.13530868346E+02  0.16387817001E+02  0.00000000000E+00 0.  1.
</event>
<event>
 7    1  0.6316620E-012  0.5930195E+02  0.7816164E-02  0.1266605E+00
        -11   -1    0    0    0    0  0.00000000000E+00  0.00000000000E+00  0.45593999997E+02  0.45594000000E+02  0.51100000000E-03 0.  1.
         11   -1    0    0    0    0 -0.00000000000E+00 -0.00000000000E+00 -0.45593999997E+02  0.45594000000E+02  0.51100000000E-03 0. -1.
    9900012    2    1    2    0    0  0.34344357778E+01  0.14428797845E+01  0.31667694427E+02  0.59301950989E+02  0.50000012696E+02 0.  0.
         12    1    1    2    0    0 -0.34344357778E+01 -0.14428797845E+01 -0.31667694427E+02  0.31886049011E+02  0.00000000000E+00 0. -1.
         11    1    3    3    0    0 -0.40810425488E+01  0.39609890232E-01  0.11066138484E+02  0.11794740287E+02  0.51100000000E-03 0.  1.
        -11    1    3    3    0    0 -0.73887923417E+01  0.16068074896E+02  0.19848342725E+02  0.26584469006E+02  0.51100000000E-03 0. -1.
        -12    1    3    3    0    0  0.14904270668E+02 -0.14664805002E+02  0.75321321748E+00  0.20922741696E+02  0.00000000000E+00 0.  1.
</event>
<event>
 7    1  0.6316620E-012  0.5930193E+02  0.7816164E-02  0.1266605E+00
        -11   -1    0    0    0    0  0.00000000000E+00  0.00000000000E+00  0.45593999997E+02  0.45594000000E+02  0.51100000000E-03 0.  1.
         11   -1    0    0    0    0 -0.00000000000E+00 -0.00000000000E+00 -0.45593999997E+02  0.45594000000E+02  0.51100000000E-03 0. -1.
    9900012    2    1    2    0    0 -0.17401813745E+02  0.17604273799E+02  0.20099449604E+02  0.59301930126E+02  0.49999974647E+02 0.  0.
         12    1    1    2    0    0  0.17401813745E+02 -0.17604273799E+02 -0.20099449604E+02  0.31886069874E+02  0.00000000000E+00 0. -1.
         11    1    3    3    0    0 -0.56225937765E+01  0.88751204123E+00 -0.54620483634E+01  0.78889296475E+01  0.51100000000E-03 0. -1.
        -11    1    3    3    0    0 -0.22383757023E+02  0.14919614894E+02  0.38381644402E+01  0.27172761979E+02  0.51100000000E-03 0.  1.
        -12    1    3    3    0    0  0.10604537055E+02  0.17971468642E+01  0.21723333527E+02  0.24240238499E+02  0.00000000000E+00 0.  1.
</event>
<event>
 7    1  0.6316620E-012  0.5930195E+02  0.7816164E-02  0.1266605E+00
        -11   -1    0    0    0    0  0.00000000000E+00  0.00000000000E+00  0.45593999997E+02  0.45594000000E+02  0.51100000000E-03 0.  1.
         11   -1    0    0    0    0 -0.00000000000E+00 -0.00000000000E+00 -0.45593999997E+02  0.45594000000E+02  0.51100000000E-03 0. -1.
    9900012    2    1    2    0    0 -0.25663761592E+01 -0.28003694467E+02  0.15030867878E+02  0.59301950079E+02  0.50000011035E+02 0.  0.
         12    1    1    2    0    0  0.25663761592E+01  0.28003694467E+02 -0.15030867878E+02  0.31886049921E+02  0.00000000000E+00 0. -1.
         11    1    3    3    0    0  0.10215573086E+02  0.72632423945E+00  0.94232215450E+01  0.13916989075E+02  0.51100000000E-03 0. -1.
        -11    1    3    3    0    0  0.87038262496E+01 -0.86132492250E+01 -0.61344572371E+01  0.13695846796E+02  0.51100000000E-03 0.  1.
        -12    1    3    3    0    0 -0.21485775495E+02 -0.20116769482E+02  0.11742103570E+02  0.31689114208E+02  0.00000000000E+00 0.  1.
</event>
<event>
 7    1  0.6316620E-012  0.5930195E+02  0.7816164E-02  0.1266605E+00
        -11   -1    0    0    0    0  0.00000000000E+00  0.00000000000E+00  0.45593999997E+02  0.45594000000E+02  0.51100000000E-03 0.  1.
         11   -1    0    0    0    0 -0.00000000000E+00 -0.00000000000E+00 -0.45593999997E+02  0.45594000000E+02  0.51100000000E-03 0. -1.
    9900012    2    1    2    0    0  0.31649029976E+02  0.22102455399E+01  0.31896212408E+01  0.59301953405E+02  0.50000017102E+02 0.  0.
         12    1    1    2    0    0 -0.31649029976E+02 -0.22102455399E+01 -0.31896212408E+01  0.31886046595E+02  0.00000000000E+00 0. -1.
         11    1    3    3    0    0  0.63626985311E-01 -0.14278602874E+02 -0.11649772674E+02  0.18428232472E+02  0.51100000000E-03 0. -1.
        -11    1    3    3    0    0  0.49635168109E+00  0.18388944733E+01 -0.18611243615E+01  0.26630212214E+01  0.51100000000E-03 0.  1.
        -12    1    3    3    0    0  0.31089051310E+02  0.14649953940E+02  0.16700518276E+02  0.38210699712E+02  0.00000000000E+00 0.  1.
</event>
<event>
 7    1  0.6316620E-012  0.5930194E+02  0.7816164E-02  0.1266605E+00
        -11   -1    0    0    0    0  0.00000000000E+00  0.00000000000E+00  0.45593999997E+02  0.45594000000E+02  0.51100000000E-03 0.  1.
         11   -1    0    0    0    0 -0.00000000000E+00 -0.00000000000E+00 -0.45593999997E+02  0.45594000000E+02  0.51100000000E-03 0. -1.
    9900012    2    1    2    0    0  0.15224076994E+02 -0.21846316824E+02 -0.17541008400E+02  0.59301936354E+02  0.49999986006E+02 0.  0.
         12    1    1    2    0    0 -0.15224076994E+02  0.21846316824E+02  0.17541008400E+02  0.31886063646E+02  0.00000000000E+00 0. -1.
         11    1    3    3    0    0  0.20086041952E+02 -0.23587112439E+02 -0.20922399477E+02  0.37383789999E+02  0.51100000000E-03 0. -1.
        -11    1    3    3    0    0  0.65451757206E+01 -0.45592477793E+01  0.38950185664E+01  0.88767806901E+01  0.51100000000E-03 0.  1.
         12    1    3    3    0    0 -0.11407140678E+02  0.63000433941E+01 -0.51362748917E+00  0.13041365666E+02  0.00000000000E+00 0. -1.
</event>
<event>
 7    1  0.6316620E-012  0.5930196E+02  0.7816164E-02  0.1266605E+00
        -11   -1    0    0    0    0  0.00000000000E+00  0.00000000000E+00  0.45593999997E+02  0.45594000000E+02  0.51100000000E-03 0.  1.
         11   -1    0    0    0    0 -0.00000000000E+00 -0.00000000000E+00 -0.45593999997E+02  0.45594000000E+02  0.51100000000E-03 0. -1.
    9900012    2    1    2    0    0  0.14228021556E+02 -0.16561948669E+02  0.23237578680E+02  0.59301955968E+02  0.50000021776E+02 0.  0.
         12    1    1    2    0    0 -0.14228021556E+02  0.16561948669E+02 -0.23237578680E+02  0.31886044032E+02  0.00000000000E+00 0. -1.
         11    1    3    3    0    0 -0.19322774545E+01 -0.14491177864E+02  0.85475846071E+01  0.16934849717E+02  0.51100000000E-03 0. -1.
        -11    1    3    3    0    0 -0.44153279464E+00 -0.17196348508E+02  0.76892714883E+01  0.18842352547E+02  0.51100000000E-03 0.  1.
         12    1    3    3    0    0  0.16601831805E+02  0.15125577703E+02  0.70007225847E+01  0.23524753704E+02  0.00000000000E+00 0. -1.
</event>
<event>
 7    1  0.6316620E-012  0.5930193E+02  0.7816164E-02  0.1266605E+00
        -11   -1    0    0    0    0  0.00000000000E+00  0.00000000000E+00  0.45593999997E+02  0.45594000000E+02  0.51100000000E-03 0. -1.
         11   -1    0    0    0    0 -0.00000000000E+00 -0.00000000000E+00 -0.45593999997E+02  0.45594000000E+02  0.51100000000E-03 0.  1.
    9900012    2    1    2    0    0  0.28039137224E+02 -0.82232009654E+01  0.12763500127E+02  0.59301934299E+02  0.49999982257E+02 0.  0.
         12    1    1    2    0    0 -0.28039137224E+02  0.82232009654E+01 -0.12763500127E+02  0.31886065701E+02  0.00000000000E+00 0. -1.
         11    1    3    3    0    0  0.10250907973E+02  0.10456627817E+02 -0.58395229719E+00  0.14654800583E+02  0.51100000000E-03 0. -1.
        -11    1    3    3    0    0  0.20629741503E+01 -0.38511981378E+01 -0.11151323700E+02  0.11976627654E+02  0.51100000000E-03 0.  1.
         12    1    3    3    0    0  0.15725255101E+02 -0.14828630645E+02  0.24498776124E+02  0.32670506062E+02  0.00000000000E+00 0. -1.
</event>
<event>
 7    1  0.6316620E-012  0.5930196E+02  0.7816164E-02  0.1266605E+00
        -11   -1    0    0    0    0  0.00000000000E+00  0.00000000000E+00  0.45593999997E+02  0.45594000000E+02  0.51100000000E-03 0.  1.
         11   -1    0    0    0    0 -0.00000000000E+00 -0.00000000000E+00 -0.45593999997E+02  0.45594000000E+02  0.51100000000E-03 0. -1.
    9900012    2    1    2    0    0  0.13658437589E+02  0.20284425674E+02  0.20462376098E+02  0.59301957946E+02  0.50000025383E+02 0.  0.
         12    1    1    2    0    0 -0.13658437589E+02 -0.20284425674E+02 -0.20462376098E+02  0.31886042054E+02  0.00000000000E+00 0. -1.
         11    1    3    3    0    0 -0.13032786276E+01  0.34650653877E+00 -0.13150877522E+02  0.13219840461E+02  0.51100000000E-03 0. -1.
        -11    1    3    3    0    0 -0.26798061893E+01  0.65692301528E+01  0.17886485285E+01  0.73167895851E+01  0.51100000000E-03 0.  1.
        -12    1    3    3    0    0  0.17641522406E+02  0.13368688983E+02  0.31824605092E+02  0.38765327899E+02  0.00000000000E+00 0.  1.
</event>
<event>
 7    1  0.6316620E-012  0.5930193E+02  0.7816164E-02  0.1266605E+00
        -11   -1    0    0    0    0  0.00000000000E+00  0.00000000000E+00  0.45593999997E+02  0.45594000000E+02  0.51100000000E-03 0.  1.
         11   -1    0    0    0    0 -0.00000000000E+00 -0.00000000000E+00 -0.45593999997E+02  0.45594000000E+02  0.51100000000E-03 0. -1.
    9900012    2    1    2    0    0  0.48479916810E+00 -0.29170917484E+02  0.12866385823E+02  0.59301931863E+02  0.49999977815E+02 0.  0.
         12    1    1    2    0    0 -0.48479916810E+00  0.29170917484E+02 -0.12866385823E+02  0.31886068137E+02  0.00000000000E+00 0. -1.
         11    1    3    3    0    0 -0.46482867400E+01 -0.10776664690E+01  0.34855883825E+01  0.59090829465E+01  0.51100000000E-03 0. -1.
        -11    1    3    3    0    0  0.79102114054E+01  0.86676225057E+01  0.11547759779E+02  0.16463592577E+02  0.51100000000E-03 0.  1.
        -12    1    3    3    0    0 -0.27771254973E+01 -0.36760873520E+02 -0.21669623378E+01  0.36929256339E+02  0.00000000000E+00 0.  1.
</event>
<event>
 7    1  0.6316620E-012  0.5930194E+02  0.7816164E-02  0.1266605E+00
        -11   -1    0    0    0    0  0.00000000000E+00  0.00000000000E+00  0.45593999997E+02  0.45594000000E+02  0.51100000000E-03 0. -1.
         11   -1    0    0    0    0 -0.00000000000E+00 -0.00000000000E+00 -0.45593999997E+02  0.45594000000E+02  0.51100000000E-03 0.  1.
    9900012    2    1    2    0    0 -0.17058626350E+02 -0.23257695131E+01 -0.26838681531E+02  0.59301940929E+02  0.49999994348E+02 0.  0.
         12    1    1    2    0    0  0.17058626350E+02  0.23257695131E+01  0.26838681531E+02  0.31886059071E+02  0.00000000000E+00 0. -1.
         11    1    3    3    0    0  0.75744396514E+01 -0.28921377817E+00  0.23833263138E+01  0.79458180964E+01  0.51100000000E-03 0. -1.
        -11    1    3    3    0    0  0.26334099756E+01 -0.11208121824E+02 -0.18762585710E+01  0.11665212789E+02  0.51100000000E-03 0.  1.
        -12    1    3    3    0    0 -0.27266475977E+02  0.91715660889E+01 -0.27345749274E+02  0.39690910043E+02  0.00000000000E+00 0.  1.
</event>
<event>
 7    1  0.6316620E-012  0.5930193E+02  0.7816164E-02  0.1266605E+00
        -11   -1    0    0    0    0  0.00000000000E+00  0.00000000000E+00  0.45593999997E+02  0.45594000000E+02  0.51100000000E-03 0.  1.
         11   -1    0    0    0    0 -0.00000000000E+00 -0.00000000000E+00 -0.45593999997E+02  0.45594000000E+02  0.51100000000E-03 0. -1.
    9900012    2    1    2    0    0 -0.14417388821E+02  0.23062892809E+02 -0.16642224746E+02  0.59301925146E+02  0.49999965564E+02 0.  0.
         12    1    1    2    0    0  0.14417388821E+02 -0.23062892809E+02  0.16642224746E+02  0.31886074854E+02  0.00000000000E+00 0. -1.
         11    1    3    3    0    0 -0.23342145144E+02  0.10610167743E+02 -0.51829012489E+01  0.26159011164E+02  0.51100000000E-03 0. -1.
        -11    1    3    3    0    0 -0.35871567358E+01  0.10997383737E+02  0.48435493415E+01  0.12540738136E+02  0.51100000000E-03 0.  1.
        -12    1    3    3    0    0  0.12511913059E+02  0.14553413292E+01 -0.16302872838E+02  0.20602175846E+02  0.00000000000E+00 0.  1.
</event>
<event>
 7    1  0.6316620E-012  0.5930197E+02  0.7816164E-02  0.1266605E+00
        -11   -1    0    0    0    0  0.00000000000E+00  0.00000000000E+00  0.45593999997E+02  0.45594000000E+02  0.51100000000E-03 0. -1.
         11   -1    0    0    0    0 -0.00000000000E+00 -0.00000000000E+00 -0.45593999997E+02  0.45594000000E+02  0.51100000000E-03 0.  1.
    9900012    2    1    2    0    0  0.12781315206E+02  0.14963307634E+02 -0.25088970219E+02  0.59301968256E+02  0.50000044186E+02 0.  0.
         12    1    1    2    0    0 -0.12781315206E+02 -0.14963307634E+02  0.25088970219E+02  0.31886031744E+02  0.00000000000E+00 0. -1.
         11    1    3    3    0    0  0.11686621572E+02 -0.53876584887E+01 -0.29490734500E+01  0.13202311246E+02  0.51100000000E-03 0. -1.
        -11    1    3    3    0    0  0.21026279518E+01 -0.97554216688E+01 -0.30428403779E+01  0.10433032832E+02  0.51100000000E-03 0.  1.
         12    1    3    3    0    0 -0.10079343179E+01  0.30106387792E+02 -0.19097056391E+02  0.35666624178E+02  0.00000000000E+00 0. -1.
</event>
<event>
 7    1  0.6316620E-012  0.5930191E+02  0.7816164E-02  0.1266605E+00
        -11   -1    0    0    0    0  0.00000000000E+00  0.00000000000E+00  0.45593999997E+02  0.45594000000E+02  0.51100000000E-03 0.  1.
         11   -1    0    0    0    0 -0.00000000000E+00 -0.00000000000E+00 -0.45593999997E+02  0.45594000000E+02  0.51100000000E-03 0. -1.
    9900012    2    1    2    0    0 -0.98457033392E+01  0.11228222344E+02  0.28172887578E+02  0.59301914544E+02  0.49999946229E+02 0.  0.
         12    1    1    2    0    0  0.98457033392E+01 -0.11228222344E+02 -0.28172887578E+02  0.31886085456E+02  0.00000000000E+00 0. -1.
         11    1    3    3    0    0  0.55701573581E+00 -0.14069745844E+02  0.13348641783E+01  0.14143898942E+02  0.51100000000E-03 0. -1.
        -11    1    3    3    0    0  0.67704724267E+01  0.10668474342E+02  0.45074912928E+01  0.13415406057E+02  0.51100000000E-03 0.  1.
        -12    1    3    3    0    0 -0.17173191502E+02  0.14629493846E+02  0.22330532106E+02  0.31742609545E+02  0.00000000000E+00 0.  1.
</event>
<event>
 7    1  0.6316620E-012  0.5930194E+02  0.7816164E-02  0.1266605E+00
        -11   -1    0    0    0    0  0.00000000000E+00  0.00000000000E+00  0.45593999997E+02  0.45594000000E+02  0.51100000000E-03 0. -1.
         11   -1    0    0    0    0 -0.00000000000E+00 -0.00000000000E+00 -0.45593999997E+02  0.45594000000E+02  0.51100000000E-03 0.  1.
    9900012    2    1    2    0    0  0.13874248618E+02 -0.79069139632E+01 -0.27599034246E+02  0.59301941064E+02  0.49999994595E+02 0.  0.
         12    1    1    2    0    0 -0.13874248618E+02  0.79069139632E+01  0.27599034246E+02  0.31886058936E+02  0.00000000000E+00 0. -1.
         11    1    3    3    0    0  0.18717509187E+02 -0.16020292421E+01  0.19137930894E+01  0.18883173782E+02  0.51100000000E-03 0. -1.
        -11    1    3    3    0    0 -0.10401284006E+02  0.50364352854E+01 -0.45068459817E+01  0.12404194868E+02  0.51100000000E-03 0.  1.
        -12    1    3    3    0    0  0.55580234375E+01 -0.11341320007E+02 -0.25005981354E+02  0.28014572413E+02  0.00000000000E+00 0.  1.
</event>
<event>
 7    1  0.6316620E-012  0.5930192E+02  0.7816164E-02  0.1266605E+00
        -11   -1    0    0    0    0  0.00000000000E+00  0.00000000000E+00  0.45593999997E+02  0.45594000000E+02  0.51100000000E-03 0.  1.
         11   -1    0    0    0    0 -0.00000000000E+00 -0.00000000000E+00 -0.45593999997E+02  0.45594000000E+02  0.51100000000E-03 0. -1.
    9900012    2    1    2    0    0 -0.26350354393E+02  0.14502707636E+02  0.10585489748E+02  0.59301916851E+02  0.49999950436E+02 0.  0.
         12    1    1    2    0    0  0.26350354393E+02 -0.14502707636E+02 -0.10585489748E+02  0.31886083149E+02  0.00000000000E+00 0. -1.
         11    1    3    3    0    0 -0.46162673810E+01 -0.10619559314E+02 -0.58354910388E+01  0.12966800703E+02  0.51100000000E-03 0. -1.
        -11    1    3    3    0    0  0.43102383499E+01  0.11351974052E+02 -0.87220280215E+00  0.12173997187E+02  0.51100000000E-03 0.  1.
         12    1    3    3    0    0 -0.26044325362E+02  0.13770292897E+02  0.17293183589E+02  0.34161118961E+02  0.00000000000E+00 0. -1.
</event>
<event>
 7    1  0.6316620E-012  0.5930198E+02  0.7816164E-02  0.1266605E+00
        -11   -1    0    0    0    0  0.00000000000E+00  0.00000000000E+00  0.45593999997E+02  0.45594000000E+02  0.51100000000E-03 0.  1.
         11   -1    0    0    0    0 -0.00000000000E+00 -0.00000000000E+00 -0.45593999997E+02  0.45594000000E+02  0.51100000000E-03 0. -1.
    9900012    2    1    2    0    0 -0.26851879323E+02 -0.11338867068E+02  0.12927676651E+02  0.59301981855E+02  0.50000068987E+02 0.  0.
         12    1    1    2    0    0  0.26851879323E+02  0.11338867068E+02 -0.12927676651E+02  0.31886018145E+02  0.00000000000E+00 0. -1.
         11    1    3    3    0    0 -0.12161379883E+02  0.46712118488E+01  0.69233485956E+01  0.14753038224E+02  0.51100000000E-03 0. -1.
        -11    1    3    3    0    0 -0.20474822491E+02 -0.13469138009E+02 -0.10661002744E+02  0.26726260766E+02  0.51100000000E-03 0.  1.
         12    1    3    3    0    0  0.57843230508E+01 -0.25409409072E+01  0.16665330800E+02  0.17822682865E+02  0.00000000000E+00 0. -1.
</event>
<event>
 7    1  0.6316620E-012  0.5930193E+02  0.7816164E-02  0.1266605E+00
        -11   -1    0    0    0    0  0.00000000000E+00  0.00000000000E+00  0.45593999997E+02  0.45594000000E+02  0.51100000000E-03 0.  1.
         11   -1    0    0    0    0 -0.00000000000E+00 -0.00000000000E+00 -0.45593999997E+02  0.45594000000E+02  0.51100000000E-03 0. -1.
    9900012    2    1    2    0    0 -0.30357858577E+02  0.30127375771E+01  0.92760489779E+01  0.59301933298E+02  0.49999980432E+02 0.  0.
         12    1    1    2    0    0  0.30357858577E+02 -0.30127375771E+01 -0.92760489779E+01  0.31886066702E+02  0.00000000000E+00 0. -1.
         11    1    3    3    0    0 -0.20667823861E+02  0.23030079614E+02 -0.28666510757E+01  0.31076698648E+02  0.51100000000E-03 0. -1.
        -11    1    3    3    0    0 -0.42876966843E+01  0.35065791896E+00  0.30576563915E+01  0.52779320478E+01  0.51100000000E-03 0.  1.
         12    1    3    3    0    0 -0.54023380308E+01 -0.20367999956E+02  0.90850436621E+01  0.22947302603E+02  0.00000000000E+00 0. -1.
</event>
<event>
 7    1  0.6316620E-012  0.5930193E+02  0.7816164E-02  0.1266605E+00
        -11   -1    0    0    0    0  0.00000000000E+00  0.00000000000E+00  0.45593999997E+02  0.45594000000E+02  0.51100000000E-03 0. -1.
         11   -1    0    0    0    0 -0.00000000000E+00 -0.00000000000E+00 -0.45593999997E+02  0.45594000000E+02  0.51100000000E-03 0.  1.
    9900012    2    1    2    0    0 -0.78461198149E+01  0.17722380171E+02 -0.25319506607E+02  0.59301925142E+02  0.49999965556E+02 0.  0.
         12    1    1    2    0    0  0.78461198149E+01 -0.17722380171E+02  0.25319506607E+02  0.31886074858E+02  0.00000000000E+00 0. -1.
         11    1    3    3    0    0 -0.21633168596E+01  0.14849503045E+02  0.82421889421E+00  0.15028872797E+02  0.51100000000E-03 0. -1.
        -11    1    3    3    0    0  0.10933445997E+02  0.12234718430E+02 -0.14707797596E+02  0.22035151164E+02  0.51100000000E-03 0.  1.
         12    1    3    3    0    0 -0.16616248952E+02 -0.93618413045E+01 -0.11435927905E+02  0.22237901180E+02  0.00000000000E+00 0. -1.
</event>
<event>
 7    1  0.6316620E-012  0.5930195E+02  0.7816164E-02  0.1266605E+00
        -11   -1    0    0    0    0  0.00000000000E+00  0.00000000000E+00  0.45593999997E+02  0.45594000000E+02  0.51100000000E-03 0.  1.
         11   -1    0    0    0    0 -0.00000000000E+00 -0.00000000000E+00 -0.45593999997E+02  0.45594000000E+02  0.51100000000E-03 0. -1.
    9900012    2    1    2    0    0 -0.25656145485E+02  0.81524206415E+01 -0.17088608617E+02  0.59301948067E+02  0.50000007366E+02 0.  0.
         12    1    1    2    0    0  0.25656145485E+02 -0.81524206415E+01  0.17088608617E+02  0.31886051933E+02  0.00000000000E+00 0. -1.
         11    1    3    3    0    0 -0.28952078284E+01 -0.15033209784E+02 -0.51870939792E+01  0.16164330144E+02  0.51100000000E-03 0. -1.
        -11    1    3    3    0    0 -0.52797704319E+01  0.16357844180E+02 -0.16487780963E+02  0.23818101590E+02  0.51100000000E-03 0.  1.
        -12    1    3    3    0    0 -0.17481167224E+02  0.68277862459E+01  0.45862663252E+01  0.19319516333E+02  0.00000000000E+00 0.  1.
</event>
<event>
 7    1  0.6316620E-012  0.5930194E+02  0.7816164E-02  0.1266605E+00
        -11   -1    0    0    0    0  0.00000000000E+00  0.00000000000E+00  0.45593999997E+02  0.45594000000E+02  0.51100000000E-03 0.  1.
         11   -1    0    0    0    0 -0.00000000000E+00 -0.00000000000E+00 -0.45593999997E+02  0.45594000000E+02  0.51100000000E-03 0. -1.
    9900012    2    1    2    0    0  0.19650561507E+02 -0.18162770939E+02 -0.17340411701E+02  0.59301942017E+02  0.49999996333E+02 0.  0.
         12    1    1    2    0    0 -0.19650561507E+02  0.18162770939E+02  0.17340411701E+02  0.31886057983E+02  0.00000000000E+00 0. -1.
         11    1    3    3    0    0  0.27168680153E+01  0.74617423243E+01 -0.11505563775E+02  0.13979877266E+02  0.51100000000E-03 0. -1.
        -11    1    3    3    0    0  0.11490251545E+02  0.38395457188E+01  0.54768505325E+01  0.13295257948E+02  0.51100000000E-03 0.  1.
         12    1    3    3    0    0  0.54434419472E+01 -0.29464058983E+02 -0.11311698458E+02  0.32026806802E+02  0.00000000000E+00 0. -1.
</event>
<event>
 7    1  0.6316620E-012  0.5930200E+02  0.7816164E-02  0.1266605E+00
        -11   -1    0    0    0    0  0.00000000000E+00  0.00000000000E+00  0.45593999997E+02  0.45594000000E+02  0.51100000000E-03 0.  1.
         11   -1    0    0    0    0 -0.00000000000E+00 -0.00000000000E+00 -0.45593999997E+02  0.45594000000E+02  0.51100000000E-03 0. -1.
    9900012    2    1    2    0    0 -0.28864750174E+02 -0.58402138906E+01  0.12224364884E+02  0.59301999973E+02  0.50000102031E+02 0.  0.
         12    1    1    2    0    0  0.28864750174E+02  0.58402138906E+01 -0.12224364884E+02  0.31886000027E+02  0.00000000000E+00 0. -1.
         11    1    3    3    0    0  0.85605970514E+01 -0.37145489026E+01  0.72694584248E+01  0.11829062578E+02  0.51100000000E-03 0. -1.
        -11    1    3    3    0    0 -0.25879111346E+02 -0.36404448144E+01  0.16635293518E+02  0.30979254885E+02  0.51100000000E-03 0.  1.
        -12    1    3    3    0    0 -0.11546235879E+02  0.15147798264E+01 -0.11680387059E+02  0.16493682511E+02  0.00000000000E+00 0.  1.
</event>
<event>
 7    1  0.6316620E-012  0.5930192E+02  0.7816164E-02  0.1266605E+00
        -11   -1    0    0    0    0  0.00000000000E+00  0.00000000000E+00  0.45593999997E+02  0.45594000000E+02  0.51100000000E-03 0. -1.
         11   -1    0    0    0    0 -0.00000000000E+00 -0.00000000000E+00 -0.45593999997E+02  0.45594000000E+02  0.51100000000E-03 0.  1.
    9900012    2    1    2    0    0 -0.42713181785E+01  0.14593212960E+02 -0.28027054760E+02  0.59301924325E+02  0.49999964066E+02 0.  0.
         12    1    1    2    0    0  0.42713181785E+01 -0.14593212960E+02  0.28027054760E+02  0.31886075675E+02  0.00000000000E+00 0. -1.
         11    1    3    3    0    0  0.13354947205E+01  0.23122313744E+00  0.32622493048E+01  0.35326025924E+01  0.51100000000E-03 0. -1.
        -11    1    3    3    0    0  0.18136532318E+02  0.18304627914E+01 -0.68783306371E+01  0.19483219220E+02  0.51100000000E-03 0.  1.
        -12    1    3    3    0    0 -0.23743345217E+02  0.12531527031E+02 -0.24410973428E+02  0.36286102512E+02  0.00000000000E+00 0.  1.
</event>
<event>
 7    1  0.6316620E-012  0.5930194E+02  0.7816164E-02  0.1266605E+00
        -11   -1    0    0    0    0  0.00000000000E+00  0.00000000000E+00  0.45593999997E+02  0.45594000000E+02  0.51100000000E-03 0. -1.
         11   -1    0    0    0    0 -0.00000000000E+00 -0.00000000000E+00 -0.45593999997E+02  0.45594000000E+02  0.51100000000E-03 0.  1.
    9900012    2    1    2    0    0  0.78257425624E+01 -0.17223436712E+02 -0.25667715558E+02  0.59301942846E+02  0.49999997846E+02 0.  0.
         12    1    1    2    0    0 -0.78257425624E+01  0.17223436712E+02  0.25667715558E+02  0.31886057154E+02  0.00000000000E+00 0. -1.
         11    1    3    3    0    0  0.11456300296E+02 -0.10315261996E+02 -0.20046141781E+02  0.25288322346E+02  0.51100000000E-03 0. -1.
        -11    1    3    3    0    0  0.99682860565E+01  0.63349733829E+01  0.43320736985E+01  0.12580360784E+02  0.51100000000E-03 0.  1.
         12    1    3    3    0    0 -0.13598843790E+02 -0.13243148100E+02 -0.99536474751E+01  0.21433259716E+02  0.00000000000E+00 0. -1.
</event>
<event>
 7    1  0.6316620E-012  0.5930202E+02  0.7816164E-02  0.1266604E+00
        -11   -1    0    0    0    0  0.00000000000E+00  0.00000000000E+00  0.45593999997E+02  0.45594000000E+02  0.51100000000E-03 0. -1.
         11   -1    0    0    0    0 -0.00000000000E+00 -0.00000000000E+00 -0.45593999997E+02  0.45594000000E+02  0.51100000000E-03 0.  1.
    9900012    2    1    2    0    0  0.20967602413E+02 -0.32062186694E+01 -0.23807464349E+02  0.59302022708E+02  0.50000143495E+02 0.  0.
         12    1    1    2    0    0 -0.20967602413E+02  0.32062186694E+01  0.23807464349E+02  0.31885977292E+02  0.00000000000E+00 0. -1.
         11    1    3    3    0    0 -0.50761943201E+01  0.10248858956E+02 -0.44924139893E+01  0.12287743584E+02  0.51100000000E-03 0. -1.
        -11    1    3    3    0    0  0.25243534660E+02  0.36576082672E+01 -0.91763527685E+01  0.27107555971E+02  0.51100000000E-03 0.  1.
         12    1    3    3    0    0  0.80026207332E+00 -0.17112685893E+02 -0.10138697591E+02  0.19906723153E+02  0.00000000000E+00 0. -1.
</event>
<event>
 7    1  0.6316620E-012  0.5930186E+02  0.7816164E-02  0.1266605E+00
        -11   -1    0    0    0    0  0.00000000000E+00  0.00000000000E+00  0.45593999997E+02  0.45594000000E+02  0.51100000000E-03 0. -1.
         11   -1    0    0    0    0 -0.00000000000E+00 -0.00000000000E+00 -0.45593999997E+02  0.45594000000E+02  0.51100000000E-03 0.  1.
    9900012    2    1    2    0    0  0.22802900428E+02 -0.66232079393E+01 -0.21281139338E+02  0.59301858138E+02  0.49999843357E+02 0.  0.
         12    1    1    2    0    0 -0.22802900428E+02  0.66232079393E+01  0.21281139338E+02  0.31886141862E+02  0.00000000000E+00 0. -1.
         11    1    3    3    0    0  0.17546644848E+02 -0.12622186747E+01 -0.24909165097E+02  0.30494990532E+02  0.51100000000E-03 0. -1.
        -11    1    3    3    0    0 -0.17264280165E+01  0.10657784812E+02  0.34394804304E+01  0.11331326343E+02  0.51100000000E-03 0.  1.
        -12    1    3    3    0    0  0.69826835958E+01 -0.16018774076E+02  0.18854532895E+00  0.17475541264E+02  0.00000000000E+00 0.  1.
</event>
<event>
 7    1  0.6316620E-012  0.5930192E+02  0.7816164E-02  0.1266605E+00
        -11   -1    0    0    0    0  0.00000000000E+00  0.00000000000E+00  0.45593999997E+02  0.45594000000E+02  0.51100000000E-03 0.  1.
         11   -1    0    0    0    0 -0.00000000000E+00 -0.00000000000E+00 -0.45593999997E+02  0.45594000000E+02  0.51100000000E-03 0. -1.
    9900012    2    1    2    0    0  0.90725108490E+01 -0.98312332796E+01  0.28944054195E+02  0.59301923507E+02  0.49999962575E+02 0.  0.
         12    1    1    2    0    0 -0.90725108490E+01  0.98312332796E+01 -0.28944054195E+02  0.31886076493E+02  0.00000000000E+00 0. -1.
         11    1    3    3    0    0 -0.28841744934E-01 -0.15357537125E+02 -0.19158069282E-01  0.15357576166E+02  0.51100000000E-03 0. -1.
        -11    1    3    3    0    0  0.85911233823E+01 -0.85324460182E+01  0.27191082820E+02  0.29765164559E+02  0.51100000000E-03 0.  1.
        -12    1    3    3    0    0  0.51022921164E+00  0.14058749864E+02  0.17721294439E+01  0.14179182782E+02  0.00000000000E+00 0.  1.
</event>
<event>
 7    1  0.6316620E-012  0.5930196E+02  0.7816164E-02  0.1266605E+00
        -11   -1    0    0    0    0  0.00000000000E+00  0.00000000000E+00  0.45593999997E+02  0.45594000000E+02  0.51100000000E-03 0.  1.
         11   -1    0    0    0    0 -0.00000000000E+00 -0.00000000000E+00 -0.45593999997E+02  0.45594000000E+02  0.51100000000E-03 0. -1.
    9900012    2    1    2    0    0 -0.28217893785E+02  0.36004525272E+00  0.14843864879E+02  0.59301960942E+02  0.50000030848E+02 0.  0.
         12    1    1    2    0    0  0.28217893785E+02 -0.36004525272E+00 -0.14843864879E+02  0.31886039058E+02  0.00000000000E+00 0. -1.
         11    1    3    3    0    0 -0.10591861647E+02  0.42889507190E+01  0.89543847055E+01  0.14517700821E+02  0.51100000000E-03 0. -1.
        -11    1    3    3    0    0  0.68193959605E+01 -0.15575382842E+02  0.48721596909E+01  0.17687132392E+02  0.51100000000E-03 0.  1.
         12    1    3    3    0    0 -0.24445428098E+02  0.11646477376E+02  0.10173204824E+01  0.27097127729E+02  0.00000000000E+00 0. -1.
</event>
<event>
 7    1  0.6316620E-012  0.5930195E+02  0.7816164E-02  0.1266605E+00
        -11   -1    0    0    0    0  0.00000000000E+00  0.00000000000E+00  0.45593999997E+02  0.45594000000E+02  0.51100000000E-03 0.  1.
         11   -1    0    0    0    0 -0.00000000000E+00 -0.00000000000E+00 -0.45593999997E+02  0.45594000000E+02  0.51100000000E-03 0. -1.
    9900012    2    1    2    0    0  0.30769367102E+02  0.83622652485E+01  0.19645503877E+00  0.59301952479E+02  0.50000015413E+02 0.  0.
         12    1    1    2    0    0 -0.30769367102E+02 -0.83622652485E+01 -0.19645503877E+00  0.31886047521E+02  0.00000000000E+00 0. -1.
         11    1    3    3    0    0  0.10913617868E+02 -0.80170830062E+01  0.41117554020E+01  0.14152286304E+02  0.51100000000E-03 0. -1.
        -11    1    3    3    0    0 -0.80792601519E+01 -0.52624262610E+01 -0.78109322668E+00  0.96735557911E+01  0.51100000000E-03 0.  1.
        -12    1    3    3    0    0  0.27935009386E+02  0.21641774516E+02 -0.31342071366E+01  0.35476110384E+02  0.00000000000E+00 0.  1.
</event>
<event>
 7    1  0.6316620E-012  0.5930190E+02  0.7816164E-02  0.1266605E+00
        -11   -1    0    0    0    0  0.00000000000E+00  0.00000000000E+00  0.45593999997E+02  0.45594000000E+02  0.51100000000E-03 0.  1.
         11   -1    0    0    0    0 -0.00000000000E+00 -0.00000000000E+00 -0.45593999997E+02  0.45594000000E+02  0.51100000000E-03 0. -1.
    9900012    2    1    2    0    0 -0.33206809018E+00 -0.26030027751E+02  0.18413324232E+02  0.59301903920E+02  0.49999926854E+02 0.  0.
         12    1    1    2    0    0  0.33206809018E+00  0.26030027751E+02 -0.18413324232E+02  0.31886096080E+02  0.00000000000E+00 0. -1.
         11    1    3    3    0    0 -0.70909305079E+01 -0.29740986308E+01  0.14415746199E+02  0.16338307650E+02  0.51100000000E-03 0. -1.
        -11    1    3    3    0    0  0.35200015127E+01 -0.66037059092E+01  0.19027095798E+02  0.20445775044E+02  0.51100000000E-03 0.  1.
         12    1    3    3    0    0  0.32388609051E+01 -0.16452223211E+02 -0.15029517765E+02  0.22517821226E+02  0.00000000000E+00 0. -1.
</event>
<event>
 7    1  0.6316620E-012  0.5930192E+02  0.7816164E-02  0.1266605E+00
        -11   -1    0    0    0    0  0.00000000000E+00  0.00000000000E+00  0.45593999997E+02  0.45594000000E+02  0.51100000000E-03 0.  1.
         11   -1    0    0    0    0 -0.00000000000E+00 -0.00000000000E+00 -0.45593999997E+02  0.45594000000E+02  0.51100000000E-03 0. -1.
    9900012    2    1    2    0    0 -0.86142908895E+01 -0.20711588606E+02  0.22661557515E+02  0.59301919979E+02  0.49999956140E+02 0.  0.
         12    1    1    2    0    0  0.86142908895E+01  0.20711588606E+02 -0.22661557515E+02  0.31886080021E+02  0.00000000000E+00 0. -1.
         11    1    3    3    0    0  0.20260348535E+00  0.84308525469E+01  0.20328570244E+01  0.86748389485E+01  0.51100000000E-03 0. -1.
        -11    1    3    3    0    0 -0.16088473780E+02 -0.91159371707E+00  0.12408025306E+02  0.20337873142E+02  0.51100000000E-03 0.  1.
         12    1    3    3    0    0  0.72715794057E+01 -0.28230847436E+02  0.82206751846E+01  0.30289207888E+02  0.00000000000E+00 0. -1.
</event>
<event>
 7    1  0.6316620E-012  0.5930193E+02  0.7816164E-02  0.1266605E+00
        -11   -1    0    0    0    0  0.00000000000E+00  0.00000000000E+00  0.45593999997E+02  0.45594000000E+02  0.51100000000E-03 0.  1.
         11   -1    0    0    0    0 -0.00000000000E+00 -0.00000000000E+00 -0.45593999997E+02  0.45594000000E+02  0.51100000000E-03 0. -1.
    9900012    2    1    2    0    0  0.22278339882E+02  0.28627200991E+01  0.22631880521E+02  0.59301927646E+02  0.49999970123E+02 0.  0.
         12    1    1    2    0    0 -0.22278339882E+02 -0.28627200991E+01 -0.22631880521E+02  0.31886072354E+02  0.00000000000E+00 0. -1.
         11    1    3    3    0    0  0.23069232251E+01  0.37744512208E+01 -0.24547188886E+00  0.44304213675E+01  0.51100000000E-03 0. -1.
        -11    1    3    3    0    0 -0.62311105518E+01  0.16112411191E+02  0.14412544732E+02  0.22497954996E+02  0.51100000000E-03 0.  1.
         12    1    3    3    0    0  0.26202527209E+02 -0.17024142312E+02  0.84648076775E+01  0.32373551282E+02  0.00000000000E+00 0. -1.
</event>
<event>
 7    1  0.6316620E-012  0.5930194E+02  0.7816164E-02  0.1266605E+00
        -11   -1    0    0    0    0  0.00000000000E+00  0.00000000000E+00  0.45593999997E+02  0.45594000000E+02  0.51100000000E-03 0.  1.
         11   -1    0    0    0    0 -0.00000000000E+00 -0.00000000000E+00 -0.45593999997E+02  0.45594000000E+02  0.51100000000E-03 0. -1.
    9900012    2    1    2    0    0  0.21451516919E+02  0.22234515275E+02 -0.78854186600E+01  0.59301936036E+02  0.49999985426E+02 0.  0.
         12    1    1    2    0    0 -0.21451516919E+02 -0.22234515275E+02  0.78854186600E+01  0.31886063964E+02  0.00000000000E+00 0. -1.
         11    1    3    3    0    0  0.11434199227E+02  0.11627511362E+00  0.58048017252E+01  0.12823812038E+02  0.51100000000E-03 0. -1.
        -11    1    3    3    0    0  0.17263820717E+02  0.24175465363E+02  0.12641437366E+01  0.29733662589E+02  0.51100000000E-03 0.  1.
         12    1    3    3    0    0 -0.72465030246E+01 -0.20572252019E+01 -0.14954364122E+02  0.16744461410E+02  0.00000000000E+00 0. -1.
</event>
<event>
 7    1  0.6316620E-012  0.5930196E+02  0.7816164E-02  0.1266605E+00
        -11   -1    0    0    0    0  0.00000000000E+00  0.00000000000E+00  0.45593999997E+02  0.45594000000E+02  0.51100000000E-03 0.  1.
         11   -1    0    0    0    0 -0.00000000000E+00 -0.00000000000E+00 -0.45593999997E+02  0.45594000000E+02  0.51100000000E-03 0. -1.
    9900012    2    1    2    0    0 -0.14113459807E+02  0.22943201764E+02  0.17062810483E+02  0.59301956713E+02  0.50000023135E+02 0.  0.
         12    1    1    2    0    0  0.14113459807E+02 -0.22943201764E+02 -0.17062810483E+02  0.31886043287E+02  0.00000000000E+00 0. -1.
         11    1    3    3    0    0 -0.41863507502E+01  0.24086837283E+02  0.43333710187E+01  0.24829002548E+02  0.51100000000E-03 0. -1.
        -11    1    3    3    0    0 -0.84887438901E+01  0.14002515658E+02  0.94616154951E+01  0.18911673263E+02  0.51100000000E-03 0.  1.
        -12    1    3    3    0    0 -0.14383651664E+01 -0.15146151176E+02  0.32678239694E+01  0.15561280902E+02  0.00000000000E+00 0.  1.
</event>
<event>
 7    1  0.6316620E-012  0.5930193E+02  0.7816164E-02  0.1266605E+00
        -11   -1    0    0    0    0  0.00000000000E+00  0.00000000000E+00  0.45593999997E+02  0.45594000000E+02  0.51100000000E-03 0. -1.
         11   -1    0    0    0    0 -0.00000000000E+00 -0.00000000000E+00 -0.45593999997E+02  0.45594000000E+02  0.51100000000E-03 0.  1.
    9900012    2    1    2    0    0 -0.26155090708E+02 -0.15818015850E+02 -0.90787262682E+01  0.59301926770E+02  0.49999968526E+02 0.  0.
         12    1    1    2    0    0  0.26155090708E+02  0.15818015850E+02  0.90787262682E+01  0.31886073230E+02  0.00000000000E+00 0. -1.
         11    1    3    3    0    0  0.86810979778E+01  0.17054145607E+01  0.56034210455E+01  0.10472259957E+02  0.51100000000E-03 0. -1.
        -11    1    3    3    0    0 -0.65943584717E+01 -0.22282900055E-01  0.66346537742E+01  0.93543942159E+01  0.51100000000E-03 0.  1.
        -12    1    3    3    0    0 -0.28241830214E+02 -0.17501147511E+02 -0.21316801088E+02  0.39475272598E+02  0.00000000000E+00 0.  1.
</event>
<event>
 7    1  0.6316620E-012  0.5930196E+02  0.7816164E-02  0.1266605E+00
        -11   -1    0    0    0    0  0.00000000000E+00  0.00000000000E+00  0.45593999997E+02  0.45594000000E+02  0.51100000000E-03 0. -1.
         11   -1    0    0    0    0 -0.00000000000E+00 -0.00000000000E+00 -0.45593999997E+02  0.45594000000E+02  0.51100000000E-03 0.  1.
    9900012    2    1    2    0    0 -0.17313027832E+02 -0.25961975667E+02  0.65539593386E+01  0.59301960794E+02  0.50000030577E+02 0.  0.
         12    1    1    2    0    0  0.17313027832E+02  0.25961975667E+02 -0.65539593386E+01  0.31886039206E+02  0.00000000000E+00 0. -1.
         11    1    3    3    0    0  0.29059825870E+01 -0.19162714111E+01  0.10731896253E+01  0.36426044460E+01  0.51100000000E-03 0. -1.
        -11    1    3    3    0    0  0.13217888956E+02 -0.14374810999E+02  0.71908805740E+01  0.20810010653E+02  0.51100000000E-03 0.  1.
         12    1    3    3    0    0 -0.33436899375E+02 -0.96708932576E+01 -0.17101108607E+01  0.34849345695E+02  0.00000000000E+00 0. -1.
</event>
<event>
 7    1  0.6316620E-012  0.5930193E+02  0.7816164E-02  0.1266605E+00
        -11   -1    0    0    0    0  0.00000000000E+00  0.00000000000E+00  0.45593999997E+02  0.45594000000E+02  0.51100000000E-03 0. -1.
         11   -1    0    0    0    0 -0.00000000000E+00 -0.00000000000E+00 -0.45593999997E+02  0.45594000000E+02  0.51100000000E-03 0.  1.
    9900012    2    1    2    0    0 -0.15742048581E+01  0.14622474734E+02 -0.28291814178E+02  0.59301927213E+02  0.49999969335E+02 0.  0.
         12    1    1    2    0    0  0.15742048581E+01 -0.14622474734E+02  0.28291814178E+02  0.31886072787E+02  0.00000000000E+00 0. -1.
         11    1    3    3    0    0 -0.16582157694E+01 -0.10286253999E+02  0.17015061647E+01  0.10557074612E+02  0.51100000000E-03 0.  1.
        -11    1    3    3    0    0 -0.13014490828E+02  0.78316661899E+01 -0.19733967789E+02  0.24902639454E+02  0.51100000000E-03 0. -1.
         12    1    3    3    0    0  0.13098501740E+02  0.17077062543E+02 -0.10259352554E+02  0.23842213147E+02  0.00000000000E+00 0. -1.
</event>
<event>
 7    1  0.6316620E-012  0.5930194E+02  0.7816164E-02  0.1266605E+00
        -11   -1    0    0    0    0  0.00000000000E+00  0.00000000000E+00  0.45593999997E+02  0.45594000000E+02  0.51100000000E-03 0.  1.
         11   -1    0    0    0    0 -0.00000000000E+00 -0.00000000000E+00 -0.45593999997E+02  0.45594000000E+02  0.51100000000E-03 0. -1.
    9900012    2    1    2    0    0  0.26979309731E+02  0.16094187797E+02  0.54602662188E+01  0.59301944402E+02  0.50000000683E+02 0.  0.
         12    1    1    2    0    0 -0.26979309731E+02 -0.16094187797E+02 -0.54602662188E+01  0.31886055598E+02  0.00000000000E+00 0. -1.
         11    1    3    3    0    0  0.21101800374E+02  0.43707216452E+01  0.78375739226E+01  0.22930694537E+02  0.51100000000E-03 0. -1.
        -11    1    3    3    0    0  0.74229161919E+01  0.16942626620E+02  0.11282610430E+02  0.21666785179E+02  0.51100000000E-03 0.  1.
         12    1    3    3    0    0 -0.15454068347E+01 -0.52191604691E+01 -0.13659918134E+02  0.14704464687E+02  0.00000000000E+00 0. -1.
</event>
<event>
 7    1  0.6316620E-012  0.5930205E+02  0.7816164E-02  0.1266604E+00
        -11   -1    0    0    0    0  0.00000000000E+00  0.00000000000E+00  0.45593999997E+02  0.45594000000E+02  0.51100000000E-03 0.  1.
         11   -1    0    0    0    0 -0.00000000000E+00 -0.00000000000E+00 -0.45593999997E+02  0.45594000000E+02  0.51100000000E-03 0. -1.
    9900012    2    1    2    0    0 -0.24862481919E+02  0.19686161956E+01  0.19866935174E+02  0.59302053721E+02  0.50000200054E+02 0.  0.
         12    1    1    2    0    0  0.24862481919E+02 -0.19686161956E+01 -0.19866935174E+02  0.31885946279E+02  0.00000000000E+00 0. -1.
         11    1    3    3    0    0 -0.10132947862E+02  0.13851687818E+02  0.77135534949E+01  0.18816078113E+02  0.51100000000E-03 0. -1.
        -11    1    3    3    0    0 -0.23167453131E+02  0.61614132088E+00  0.10043663013E+02  0.25258378445E+02  0.51100000000E-03 0.  1.
         12    1    3    3    0    0  0.84379190735E+01 -0.12499212944E+02  0.21097186659E+01  0.15227597163E+02  0.00000000000E+00 0. -1.
</event>
<event>
 7    1  0.6316620E-012  0.5930194E+02  0.7816164E-02  0.1266605E+00
        -11   -1    0    0    0    0  0.00000000000E+00  0.00000000000E+00  0.45593999997E+02  0.45594000000E+02  0.51100000000E-03 0.  1.
         11   -1    0    0    0    0 -0.00000000000E+00 -0.00000000000E+00 -0.45593999997E+02  0.45594000000E+02  0.51100000000E-03 0. -1.
    9900012    2    1    2    0    0 -0.17918216758E+02 -0.91282605221E+01  0.24745365059E+02  0.59301941544E+02  0.49999995470E+02 0.  0.
         12    1    1    2    0    0  0.17918216758E+02  0.91282605221E+01 -0.24745365059E+02  0.31886058456E+02  0.00000000000E+00 0. -1.
         11    1    3    3    0    0 -0.21111390995E+02 -0.11807797575E+02 -0.32649765730E+01  0.24408502322E+02  0.51100000000E-03 0. -1.
        -11    1    3    3    0    0 -0.45883418780E+01 -0.28155101843E+01  0.23933706609E+02  0.24531658955E+02  0.51100000000E-03 0.  1.
        -12    1    3    3    0    0  0.77815161153E+01  0.54950472370E+01  0.40766350238E+01  0.10361780267E+02  0.00000000000E+00 0.  1.
</event>
<event>
 7    1  0.6316620E-012  0.5930203E+02  0.7816164E-02  0.1266604E+00
        -11   -1    0    0    0    0  0.00000000000E+00  0.00000000000E+00  0.45593999997E+02  0.45594000000E+02  0.51100000000E-03 0.  1.
         11   -1    0    0    0    0 -0.00000000000E+00 -0.00000000000E+00 -0.45593999997E+02  0.45594000000E+02  0.51100000000E-03 0. -1.
    9900012    2    1    2    0    0  0.27042752327E+02 -0.16537267811E+02 -0.34529934410E+01  0.59302033748E+02  0.50000163629E+02 0.  0.
         12    1    1    2    0    0 -0.27042752327E+02  0.16537267811E+02  0.34529934410E+01  0.31885966252E+02  0.00000000000E+00 0. -1.
         11    1    3    3    0    0  0.69006305067E+01 -0.86789168343E+00 -0.18801024674E+02  0.20046208281E+02  0.51100000000E-03 0. -1.
        -11    1    3    3    0    0 -0.30349669835E+01  0.32966306571E+01  0.67428565285E+01  0.80959812688E+01  0.51100000000E-03 0.  1.
        -12    1    3    3    0    0  0.23177088804E+02 -0.18966006785E+02  0.86051747050E+01  0.31159844199E+02  0.00000000000E+00 0.  1.
</event>
<event>
 7    1  0.6316620E-012  0.5930195E+02  0.7816164E-02  0.1266605E+00
        -11   -1    0    0    0    0  0.00000000000E+00  0.00000000000E+00  0.45593999997E+02  0.45594000000E+02  0.51100000000E-03 0. -1.
         11   -1    0    0    0    0 -0.00000000000E+00 -0.00000000000E+00 -0.45593999997E+02  0.45594000000E+02  0.51100000000E-03 0.  1.
    9900012    2    1    2    0    0 -0.20189064353E+02  0.24614890740E+02  0.17969255940E+01  0.59301951214E+02  0.50000013105E+02 0.  0.
         12    1    1    2    0    0  0.20189064353E+02 -0.24614890740E+02 -0.17969255940E+01  0.31886048786E+02  0.00000000000E+00 0. -1.
         11    1    3    3    0    0  0.71410989607E+00 -0.59348306320E+01  0.62735286688E+01  0.86654099611E+01  0.51100000000E-03 0. -1.
        -11    1    3    3    0    0 -0.23055591946E+02  0.19861677184E+02  0.10429607694E+02  0.32168668879E+02  0.51100000000E-03 0.  1.
         12    1    3    3    0    0  0.21524176969E+01  0.10688044189E+02 -0.14906210769E+02  0.18467872373E+02  0.00000000000E+00 0. -1.
</event>
<event>
 7    1  0.6316620E-012  0.5930196E+02  0.7816164E-02  0.1266605E+00
        -11   -1    0    0    0    0  0.00000000000E+00  0.00000000000E+00  0.45593999997E+02  0.45594000000E+02  0.51100000000E-03 0.  1.
         11   -1    0    0    0    0 -0.00000000000E+00 -0.00000000000E+00 -0.45593999997E+02  0.45594000000E+02  0.51100000000E-03 0. -1.
    9900012    2    1    2    0    0  0.66614074482E+01 -0.24804234182E+02  0.18896968539E+02  0.59301955992E+02  0.50000021820E+02 0.  0.
         12    1    1    2    0    0 -0.66614074482E+01  0.24804234182E+02 -0.18896968539E+02  0.31886044008E+02  0.00000000000E+00 0. -1.
         11    1    3    3    0    0 -0.27921997882E+01 -0.89848681161E+01 -0.87301003807E+00  0.94491471313E+01  0.51100000000E-03 0. -1.
        -11    1    3    3    0    0  0.79550953509E+01 -0.54381774201E+01 -0.12579062199E+02  0.15845823480E+02  0.51100000000E-03 0.  1.
        -12    1    3    3    0    0  0.14985118855E+01 -0.10381188646E+02  0.32349040776E+02  0.34006985381E+02  0.00000000000E+00 0.  1.
</event>
<event>
 7    1  0.6316620E-012  0.5930196E+02  0.7816164E-02  0.1266605E+00
        -11   -1    0    0    0    0  0.00000000000E+00  0.00000000000E+00  0.45593999997E+02  0.45594000000E+02  0.51100000000E-03 0.  1.
         11   -1    0    0    0    0 -0.00000000000E+00 -0.00000000000E+00 -0.45593999997E+02  0.45594000000E+02  0.51100000000E-03 0. -1.
    9900012    2    1    2    0    0 -0.21289850601E+02  0.88938309223E+01  0.22008218749E+02  0.59301958233E+02  0.50000025907E+02 0.  0.
         12    1    1    2    0    0  0.21289850601E+02 -0.88938309223E+01 -0.22008218749E+02  0.31886041767E+02  0.00000000000E+00 0. -1.
         11    1    3    3    0    0  0.39631944214E+01 -0.53423607556E+01  0.12861356727E+02  0.14479717732E+02  0.51100000000E-03 0. -1.
        -11    1    3    3    0    0 -0.15357620588E+02 -0.36567086031E+01  0.16741002141E+02  0.23010631909E+02  0.51100000000E-03 0.  1.
         12    1    3    3    0    0 -0.98954244344E+01  0.17892900281E+02 -0.75941401199E+01  0.21811608592E+02  0.00000000000E+00 0. -1.
</event>
<event>
 7    1  0.6316620E-012  0.5930193E+02  0.7816164E-02  0.1266605E+00
        -11   -1    0    0    0    0  0.00000000000E+00  0.00000000000E+00  0.45593999997E+02  0.45594000000E+02  0.51100000000E-03 0.  1.
         11   -1    0    0    0    0 -0.00000000000E+00 -0.00000000000E+00 -0.45593999997E+02  0.45594000000E+02  0.51100000000E-03 0. -1.
    9900012    2    1    2    0    0  0.85321890704E+01  0.30291343261E+02 -0.51340072852E+01  0.59301925333E+02  0.49999965905E+02 0.  0.
         12    1    1    2    0    0 -0.85321890704E+01 -0.30291343261E+02  0.51340072852E+01  0.31886074667E+02  0.00000000000E+00 0. -1.
         11    1    3    3    0    0 -0.59111877593E+00  0.21254501246E+02 -0.19148854714E+02  0.28614364954E+02  0.51100000000E-03 0. -1.
        -11    1    3    3    0    0  0.11932752360E+01  0.13515524096E+02 -0.47141222208E+00  0.13576285468E+02  0.51100000000E-03 0.  1.
        -12    1    3    3    0    0  0.79300326104E+01 -0.44786820809E+01  0.14486259651E+02  0.17111274910E+02  0.00000000000E+00 0.  1.
</event>
<event>
 7    1  0.6316620E-012  0.5930195E+02  0.7816164E-02  0.1266605E+00
        -11   -1    0    0    0    0  0.00000000000E+00  0.00000000000E+00  0.45593999997E+02  0.45594000000E+02  0.51100000000E-03 0. -1.
         11   -1    0    0    0    0 -0.00000000000E+00 -0.00000000000E+00 -0.45593999997E+02  0.45594000000E+02  0.51100000000E-03 0.  1.
    9900012    2    1    2    0    0 -0.16483475823E+02  0.65522232180E+01 -0.26496857847E+02  0.59301951639E+02  0.50000013881E+02 0.  0.
         12    1    1    2    0    0  0.16483475823E+02 -0.65522232180E+01  0.26496857847E+02  0.31886048361E+02  0.00000000000E+00 0. -1.
         11    1    3    3    0    0  0.81352851245E+01  0.16499300060E+02 -0.15017985919E+02  0.23747624468E+02  0.51100000000E-03 0. -1.
        -11    1    3    3    0    0 -0.77142761289E+01  0.61867331078E+01 -0.98287695929E+00  0.99373925211E+01  0.51100000000E-03 0.  1.
         12    1    3    3    0    0 -0.16904484819E+02 -0.16133809950E+02 -0.10495994969E+02  0.25616934650E+02  0.00000000000E+00 0. -1.
</event>
<event>
 7    1  0.6316620E-012  0.5930195E+02  0.7816164E-02  0.1266605E+00
        -11   -1    0    0    0    0  0.00000000000E+00  0.00000000000E+00  0.45593999997E+02  0.45594000000E+02  0.51100000000E-03 0.  1.
         11   -1    0    0    0    0 -0.00000000000E+00 -0.00000000000E+00 -0.45593999997E+02  0.45594000000E+02  0.51100000000E-03 0. -1.
    9900012    2    1    2    0    0  0.49070068279E+01 -0.40820343266E+01  0.31240651873E+02  0.59301952115E+02  0.50000014750E+02 0.  0.
         12    1    1    2    0    0 -0.49070068279E+01  0.40820343266E+01 -0.31240651873E+02  0.31886047885E+02  0.00000000000E+00 0. -1.
         11    1    3    3    0    0  0.14748406910E+01  0.97897890427E+01  0.21496720126E+02  0.23666941099E+02  0.51100000000E-03 0. -1.
        -11    1    3    3    0    0  0.14404198132E+02 -0.73467980256E+01  0.14784975654E+02  0.21910086043E+02  0.51100000000E-03 0.  1.
         12    1    3    3    0    0 -0.10972031995E+02 -0.65250253438E+01 -0.50410439068E+01  0.13724924973E+02  0.00000000000E+00 0. -1.
</event>
<event>
 7    1  0.6316620E-012  0.5930195E+02  0.7816164E-02  0.1266605E+00
        -11   -1    0    0    0    0  0.00000000000E+00  0.00000000000E+00  0.45593999997E+02  0.45594000000E+02  0.51100000000E-03 0. -1.
         11   -1    0    0    0    0 -0.00000000000E+00 -0.00000000000E+00 -0.45593999997E+02  0.45594000000E+02  0.51100000000E-03 0.  1.
    9900012    2    1    2    0    0 -0.12392059168E+02  0.28355468821E+02 -0.76892560870E+01  0.59301946597E+02  0.50000004685E+02 0.  0.
         12    1    1    2    0    0  0.12392059168E+02 -0.28355468821E+02  0.76892560870E+01  0.31886053403E+02  0.00000000000E+00 0. -1.
         11    1    3    3    0    0 -0.13700686276E+02  0.11515301422E+02 -0.24975526571E+02  0.30726013393E+02  0.51100000000E-03 0. -1.
        -11    1    3    3    0    0 -0.30228003789E+01  0.64405465907E+01 -0.91204194435E+00  0.71728504297E+01  0.51100000000E-03 0.  1.
         12    1    3    3    0    0  0.43314274865E+01  0.10399620808E+02  0.18198312428E+02  0.21403082774E+02  0.00000000000E+00 0. -1.
</event>
<event>
 7    1  0.6316620E-012  0.5930184E+02  0.7816164E-02  0.1266605E+00
        -11   -1    0    0    0    0  0.00000000000E+00  0.00000000000E+00  0.45593999997E+02  0.45594000000E+02  0.51100000000E-03 0. -1.
         11   -1    0    0    0    0 -0.00000000000E+00 -0.00000000000E+00 -0.45593999997E+02  0.45594000000E+02  0.51100000000E-03 0.  1.
    9900012    2    1    2    0    0  0.90386054113E+01  0.96416371629E+01 -0.29018437715E+02  0.59301838701E+02  0.49999807910E+02 0.  0.
         12    1    1    2    0    0 -0.90386054113E+01 -0.96416371629E+01  0.29018437715E+02  0.31886161299E+02  0.00000000000E+00 0. -1.
         11    1    3    3    0    0 -0.66874486988E+01  0.44097243975E+01 -0.33298149423E+02  0.34248129798E+02  0.51100000000E-03 0.  1.
        -11    1    3    3    0    0  0.17896260269E+01  0.82933082902E+01 -0.30458602636E+01  0.90143767793E+01  0.51100000000E-03 0. -1.
        -12    1    3    3    0    0  0.13936428083E+02 -0.30613955249E+01  0.73255719723E+01  0.16039332125E+02  0.00000000000E+00 0.  1.
</event>
<event>
 7    1  0.6316620E-012  0.5930196E+02  0.7816164E-02  0.1266605E+00
        -11   -1    0    0    0    0  0.00000000000E+00  0.00000000000E+00  0.45593999997E+02  0.45594000000E+02  0.51100000000E-03 0.  1.
         11   -1    0    0    0    0 -0.00000000000E+00 -0.00000000000E+00 -0.45593999997E+02  0.45594000000E+02  0.51100000000E-03 0. -1.
    9900012    2    1    2    0    0 -0.86547165045E+01  0.53396796124E+00  0.30684370364E+02  0.59301955652E+02  0.50000021200E+02 0.  0.
         12    1    1    2    0    0  0.86547165045E+01 -0.53396796124E+00 -0.30684370364E+02  0.31886044348E+02  0.00000000000E+00 0. -1.
         11    1    3    3    0    0 -0.32546755753E+01  0.16724554955E+01 -0.69476042995E+01  0.78523389030E+01  0.51100000000E-03 0. -1.
        -11    1    3    3    0    0 -0.86945918197E+01 -0.13805769681E+02  0.62927321132E+01  0.17486957457E+02  0.51100000000E-03 0.  1.
         12    1    3    3    0    0  0.32945508905E+01  0.12667282147E+02  0.31339242550E+02  0.33962659292E+02  0.00000000000E+00 0. -1.
</event>
<event>
 7    1  0.6316620E-012  0.5930196E+02  0.7816164E-02  0.1266605E+00
        -11   -1    0    0    0    0  0.00000000000E+00  0.00000000000E+00  0.45593999997E+02  0.45594000000E+02  0.51100000000E-03 0. -1.
         11   -1    0    0    0    0 -0.00000000000E+00 -0.00000000000E+00 -0.45593999997E+02  0.45594000000E+02  0.51100000000E-03 0.  1.
    9900012    2    1    2    0    0 -0.38963801707E+00 -0.21329354503E+02 -0.23698650875E+02  0.59301964897E+02  0.50000038060E+02 0.  0.
         12    1    1    2    0    0  0.38963801707E+00  0.21329354503E+02  0.23698650875E+02  0.31886035103E+02  0.00000000000E+00 0. -1.
         11    1    3    3    0    0 -0.38136528004E+01 -0.23748215896E+01 -0.65755682265E+01  0.79637819550E+01  0.51100000000E-03 0. -1.
        -11    1    3    3    0    0 -0.11457485227E+02 -0.27560423122E+02 -0.16570871077E+02  0.34138609504E+02  0.51100000000E-03 0.  1.
         12    1    3    3    0    0  0.14881500010E+02  0.86058902083E+01 -0.55221157184E+00  0.17199573438E+02  0.00000000000E+00 0. -1.
</event>
<event>
 7    1  0.6316620E-012  0.5930182E+02  0.7816164E-02  0.1266605E+00
        -11   -1    0    0    0    0  0.00000000000E+00  0.00000000000E+00  0.45593999997E+02  0.45594000000E+02  0.51100000000E-03 0. -1.
         11   -1    0    0    0    0 -0.00000000000E+00 -0.00000000000E+00 -0.45593999997E+02  0.45594000000E+02  0.51100000000E-03 0.  1.
    9900012    2    1    2    0    0 -0.38227480610E+01  0.37532284776E+01 -0.31432916103E+02  0.59301822094E+02  0.49999777621E+02 0.  0.
         12    1    1    2    0    0  0.38227480610E+01 -0.37532284776E+01  0.31432916103E+02  0.31886177906E+02  0.00000000000E+00 0. -1.
         11    1    3    3    0    0 -0.37468411787E+01  0.51956005033E+01 -0.37364610821E+01  0.74158091324E+01  0.51100000000E-03 0. -1.
        -11    1    3    3    0    0 -0.19143445878E+02  0.12006810103E+01 -0.26346171778E+02  0.32588861940E+02  0.51100000000E-03 0.  1.
         12    1    3    3    0    0  0.19067538996E+02 -0.26430530360E+01 -0.13502832431E+01  0.19297151021E+02  0.00000000000E+00 0. -1.
</event>
<event>
 7    1  0.6316620E-012  0.5930197E+02  0.7816164E-02  0.1266605E+00
        -11   -1    0    0    0    0  0.00000000000E+00  0.00000000000E+00  0.45593999997E+02  0.45594000000E+02  0.51100000000E-03 0.  1.
         11   -1    0    0    0    0 -0.00000000000E+00 -0.00000000000E+00 -0.45593999997E+02  0.45594000000E+02  0.51100000000E-03 0. -1.
    9900012    2    1    2    0    0 -0.70846438299E+01 -0.16372713404E+02  0.26428407866E+02  0.59301973832E+02  0.50000054356E+02 0.  0.
         12    1    1    2    0    0  0.70846438299E+01  0.16372713404E+02 -0.26428407866E+02  0.31886026168E+02  0.00000000000E+00 0. -1.
         11    1    3    3    0    0  0.31305653756E+01  0.96211779730E+01  0.21067527109E+02  0.23371097619E+02  0.51100000000E-03 0. -1.
        -11    1    3    3    0    0 -0.84228669677E+01 -0.15941193675E+01  0.74756301707E+01  0.11374135186E+02  0.51100000000E-03 0.  1.
         12    1    3    3    0    0 -0.17923422377E+01 -0.24399772010E+02 -0.21147494133E+01  0.24556741028E+02  0.00000000000E+00 0. -1.
</event>
<event>
 7    1  0.6316620E-012  0.5930194E+02  0.7816164E-02  0.1266605E+00
        -11   -1    0    0    0    0  0.00000000000E+00  0.00000000000E+00  0.45593999997E+02  0.45594000000E+02  0.51100000000E-03 0. -1.
         11   -1    0    0    0    0 -0.00000000000E+00 -0.00000000000E+00 -0.45593999997E+02  0.45594000000E+02  0.51100000000E-03 0.  1.
    9900012    2    1    2    0    0 -0.78138993599E+01  0.30590810232E+02 -0.44571288341E+01  0.59301942054E+02  0.49999996401E+02 0.  0.
         12    1    1    2    0    0  0.78138993599E+01 -0.30590810232E+02  0.44571288341E+01  0.31886057946E+02  0.00000000000E+00 0. -1.
         11    1    3    3    0    0 -0.41804211191E+01  0.19469583460E+02  0.37793951985E+01  0.20268804335E+02  0.51100000000E-03 0. -1.
        -11    1    3    3    0    0  0.15382416197E+02  0.11382351978E+02 -0.40043961105E+01  0.19550239208E+02  0.51100000000E-03 0.  1.
        -12    1    3    3    0    0 -0.19015894438E+02 -0.26112520661E+00 -0.42321279221E+01  0.19482898511E+02  0.00000000000E+00 0.  1.
</event>
<event>
 7    1  0.6316620E-012  0.5930195E+02  0.7816164E-02  0.1266605E+00
        -11   -1    0    0    0    0  0.00000000000E+00  0.00000000000E+00  0.45593999997E+02  0.45594000000E+02  0.51100000000E-03 0.  1.
         11   -1    0    0    0    0 -0.00000000000E+00 -0.00000000000E+00 -0.45593999997E+02  0.45594000000E+02  0.51100000000E-03 0. -1.
    9900012    2    1    2    0    0  0.53395423604E+01 -0.31385813250E+02  0.17721164430E+01  0.59301946894E+02  0.50000005227E+02 0.  0.
         12    1    1    2    0    0 -0.53395423604E+01  0.31385813250E+02 -0.17721164430E+01  0.31886053106E+02  0.00000000000E+00 0. -1.
         11    1    3    3    0    0  0.69912503338E+01 -0.12818125455E+02  0.37876123060E+01  0.15084028926E+02  0.51100000000E-03 0. -1.
        -11    1    3    3    0    0  0.63136401308E+01 -0.13995992807E+01  0.16511781374E+02  0.17733015938E+02  0.51100000000E-03 0.  1.
         12    1    3    3    0    0 -0.79653481042E+01 -0.17168088515E+02 -0.18527277237E+02  0.26484902029E+02  0.00000000000E+00 0. -1.
</event>
<event>
 7    1  0.6316620E-012  0.5930198E+02  0.7816164E-02  0.1266605E+00
        -11   -1    0    0    0    0  0.00000000000E+00  0.00000000000E+00  0.45593999997E+02  0.45594000000E+02  0.51100000000E-03 0. -1.
         11   -1    0    0    0    0 -0.00000000000E+00 -0.00000000000E+00 -0.45593999997E+02  0.45594000000E+02  0.51100000000E-03 0.  1.
    9900012    2    1    2    0    0 -0.19937805752E+02 -0.73516746404E+01 -0.23772995161E+02  0.59301976147E+02  0.50000058578E+02 0.  0.
         12    1    1    2    0    0  0.19937805752E+02  0.73516746404E+01  0.23772995161E+02  0.31886023853E+02  0.00000000000E+00 0. -1.
         11    1    3    3    0    0  0.10951766232E+00  0.97970964857E+01 -0.17742372439E+02  0.20267877878E+02  0.51100000000E-03 0.  1.
        -11    1    3    3    0    0 -0.11941970266E+02 -0.11480780136E+02 -0.17359525588E+02  0.23995251515E+02  0.51100000000E-03 0. -1.
        -12    1    3    3    0    0 -0.81053531488E+01 -0.56679909900E+01  0.11328902867E+02  0.15038846754E+02  0.00000000000E+00 0.  1.
</event>
<event>
 7    1  0.6316620E-012  0.5930196E+02  0.7816164E-02  0.1266605E+00
        -11   -1    0    0    0    0  0.00000000000E+00  0.00000000000E+00  0.45593999997E+02  0.45594000000E+02  0.51100000000E-03 0.  1.
         11   -1    0    0    0    0 -0.00000000000E+00 -0.00000000000E+00 -0.45593999997E+02  0.45594000000E+02  0.51100000000E-03 0. -1.
    9900012    2    1    2    0    0  0.11525292784E+02  0.28468892249E+02  0.85679213549E+01  0.59301961112E+02  0.50000031157E+02 0.  0.
         12    1    1    2    0    0 -0.11525292784E+02 -0.28468892249E+02 -0.85679213549E+01  0.31886038888E+02  0.00000000000E+00 0. -1.
         11    1    3    3    0    0 -0.19640484962E+01  0.10103198816E+02  0.87364505254E+01  0.13500284473E+02  0.51100000000E-03 0. -1.
        -11    1    3    3    0    0  0.95698965108E+01  0.25835421571E+02  0.12761762873E+02  0.30363045284E+02  0.51100000000E-03 0.  1.
         12    1    3    3    0    0  0.39194447699E+01 -0.74697281387E+01 -0.12930292044E+02  0.15438631355E+02  0.00000000000E+00 0. -1.
</event>
<event>
 7    1  0.6316620E-012  0.5930195E+02  0.7816164E-02  0.1266605E+00
        -11   -1    0    0    0    0  0.00000000000E+00  0.00000000000E+00  0.45593999997E+02  0.45594000000E+02  0.51100000000E-03 0. -1.
         11   -1    0    0    0    0 -0.00000000000E+00 -0.00000000000E+00 -0.45593999997E+02  0.45594000000E+02  0.51100000000E-03 0.  1.
    9900012    2    1    2    0    0  0.77269799774E+01  0.91618431482E+00 -0.30922072691E+02  0.59301949872E+02  0.50000010658E+02 0.  0.
         12    1    1    2    0    0 -0.77269799774E+01 -0.91618431482E+00  0.30922072691E+02  0.31886050128E+02  0.00000000000E+00 0. -1.
         11    1    3    3    0    0 -0.44484500912E+00 -0.79994648419E+00 -0.35720241433E+01  0.36874324673E+01  0.51100000000E-03 0. -1.
        -11    1    3    3    0    0  0.85357718602E+00 -0.20601795707E+02 -0.14792008897E+01  0.20672460325E+02  0.51100000000E-03 0.  1.
         12    1    3    3    0    0  0.73182478005E+01  0.22317926506E+02 -0.25870847658E+02  0.34942057079E+02  0.00000000000E+00 0. -1.
</event>
<event>
 7    1  0.6316620E-012  0.5930206E+02  0.7816164E-02  0.1266604E+00
        -11   -1    0    0    0    0  0.00000000000E+00  0.00000000000E+00  0.45593999997E+02  0.45594000000E+02  0.51100000000E-03 0.  1.
         11   -1    0    0    0    0 -0.00000000000E+00 -0.00000000000E+00 -0.45593999997E+02  0.45594000000E+02  0.51100000000E-03 0. -1.
    9900012    2    1    2    0    0 -0.44385074915E+01 -0.29616280611E+02  0.10949374462E+02  0.59302059100E+02  0.50000209863E+02 0.  0.
         12    1    1    2    0    0  0.44385074915E+01  0.29616280611E+02 -0.10949374462E+02  0.31885940900E+02  0.00000000000E+00 0. -1.
         11    1    3    3    0    0 -0.16288556899E+02 -0.22214664030E+02  0.57000632997E+01  0.28130039205E+02  0.51100000000E-03 0. -1.
        -11    1    3    3    0    0 -0.92601991238E-01 -0.15666270626E+02  0.56192927233E+01  0.16643829530E+02  0.51100000000E-03 0.  1.
         12    1    3    3    0    0  0.11942651398E+02  0.82646540446E+01 -0.36998156110E+00  0.14528190364E+02  0.00000000000E+00 0. -1.
</event>
<event>
 7    1  0.6316620E-012  0.5930199E+02  0.7816164E-02  0.1266605E+00
        -11   -1    0    0    0    0  0.00000000000E+00  0.00000000000E+00  0.45593999997E+02  0.45594000000E+02  0.51100000000E-03 0.  1.
         11   -1    0    0    0    0 -0.00000000000E+00 -0.00000000000E+00 -0.45593999997E+02  0.45594000000E+02  0.51100000000E-03 0. -1.
    9900012    2    1    2    0    0  0.62592166157E+01  0.20048670215E+02  0.23991476401E+02  0.59301985668E+02  0.50000075943E+02 0.  0.
         12    1    1    2    0    0 -0.62592166157E+01 -0.20048670215E+02 -0.23991476401E+02  0.31886014332E+02  0.00000000000E+00 0. -1.
         11    1    3    3    0    0  0.15187145292E+02  0.22546093087E+02  0.18013871815E+02  0.32610968610E+02  0.51100000000E-03 0. -1.
        -11    1    3    3    0    0 -0.83280092253E+01  0.95613415400E+01 -0.10464252151E+01  0.12722813985E+02  0.51100000000E-03 0.  1.
         12    1    3    3    0    0 -0.59991945147E+00 -0.12058764411E+02  0.70240298007E+01  0.13968203074E+02  0.00000000000E+00 0. -1.
</event>
<event>
 7    1  0.6316620E-012  0.5930194E+02  0.7816164E-02  0.1266605E+00
        -11   -1    0    0    0    0  0.00000000000E+00  0.00000000000E+00  0.45593999997E+02  0.45594000000E+02  0.51100000000E-03 0.  1.
         11   -1    0    0    0    0 -0.00000000000E+00 -0.00000000000E+00 -0.45593999997E+02  0.45594000000E+02  0.51100000000E-03 0. -1.
    9900012    2    1    2    0    0 -0.15132537912E+02 -0.55737979083E+01  0.27507455882E+02  0.59301936337E+02  0.49999985975E+02 0.  0.
         12    1    1    2    0    0  0.15132537912E+02  0.55737979083E+01 -0.27507455882E+02  0.31886063663E+02  0.00000000000E+00 0. -1.
         11    1    3    3    0    0  0.50419672270E+01 -0.69079124178E+01 -0.41500090550E+00  0.85622960415E+01  0.51100000000E-03 0. -1.
        -11    1    3    3    0    0  0.23483655674E+01  0.57795154649E+01  0.27056024882E+02  0.27765916202E+02  0.51100000000E-03 0.  1.
         12    1    3    3    0    0 -0.22522870706E+02 -0.44454009554E+01  0.86643190599E+00  0.22973724094E+02  0.00000000000E+00 0. -1.
</event>
<event>
 7    1  0.6316620E-012  0.5930185E+02  0.7816164E-02  0.1266605E+00
        -11   -1    0    0    0    0  0.00000000000E+00  0.00000000000E+00  0.45593999997E+02  0.45594000000E+02  0.51100000000E-03 0. -1.
         11   -1    0    0    0    0 -0.00000000000E+00 -0.00000000000E+00 -0.45593999997E+02  0.45594000000E+02  0.51100000000E-03 0.  1.
    9900012    2    1    2    0    0  0.22466930000E+02 -0.69324846591E+01 -0.21538441440E+02  0.59301847098E+02  0.49999823224E+02 0.  0.
         12    1    1    2    0    0 -0.22466930000E+02  0.69324846591E+01  0.21538441440E+02  0.31886152902E+02  0.00000000000E+00 0. -1.
         11    1    3    3    0    0 -0.73221451281E+01 -0.44238504876E+01  0.70145723443E+01  0.11062933058E+02  0.51100000000E-03 0. -1.
        -11    1    3    3    0    0  0.74878941998E+00 -0.14851882845E+01  0.41620405977E+01  0.44820812168E+01  0.51100000000E-03 0.  1.
        -12    1    3    3    0    0  0.29040285708E+02 -0.10234458869E+01 -0.32715054382E+02  0.43756832824E+02  0.00000000000E+00 0.  1.
</event>
<event>
 7    1  0.6316620E-012  0.5930195E+02  0.7816164E-02  0.1266605E+00
        -11   -1    0    0    0    0  0.00000000000E+00  0.00000000000E+00  0.45593999997E+02  0.45594000000E+02  0.51100000000E-03 0. -1.
         11   -1    0    0    0    0 -0.00000000000E+00 -0.00000000000E+00 -0.45593999997E+02  0.45594000000E+02  0.51100000000E-03 0.  1.
    9900012    2    1    2    0    0 -0.52473638144E+01  0.25908846368E+02 -0.17830236048E+02  0.59301945609E+02  0.50000002883E+02 0.  0.
         12    1    1    2    0    0  0.52473638144E+01 -0.25908846368E+02  0.17830236048E+02  0.31886054391E+02  0.00000000000E+00 0. -1.
         11    1    3    3    0    0  0.61386697934E+01  0.17404647581E+02 -0.11492371516E+02  0.21741196553E+02  0.51100000000E-03 0. -1.
        -11    1    3    3    0    0 -0.21713415301E+02  0.11797101826E+02 -0.91690602671E+01  0.26357459702E+02  0.51100000000E-03 0.  1.
         12    1    3    3    0    0  0.10327381693E+02 -0.32929030385E+01  0.28311957347E+01  0.11203289354E+02  0.00000000000E+00 0. -1.
</event>
<event>
 7    1  0.6316620E-012  0.5930196E+02  0.7816164E-02  0.1266605E+00
        -11   -1    0    0    0    0  0.00000000000E+00  0.00000000000E+00  0.45593999997E+02  0.45594000000E+02  0.51100000000E-03 0.  1.
         11   -1    0    0    0    0 -0.00000000000E+00 -0.00000000000E+00 -0.45593999997E+02  0.45594000000E+02  0.51100000000E-03 0. -1.
    9900012    2    1    2    0    0 -0.86525470844E+01 -0.27509173741E+02  0.13605073456E+02  0.59301964895E+02  0.50000038058E+02 0.  0.
         12    1    1    2    0    0  0.86525470844E+01  0.27509173741E+02 -0.13605073456E+02  0.31886035105E+02  0.00000000000E+00 0. -1.
         11    1    3    3    0    0  0.12705448581E+02 -0.14692086066E+02  0.14642509795E+02  0.24324656421E+02  0.51100000000E-03 0. -1.
        -11    1    3    3    0    0 -0.63359160061E+01 -0.17527484403E+02  0.26035833730E+01  0.18818479954E+02  0.51100000000E-03 0.  1.
         12    1    3    3    0    0 -0.15022079659E+02  0.47103967283E+01 -0.36410197123E+01  0.16158828521E+02  0.00000000000E+00 0. -1.
</event>
<event>
 7    1  0.6316620E-012  0.5930194E+02  0.7816164E-02  0.1266605E+00
        -11   -1    0    0    0    0  0.00000000000E+00  0.00000000000E+00  0.45593999997E+02  0.45594000000E+02  0.51100000000E-03 0. -1.
         11   -1    0    0    0    0 -0.00000000000E+00 -0.00000000000E+00 -0.45593999997E+02  0.45594000000E+02  0.51100000000E-03 0.  1.
    9900012    2    1    2    0    0 -0.27986324815E+02  0.53315084598E+01 -0.14319958367E+02  0.59301944008E+02  0.49999999964E+02 0.  0.
         12    1    1    2    0    0  0.27986324815E+02 -0.53315084598E+01  0.14319958367E+02  0.31886055992E+02  0.00000000000E+00 0. -1.
         11    1    3    3    0    0 -0.67602648668E+01 -0.80801166160E+01 -0.25468231013E+01  0.10838624164E+02  0.51100000000E-03 0. -1.
        -11    1    3    3    0    0 -0.30181588597E+02  0.18490094878E+02 -0.41178079367E+01  0.35633807561E+02  0.51100000000E-03 0.  1.
         12    1    3    3    0    0  0.89555286486E+01 -0.50784698021E+01 -0.76553273287E+01  0.12829512283E+02  0.00000000000E+00 0. -1.
</event>
<event>
 7    1  0.6316620E-012  0.5930194E+02  0.7816164E-02  0.1266605E+00
        -11   -1    0    0    0    0  0.00000000000E+00  0.00000000000E+00  0.45593999997E+02  0.45594000000E+02  0.51100000000E-03 0.  1.
         11   -1    0    0    0    0 -0.00000000000E+00 -0.00000000000E+00 -0.45593999997E+02  0.45594000000E+02  0.51100000000E-03 0. -1.
    9900012    2    1    2    0    0  0.13529509809E+02  0.27241146347E+02  0.95704225684E+01  0.59301942262E+02  0.49999996780E+02 0.  0.
         12    1    1    2    0    0 -0.13529509809E+02 -0.27241146347E+02 -0.95704225684E+01  0.31886057738E+02  0.00000000000E+00 0. -1.
         11    1    3    3    0    0 -0.17563166995E+01 -0.39566459042E+01  0.13761551848E+02  0.14426364916E+02  0.51100000000E-03 0.  1.
        -11    1    3    3    0    0  0.17937032431E+02  0.59145748954E+01  0.10612728211E+01  0.18916808105E+02  0.51100000000E-03 0. -1.
        -12    1    3    3    0    0 -0.26512059226E+01  0.25283217355E+02 -0.52524021006E+01  0.25958769241E+02  0.00000000000E+00 0.  1.
</event>
<event>
 7    1  0.6316620E-012  0.5930195E+02  0.7816164E-02  0.1266605E+00
        -11   -1    0    0    0    0  0.00000000000E+00  0.00000000000E+00  0.45593999997E+02  0.45594000000E+02  0.51100000000E-03 0.  1.
         11   -1    0    0    0    0 -0.00000000000E+00 -0.00000000000E+00 -0.45593999997E+02  0.45594000000E+02  0.51100000000E-03 0. -1.
    9900012    2    1    2    0    0  0.15284026804E+02  0.72469213515E+01 -0.27029634763E+02  0.59301945057E+02  0.50000001876E+02 0.  0.
         12    1    1    2    0    0 -0.15284026804E+02 -0.72469213515E+01  0.27029634763E+02  0.31886054943E+02  0.00000000000E+00 0. -1.
         11    1    3    3    0    0  0.27460190452E+02  0.23003038095E+01 -0.26341986458E+02  0.38121564869E+02  0.51100000000E-03 0. -1.
        -11    1    3    3    0    0 -0.48893837158E+00 -0.30711311464E+01  0.50167513928E+01  0.59024318757E+01  0.51100000000E-03 0.  1.
        -12    1    3    3    0    0 -0.11687225276E+02  0.80177486884E+01 -0.57043996979E+01  0.15277948311E+02  0.00000000000E+00 0.  1.
</event>
<event>
 7    1  0.6316620E-012  0.5930178E+02  0.7816164E-02  0.1266605E+00
        -11   -1    0    0    0    0  0.00000000000E+00  0.00000000000E+00  0.45593999997E+02  0.45594000000E+02  0.51100000000E-03 0.  1.
         11   -1    0    0    0    0 -0.00000000000E+00 -0.00000000000E+00 -0.45593999997E+02  0.45594000000E+02  0.51100000000E-03 0. -1.
    9900012    2    1    2    0    0 -0.14784388243E+00 -0.80432392580E+00  0.31875731968E+02  0.59301779100E+02  0.49999699210E+02 0.  0.
         12    1    1    2    0    0  0.14784388243E+00  0.80432392580E+00 -0.31875731968E+02  0.31886220900E+02  0.00000000000E+00 0. -1.
         11    1    3    3    0    0 -0.74366364820E+01  0.19672143370E+02  0.22330474319E+02  0.30674857302E+02  0.51100000000E-03 0. -1.
        -11    1    3    3    0    0  0.49863889188E+01 -0.27069652871E+01 -0.33152375229E+01  0.65713419946E+01  0.51100000000E-03 0.  1.
        -12    1    3    3    0    0  0.23024036808E+01 -0.17769502009E+02  0.12860495172E+02  0.22055579803E+02  0.00000000000E+00 0.  1.
</event>
<event>
 7    1  0.6316620E-012  0.5930194E+02  0.7816164E-02  0.1266605E+00
        -11   -1    0    0    0    0  0.00000000000E+00  0.00000000000E+00  0.45593999997E+02  0.45594000000E+02  0.51100000000E-03 0.  1.
         11   -1    0    0    0    0 -0.00000000000E+00 -0.00000000000E+00 -0.45593999997E+02  0.45594000000E+02  0.51100000000E-03 0. -1.
    9900012    2    1    2    0    0  0.19695639898E+02  0.21792899222E+02 -0.12404516838E+02  0.59301941519E+02  0.49999995425E+02 0.  0.
         12    1    1    2    0    0 -0.19695639898E+02 -0.21792899222E+02  0.12404516838E+02  0.31886058481E+02  0.00000000000E+00 0. -1.
         11    1    3    3    0    0 -0.32285955593E+01  0.24236481144E+01  0.19818128201E+01  0.44972749286E+01  0.51100000000E-03 0. -1.
        -11    1    3    3    0    0  0.58995374317E+01 -0.59015226871E+01  0.11919303722E+02  0.14549993588E+02  0.51100000000E-03 0.  1.
         12    1    3    3    0    0  0.17024698025E+02  0.25270773794E+02 -0.26305633380E+02  0.40254673003E+02  0.00000000000E+00 0. -1.
</event>
<event>
 7    1  0.6316620E-012  0.5930195E+02  0.7816164E-02  0.1266605E+00
        -11   -1    0    0    0    0  0.00000000000E+00  0.00000000000E+00  0.45593999997E+02  0.45594000000E+02  0.51100000000E-03 0.  1.
         11   -1    0    0    0    0 -0.00000000000E+00 -0.00000000000E+00 -0.45593999997E+02  0.45594000000E+02  0.51100000000E-03 0. -1.
    9900012    2    1    2    0    0 -0.17705533013E+01 -0.16432080021E+02  0.27268522484E+02  0.59301946132E+02  0.50000003838E+02 0.  0.
         12    1    1    2    0    0  0.17705533013E+01  0.16432080021E+02 -0.27268522484E+02  0.31886053868E+02  0.00000000000E+00 0. -1.
         11    1    3    3    0    0 -0.17771193492E+02  0.43390200870E+00  0.20722876697E+02  0.27302769236E+02  0.51100000000E-03 0. -1.
        -11    1    3    3    0    0 -0.28948174651E+01 -0.11234082895E+02  0.21608635681E+01  0.11800589743E+02  0.51100000000E-03 0.  1.
         12    1    3    3    0    0  0.18895457656E+02 -0.56318991339E+01  0.43847822191E+01  0.20198587153E+02  0.00000000000E+00 0. -1.
</event>
<event>
 7    1  0.6316620E-012  0.5930195E+02  0.7816164E-02  0.1266605E+00
        -11   -1    0    0    0    0  0.00000000000E+00  0.00000000000E+00  0.45593999997E+02  0.45594000000E+02  0.51100000000E-03 0. -1.
         11   -1    0    0    0    0 -0.00000000000E+00 -0.00000000000E+00 -0.45593999997E+02  0.45594000000E+02  0.51100000000E-03 0.  1.
    9900012    2    1    2    0    0 -0.99740467318E+01  0.26243036491E+02 -0.15117602367E+02  0.59301945465E+02  0.50000002621E+02 0.  0.
         12    1    1    2    0    0  0.99740467318E+01 -0.26243036491E+02  0.15117602367E+02  0.31886054535E+02  0.00000000000E+00 0. -1.
         11    1    3    3    0    0 -0.17124466393E+02  0.72350123147E+01 -0.91845696398E+01  0.20735213338E+02  0.51100000000E-03 0. -1.
        -11    1    3    3    0    0 -0.11006532231E+02  0.65040780378E+00  0.26821614811E+01  0.11347280403E+02  0.51100000000E-03 0.  1.
         12    1    3    3    0    0  0.18156951892E+02  0.18357616373E+02 -0.86151942080E+01  0.27219451724E+02  0.00000000000E+00 0. -1.
</event>
<event>
 7    1  0.6316620E-012  0.5930190E+02  0.7816164E-02  0.1266605E+00
        -11   -1    0    0    0    0  0.00000000000E+00  0.00000000000E+00  0.45593999997E+02  0.45594000000E+02  0.51100000000E-03 0. -1.
         11   -1    0    0    0    0 -0.00000000000E+00 -0.00000000000E+00 -0.45593999997E+02  0.45594000000E+02  0.51100000000E-03 0.  1.
    9900012    2    1    2    0    0 -0.26850434367E+02 -0.58608630254E+01 -0.16168737135E+02  0.59301896417E+02  0.49999913170E+02 0.  0.
         12    1    1    2    0    0  0.26850434367E+02  0.58608630254E+01  0.16168737135E+02  0.31886103583E+02  0.00000000000E+00 0. -1.
         11    1    3    3    0    0 -0.98036807588E+01  0.71031978681E+01  0.73692903827E+01  0.14173003118E+02  0.51100000000E-03 0. -1.
        -11    1    3    3    0    0 -0.41692812928E+00 -0.34005425716E+01  0.77242757169E+01  0.84499677193E+01  0.51100000000E-03 0.  1.
        -12    1    3    3    0    0 -0.16629825479E+02 -0.95635183218E+01 -0.31262303235E+02  0.36678925580E+02  0.00000000000E+00 0.  1.
</event>
<event>
 7    1  0.6316620E-012  0.5930196E+02  0.7816164E-02  0.1266605E+00
        -11   -1    0    0    0    0  0.00000000000E+00  0.00000000000E+00  0.45593999997E+02  0.45594000000E+02  0.51100000000E-03 0.  1.
         11   -1    0    0    0    0 -0.00000000000E+00 -0.00000000000E+00 -0.45593999997E+02  0.45594000000E+02  0.51100000000E-03 0. -1.
    9900012    2    1    2    0    0  0.27875367547E+02  0.23488657522E+01  0.15302497203E+02  0.59301957492E+02  0.50000024555E+02 0.  0.
         12    1    1    2    0    0 -0.27875367547E+02 -0.23488657522E+01 -0.15302497203E+02  0.31886042508E+02  0.00000000000E+00 0. -1.
         11    1    3    3    0    0 -0.82043836543E+01 -0.41913634138E+01  0.12627253114E+02  0.15630961579E+02  0.51100000000E-03 0. -1.
        -11    1    3    3    0    0  0.11971876585E+02 -0.71159662200E+01 -0.52004911750E+01  0.14866334885E+02  0.51100000000E-03 0.  1.
        -12    1    3    3    0    0  0.24107874617E+02  0.13656195386E+02  0.78757352636E+01  0.28804661027E+02  0.00000000000E+00 0.  1.
</event>
<event>
 7    1  0.6316620E-012  0.5930195E+02  0.7816164E-02  0.1266605E+00
        -11   -1    0    0    0    0  0.00000000000E+00  0.00000000000E+00  0.45593999997E+02  0.45594000000E+02  0.51100000000E-03 0.  1.
         11   -1    0    0    0    0 -0.00000000000E+00 -0.00000000000E+00 -0.45593999997E+02  0.45594000000E+02  0.51100000000E-03 0. -1.
    9900012    2    1    2    0    0 -0.80704815047E+01  0.23490859848E+02 -0.19994167361E+02  0.59301954516E+02  0.50000019129E+02 0.  0.
         12    1    1    2    0    0  0.80704815047E+01 -0.23490859848E+02  0.19994167361E+02  0.31886045484E+02  0.00000000000E+00 0. -1.
         11    1    3    3    0    0  0.15402047468E+01  0.20118157772E+02 -0.18153832809E+02  0.27141741814E+02  0.51100000000E-03 0. -1.
        -11    1    3    3    0    0 -0.86127370257E+01  0.16643114824E+02 -0.20442407488E+01  0.18850767375E+02  0.51100000000E-03 0.  1.
        -12    1    3    3    0    0 -0.99794922576E+00 -0.13270412748E+02  0.20390619644E+00  0.13309445327E+02  0.00000000000E+00 0.  1.
</event>
<event>
 7    1  0.6316620E-012  0.5930194E+02  0.7816164E-02  0.1266605E+00
        -11   -1    0    0    0    0  0.00000000000E+00  0.00000000000E+00  0.45593999997E+02  0.45594000000E+02  0.51100000000E-03 0. -1.
         11   -1    0    0    0    0 -0.00000000000E+00 -0.00000000000E+00 -0.45593999997E+02  0.45594000000E+02  0.51100000000E-03 0.  1.
    9900012    2    1    2    0    0  0.15527324321E+02 -0.13580543019E+02 -0.24314433392E+02  0.59301943165E+02  0.49999998427E+02 0.  0.
         12    1    1    2    0    0 -0.15527324321E+02  0.13580543019E+02  0.24314433392E+02  0.31886056835E+02  0.00000000000E+00 0. -1.
         11    1    3    3    0    0 -0.41569174975E+01  0.20025634899E+01  0.76259113074E+01  0.89131782851E+01  0.51100000000E-03 0. -1.
        -11    1    3    3    0    0 -0.72249365028E-01  0.76584947584E+01 -0.10941871199E+02  0.13355983959E+02  0.51100000000E-03 0.  1.
        -12    1    3    3    0    0  0.19756491184E+02 -0.23241601267E+02 -0.20998473501E+02  0.37032780921E+02  0.00000000000E+00 0.  1.
</event>
<event>
 7    1  0.6316620E-012  0.5930193E+02  0.7816164E-02  0.1266605E+00
        -11   -1    0    0    0    0  0.00000000000E+00  0.00000000000E+00  0.45593999997E+02  0.45594000000E+02  0.51100000000E-03 0.  1.
         11   -1    0    0    0    0 -0.00000000000E+00 -0.00000000000E+00 -0.45593999997E+02  0.45594000000E+02  0.51100000000E-03 0. -1.
    9900012    2    1    2    0    0 -0.17569070701E+02 -0.18980312583E+02 -0.18649317983E+02  0.59301928240E+02  0.49999971208E+02 0.  0.
         12    1    1    2    0    0  0.17569070701E+02  0.18980312583E+02  0.18649317983E+02  0.31886071760E+02  0.00000000000E+00 0. -1.
         11    1    3    3    0    0  0.59324193018E+00 -0.10950364898E+02  0.37342274629E+01  0.11584769415E+02  0.51100000000E-03 0. -1.
        -11    1    3    3    0    0  0.72191080488E+01 -0.14056035035E+02 -0.59451342787E+01  0.16882898560E+02  0.51100000000E-03 0.  1.
         12    1    3    3    0    0 -0.25381420680E+02  0.60260873500E+01 -0.16438411167E+02  0.30834260266E+02  0.00000000000E+00 0. -1.
</event>
<event>
 7    1  0.6316620E-012  0.5930188E+02  0.7816164E-02  0.1266605E+00
        -11   -1    0    0    0    0  0.00000000000E+00  0.00000000000E+00  0.45593999997E+02  0.45594000000E+02  0.51100000000E-03 0.  1.
         11   -1    0    0    0    0 -0.00000000000E+00 -0.00000000000E+00 -0.45593999997E+02  0.45594000000E+02  0.51100000000E-03 0. -1.
    9900012    2    1    2    0    0  0.52725959247E+01  0.23995822291E+02  0.20325475469E+02  0.59301879066E+02  0.49999881524E+02 0.  0.
         12    1    1    2    0    0 -0.52725959247E+01 -0.23995822291E+02 -0.20325475469E+02  0.31886120934E+02  0.00000000000E+00 0. -1.
         11    1    3    3    0    0  0.17416809421E+02  0.18867648579E+02  0.29314789901E+02  0.38970377475E+02  0.51100000000E-03 0.  1.
        -11    1    3    3    0    0 -0.81401957584E+00  0.66330812644E+01 -0.44741486277E+01  0.80422883021E+01  0.51100000000E-03 0. -1.
        -12    1    3    3    0    0 -0.11330193920E+02 -0.15049075519E+01 -0.45151658049E+01  0.12289213289E+02  0.00000000000E+00 0.  1.
</event>
<event>
 7    1  0.6316620E-012  0.5930192E+02  0.7816164E-02  0.1266605E+00
        -11   -1    0    0    0    0  0.00000000000E+00  0.00000000000E+00  0.45593999997E+02  0.45594000000E+02  0.51100000000E-03 0. -1.
         11   -1    0    0    0    0 -0.00000000000E+00 -0.00000000000E+00 -0.45593999997E+02  0.45594000000E+02  0.51100000000E-03 0.  1.
    9900012    2    1    2    0    0 -0.16514717058E+02 -0.25812475059E+02  0.88149078011E+01  0.59301916081E+02  0.49999949031E+02 0.  0.
         12    1    1    2    0    0  0.16514717058E+02  0.25812475059E+02 -0.88149078011E+01  0.31886083919E+02  0.00000000000E+00 0. -1.
         11    1    3    3    0    0  0.81622281204E+01 -0.56673408876E+01  0.11192481377E+01  0.99996718586E+01  0.51100000000E-03 0. -1.
        -11    1    3    3    0    0  0.26413046864E+01  0.46239830083E+01  0.11058433499E+02  0.12273820148E+02  0.51100000000E-03 0.  1.
         12    1    3    3    0    0 -0.27318249865E+02 -0.24769117179E+02 -0.33627738361E+01  0.37028424074E+02  0.00000000000E+00 0. -1.
</event>
<event>
 7    1  0.6316620E-012  0.5930196E+02  0.7816164E-02  0.1266605E+00
        -11   -1    0    0    0    0  0.00000000000E+00  0.00000000000E+00  0.45593999997E+02  0.45594000000E+02  0.51100000000E-03 0.  1.
         11   -1    0    0    0    0 -0.00000000000E+00 -0.00000000000E+00 -0.45593999997E+02  0.45594000000E+02  0.51100000000E-03 0. -1.
    9900012    2    1    2    0    0  0.17801690012E+02  0.18741263161E+02  0.18670417348E+02  0.59301959228E+02  0.50000027722E+02 0.  0.
         12    1    1    2    0    0 -0.17801690012E+02 -0.18741263161E+02 -0.18670417348E+02  0.31886040772E+02  0.00000000000E+00 0. -1.
         11    1    3    3    0    0 -0.16417559560E+00 -0.14541284498E+02  0.10958847953E+01  0.14583445142E+02  0.51100000000E-03 0. -1.
        -11    1    3    3    0    0  0.49265861211E+01  0.16901691796E+01 -0.17022497346E+01  0.54795599353E+01  0.51100000000E-03 0.  1.
        -12    1    3    3    0    0  0.13039279486E+02  0.31592378479E+02  0.19276782288E+02  0.39238954151E+02  0.00000000000E+00 0.  1.
</event>
<event>
 7    1  0.6316620E-012  0.5930197E+02  0.7816164E-02  0.1266605E+00
        -11   -1    0    0    0    0  0.00000000000E+00  0.00000000000E+00  0.45593999997E+02  0.45594000000E+02  0.51100000000E-03 0. -1.
         11   -1    0    0    0    0 -0.00000000000E+00 -0.00000000000E+00 -0.45593999997E+02  0.45594000000E+02  0.51100000000E-03 0.  1.
    9900012    2    1    2    0    0 -0.26345601642E+02  0.15836030650E+02 -0.84763419539E+01  0.59301969116E+02  0.50000045755E+02 0.  0.
         12    1    1    2    0    0  0.26345601642E+02 -0.15836030650E+02  0.84763419539E+01  0.31886030884E+02  0.00000000000E+00 0. -1.
         11    1    3    3    0    0  0.22509058552E+01  0.49392690137E+01  0.11406846571E+02  0.12632462330E+02  0.51100000000E-03 0. -1.
        -11    1    3    3    0    0 -0.34483993093E+02  0.10863062922E+02 -0.15537536694E+02  0.39351835566E+02  0.51100000000E-03 0.  1.
         12    1    3    3    0    0  0.58874855959E+01  0.33698714474E-01 -0.43456518313E+01  0.73176712200E+01  0.00000000000E+00 0. -1.
</event>
<event>
 7    1  0.6316620E-012  0.5930197E+02  0.7816164E-02  0.1266605E+00
        -11   -1    0    0    0    0  0.00000000000E+00  0.00000000000E+00  0.45593999997E+02  0.45594000000E+02  0.51100000000E-03 0. -1.
         11   -1    0    0    0    0 -0.00000000000E+00 -0.00000000000E+00 -0.45593999997E+02  0.45594000000E+02  0.51100000000E-03 0.  1.
    9900012    2    1    2    0    0 -0.12754639180E+02  0.28401998330E+02 -0.68821708230E+01  0.59301974769E+02  0.50000056065E+02 0.  0.
         12    1    1    2    0    0  0.12754639180E+02 -0.28401998330E+02  0.68821708230E+01  0.31886025231E+02  0.00000000000E+00 0. -1.
         11    1    3    3    0    0  0.26789853202E+01  0.12251577129E+02 -0.95329969718E+01  0.15752972291E+02  0.51100000000E-03 0. -1.
        -11    1    3    3    0    0 -0.32374091175E+01 -0.10937613743E+01 -0.15394211753E+02  0.15768921570E+02  0.51100000000E-03 0.  1.
         12    1    3    3    0    0 -0.12196215383E+02  0.17244182576E+02  0.18045037901E+02  0.27780080908E+02  0.00000000000E+00 0. -1.
</event>
<event>
 7    1  0.6316620E-012  0.5930198E+02  0.7816164E-02  0.1266605E+00
        -11   -1    0    0    0    0  0.00000000000E+00  0.00000000000E+00  0.45593999997E+02  0.45594000000E+02  0.51100000000E-03 0.  1.
         11   -1    0    0    0    0 -0.00000000000E+00 -0.00000000000E+00 -0.45593999997E+02  0.45594000000E+02  0.51100000000E-03 0. -1.
    9900012    2    1    2    0    0  0.71767730701E+01 -0.16748069194E+02  0.26167048155E+02  0.59301979512E+02  0.50000064714E+02 0.  0.
         12    1    1    2    0    0 -0.71767730701E+01  0.16748069194E+02 -0.26167048155E+02  0.31886020488E+02  0.00000000000E+00 0. -1.
         11    1    3    3    0    0  0.87467646451E+01 -0.30739879508E+01  0.96563411693E+01  0.13386568594E+02  0.51100000000E-03 0. -1.
        -11    1    3    3    0    0  0.11884048066E+02 -0.22396483487E+02  0.15782033427E+02  0.29864789475E+02  0.51100000000E-03 0.  1.
         12    1    3    3    0    0 -0.13454039641E+02  0.87224022440E+01  0.72867355933E+00  0.16050621443E+02  0.00000000000E+00 0. -1.
</event>
<event>
 7    1  0.6316620E-012  0.5930197E+02  0.7816164E-02  0.1266605E+00
        -11   -1    0    0    0    0  0.00000000000E+00  0.00000000000E+00  0.45593999997E+02  0.45594000000E+02  0.51100000000E-03 0.  1.
         11   -1    0    0    0    0 -0.00000000000E+00 -0.00000000000E+00 -0.45593999997E+02  0.45594000000E+02  0.51100000000E-03 0. -1.
    9900012    2    1    2    0    0 -0.22155537972E+02 -0.16230028254E+02  0.16199909902E+02  0.59301972327E+02  0.50000051611E+02 0.  0.
         12    1    1    2    0    0  0.22155537972E+02  0.16230028254E+02 -0.16199909902E+02  0.31886027673E+02  0.00000000000E+00 0. -1.
         11    1    3    3    0    0 -0.38248187840E+01 -0.12851249555E+02  0.15299282101E+00  0.13409222980E+02  0.51100000000E-03 0. -1.
        -11    1    3    3    0    0 -0.10604148457E+02 -0.20538977157E+02  0.13847165786E+02  0.26945158150E+02  0.51100000000E-03 0.  1.
         12    1    3    3    0    0 -0.77265707307E+01  0.17160198458E+02  0.21997512945E+01  0.18947591196E+02  0.00000000000E+00 0. -1.
</event>
<event>
 7    1  0.6316620E-012  0.5930186E+02  0.7816164E-02  0.1266605E+00
        -11   -1    0    0    0    0  0.00000000000E+00  0.00000000000E+00  0.45593999997E+02  0.45594000000E+02  0.51100000000E-03 0.  1.
         11   -1    0    0    0    0 -0.00000000000E+00 -0.00000000000E+00 -0.45593999997E+02  0.45594000000E+02  0.51100000000E-03 0. -1.
    9900012    2    1    2    0    0  0.93893814174E+01 -0.15880879588E+02  0.26006984560E+02  0.59301857778E+02  0.49999842701E+02 0.  0.
         12    1    1    2    0    0 -0.93893814174E+01  0.15880879588E+02 -0.26006984560E+02  0.31886142222E+02  0.00000000000E+00 0. -1.
         11    1    3    3    0    0  0.48543190837E+01  0.27361839608E+00  0.78617996837E+01  0.92437641316E+01  0.51100000000E-03 0.  1.
        -11    1    3    3    0    0  0.14197831880E+02 -0.92932871044E+01  0.29251012100E+02  0.33816642714E+02  0.51100000000E-03 0. -1.
         12    1    3    3    0    0 -0.96627695463E+01 -0.68612108802E+01 -0.11105827224E+02  0.16241450932E+02  0.00000000000E+00 0. -1.
</event>
<event>
 7    1  0.6316620E-012  0.5930195E+02  0.7816164E-02  0.1266605E+00
        -11   -1    0    0    0    0  0.00000000000E+00  0.00000000000E+00  0.45593999997E+02  0.45594000000E+02  0.51100000000E-03 0.  1.
         11   -1    0    0    0    0 -0.00000000000E+00 -0.00000000000E+00 -0.45593999997E+02  0.45594000000E+02  0.51100000000E-03 0. -1.
    9900012    2    1    2    0    0 -0.60325873443E+01 -0.15059531085E+02  0.27450660086E+02  0.59301947787E+02  0.50000006857E+02 0.  0.
         12    1    1    2    0    0  0.60325873443E+01  0.15059531085E+02 -0.27450660086E+02  0.31886052213E+02  0.00000000000E+00 0. -1.
         11    1    3    3    0    0  0.82330911436E+01 -0.83064755513E+01  0.12498223158E+02  0.17116860350E+02  0.51100000000E-03 0. -1.
        -11    1    3    3    0    0  0.44618125304E+01 -0.92167229136E+01 -0.76112260018E+01  0.12758781832E+02  0.51100000000E-03 0.  1.
         12    1    3    3    0    0 -0.18727491018E+02  0.24636673799E+01  0.22563662930E+02  0.29426305606E+02  0.00000000000E+00 0. -1.
</event>
<event>
 7    1  0.6316620E-012  0.5930192E+02  0.7816164E-02  0.1266605E+00
        -11   -1    0    0    0    0  0.00000000000E+00  0.00000000000E+00  0.45593999997E+02  0.45594000000E+02  0.51100000000E-03 0.  1.
         11   -1    0    0    0    0 -0.00000000000E+00 -0.00000000000E+00 -0.45593999997E+02  0.45594000000E+02  0.51100000000E-03 0. -1.
    9900012    2    1    2    0    0  0.17164943058E+02 -0.75734568108E+01  0.25782345581E+02  0.59301923699E+02  0.49999962925E+02 0.  0.
         12    1    1    2    0    0 -0.17164943058E+02  0.75734568108E+01 -0.25782345581E+02  0.31886076301E+02  0.00000000000E+00 0. -1.
         11    1    3    3    0    0 -0.10607779909E+02 -0.53237926095E+01  0.18758043932E+02  0.22197566866E+02  0.51100000000E-03 0. -1.
        -11    1    3    3    0    0  0.11461082699E+02  0.45458633711E+01  0.13501391613E+02  0.18284115133E+02  0.51100000000E-03 0.  1.
        -12    1    3    3    0    0  0.16311640268E+02 -0.67955275725E+01 -0.64770899648E+01  0.18820241700E+02  0.00000000000E+00 0.  1.
</event>
<event>
 7    1  0.6316620E-012  0.5930195E+02  0.7816164E-02  0.1266605E+00
        -11   -1    0    0    0    0  0.00000000000E+00  0.00000000000E+00  0.45593999997E+02  0.45594000000E+02  0.51100000000E-03 0.  1.
         11   -1    0    0    0    0 -0.00000000000E+00 -0.00000000000E+00 -0.45593999997E+02  0.45594000000E+02  0.51100000000E-03 0. -1.
    9900012    2    1    2    0    0  0.12558048518E+02 -0.26739018710E+02 -0.12001694112E+02  0.59301947160E+02  0.50000005712E+02 0.  0.
         12    1    1    2    0    0 -0.12558048518E+02  0.26739018710E+02  0.12001694112E+02  0.31886052840E+02  0.00000000000E+00 0. -1.
         11    1    3    3    0    0  0.41029436850E+01  0.46223364255E+01 -0.17500855391E+02  0.18560174584E+02  0.51100000000E-03 0. -1.
        -11    1    3    3    0    0  0.11299464788E+02 -0.56426209962E+01 -0.38898917338E+01  0.13215458151E+02  0.51100000000E-03 0.  1.
         12    1    3    3    0    0 -0.28443599547E+01 -0.25718734140E+02  0.93890530133E+01  0.27526314424E+02  0.00000000000E+00 0. -1.
</event>
<event>
 7    1  0.6316620E-012  0.5930204E+02  0.7816164E-02  0.1266604E+00
        -11   -1    0    0    0    0  0.00000000000E+00  0.00000000000E+00  0.45593999997E+02  0.45594000000E+02  0.51100000000E-03 0. -1.
         11   -1    0    0    0    0 -0.00000000000E+00 -0.00000000000E+00 -0.45593999997E+02  0.45594000000E+02  0.51100000000E-03 0.  1.
    9900012    2    1    2    0    0  0.25444848537E+02 -0.17320701607E+02 -0.83227034287E+01  0.59302040494E+02  0.50000175932E+02 0.  0.
         12    1    1    2    0    0 -0.25444848537E+02  0.17320701607E+02  0.83227034287E+01  0.31885959506E+02  0.00000000000E+00 0. -1.
         11    1    3    3    0    0  0.20160507013E+01  0.82168989516E+01 -0.15242848640E+01  0.85968211228E+01  0.51100000000E-03 0. -1.
        -11    1    3    3    0    0  0.10958768300E+02 -0.12728464876E+02 -0.21693989050E+02  0.27436063529E+02  0.51100000000E-03 0.  1.
         12    1    3    3    0    0  0.12470029535E+02 -0.12809135683E+02  0.14895570486E+02  0.23269155843E+02  0.00000000000E+00 0. -1.
</event>
<event>
 7    1  0.6316620E-012  0.5930192E+02  0.7816164E-02  0.1266605E+00
        -11   -1    0    0    0    0  0.00000000000E+00  0.00000000000E+00  0.45593999997E+02  0.45594000000E+02  0.51100000000E-03 0.  1.
         11   -1    0    0    0    0 -0.00000000000E+00 -0.00000000000E+00 -0.45593999997E+02  0.45594000000E+02  0.51100000000E-03 0. -1.
    9900012    2    1    2    0    0  0.46253131419E+01 -0.31396440137E+01  0.31392219504E+02  0.59301916334E+02  0.49999949493E+02 0.  0.
         12    1    1    2    0    0 -0.46253131419E+01  0.31396440137E+01 -0.31392219504E+02  0.31886083666E+02  0.00000000000E+00 0. -1.
         11    1    3    3    0    0  0.99141522210E+01  0.14366014256E+02  0.10335520424E+02  0.20285358330E+02  0.51100000000E-03 0. -1.
        -11    1    3    3    0    0  0.82477617287E+01 -0.63340276198E+01  0.18578865375E+02  0.21291306168E+02  0.51100000000E-03 0.  1.
        -12    1    3    3    0    0 -0.13536600808E+02 -0.11171630650E+02  0.24778337045E+01  0.17725251837E+02  0.00000000000E+00 0.  1.
</event>
<event>
 7    1  0.6316620E-012  0.5930194E+02  0.7816164E-02  0.1266605E+00
        -11   -1    0    0    0    0  0.00000000000E+00  0.00000000000E+00  0.45593999997E+02  0.45594000000E+02  0.51100000000E-03 0.  1.
         11   -1    0    0    0    0 -0.00000000000E+00 -0.00000000000E+00 -0.45593999997E+02  0.45594000000E+02  0.51100000000E-03 0. -1.
    9900012    2    1    2    0    0  0.31810036682E+02 -0.17341183615E+01  0.13548150032E+01  0.59301935271E+02  0.49999984030E+02 0.  0.
         12    1    1    2    0    0 -0.31810036682E+02  0.17341183615E+01 -0.13548150032E+01  0.31886064729E+02  0.00000000000E+00 0. -1.
         11    1    3    3    0    0  0.22506244099E+02  0.33195628263E+01  0.35044963518E+01  0.23018080192E+02  0.51100000000E-03 0. -1.
        -11    1    3    3    0    0  0.13656555820E+02 -0.16280193508E+01  0.13749519963E+02  0.19447397341E+02  0.51100000000E-03 0.  1.
         12    1    3    3    0    0 -0.43527632374E+01 -0.34256618370E+01 -0.15899201311E+02  0.16836457738E+02  0.00000000000E+00 0. -1.
</event>
<event>
 7    1  0.6316620E-012  0.5930196E+02  0.7816164E-02  0.1266605E+00
        -11   -1    0    0    0    0  0.00000000000E+00  0.00000000000E+00  0.45593999997E+02  0.45594000000E+02  0.51100000000E-03 0.  1.
         11   -1    0    0    0    0 -0.00000000000E+00 -0.00000000000E+00 -0.45593999997E+02  0.45594000000E+02  0.51100000000E-03 0. -1.
    9900012    2    1    2    0    0  0.11733082898E+02 -0.13689598357E+02  0.26299222471E+02  0.59301961675E+02  0.50000032185E+02 0.  0.
         12    1    1    2    0    0 -0.11733082898E+02  0.13689598357E+02 -0.26299222471E+02  0.31886038325E+02  0.00000000000E+00 0. -1.
         11    1    3    3    0    0  0.64600144936E+01  0.68120665889E+01  0.50248234975E+00  0.94015172840E+01  0.51100000000E-03 0. -1.
        -11    1    3    3    0    0  0.69782537599E+01  0.22174033460E+01  0.26108029195E+02  0.27115347902E+02  0.51100000000E-03 0.  1.
        -12    1    3    3    0    0 -0.17051853558E+01 -0.22719068291E+02 -0.31128907379E+00  0.22785096489E+02  0.00000000000E+00 0.  1.
</event>
<event>
 7    1  0.6316620E-012  0.5930194E+02  0.7816164E-02  0.1266605E+00
        -11   -1    0    0    0    0  0.00000000000E+00  0.00000000000E+00  0.45593999997E+02  0.45594000000E+02  0.51100000000E-03 0.  1.
         11   -1    0    0    0    0 -0.00000000000E+00 -0.00000000000E+00 -0.45593999997E+02  0.45594000000E+02  0.51100000000E-03 0. -1.
    9900012    2    1    2    0    0 -0.72576468645E+01 -0.28273679607E+02  0.12831469021E+02  0.59301937312E+02  0.49999987752E+02 0.  0.
         12    1    1    2    0    0  0.72576468645E+01  0.28273679607E+02 -0.12831469021E+02  0.31886062688E+02  0.00000000000E+00 0. -1.
         11    1    3    3    0    0  0.68888985511E+01  0.67125197880E+01  0.22979830196E+01  0.98891643414E+01  0.51100000000E-03 0.  1.
        -11    1    3    3    0    0  0.44134248691E+01 -0.66039430223E+01 -0.75688241951E+01  0.10971667260E+02  0.51100000000E-03 0. -1.
        -12    1    3    3    0    0 -0.18559970285E+02 -0.28382256373E+02  0.18102310196E+02  0.38441105710E+02  0.00000000000E+00 0.  1.
</event>
<event>
 7    1  0.6316620E-012  0.5930195E+02  0.7816164E-02  0.1266605E+00
        -11   -1    0    0    0    0  0.00000000000E+00  0.00000000000E+00  0.45593999997E+02  0.45594000000E+02  0.51100000000E-03 0.  1.
         11   -1    0    0    0    0 -0.00000000000E+00 -0.00000000000E+00 -0.45593999997E+02  0.45594000000E+02  0.51100000000E-03 0. -1.
    9900012    2    1    2    0    0  0.13338363719E+02 -0.28962177086E+02  0.27771863225E-01  0.59301946317E+02  0.50000004174E+02 0.  0.
         12    1    1    2    0    0 -0.13338363719E+02  0.28962177086E+02 -0.27771863225E-01  0.31886053683E+02  0.00000000000E+00 0. -1.
         11    1    3    3    0    0  0.78533921214E+01 -0.14447972776E+01 -0.15109166666E+01  0.81268737175E+01  0.51100000000E-03 0. -1.
        -11    1    3    3    0    0  0.21043474837E+02 -0.19900419457E+02  0.11534201665E+02  0.31175187828E+02  0.51100000000E-03 0.  1.
         12    1    3    3    0    0 -0.15558503240E+02 -0.76169603506E+01 -0.99955131347E+01  0.19999884771E+02  0.00000000000E+00 0. -1.
</event>
<event>
 7    1  0.6316620E-012  0.5930194E+02  0.7816164E-02  0.1266605E+00
        -11   -1    0    0    0    0  0.00000000000E+00  0.00000000000E+00  0.45593999997E+02  0.45594000000E+02  0.51100000000E-03 0.  1.
         11   -1    0    0    0    0 -0.00000000000E+00 -0.00000000000E+00 -0.45593999997E+02  0.45594000000E+02  0.51100000000E-03 0. -1.
    9900012    2    1    2    0    0  0.21320258709E+02 -0.11970876786E+02  0.20466200855E+02  0.59301941920E+02  0.49999996156E+02 0.  0.
         12    1    1    2    0    0 -0.21320258709E+02  0.11970876786E+02 -0.20466200855E+02  0.31886058080E+02  0.00000000000E+00 0. -1.
         11    1    3    3    0    0  0.48241208115E+00  0.26081940448E+01 -0.99783517358E+01  0.10324868097E+02  0.51100000000E-03 0. -1.
        -11    1    3    3    0    0 -0.61869997467E+01 -0.50143726367E+00  0.11579680650E+02  0.13138470589E+02  0.51100000000E-03 0.  1.
        -12    1    3    3    0    0  0.27024846374E+02 -0.14077633567E+02  0.18864871941E+02  0.35838603234E+02  0.00000000000E+00 0.  1.
</event>
<event>
 7    1  0.6316620E-012  0.5930191E+02  0.7816164E-02  0.1266605E+00
        -11   -1    0    0    0    0  0.00000000000E+00  0.00000000000E+00  0.45593999997E+02  0.45594000000E+02  0.51100000000E-03 0.  1.
         11   -1    0    0    0    0 -0.00000000000E+00 -0.00000000000E+00 -0.45593999997E+02  0.45594000000E+02  0.51100000000E-03 0. -1.
    9900012    2    1    2    0    0 -0.26777183387E+02 -0.14173785085E+02 -0.99402658038E+01  0.59301911841E+02  0.49999941300E+02 0.  0.
         12    1    1    2    0    0  0.26777183387E+02  0.14173785085E+02  0.99402658038E+01  0.31886088159E+02  0.00000000000E+00 0. -1.
         11    1    3    3    0    0 -0.14168887924E+02 -0.19282623689E+01 -0.15436383071E+02  0.21041803710E+02  0.51100000000E-03 0. -1.
        -11    1    3    3    0    0 -0.22591981384E+02 -0.14245725793E+02  0.40240158823E-01  0.26708424621E+02  0.51100000000E-03 0.  1.
         12    1    3    3    0    0  0.99836859207E+01  0.20002030763E+01  0.54558771083E+01  0.11551683511E+02  0.00000000000E+00 0. -1.
</event>
<event>
 7    1  0.6316620E-012  0.5930194E+02  0.7816164E-02  0.1266605E+00
        -11   -1    0    0    0    0  0.00000000000E+00  0.00000000000E+00  0.45593999997E+02  0.45594000000E+02  0.51100000000E-03 0. -1.
         11   -1    0    0    0    0 -0.00000000000E+00 -0.00000000000E+00 -0.45593999997E+02  0.45594000000E+02  0.51100000000E-03 0.  1.
    9900012    2    1    2    0    0  0.20162318643E+02 -0.19253563432E+02 -0.15475850709E+02  0.59301941086E+02  0.49999994635E+02 0.  0.
         12    1    1    2    0    0 -0.20162318643E+02  0.19253563432E+02  0.15475850709E+02  0.31886058914E+02  0.00000000000E+00 0. -1.
         11    1    3    3    0    0  0.76750392995E+01 -0.72917340775E+01 -0.66482752280E+01  0.12501007074E+02  0.51100000000E-03 0.  1.
        -11    1    3    3    0    0 -0.10161645154E+02 -0.19572703306E+02 -0.48148546830E+01  0.22572828197E+02  0.51100000000E-03 0. -1.
         12    1    3    3    0    0  0.22648924497E+02  0.76108739517E+01 -0.40127207982E+01  0.24228105815E+02  0.00000000000E+00 0. -1.
</event>
<event>
 7    1  0.6316620E-012  0.5930199E+02  0.7816164E-02  0.1266605E+00
        -11   -1    0    0    0    0  0.00000000000E+00  0.00000000000E+00  0.45593999997E+02  0.45594000000E+02  0.51100000000E-03 0.  1.
         11   -1    0    0    0    0 -0.00000000000E+00 -0.00000000000E+00 -0.45593999997E+02  0.45594000000E+02  0.51100000000E-03 0. -1.
    9900012    2    1    2    0    0 -0.20105822004E+02  0.10497357442E+02  0.22411577065E+02  0.59301994006E+02  0.50000091148E+02 0.  0.
         12    1    1    2    0    0  0.20105822004E+02 -0.10497357442E+02 -0.22411577065E+02  0.31886005994E+02  0.00000000000E+00 0. -1.
         11    1    3    3    0    0  0.92622854812E+01 -0.11500310289E+02  0.11684717200E+02  0.18830286386E+02  0.51100000000E-03 0. -1.
        -11    1    3    3    0    0 -0.19729569463E+00  0.55141957757E+01  0.16018129977E+01  0.57455274592E+01  0.51100000000E-03 0.  1.
        -12    1    3    3    0    0 -0.29170811790E+02  0.16483471956E+02  0.91250468675E+01  0.34726180161E+02  0.00000000000E+00 0.  1.
</event>
<event>
 7    1  0.6316620E-012  0.5930198E+02  0.7816164E-02  0.1266605E+00
        -11   -1    0    0    0    0  0.00000000000E+00  0.00000000000E+00  0.45593999997E+02  0.45594000000E+02  0.51100000000E-03 0. -1.
         11   -1    0    0    0    0 -0.00000000000E+00 -0.00000000000E+00 -0.45593999997E+02  0.45594000000E+02  0.51100000000E-03 0.  1.
    9900012    2    1    2    0    0  0.13427841345E+02 -0.25695776846E+02 -0.13271710726E+02  0.59301981488E+02  0.50000068319E+02 0.  0.
         12    1    1    2    0    0 -0.13427841345E+02  0.25695776846E+02  0.13271710726E+02  0.31886018512E+02  0.00000000000E+00 0. -1.
         11    1    3    3    0    0 -0.66442157891E+01 -0.43076133923E+01  0.13301517444E+01  0.80293486980E+01  0.51100000000E-03 0. -1.
        -11    1    3    3    0    0 -0.36774462842E+01 -0.24763498169E+02 -0.92917758657E+01  0.26703774111E+02  0.51100000000E-03 0.  1.
        -12    1    3    3    0    0  0.23749503419E+02  0.33753347153E+01 -0.53100866047E+01  0.24568858680E+02  0.00000000000E+00 0.  1.
</event>
<event>
 7    1  0.6316620E-012  0.5930194E+02  0.7816164E-02  0.1266605E+00
        -11   -1    0    0    0    0  0.00000000000E+00  0.00000000000E+00  0.45593999997E+02  0.45594000000E+02  0.51100000000E-03 0. -1.
         11   -1    0    0    0    0 -0.00000000000E+00 -0.00000000000E+00 -0.45593999997E+02  0.45594000000E+02  0.51100000000E-03 0.  1.
    9900012    2    1    2    0    0 -0.10761269700E+02  0.50051917578E+01 -0.29595002363E+02  0.59301936666E+02  0.49999986573E+02 0.  0.
         12    1    1    2    0    0  0.10761269700E+02 -0.50051917578E+01  0.29595002363E+02  0.31886063334E+02  0.00000000000E+00 0. -1.
         11    1    3    3    0    0 -0.10083798276E+02 -0.88494587581E+01  0.58203335742E+01  0.14624369769E+02  0.51100000000E-03 0. -1.
        -11    1    3    3    0    0  0.14577039816E+01  0.60668055177E+01  0.18811549408E+01  0.65168837844E+01  0.51100000000E-03 0.  1.
        -12    1    3    3    0    0 -0.21351754061E+01  0.77878449983E+01 -0.37296490878E+02  0.38160683112E+02  0.00000000000E+00 0.  1.
</event>
<event>
 7    1  0.6316620E-012  0.5930195E+02  0.7816164E-02  0.1266605E+00
        -11   -1    0    0    0    0  0.00000000000E+00  0.00000000000E+00  0.45593999997E+02  0.45594000000E+02  0.51100000000E-03 0.  1.
         11   -1    0    0    0    0 -0.00000000000E+00 -0.00000000000E+00 -0.45593999997E+02  0.45594000000E+02  0.51100000000E-03 0. -1.
    9900012    2    1    2    0    0  0.18090257245E+02 -0.24872206342E+02 -0.84164375854E+01  0.59301945413E+02  0.50000002526E+02 0.  0.
         12    1    1    2    0    0 -0.18090257245E+02  0.24872206342E+02  0.84164375854E+01  0.31886054587E+02  0.00000000000E+00 0. -1.
         11    1    3    3    0    0  0.82195416087E+01  0.46651748698E+01 -0.43375379800E+01  0.10398988259E+02  0.51100000000E-03 0. -1.
        -11    1    3    3    0    0  0.23770751141E+02 -0.18357105221E+02  0.18877308412E+01  0.30093112998E+02  0.51100000000E-03 0.  1.
         12    1    3    3    0    0 -0.13900035505E+02 -0.11180275991E+02 -0.59666304465E+01  0.18809844156E+02  0.00000000000E+00 0. -1.
</event>
<event>
 7    1  0.6316620E-012  0.5930193E+02  0.7816164E-02  0.1266605E+00
        -11   -1    0    0    0    0  0.00000000000E+00  0.00000000000E+00  0.45593999997E+02  0.45594000000E+02  0.51100000000E-03 0.  1.
         11   -1    0    0    0    0 -0.00000000000E+00 -0.00000000000E+00 -0.45593999997E+02  0.45594000000E+02  0.51100000000E-03 0. -1.
    9900012    2    1    2    0    0 -0.30641521209E+02 -0.45981517196E+01 -0.75283179258E+01  0.59301931067E+02  0.49999976362E+02 0.  0.
         12    1    1    2    0    0  0.30641521209E+02  0.45981517196E+01  0.75283179258E+01  0.31886068933E+02  0.00000000000E+00 0. -1.
         11    1    3    3    0    0  0.54140900208E+01 -0.67574492347E+01 -0.14863016759E+02  0.17201301066E+02  0.51100000000E-03 0. -1.
        -11    1    3    3    0    0 -0.44342230206E+01  0.50350212250E+00 -0.62211339103E+01  0.76562625070E+01  0.51100000000E-03 0.  1.
        -12    1    3    3    0    0 -0.31621388209E+02  0.16557953926E+01  0.13555832744E+02  0.34444367494E+02  0.00000000000E+00 0.  1.
</event>
<event>
 7    1  0.6316620E-012  0.5930193E+02  0.7816164E-02  0.1266605E+00
        -11   -1    0    0    0    0  0.00000000000E+00  0.00000000000E+00  0.45593999997E+02  0.45594000000E+02  0.51100000000E-03 0.  1.
         11   -1    0    0    0    0 -0.00000000000E+00 -0.00000000000E+00 -0.45593999997E+02  0.45594000000E+02  0.51100000000E-03 0. -1.
    9900012    2    1    2    0    0  0.56936993160E+01 -0.17387288505E+02  0.26114847803E+02  0.59301932678E+02  0.49999979301E+02 0.  0.
         12    1    1    2    0    0 -0.56936993160E+01  0.17387288505E+02 -0.26114847803E+02  0.31886067322E+02  0.00000000000E+00 0. -1.
         11    1    3    3    0    0 -0.23038415193E+01 -0.62812598517E+01  0.22128462409E+02  0.23117758540E+02  0.51100000000E-03 0.  1.
        -11    1    3    3    0    0  0.15241278275E+02  0.20296010065E+01  0.11695706563E+02  0.19318524684E+02  0.51100000000E-03 0. -1.
         12    1    3    3    0    0 -0.72437374395E+01 -0.13135629659E+02 -0.77093211683E+01  0.16865649454E+02  0.00000000000E+00 0. -1.
</event>
<event>
 7    1  0.6316620E-012  0.5930192E+02  0.7816164E-02  0.1266605E+00
        -11   -1    0    0    0    0  0.00000000000E+00  0.00000000000E+00  0.45593999997E+02  0.45594000000E+02  0.51100000000E-03 0.  1.
         11   -1    0    0    0    0 -0.00000000000E+00 -0.00000000000E+00 -0.45593999997E+02  0.45594000000E+02  0.51100000000E-03 0. -1.
    9900012    2    1    2    0    0 -0.27248476411E+02  0.10320439854E+02  0.12951103578E+02  0.59301921072E+02  0.49999958135E+02 0.  0.
         12    1    1    2    0    0  0.27248476411E+02 -0.10320439854E+02 -0.12951103578E+02  0.31886078928E+02  0.00000000000E+00 0. -1.
         11    1    3    3    0    0 -0.19894911508E+01 -0.32462761218E+01 -0.48826633637E+01  0.61916706535E+01  0.51100000000E-03 0. -1.
        -11    1    3    3    0    0 -0.35994748221E+02  0.62397460025E+01  0.97742470240E+01  0.37816560325E+02  0.51100000000E-03 0.  1.
         12    1    3    3    0    0  0.10735762961E+02  0.73269699737E+01  0.80595199179E+01  0.15293690093E+02  0.00000000000E+00 0. -1.
</event>
<event>
 7    1  0.6316620E-012  0.5930197E+02  0.7816164E-02  0.1266605E+00
        -11   -1    0    0    0    0  0.00000000000E+00  0.00000000000E+00  0.45593999997E+02  0.45594000000E+02  0.51100000000E-03 0.  1.
         11   -1    0    0    0    0 -0.00000000000E+00 -0.00000000000E+00 -0.45593999997E+02  0.45594000000E+02  0.51100000000E-03 0. -1.
    9900012    2    1    2    0    0  0.10736741440E+02 -0.15217878481E+02  0.25881608263E+02  0.59301967188E+02  0.50000042239E+02 0.  0.
         12    1    1    2    0    0 -0.10736741440E+02  0.15217878481E+02 -0.25881608263E+02  0.31886032812E+02  0.00000000000E+00 0. -1.
         11    1    3    3    0    0 -0.94594201251E+01  0.15466529331E+01  0.15287525388E+01  0.97061758167E+01  0.51100000000E-03 0. -1.
        -11    1    3    3    0    0  0.13688323788E+02 -0.22460142972E+01 -0.61649037446E+01  0.15179618796E+02  0.51100000000E-03 0.  1.
         12    1    3    3    0    0  0.65078377773E+01 -0.14518517117E+02  0.30517759468E+02  0.34416172576E+02  0.00000000000E+00 0. -1.
</event>
<event>
 7    1  0.6316620E-012  0.5930194E+02  0.7816164E-02  0.1266605E+00
        -11   -1    0    0    0    0  0.00000000000E+00  0.00000000000E+00  0.45593999997E+02  0.45594000000E+02  0.51100000000E-03 0.  1.
         11   -1    0    0    0    0 -0.00000000000E+00 -0.00000000000E+00 -0.45593999997E+02  0.45594000000E+02  0.51100000000E-03 0. -1.
    9900012    2    1    2    0    0  0.71220161866E+01  0.14113915679E+02  0.27691068015E+02  0.59301937556E+02  0.49999988197E+02 0.  0.
         12    1    1    2    0    0 -0.71220161866E+01 -0.14113915679E+02 -0.27691068015E+02  0.31886062444E+02  0.00000000000E+00 0. -1.
         11    1    3    3    0    0  0.10062609630E+02  0.17517652445E+02  0.23010642348E+02  0.30620482055E+02  0.51100000000E-03 0. -1.
        -11    1    3    3    0    0  0.12329380405E+02  0.86109399671E+00  0.31425704134E+01  0.12752680233E+02  0.51100000000E-03 0.  1.
        -12    1    3    3    0    0 -0.15269973849E+02 -0.42648307625E+01  0.15378552541E+01  0.15928775269E+02  0.00000000000E+00 0.  1.
</event>
<event>
 7    1  0.6316620E-012  0.5930192E+02  0.7816164E-02  0.1266605E+00
        -11   -1    0    0    0    0  0.00000000000E+00  0.00000000000E+00  0.45593999997E+02  0.45594000000E+02  0.51100000000E-03 0.  1.
         11   -1    0    0    0    0 -0.00000000000E+00 -0.00000000000E+00 -0.45593999997E+02  0.45594000000E+02  0.51100000000E-03 0. -1.
    9900012    2    1    2    0    0  0.17545890475E+02  0.26343924134E+02  0.38550725658E+01  0.59301918462E+02  0.49999953375E+02 0.  0.
         12    1    1    2    0    0 -0.17545890475E+02 -0.26343924134E+02 -0.38550725658E+01  0.31886081538E+02  0.00000000000E+00 0. -1.
         11    1    3    3    0    0  0.50670594614E+01  0.34987272228E+02  0.13227960573E+02  0.37746036226E+02  0.51100000000E-03 0. -1.
        -11    1    3    3    0    0  0.28538389203E+01  0.13636286986E+01  0.18839135193E+01  0.36814413237E+01  0.51100000000E-03 0.  1.
         12    1    3    3    0    0  0.96249920933E+01 -0.10006976793E+02 -0.11256801527E+02  0.17874440913E+02  0.00000000000E+00 0. -1.
</event>
<event>
 7    1  0.6316620E-012  0.5930194E+02  0.7816164E-02  0.1266605E+00
        -11   -1    0    0    0    0  0.00000000000E+00  0.00000000000E+00  0.45593999997E+02  0.45594000000E+02  0.51100000000E-03 0.  1.
         11   -1    0    0    0    0 -0.00000000000E+00 -0.00000000000E+00 -0.45593999997E+02  0.45594000000E+02  0.51100000000E-03 0. -1.
    9900012    2    1    2    0    0 -0.31862105565E+02 -0.37947266950E+00  0.11759900224E+01  0.59301941557E+02  0.49999995494E+02 0.  0.
         12    1    1    2    0    0  0.31862105565E+02  0.37947266950E+00 -0.11759900224E+01  0.31886058443E+02  0.00000000000E+00 0. -1.
         11    1    3    3    0    0 -0.11344718900E+02  0.13162150379E+02 -0.52340119482E+01  0.18147719716E+02  0.51100000000E-03 0. -1.
        -11    1    3    3    0    0  0.69675320439E+01  0.40021858049E+01  0.16308799450E+01  0.81990099193E+01  0.51100000000E-03 0.  1.
        -12    1    3    3    0    0 -0.27484918708E+02 -0.17543808854E+02  0.47791220255E+01  0.32955211922E+02  0.00000000000E+00 0.  1.
</event>
<event>
 7    1  0.6316620E-012  0.5930191E+02  0.7816164E-02  0.1266605E+00
        -11   -1    0    0    0    0  0.00000000000E+00  0.00000000000E+00  0.45593999997E+02  0.45594000000E+02  0.51100000000E-03 0. -1.
         11   -1    0    0    0    0 -0.00000000000E+00 -0.00000000000E+00 -0.45593999997E+02  0.45594000000E+02  0.51100000000E-03 0.  1.
    9900012    2    1    2    0    0 -0.10740704326E+02 -0.28813022657E+02 -0.84362217302E+01  0.59301908343E+02  0.49999934920E+02 0.  0.
         12    1    1    2    0    0  0.10740704326E+02  0.28813022657E+02  0.84362217302E+01  0.31886091657E+02  0.00000000000E+00 0. -1.
         11    1    3    3    0    0  0.77878659379E+01  0.42745229687E+01 -0.74515476329E+00  0.89150243050E+01  0.51100000000E-03 0. -1.
        -11    1    3    3    0    0 -0.12334919915E+02 -0.98480759850E+00  0.73562598604E+01  0.14395647075E+02  0.51100000000E-03 0.  1.
        -12    1    3    3    0    0 -0.61936503493E+01 -0.32102738028E+02 -0.15047326827E+02  0.35991236963E+02  0.00000000000E+00 0.  1.
</event>
<event>
 7    1  0.6316620E-012  0.5930216E+02  0.7816164E-02  0.1266604E+00
        -11   -1    0    0    0    0  0.00000000000E+00  0.00000000000E+00  0.45593999997E+02  0.45594000000E+02  0.51100000000E-03 0.  1.
         11   -1    0    0    0    0 -0.00000000000E+00 -0.00000000000E+00 -0.45593999997E+02  0.45594000000E+02  0.51100000000E-03 0. -1.
    9900012    2    1    2    0    0  0.15057117409E+02 -0.22747439322E+02  0.16508912404E+02  0.59302157230E+02  0.50000388828E+02 0.  0.
         12    1    1    2    0    0 -0.15057117409E+02  0.22747439322E+02 -0.16508912404E+02  0.31885842770E+02  0.00000000000E+00 0. -1.
         11    1    3    3    0    0  0.32335901527E+01  0.81826138958E+01 -0.10874165414E+02  0.13987807160E+02  0.51100000000E-03 0. -1.
        -11    1    3    3    0    0  0.17737420295E+01 -0.20486396417E+02  0.10584009564E+02  0.23127037373E+02  0.51100000000E-03 0.  1.
        -12    1    3    3    0    0  0.10049785227E+02 -0.10443656801E+02  0.16799068254E+02  0.22187312696E+02  0.00000000000E+00 0.  1.
</event>
<event>
 7    1  0.6316620E-012  0.5930159E+02  0.7816164E-02  0.1266606E+00
        -11   -1    0    0    0    0  0.00000000000E+00  0.00000000000E+00  0.45593999997E+02  0.45594000000E+02  0.51100000000E-03 0.  1.
         11   -1    0    0    0    0 -0.00000000000E+00 -0.00000000000E+00 -0.45593999997E+02  0.45594000000E+02  0.51100000000E-03 0. -1.
    9900012    2    1    2    0    0  0.24210468700E+02  0.16699439681E+02  0.12317667718E+02  0.59301591950E+02  0.49999357891E+02 0.  0.
         12    1    1    2    0    0 -0.24210468700E+02 -0.16699439681E+02 -0.12317667718E+02  0.31886408050E+02  0.00000000000E+00 0. -1.
         11    1    3    3    0    0 -0.68104132877E+01  0.13962211250E+01 -0.63840964578E+01  0.94386360467E+01  0.51100000000E-03 0. -1.
        -11    1    3    3    0    0  0.10009329554E+02  0.10586374409E+02 -0.71401026975E+01  0.16224643850E+02  0.51100000000E-03 0.  1.
        -12    1    3    3    0    0  0.21011552433E+02  0.47168441461E+01  0.25841866873E+02  0.33638312054E+02  0.00000000000E+00 0.  1.
</event>
<event>
 7    1  0.6316620E-012  0.5930195E+02  0.7816164E-02  0.1266605E+00
        -11   -1    0    0    0    0  0.00000000000E+00  0.00000000000E+00  0.45593999997E+02  0.45594000000E+02  0.51100000000E-03 0. -1.
         11   -1    0    0    0    0 -0.00000000000E+00 -0.00000000000E+00 -0.45593999997E+02  0.45594000000E+02  0.51100000000E-03 0.  1.
    9900012    2    1    2    0    0  0.21297337370E+02  0.22592371790E+02 -0.72614267393E+01  0.59301950379E+02  0.50000011584E+02 0.  0.
         12    1    1    2    0    0 -0.21297337370E+02 -0.22592371790E+02  0.72614267393E+01  0.31886049621E+02  0.00000000000E+00 0. -1.
         11    1    3    3    0    0  0.22752730069E+02  0.21688532933E+01 -0.63213005241E+01  0.23713909226E+02  0.51100000000E-03 0. -1.
        -11    1    3    3    0    0  0.56250337541E+01 -0.59333945537E+01 -0.13883082115E+01  0.82929835171E+01  0.51100000000E-03 0.  1.
        -12    1    3    3    0    0 -0.70804264527E+01  0.26356913050E+02  0.44818199635E+00  0.27295057637E+02  0.00000000000E+00 0.  1.
</event>
<event>
 7    1  0.6316620E-012  0.5930229E+02  0.7816164E-02  0.1266604E+00
        -11   -1    0    0    0    0  0.00000000000E+00  0.00000000000E+00  0.45593999997E+02  0.45594000000E+02  0.51100000000E-03 0.  1.
         11   -1    0    0    0    0 -0.00000000000E+00 -0.00000000000E+00 -0.45593999997E+02  0.45594000000E+02  0.51100000000E-03 0. -1.
    9900012    2    1    2    0    0  0.18796772231E+02 -0.24582712740E+02 -0.76857009254E+01  0.59302291435E+02  0.50000633584E+02 0.  0.
         12    1    1    2    0    0 -0.18796772231E+02  0.24582712740E+02  0.76857009254E+01  0.31885708565E+02  0.00000000000E+00 0. -1.
         11    1    3    3    0    0  0.11915875103E+02 -0.16163584610E+02 -0.15423854114E+02  0.25320837721E+02  0.51100000000E-03 0. -1.
        -11    1    3    3    0    0  0.18485287024E+02 -0.24716562207E-01  0.21593685940E+01  0.18610999980E+02  0.51100000000E-03 0.  1.
        -12    1    3    3    0    0 -0.11604389896E+02 -0.83944115677E+01  0.55787845949E+01  0.15370453734E+02  0.00000000000E+00 0.  1.
</event>
<event>
 7    1  0.6316620E-012  0.5930193E+02  0.7816164E-02  0.1266605E+00
        -11   -1    0    0    0    0  0.00000000000E+00  0.00000000000E+00  0.45593999997E+02  0.45594000000E+02  0.51100000000E-03 0. -1.
         11   -1    0    0    0    0 -0.00000000000E+00 -0.00000000000E+00 -0.45593999997E+02  0.45594000000E+02  0.51100000000E-03 0.  1.
    9900012    2    1    2    0    0 -0.16496892677E+02  0.25964118655E+02  0.83927853389E+01  0.59301925119E+02  0.49999965516E+02 0.  0.
         12    1    1    2    0    0  0.16496892677E+02 -0.25964118655E+02 -0.83927853389E+01  0.31886074881E+02  0.00000000000E+00 0. -1.
         11    1    3    3    0    0  0.10982225377E+01 -0.34233380669E+01  0.97980334584E+01  0.10436800093E+02  0.51100000000E-03 0. -1.
        -11    1    3    3    0    0  0.92910701244E+01  0.15754566053E+01  0.31003992222E+01  0.99206110281E+01  0.51100000000E-03 0.  1.
        -12    1    3    3    0    0 -0.26886185339E+02  0.27812000117E+02 -0.45056473417E+01  0.38944513998E+02  0.00000000000E+00 0.  1.
</event>
<event>
 7    1  0.6316620E-012  0.5930195E+02  0.7816164E-02  0.1266605E+00
        -11   -1    0    0    0    0  0.00000000000E+00  0.00000000000E+00  0.45593999997E+02  0.45594000000E+02  0.51100000000E-03 0.  1.
         11   -1    0    0    0    0 -0.00000000000E+00 -0.00000000000E+00 -0.45593999997E+02  0.45594000000E+02  0.51100000000E-03 0. -1.
    9900012    2    1    2    0    0 -0.14522318340E+02  0.53916947259E+01  0.27870277374E+02  0.59301945637E+02  0.50000002934E+02 0.  0.
         12    1    1    2    0    0  0.14522318340E+02 -0.53916947259E+01 -0.27870277374E+02  0.31886054363E+02  0.00000000000E+00 0. -1.
         11    1    3    3    0    0 -0.45201072961E+01 -0.56101534723E+01  0.61197868210E+01  0.94528822561E+01  0.51100000000E-03 0. -1.
        -11    1    3    3    0    0 -0.24912568004E+02  0.15044354573E+02  0.11412071632E+02  0.31260262767E+02  0.51100000000E-03 0.  1.
         12    1    3    3    0    0  0.14910356960E+02 -0.40425063748E+01  0.10338418921E+02  0.18588800613E+02  0.00000000000E+00 0. -1.
</event>
<event>
 7    1  0.6316620E-012  0.5930200E+02  0.7816164E-02  0.1266605E+00
        -11   -1    0    0    0    0  0.00000000000E+00  0.00000000000E+00  0.45593999997E+02  0.45594000000E+02  0.51100000000E-03 0.  1.
         11   -1    0    0    0    0 -0.00000000000E+00 -0.00000000000E+00 -0.45593999997E+02  0.45594000000E+02  0.51100000000E-03 0. -1.
    9900012    2    1    2    0    0 -0.47695893082E+01 -0.18227051996E+01  0.31474528938E+02  0.59301996671E+02  0.50000096009E+02 0.  0.
         12    1    1    2    0    0  0.47695893082E+01  0.18227051996E+01 -0.31474528938E+02  0.31886003329E+02  0.00000000000E+00 0. -1.
         11    1    3    3    0    0 -0.26583292840E+01 -0.17104066005E+02  0.73918833715E+01  0.18821682404E+02  0.51100000000E-03 0. -1.
        -11    1    3    3    0    0  0.37218696724E+01 -0.14573409517E+01  0.22310816024E+02  0.22666024539E+02  0.51100000000E-03 0.  1.
        -12    1    3    3    0    0 -0.58331296967E+01  0.16738701757E+02  0.17718295426E+01  0.17814289728E+02  0.00000000000E+00 0.  1.
</event>
<event>
 7    1  0.6316620E-012  0.5930193E+02  0.7816164E-02  0.1266605E+00
        -11   -1    0    0    0    0  0.00000000000E+00  0.00000000000E+00  0.45593999997E+02  0.45594000000E+02  0.51100000000E-03 0.  1.
         11   -1    0    0    0    0 -0.00000000000E+00 -0.00000000000E+00 -0.45593999997E+02  0.45594000000E+02  0.51100000000E-03 0. -1.
    9900012    2    1    2    0    0 -0.13754574590E+00  0.28835544207E+02  0.13609336663E+02  0.59301928229E+02  0.49999971187E+02 0.  0.
         12    1    1    2    0    0  0.13754574590E+00 -0.28835544207E+02 -0.13609336663E+02  0.31886071771E+02  0.00000000000E+00 0. -1.
         11    1    3    3    0    0 -0.23911610138E+01 -0.69247918217E+01  0.46925179758E+01  0.87000067806E+01  0.51100000000E-03 0.  1.
        -11    1    3    3    0    0 -0.31328330957E+01  0.38336631064E+02 -0.16116928828E+01  0.38498175006E+02  0.51100000000E-03 0. -1.
         12    1    3    3    0    0  0.53864483636E+01 -0.25762950351E+01  0.10528511570E+02  0.12103746443E+02  0.00000000000E+00 0. -1.
</event>
<event>
 7    1  0.6316620E-012  0.5930198E+02  0.7816164E-02  0.1266605E+00
        -11   -1    0    0    0    0  0.00000000000E+00  0.00000000000E+00  0.45593999997E+02  0.45594000000E+02  0.51100000000E-03 0. -1.
         11   -1    0    0    0    0 -0.00000000000E+00 -0.00000000000E+00 -0.45593999997E+02  0.45594000000E+02  0.51100000000E-03 0.  1.
    9900012    2    1    2    0    0  0.15039000039E+02  0.33225836620E+01 -0.27919650543E+02  0.59301984714E+02  0.50000074202E+02 0.  0.
         12    1    1    2    0    0 -0.15039000039E+02 -0.33225836620E+01  0.27919650543E+02  0.31886015286E+02  0.00000000000E+00 0. -1.
         11    1    3    3    0    0  0.16286811837E+02 -0.11221835366E+01 -0.22241362848E+02  0.27589812564E+02  0.51100000000E-03 0. -1.
        -11    1    3    3    0    0  0.51623294807E+01 -0.79718716711E+01 -0.12871225784E+02  0.15995900633E+02  0.51100000000E-03 0.  1.
         12    1    3    3    0    0 -0.64101412788E+01  0.12416638870E+02  0.71929380892E+01  0.15716271517E+02  0.00000000000E+00 0. -1.
</event>
<event>
 7    1  0.6316620E-012  0.5930195E+02  0.7816164E-02  0.1266605E+00
        -11   -1    0    0    0    0  0.00000000000E+00  0.00000000000E+00  0.45593999997E+02  0.45594000000E+02  0.51100000000E-03 0. -1.
         11   -1    0    0    0    0 -0.00000000000E+00 -0.00000000000E+00 -0.45593999997E+02  0.45594000000E+02  0.51100000000E-03 0.  1.
    9900012    2    1    2    0    0  0.31849983097E+00  0.22710817129E+02 -0.22379402996E+02  0.59301947637E+02  0.50000006583E+02 0.  0.
         12    1    1    2    0    0 -0.31849983097E+00 -0.22710817129E+02  0.22379402996E+02  0.31886052363E+02  0.00000000000E+00 0. -1.
         11    1    3    3    0    0 -0.16186060017E+02 -0.91103003255E+00 -0.11775963772E+02  0.20037261230E+02  0.51100000000E-03 0. -1.
        -11    1    3    3    0    0 -0.46896932622E+01  0.73937330522E+01 -0.89491238159E+01  0.12519877343E+02  0.51100000000E-03 0.  1.
        -12    1    3    3    0    0  0.21194253110E+02  0.16228114110E+02 -0.16543154075E+01  0.26744809065E+02  0.00000000000E+00 0.  1.
</event>
<event>
 7    1  0.6316620E-012  0.5930197E+02  0.7816164E-02  0.1266605E+00
        -11   -1    0    0    0    0  0.00000000000E+00  0.00000000000E+00  0.45593999997E+02  0.45594000000E+02  0.51100000000E-03 0.  1.
         11   -1    0    0    0    0 -0.00000000000E+00 -0.00000000000E+00 -0.45593999997E+02  0.45594000000E+02  0.51100000000E-03 0. -1.
    9900012    2    1    2    0    0 -0.11825446891E+02 -0.27225714555E+02  0.11646369174E+02  0.59301974187E+02  0.50000055003E+02 0.  0.
         12    1    1    2    0    0  0.11825446891E+02  0.27225714555E+02 -0.11646369174E+02  0.31886025813E+02  0.00000000000E+00 0. -1.
         11    1    3    3    0    0 -0.16972281874E+02 -0.11579320939E+02  0.13159910021E+02  0.24399226575E+02  0.51100000000E-03 0.  1.
        -11    1    3    3    0    0 -0.33731542485E+01  0.62999865505E+01 -0.77567559471E+01  0.10546812941E+02  0.51100000000E-03 0. -1.
         12    1    3    3    0    0  0.85199892316E+01 -0.21946380167E+02  0.62432151001E+01  0.24355934672E+02  0.00000000000E+00 0. -1.
</event>
<event>
 7    1  0.6316620E-012  0.5930194E+02  0.7816164E-02  0.1266605E+00
        -11   -1    0    0    0    0  0.00000000000E+00  0.00000000000E+00  0.45593999997E+02  0.45594000000E+02  0.51100000000E-03 0. -1.
         11   -1    0    0    0    0 -0.00000000000E+00 -0.00000000000E+00 -0.45593999997E+02  0.45594000000E+02  0.51100000000E-03 0.  1.
    9900012    2    1    2    0    0 -0.94086346340E+01 -0.29817814456E+01 -0.30320081358E+02  0.59301940980E+02  0.49999994441E+02 0.  0.
         12    1    1    2    0    0  0.94086346340E+01  0.29817814456E+01  0.30320081358E+02  0.31886059020E+02  0.00000000000E+00 0. -1.
         11    1    3    3    0    0  0.42931811908E+00 -0.39231848534E+01  0.15635880262E+01  0.42450560913E+01  0.51100000000E-03 0. -1.
        -11    1    3    3    0    0 -0.18656490900E+02  0.12814117122E+02 -0.32984650086E+01  0.22872387763E+02  0.51100000000E-03 0.  1.
         12    1    3    3    0    0  0.88185381467E+01 -0.11872713714E+02 -0.28585204376E+02  0.32184497125E+02  0.00000000000E+00 0. -1.
</event>
<event>
 7    1  0.6316620E-012  0.5930196E+02  0.7816164E-02  0.1266605E+00
        -11   -1    0    0    0    0  0.00000000000E+00  0.00000000000E+00  0.45593999997E+02  0.45594000000E+02  0.51100000000E-03 0. -1.
         11   -1    0    0    0    0 -0.00000000000E+00 -0.00000000000E+00 -0.45593999997E+02  0.45594000000E+02  0.51100000000E-03 0.  1.
    9900012    2    1    2    0    0  0.10166834310E+02 -0.23285071614E+02 -0.19265529846E+02  0.59301957282E+02  0.50000024173E+02 0.  0.
         12    1    1    2    0    0 -0.10166834310E+02  0.23285071614E+02  0.19265529846E+02  0.31886042718E+02  0.00000000000E+00 0. -1.
         11    1    3    3    0    0 -0.78976339661E-01  0.63951096384E+01 -0.14113692488E+02  0.15495159904E+02  0.51100000000E-03 0. -1.
        -11    1    3    3    0    0  0.82688494906E+01 -0.40642012134E+01 -0.13891110200E+02  0.16668969561E+02  0.51100000000E-03 0.  1.
        -12    1    3    3    0    0  0.19769611594E+01 -0.25615980039E+02  0.87392728418E+01  0.27137827816E+02  0.00000000000E+00 0.  1.
</event>
<event>
 7    1  0.6316620E-012  0.5930197E+02  0.7816164E-02  0.1266605E+00
        -11   -1    0    0    0    0  0.00000000000E+00  0.00000000000E+00  0.45593999997E+02  0.45594000000E+02  0.51100000000E-03 0.  1.
         11   -1    0    0    0    0 -0.00000000000E+00 -0.00000000000E+00 -0.45593999997E+02  0.45594000000E+02  0.51100000000E-03 0. -1.
    9900012    2    1    2    0    0 -0.54306371598E+01 -0.18977651520E+02  0.25041478574E+02  0.59301972867E+02  0.50000052595E+02 0.  0.
         12    1    1    2    0    0  0.54306371598E+01  0.18977651520E+02 -0.25041478574E+02  0.31886027133E+02  0.00000000000E+00 0. -1.
         11    1    3    3    0    0  0.14144273545E+02 -0.50505829165E+01  0.76343646071E+01  0.16847919312E+02  0.51100000000E-03 0. -1.
        -11    1    3    3    0    0  0.33224228225E+01  0.59410404940E+01  0.84344830985E+01  0.10838586668E+02  0.51100000000E-03 0.  1.
        -12    1    3    3    0    0 -0.22897333527E+02 -0.19868109098E+02  0.89726308680E+01  0.31615466887E+02  0.00000000000E+00 0.  1.
</event>
<event>
 7    1  0.6316620E-012  0.5930193E+02  0.7816164E-02  0.1266605E+00
        -11   -1    0    0    0    0  0.00000000000E+00  0.00000000000E+00  0.45593999997E+02  0.45594000000E+02  0.51100000000E-03 0. -1.
         11   -1    0    0    0    0 -0.00000000000E+00 -0.00000000000E+00 -0.45593999997E+02  0.45594000000E+02  0.51100000000E-03 0.  1.
    9900012    2    1    2    0    0 -0.63371085259E+01 -0.43116580463E+01 -0.30951127164E+02  0.59301927613E+02  0.49999970063E+02 0.  0.
         12    1    1    2    0    0  0.63371085259E+01  0.43116580463E+01  0.30951127164E+02  0.31886072387E+02  0.00000000000E+00 0. -1.
         11    1    3    3    0    0 -0.14080623474E+02 -0.13464434176E+02 -0.68366416346E+01  0.20646903259E+02  0.51100000000E-03 0. -1.
        -11    1    3    3    0    0  0.12057228260E+01 -0.63619115173E+01 -0.20415210335E+02  0.21417481154E+02  0.51100000000E-03 0.  1.
        -12    1    3    3    0    0  0.65377921220E+01  0.15514687647E+02 -0.36992751939E+01  0.17237543200E+02  0.00000000000E+00 0.  1.
</event>
<event>
 7    1  0.6316620E-012  0.5930195E+02  0.7816164E-02  0.1266605E+00
        -11   -1    0    0    0    0  0.00000000000E+00  0.00000000000E+00  0.45593999997E+02  0.45594000000E+02  0.51100000000E-03 0.  1.
         11   -1    0    0    0    0 -0.00000000000E+00 -0.00000000000E+00 -0.45593999997E+02  0.45594000000E+02  0.51100000000E-03 0. -1.
    9900012    2    1    2    0    0 -0.11351837698E+02  0.29125787062E+02  0.62884644258E+01  0.59301945432E+02  0.50000002561E+02 0.  0.
         12    1    1    2    0    0  0.11351837698E+02 -0.29125787062E+02 -0.62884644258E+01  0.31886054568E+02  0.00000000000E+00 0. -1.
         11    1    3    3    0    0 -0.12034150510E+02  0.72326720531E+01  0.10374536992E+02  0.17457472370E+02  0.51100000000E-03 0. -1.
        -11    1    3    3    0    0  0.17469642697E+02  0.96143066051E+01  0.23361392711E+01  0.20076873621E+02  0.51100000000E-03 0.  1.
         12    1    3    3    0    0 -0.16787329886E+02  0.12278808404E+02 -0.64222118369E+01  0.21767599440E+02  0.00000000000E+00 0. -1.
</event>
<event>
 7    1  0.6316620E-012  0.5930190E+02  0.7816164E-02  0.1266605E+00
        -11   -1    0    0    0    0  0.00000000000E+00  0.00000000000E+00  0.45593999997E+02  0.45594000000E+02  0.51100000000E-03 0. -1.
         11   -1    0    0    0    0 -0.00000000000E+00 -0.00000000000E+00 -0.45593999997E+02  0.45594000000E+02  0.51100000000E-03 0.  1.
    9900012    2    1    2    0    0  0.29888282369E+02 -0.97010964054E+01 -0.54131847396E+01  0.59301901721E+02  0.49999922843E+02 0.  0.
         12    1    1    2    0    0 -0.29888282369E+02  0.97010964054E+01  0.54131847396E+01  0.31886098279E+02  0.00000000000E+00 0. -1.
         11    1    3    3    0    0 -0.30693429786E+01 -0.16589016587E+02 -0.13494346154E+01  0.16924458977E+02  0.51100000000E-03 0.  1.
        -11    1    3    3    0    0  0.89690994837E+01  0.12506021076E+02  0.49137046748E+01  0.16155178817E+02  0.51100000000E-03 0. -1.
        -12    1    3    3    0    0  0.23988525864E+02 -0.56181008952E+01 -0.89774547990E+01  0.26222263927E+02  0.00000000000E+00 0.  1.
</event>
<event>
 7    1  0.6316620E-012  0.5930194E+02  0.7816164E-02  0.1266605E+00
        -11   -1    0    0    0    0  0.00000000000E+00  0.00000000000E+00  0.45593999997E+02  0.45594000000E+02  0.51100000000E-03 0.  1.
         11   -1    0    0    0    0 -0.00000000000E+00 -0.00000000000E+00 -0.45593999997E+02  0.45594000000E+02  0.51100000000E-03 0. -1.
    9900012    2    1    2    0    0  0.30803851037E+01  0.11017158979E+02  0.29763302878E+02  0.59301940937E+02  0.49999994363E+02 0.  0.
         12    1    1    2    0    0 -0.30803851037E+01 -0.11017158979E+02 -0.29763302878E+02  0.31886059063E+02  0.00000000000E+00 0. -1.
         11    1    3    3    0    0  0.51473559721E+01 -0.16795546473E+01  0.16728641716E+02  0.17583049544E+02  0.51100000000E-03 0.  1.
        -11    1    3    3    0    0  0.11281970711E+02 -0.87907448979E+01  0.55101855144E+01  0.15327172069E+02  0.51100000000E-03 0. -1.
         12    1    3    3    0    0 -0.13348941579E+02  0.21487458524E+02  0.75244756476E+01  0.26391719324E+02  0.00000000000E+00 0. -1.
</event>
<event>
 7    1  0.6316620E-012  0.5930205E+02  0.7816164E-02  0.1266604E+00
        -11   -1    0    0    0    0  0.00000000000E+00  0.00000000000E+00  0.45593999997E+02  0.45594000000E+02  0.51100000000E-03 0.  1.
         11   -1    0    0    0    0 -0.00000000000E+00 -0.00000000000E+00 -0.45593999997E+02  0.45594000000E+02  0.51100000000E-03 0. -1.
    9900012    2    1    2    0    0 -0.25983752370E+02 -0.51057264935E+01  0.17762040213E+02  0.59302048504E+02  0.50000190540E+02 0.  0.
         12    1    1    2    0    0  0.25983752370E+02  0.51057264935E+01 -0.17762040213E+02  0.31885951496E+02  0.00000000000E+00 0. -1.
         11    1    3    3    0    0 -0.19513256534E+02 -0.78705393745E+00  0.12587636167E+02  0.23234354284E+02  0.51100000000E-03 0. -1.
        -11    1    3    3    0    0 -0.18674299012E+02 -0.10358458475E+02  0.66626001476E+01  0.22370009981E+02  0.51100000000E-03 0.  1.
         12    1    3    3    0    0  0.12203803175E+02  0.60397859189E+01 -0.14881961012E+01  0.13697684239E+02  0.00000000000E+00 0. -1.
</event>
<event>
 7    1  0.6316620E-012  0.5930195E+02  0.7816164E-02  0.1266605E+00
        -11   -1    0    0    0    0  0.00000000000E+00  0.00000000000E+00  0.45593999997E+02  0.45594000000E+02  0.51100000000E-03 0.  1.
         11   -1    0    0    0    0 -0.00000000000E+00 -0.00000000000E+00 -0.45593999997E+02  0.45594000000E+02  0.51100000000E-03 0. -1.
    9900012    2    1    2    0    0  0.19320106263E+01 -0.27187790490E+02  0.16547244790E+02  0.59301954041E+02  0.50000018261E+02 0.  0.
         12    1    1    2    0    0 -0.19320106263E+01  0.27187790490E+02 -0.16547244790E+02  0.31886045959E+02  0.00000000000E+00 0. -1.
         11    1    3    3    0    0 -0.11152641040E+02  0.10126472867E+02  0.25483514443E+00  0.15066246915E+02  0.51100000000E-03 0. -1.
        -11    1    3    3    0    0  0.88865493493E+01 -0.14766952560E+02  0.23464348438E+01  0.17393659879E+02  0.51100000000E-03 0.  1.
        -12    1    3    3    0    0  0.41981023169E+01 -0.22547310796E+02  0.13945974802E+02  0.26842047246E+02  0.00000000000E+00 0.  1.
</event>
<event>
 7    1  0.6316620E-012  0.5930188E+02  0.7816164E-02  0.1266605E+00
        -11   -1    0    0    0    0  0.00000000000E+00  0.00000000000E+00  0.45593999997E+02  0.45594000000E+02  0.51100000000E-03 0. -1.
         11   -1    0    0    0    0 -0.00000000000E+00 -0.00000000000E+00 -0.45593999997E+02  0.45594000000E+02  0.51100000000E-03 0.  1.
    9900012    2    1    2    0    0 -0.26532131518E+02 -0.11685791408E+02 -0.13274517386E+02  0.59301881774E+02  0.49999886463E+02 0.  0.
         12    1    1    2    0    0  0.26532131518E+02  0.11685791408E+02  0.13274517386E+02  0.31886118226E+02  0.00000000000E+00 0. -1.
         11    1    3    3    0    0  0.36157637867E+01  0.45421459403E+01  0.83830964732E+01  0.10197114506E+02  0.51100000000E-03 0. -1.
        -11    1    3    3    0    0  0.48016193828E+01  0.30758092343E+00 -0.47800739492E-01  0.48116982338E+01  0.51100000000E-03 0.  1.
        -12    1    3    3    0    0 -0.34949514687E+02 -0.16535518272E+02 -0.21609813119E+02  0.44293069034E+02  0.00000000000E+00 0.  1.
</event>
<event>
 7    1  0.6316620E-012  0.5930191E+02  0.7816164E-02  0.1266605E+00
        -11   -1    0    0    0    0  0.00000000000E+00  0.00000000000E+00  0.45593999997E+02  0.45594000000E+02  0.51100000000E-03 0.  1.
         11   -1    0    0    0    0 -0.00000000000E+00 -0.00000000000E+00 -0.45593999997E+02  0.45594000000E+02  0.51100000000E-03 0. -1.
    9900012    2    1    2    0    0  0.14076900315E+01  0.11035217876E+02  0.29882520524E+02  0.59301911221E+02  0.49999940168E+02 0.  0.
         12    1    1    2    0    0 -0.14076900315E+01 -0.11035217876E+02 -0.29882520524E+02  0.31886088779E+02  0.00000000000E+00 0. -1.
         11    1    3    3    0    0 -0.68234802638E+01  0.89966937502E+01  0.16888376719E+02  0.20315453473E+02  0.51100000000E-03 0. -1.
        -11    1    3    3    0    0 -0.44945540999E+01  0.15539385247E+02 -0.27163118348E+00  0.16178606064E+02  0.51100000000E-03 0.  1.
         12    1    3    3    0    0  0.12725724395E+02 -0.13500861121E+02  0.13265774988E+02  0.22807851684E+02  0.00000000000E+00 0. -1.
</event>
<event>
 7    1  0.6316620E-012  0.5930194E+02  0.7816164E-02  0.1266605E+00
        -11   -1    0    0    0    0  0.00000000000E+00  0.00000000000E+00  0.45593999997E+02  0.45594000000E+02  0.51100000000E-03 0. -1.
         11   -1    0    0    0    0 -0.00000000000E+00 -0.00000000000E+00 -0.45593999997E+02  0.45594000000E+02  0.51100000000E-03 0.  1.
    9900012    2    1    2    0    0  0.17818616103E+02  0.54718406681E+01 -0.25870381826E+02  0.59301940727E+02  0.49999993980E+02 0.  0.
         12    1    1    2    0    0 -0.17818616103E+02 -0.54718406681E+01  0.25870381826E+02  0.31886059273E+02  0.00000000000E+00 0. -1.
         11    1    3    3    0    0 -0.34927586570E+01 -0.15612751436E+00 -0.17412104263E+02  0.17759648475E+02  0.51100000000E-03 0. -1.
        -11    1    3    3    0    0  0.29943330003E+02  0.62723310922E+01 -0.11016371115E+02  0.32516235665E+02  0.51100000000E-03 0.  1.
         12    1    3    3    0    0 -0.86319552430E+01 -0.64436290976E+00  0.25580935521E+01  0.90260565862E+01  0.00000000000E+00 0. -1.
</event>
<event>
 7    1  0.6316620E-012  0.5930194E+02  0.7816164E-02  0.1266605E+00
        -11   -1    0    0    0    0  0.00000000000E+00  0.00000000000E+00  0.45593999997E+02  0.45594000000E+02  0.51100000000E-03 0.  1.
         11   -1    0    0    0    0 -0.00000000000E+00 -0.00000000000E+00 -0.45593999997E+02  0.45594000000E+02  0.51100000000E-03 0. -1.
    9900012    2    1    2    0    0  0.39029065814E+00  0.28141368167E+02  0.14987716125E+02  0.59301944055E+02  0.50000000049E+02 0.  0.
         12    1    1    2    0    0 -0.39029065814E+00 -0.28141368167E+02 -0.14987716125E+02  0.31886055945E+02  0.00000000000E+00 0. -1.
         11    1    3    3    0    0  0.31703870589E+01 -0.57282107008E+01 -0.49333779622E+01  0.81976807888E+01  0.51100000000E-03 0.  1.
        -11    1    3    3    0    0 -0.79831901646E+01 -0.60931562268E+00 -0.38692471362E+01  0.88923373977E+01  0.51100000000E-03 0. -1.
        -12    1    3    3    0    0  0.52030937638E+01  0.34478894490E+02  0.23790341224E+02  0.42211925868E+02  0.00000000000E+00 0.  1.
</event>
<event>
 7    1  0.6316620E-012  0.5930193E+02  0.7816164E-02  0.1266605E+00
        -11   -1    0    0    0    0  0.00000000000E+00  0.00000000000E+00  0.45593999997E+02  0.45594000000E+02  0.51100000000E-03 0. -1.
         11   -1    0    0    0    0 -0.00000000000E+00 -0.00000000000E+00 -0.45593999997E+02  0.45594000000E+02  0.51100000000E-03 0.  1.
    9900012    2    1    2    0    0  0.34742850606E+00  0.19352238143E+02 -0.25339522720E+02  0.59301933460E+02  0.49999980727E+02 0.  0.
         12    1    1    2    0    0 -0.34742850606E+00 -0.19352238143E+02  0.25339522720E+02  0.31886066540E+02  0.00000000000E+00 0. -1.
         11    1    3    3    0    0 -0.36083777575E+01  0.13895884484E+01  0.73237093151E+01  0.82817911402E+01  0.51100000000E-03 0. -1.
        -11    1    3    3    0    0  0.14867181559E+02  0.38504113702E+01 -0.28990960436E+02  0.32807537892E+02  0.51100000000E-03 0.  1.
         12    1    3    3    0    0 -0.10911375296E+02  0.14112238324E+02 -0.36722715990E+01  0.18212604428E+02  0.00000000000E+00 0. -1.
</event>
<event>
 7    1  0.6316620E-012  0.5930195E+02  0.7816164E-02  0.1266605E+00
        -11   -1    0    0    0    0  0.00000000000E+00  0.00000000000E+00  0.45593999997E+02  0.45594000000E+02  0.51100000000E-03 0.  1.
         11   -1    0    0    0    0 -0.00000000000E+00 -0.00000000000E+00 -0.45593999997E+02  0.45594000000E+02  0.51100000000E-03 0. -1.
    9900012    2    1    2    0    0 -0.25859566161E+02  0.11692584494E+02  0.14535707505E+02  0.59301945260E+02  0.50000002248E+02 0.  0.
         12    1    1    2    0    0  0.25859566161E+02 -0.11692584494E+02 -0.14535707505E+02  0.31886054740E+02  0.00000000000E+00 0. -1.
         11    1    3    3    0    0 -0.56872582328E+01  0.81354169876E+01 -0.13570634688E+02  0.16813448244E+02  0.51100000000E-03 0. -1.
        -11    1    3    3    0    0  0.37401842414E+01 -0.46903199492E+01  0.88787236651E+01  0.10715400766E+02  0.51100000000E-03 0.  1.
        -12    1    3    3    0    0 -0.23912492170E+02  0.82474874552E+01  0.19227618527E+02  0.31773096250E+02  0.00000000000E+00 0.  1.
</event>
<event>
 7    1  0.6316620E-012  0.5930194E+02  0.7816164E-02  0.1266605E+00
        -11   -1    0    0    0    0  0.00000000000E+00  0.00000000000E+00  0.45593999997E+02  0.45594000000E+02  0.51100000000E-03 0.  1.
         11   -1    0    0    0    0 -0.00000000000E+00 -0.00000000000E+00 -0.45593999997E+02  0.45594000000E+02  0.51100000000E-03 0. -1.
    9900012    2    1    2    0    0 -0.16743546426E+02  0.69029150327E+01  0.26243555014E+02  0.59301940936E+02  0.49999994362E+02 0.  0.
         12    1    1    2    0    0  0.16743546426E+02 -0.69029150327E+01 -0.26243555014E+02  0.31886059064E+02  0.00000000000E+00 0. -1.
         11    1    3    3    0    0  0.44165192808E+01  0.14983121237E+02  0.94779436108E+01  0.18271042113E+02  0.51100000000E-03 0. -1.
        -11    1    3    3    0    0  0.34531776595E+00 -0.13759129256E+02  0.12052019793E+02  0.18294372457E+02  0.51100000000E-03 0.  1.
         12    1    3    3    0    0 -0.21505383473E+02  0.56789230517E+01  0.47135916104E+01  0.22736526366E+02  0.00000000000E+00 0. -1.
</event>
<event>
 7    1  0.6316620E-012  0.5930195E+02  0.7816164E-02  0.1266605E+00
        -11   -1    0    0    0    0  0.00000000000E+00  0.00000000000E+00  0.45593999997E+02  0.45594000000E+02  0.51100000000E-03 0.  1.
         11   -1    0    0    0    0 -0.00000000000E+00 -0.00000000000E+00 -0.45593999997E+02  0.45594000000E+02  0.51100000000E-03 0. -1.
    9900012    2    1    2    0    0  0.16324341257E+02 -0.26863653868E+02 -0.53460617138E+01  0.59301946741E+02  0.50000004949E+02 0.  0.
         12    1    1    2    0    0 -0.16324341257E+02  0.26863653868E+02  0.53460617138E+01  0.31886053259E+02  0.00000000000E+00 0. -1.
         11    1    3    3    0    0  0.89573521016E+01 -0.29567439553E+02 -0.27880328778E+01  0.31020005899E+02  0.51100000000E-03 0. -1.
        -11    1    3    3    0    0  0.94593324414E+01 -0.10393850722E+02  0.21295043185E+01  0.14214284785E+02  0.51100000000E-03 0.  1.
         12    1    3    3    0    0 -0.20923432864E+01  0.13097636406E+02 -0.46875331544E+01  0.14067656057E+02  0.00000000000E+00 0. -1.
</event>
<event>
 7    1  0.6316620E-012  0.5930193E+02  0.7816164E-02  0.1266605E+00
        -11   -1    0    0    0    0  0.00000000000E+00  0.00000000000E+00  0.45593999997E+02  0.45594000000E+02  0.51100000000E-03 0. -1.
         11   -1    0    0    0    0 -0.00000000000E+00 -0.00000000000E+00 -0.45593999997E+02  0.45594000000E+02  0.51100000000E-03 0.  1.
    9900012    2    1    2    0    0 -0.49820331129E+01 -0.10537490671E+02 -0.29679319939E+02  0.59301931010E+02  0.49999976259E+02 0.  0.
         12    1    1    2    0    0  0.49820331129E+01  0.10537490671E+02  0.29679319939E+02  0.31886068990E+02  0.00000000000E+00 0. -1.
         11    1    3    3    0    0 -0.99521349975E+01  0.77698289797E+00  0.23022095696E+01  0.10244455212E+02  0.51100000000E-03 0. -1.
        -11    1    3    3    0    0 -0.50014283625E+01 -0.18469763661E+02 -0.55628771639E+01  0.19927168840E+02  0.51100000000E-03 0.  1.
        -12    1    3    3    0    0  0.99715302470E+01  0.71552900920E+01 -0.26418652345E+02  0.29130306958E+02  0.00000000000E+00 0.  1.
</event>
<event>
 7    1  0.6316620E-012  0.5930194E+02  0.7816164E-02  0.1266605E+00
        -11   -1    0    0    0    0  0.00000000000E+00  0.00000000000E+00  0.45593999997E+02  0.45594000000E+02  0.51100000000E-03 0.  1.
         11   -1    0    0    0    0 -0.00000000000E+00 -0.00000000000E+00 -0.45593999997E+02  0.45594000000E+02  0.51100000000E-03 0. -1.
    9900012    2    1    2    0    0 -0.15900392755E+02 -0.12522136306E+02  0.24639287628E+02  0.59301939061E+02  0.49999990941E+02 0.  0.
         12    1    1    2    0    0  0.15900392755E+02  0.12522136306E+02 -0.24639287628E+02  0.31886060939E+02  0.00000000000E+00 0. -1.
         11    1    3    3    0    0 -0.63069825297E+01 -0.64610544060E+01 -0.48665513775E+01  0.10257025653E+02  0.51100000000E-03 0. -1.
        -11    1    3    3    0    0 -0.82983969305E+01 -0.17497028257E+02  0.31873210772E+02  0.37294918617E+02  0.51100000000E-03 0.  1.
         12    1    3    3    0    0 -0.12950132945E+01  0.11435946357E+02 -0.23673717672E+01  0.11749994791E+02  0.00000000000E+00 0. -1.
</event>
<event>
 7    1  0.6316620E-012  0.5930182E+02  0.7816164E-02  0.1266605E+00
        -11   -1    0    0    0    0  0.00000000000E+00  0.00000000000E+00  0.45593999997E+02  0.45594000000E+02  0.51100000000E-03 0.  1.
         11   -1    0    0    0    0 -0.00000000000E+00 -0.00000000000E+00 -0.45593999997E+02  0.45594000000E+02  0.51100000000E-03 0. -1.
    9900012    2    1    2    0    0  0.25178736797E+02 -0.34093745569E+01  0.19264887217E+02  0.59301819591E+02  0.49999773057E+02 0.  0.
         12    1    1    2    0    0 -0.25178736797E+02  0.34093745569E+01 -0.19264887217E+02  0.31886180409E+02  0.00000000000E+00 0. -1.
         11    1    3    3    0    0 -0.33844849528E+01  0.68406510902E+01  0.52353418460E+01  0.92551634367E+01  0.51100000000E-03 0. -1.
        -11    1    3    3    0    0  0.83926720137E+01  0.66190343009E+01  0.20364814838E+02  0.22999440042E+02  0.51100000000E-03 0.  1.
         12    1    3    3    0    0  0.20170549736E+02 -0.16869059948E+02 -0.63352694672E+01  0.27047216112E+02  0.00000000000E+00 0. -1.
</event>
<event>
 7    1  0.6316620E-012  0.5930194E+02  0.7816164E-02  0.1266605E+00
        -11   -1    0    0    0    0  0.00000000000E+00  0.00000000000E+00  0.45593999997E+02  0.45594000000E+02  0.51100000000E-03 0.  1.
         11   -1    0    0    0    0 -0.00000000000E+00 -0.00000000000E+00 -0.45593999997E+02  0.45594000000E+02  0.51100000000E-03 0. -1.
    9900012    2    1    2    0    0 -0.84726983573E+01 -0.23483108491E+02  0.19836271198E+02  0.59301942594E+02  0.49999997386E+02 0.  0.
         12    1    1    2    0    0  0.84726983573E+01  0.23483108491E+02 -0.19836271198E+02  0.31886057406E+02  0.00000000000E+00 0. -1.
         11    1    3    3    0    0  0.69056803762E+01 -0.93367519051E+01  0.22959499838E+01  0.11837852178E+02  0.51100000000E-03 0. -1.
        -11    1    3    3    0    0  0.43507314048E+01 -0.19195919450E+02  0.18587308292E+02  0.27072129895E+02  0.51100000000E-03 0.  1.
         12    1    3    3    0    0 -0.19729110138E+02  0.50495628637E+01 -0.10469870777E+01  0.20391960521E+02  0.00000000000E+00 0. -1.
</event>
<event>
 7    1  0.6316620E-012  0.5930195E+02  0.7816164E-02  0.1266605E+00
        -11   -1    0    0    0    0  0.00000000000E+00  0.00000000000E+00  0.45593999997E+02  0.45594000000E+02  0.51100000000E-03 0.  1.
         11   -1    0    0    0    0 -0.00000000000E+00 -0.00000000000E+00 -0.45593999997E+02  0.45594000000E+02  0.51100000000E-03 0. -1.
    9900012    2    1    2    0    0 -0.27428943449E+02  0.10939173878E+02  0.12029448608E+02  0.59301951364E+02  0.50000013379E+02 0.  0.
         12    1    1    2    0    0  0.27428943449E+02 -0.10939173878E+02 -0.12029448608E+02  0.31886048636E+02  0.00000000000E+00 0. -1.
         11    1    3    3    0    0  0.25347115544E+01 -0.28147827371E+01  0.27655799726E+01  0.46900103803E+01  0.51100000000E-03 0. -1.
        -11    1    3    3    0    0 -0.21494354761E+02  0.24063831499E+02  0.19584007713E+02  0.37743988016E+02  0.51100000000E-03 0.  1.
         12    1    3    3    0    0 -0.84693002417E+01 -0.10309874884E+02 -0.10320139078E+02  0.16867952967E+02  0.00000000000E+00 0. -1.
</event>
<event>
 7    1  0.6316620E-012  0.5930196E+02  0.7816164E-02  0.1266605E+00
        -11   -1    0    0    0    0  0.00000000000E+00  0.00000000000E+00  0.45593999997E+02  0.45594000000E+02  0.51100000000E-03 0.  1.
         11   -1    0    0    0    0 -0.00000000000E+00 -0.00000000000E+00 -0.45593999997E+02  0.45594000000E+02  0.51100000000E-03 0. -1.
    9900012    2    1    2    0    0 -0.22911574803E+02  0.15504588628E+02 -0.15855198901E+02  0.59301955080E+02  0.50000020156E+02 0.  0.
         12    1    1    2    0    0  0.22911574803E+02 -0.15504588628E+02  0.15855198901E+02  0.31886044920E+02  0.00000000000E+00 0. -1.
         11    1    3    3    0    0 -0.76272697872E+01  0.81011245202E+00 -0.13062088921E+02  0.15147596966E+02  0.51100000000E-03 0. -1.
        -11    1    3    3    0    0 -0.92048390869E+01 -0.99054060404E+01 -0.11092695980E+02  0.17489826638E+02  0.51100000000E-03 0.  1.
        -12    1    3    3    0    0 -0.60794659289E+01  0.24599882217E+02  0.82995860007E+01  0.26664531476E+02  0.00000000000E+00 0.  1.
</event>
<event>
 7    1  0.6316620E-012  0.5930193E+02  0.7816164E-02  0.1266605E+00
        -11   -1    0    0    0    0  0.00000000000E+00  0.00000000000E+00  0.45593999997E+02  0.45594000000E+02  0.51100000000E-03 0.  1.
         11   -1    0    0    0    0 -0.00000000000E+00 -0.00000000000E+00 -0.45593999997E+02  0.45594000000E+02  0.51100000000E-03 0. -1.
    9900012    2    1    2    0    0  0.21236461687E+02 -0.76223450253E+01  0.22530734004E+02  0.59301930574E+02  0.49999975464E+02 0.  0.
         12    1    1    2    0    0 -0.21236461687E+02  0.76223450253E+01 -0.22530734004E+02  0.31886069426E+02  0.00000000000E+00 0. -1.
         11    1    3    3    0    0 -0.65929873401E+01  0.90337746679E+01  0.14618458432E+02  0.18405865750E+02  0.51100000000E-03 0. -1.
        -11    1    3    3    0    0 -0.77451201687E+00 -0.24313917496E+00  0.78759556821E+01  0.79176804488E+01  0.51100000000E-03 0.  1.
        -12    1    3    3    0    0  0.28603961044E+02 -0.16412980518E+02  0.36319889776E-01  0.32978384376E+02  0.00000000000E+00 0.  1.
</event>
<event>
 7    1  0.6316620E-012  0.5930197E+02  0.7816164E-02  0.1266605E+00
        -11   -1    0    0    0    0  0.00000000000E+00  0.00000000000E+00  0.45593999997E+02  0.45594000000E+02  0.51100000000E-03 0.  1.
         11   -1    0    0    0    0 -0.00000000000E+00 -0.00000000000E+00 -0.45593999997E+02  0.45594000000E+02  0.51100000000E-03 0. -1.
    9900012    2    1    2    0    0 -0.27512658462E+01  0.30827730180E+01  0.31617179170E+02  0.59301969017E+02  0.50000045574E+02 0.  0.
         12    1    1    2    0    0  0.27512658462E+01 -0.30827730180E+01 -0.31617179170E+02  0.31886030983E+02  0.00000000000E+00 0. -1.
         11    1    3    3    0    0  0.28635240122E+01 -0.31037362067E+01  0.72114039946E+01  0.83568711875E+01  0.51100000000E-03 0. -1.
        -11    1    3    3    0    0  0.24357326624E+01  0.72902970412E+01  0.35986333686E+02  0.36798062951E+02  0.51100000000E-03 0.  1.
        -12    1    3    3    0    0 -0.80505225209E+01 -0.11037878164E+01 -0.11580558511E+02  0.14147034878E+02  0.00000000000E+00 0.  1.
</event>
<event>
 7    1  0.6316620E-012  0.5930196E+02  0.7816164E-02  0.1266605E+00
        -11   -1    0    0    0    0  0.00000000000E+00  0.00000000000E+00  0.45593999997E+02  0.45594000000E+02  0.51100000000E-03 0. -1.
         11   -1    0    0    0    0 -0.00000000000E+00 -0.00000000000E+00 -0.45593999997E+02  0.45594000000E+02  0.51100000000E-03 0.  1.
    9900012    2    1    2    0    0 -0.29994563521E+02  0.10259553566E+02 -0.34332728043E+01  0.59301958503E+02  0.50000026400E+02 0.  0.
         12    1    1    2    0    0  0.29994563521E+02 -0.10259553566E+02  0.34332728043E+01  0.31886041497E+02  0.00000000000E+00 0. -1.
         11    1    3    3    0    0  0.79881681024E+01  0.11769851212E+02  0.17487863198E+01  0.14331729869E+02  0.51100000000E-03 0. -1.
        -11    1    3    3    0    0 -0.14355315332E+02 -0.87601002727E+01 -0.10314547470E+02  0.19728262083E+02  0.51100000000E-03 0.  1.
        -12    1    3    3    0    0 -0.23627416292E+02  0.72498026267E+01  0.51324883456E+01  0.25241966551E+02  0.00000000000E+00 0.  1.
</event>
<event>
 7    1  0.6316620E-012  0.5930195E+02  0.7816164E-02  0.1266605E+00
        -11   -1    0    0    0    0  0.00000000000E+00  0.00000000000E+00  0.45593999997E+02  0.45594000000E+02  0.51100000000E-03 0.  1.
         11   -1    0    0    0    0 -0.00000000000E+00 -0.00000000000E+00 -0.45593999997E+02  0.45594000000E+02  0.51100000000E-03 0. -1.
    9900012    2    1    2    0    0  0.53311516972E+01  0.18176131027E+02  0.25650090864E+02  0.59301951659E+02  0.50000013917E+02 0.  0.
         12    1    1    2    0    0 -0.53311516972E+01 -0.18176131027E+02 -0.25650090864E+02  0.31886048341E+02  0.00000000000E+00 0. -1.
         11    1    3    3    0    0  0.64308535812E+00  0.86311699878E+01  0.86628579966E+01  0.12245642615E+02  0.51100000000E-03 0. -1.
        -11    1    3    3    0    0  0.12472727629E+02  0.69341345003E+01  0.29107004243E+02  0.32417107398E+02  0.51100000000E-03 0.  1.
         12    1    3    3    0    0 -0.77846612894E+01  0.26108265387E+01 -0.12119771376E+02  0.14639201645E+02  0.00000000000E+00 0. -1.
</event>
<event>
 7    1  0.6316620E-012  0.5930193E+02  0.7816164E-02  0.1266605E+00
        -11   -1    0    0    0    0  0.00000000000E+00  0.00000000000E+00  0.45593999997E+02  0.45594000000E+02  0.51100000000E-03 0.  1.
         11   -1    0    0    0    0 -0.00000000000E+00 -0.00000000000E+00 -0.45593999997E+02  0.45594000000E+02  0.51100000000E-03 0. -1.
    9900012    2    1    2    0    0 -0.98791233456E+01 -0.30204485222E+02  0.26102580904E+01  0.59301930112E+02  0.49999974621E+02 0.  0.
         12    1    1    2    0    0  0.98791233456E+01  0.30204485222E+02 -0.26102580904E+01  0.31886069888E+02  0.00000000000E+00 0. -1.
         11    1    3    3    0    0  0.15081394910E+01  0.61365220443E+01 -0.58726742228E+01  0.86266847811E+01  0.51100000000E-03 0. -1.
        -11    1    3    3    0    0 -0.43259195982E+01  0.50928524242E+01  0.52904967372E+01  0.85229151218E+01  0.51100000000E-03 0.  1.
        -12    1    3    3    0    0 -0.70613432384E+01 -0.41433859690E+02  0.31924355759E+01  0.42152330209E+02  0.00000000000E+00 0.  1.
</event>
<event>
 7    1  0.6316620E-012  0.5930180E+02  0.7816164E-02  0.1266605E+00
        -11   -1    0    0    0    0  0.00000000000E+00  0.00000000000E+00  0.45593999997E+02  0.45594000000E+02  0.51100000000E-03 0.  1.
         11   -1    0    0    0    0 -0.00000000000E+00 -0.00000000000E+00 -0.45593999997E+02  0.45594000000E+02  0.51100000000E-03 0. -1.
    9900012    2    1    2    0    0 -0.10263968444E+02  0.15358087962E+02  0.25990566322E+02  0.59301804683E+02  0.49999745868E+02 0.  0.
         12    1    1    2    0    0  0.10263968444E+02 -0.15358087962E+02 -0.25990566322E+02  0.31886195317E+02  0.00000000000E+00 0. -1.
         11    1    3    3    0    0 -0.76715420112E+01  0.27318741529E+02  0.13452727770E+02  0.31402899233E+02  0.51100000000E-03 0. -1.
        -11    1    3    3    0    0 -0.10558548174E+02 -0.45714543042E+01  0.26688252705E+00  0.11508794922E+02  0.51100000000E-03 0.  1.
        -12    1    3    3    0    0  0.79661217418E+01 -0.73891992624E+01  0.12270956025E+02  0.16390110528E+02  0.00000000000E+00 0.  1.
</event>
<event>
 7    1  0.6316620E-012  0.5930196E+02  0.7816164E-02  0.1266605E+00
        -11   -1    0    0    0    0  0.00000000000E+00  0.00000000000E+00  0.45593999997E+02  0.45594000000E+02  0.51100000000E-03 0.  1.
         11   -1    0    0    0    0 -0.00000000000E+00 -0.00000000000E+00 -0.45593999997E+02  0.45594000000E+02  0.51100000000E-03 0. -1.
    9900012    2    1    2    0    0 -0.20107138910E+02 -0.24746892582E+02  0.11857184382E+00  0.59301956236E+02  0.50000022265E+02 0.  0.
         12    1    1    2    0    0  0.20107138910E+02  0.24746892582E+02 -0.11857184382E+00  0.31886043764E+02  0.00000000000E+00 0. -1.
         11    1    3    3    0    0 -0.63657805295E+01 -0.17693103863E+01 -0.11584062868E+02  0.13335821452E+02  0.51100000000E-03 0. -1.
        -11    1    3    3    0    0 -0.64370029919E+01 -0.20131913399E+02 -0.96391427050E+01  0.23230196232E+02  0.51100000000E-03 0.  1.
        -12    1    3    3    0    0 -0.73043553888E+01 -0.28456687970E+01  0.21341777417E+02  0.22735938553E+02  0.00000000000E+00 0.  1.
</event>
<event>
 7    1  0.6322495E-012  0.5930193E+02  0.7816164E-02  0.1266605E+00
        -11   -1    0    0    0    0  0.00000000000E+00  0.00000000000E+00  0.45593999997E+02  0.45594000000E+02  0.51100000000E-03 0. -1.
         11   -1    0    0    0    0 -0.00000000000E+00 -0.00000000000E+00 -0.45593999997E+02  0.45594000000E+02  0.51100000000E-03 0.  1.
    9900012    2    1    2    0    0  0.19253049707E+02 -0.65313851883E+01 -0.24563848490E+02  0.59301928305E+02  0.49999971326E+02 0.  0.
         12    1    1    2    0    0 -0.19253049707E+02  0.65313851883E+01  0.24563848490E+02  0.31886071695E+02  0.00000000000E+00 0. -1.
         11    1    3    3    0    0  0.11134518933E+02  0.70856795935E+01  0.44312323161E+01  0.13921931880E+02  0.51100000000E-03 0. -1.
        -11    1    3    3    0    0  0.49491375548E+01  0.96006575586E+01 -0.13491249302E+02  0.17282372409E+02  0.51100000000E-03 0.  1.
        -12    1    3    3    0    0  0.31693932185E+01 -0.23217722340E+02 -0.15503831504E+02  0.28097624016E+02  0.00000000000E+00 0.  1.
</event>
<event>
 7    1  0.6316620E-012  0.5930190E+02  0.7816164E-02  0.1266605E+00
        -11   -1    0    0    0    0  0.00000000000E+00  0.00000000000E+00  0.45593999997E+02  0.45594000000E+02  0.51100000000E-03 0. -1.
         11   -1    0    0    0    0 -0.00000000000E+00 -0.00000000000E+00 -0.45593999997E+02  0.45594000000E+02  0.51100000000E-03 0.  1.
    9900012    2    1    2    0    0 -0.17921394210E+02 -0.25606477868E+02 -0.63131118447E+01  0.59301898633E+02  0.49999917211E+02 0.  0.
         12    1    1    2    0    0  0.17921394210E+02  0.25606477868E+02  0.63131118447E+01  0.31886101367E+02  0.00000000000E+00 0. -1.
         11    1    3    3    0    0 -0.73941548897E+01 -0.14155316021E+02  0.80056471225E+01  0.17864402713E+02  0.51100000000E-03 0. -1.
        -11    1    3    3    0    0 -0.12456318589E+02 -0.16488750255E+02 -0.23185918929E+02  0.31058422281E+02  0.51100000000E-03 0.  1.
         12    1    3    3    0    0  0.19290792682E+01  0.50375884084E+01  0.88671599622E+01  0.10379073638E+02  0.00000000000E+00 0. -1.
</event>
<event>
 7    1  0.6316620E-012  0.5930192E+02  0.7816164E-02  0.1266605E+00
        -11   -1    0    0    0    0  0.00000000000E+00  0.00000000000E+00  0.45593999997E+02  0.45594000000E+02  0.51100000000E-03 0. -1.
         11   -1    0    0    0    0 -0.00000000000E+00 -0.00000000000E+00 -0.45593999997E+02  0.45594000000E+02  0.51100000000E-03 0.  1.
    9900012    2    1    2    0    0 -0.11139154259E+02  0.22081717390E+01 -0.29795385816E+02  0.59301924733E+02  0.49999964811E+02 0.  0.
         12    1    1    2    0    0  0.11139154259E+02 -0.22081717390E+01  0.29795385816E+02  0.31886075267E+02  0.00000000000E+00 0. -1.
         11    1    3    3    0    0  0.30792944497E+01  0.34372506786E+01 -0.20858410233E+01  0.50643340699E+01  0.51100000000E-03 0. -1.
        -11    1    3    3    0    0  0.54317896717E+01 -0.33229240314E+01  0.98892142923E+01  0.11761918327E+02  0.51100000000E-03 0.  1.
        -12    1    3    3    0    0 -0.19650238381E+02  0.20938450917E+01 -0.37598759085E+02  0.42475672336E+02  0.00000000000E+00 0.  1.
</event>
<event>
 7    1  0.6316620E-012  0.5930195E+02  0.7816164E-02  0.1266605E+00
        -11   -1    0    0    0    0  0.00000000000E+00  0.00000000000E+00  0.45593999997E+02  0.45594000000E+02  0.51100000000E-03 0.  1.
         11   -1    0    0    0    0 -0.00000000000E+00 -0.00000000000E+00 -0.45593999997E+02  0.45594000000E+02  0.51100000000E-03 0. -1.
    9900012    2    1    2    0    0  0.22658431791E+02 -0.86329995374E+01  0.20707167565E+02  0.59301952882E+02  0.50000016149E+02 0.  0.
         12    1    1    2    0    0 -0.22658431791E+02  0.86329995374E+01 -0.20707167565E+02  0.31886047118E+02  0.00000000000E+00 0. -1.
         11    1    3    3    0    0  0.20760778636E+02 -0.22754774922E+01  0.10162553210E+02  0.23226390494E+02  0.51100000000E-03 0. -1.
        -11    1    3    3    0    0 -0.51707997008E+01 -0.15845860611E+02  0.15947618904E+02  0.23068485365E+02  0.51100000000E-03 0.  1.
         12    1    3    3    0    0  0.70684528558E+01  0.94883385662E+01 -0.54030045495E+01  0.13007077023E+02  0.00000000000E+00 0. -1.
</event>
<event>
 7    1  0.6316620E-012  0.5930189E+02  0.7816164E-02  0.1266605E+00
        -11   -1    0    0    0    0  0.00000000000E+00  0.00000000000E+00  0.45593999997E+02  0.45594000000E+02  0.51100000000E-03 0.  1.
         11   -1    0    0    0    0 -0.00000000000E+00 -0.00000000000E+00 -0.45593999997E+02  0.45594000000E+02  0.51100000000E-03 0. -1.
    9900012    2    1    2    0    0 -0.14670313863E+01 -0.28947027220E+02  0.13290648621E+02  0.59301891634E+02  0.49999904447E+02 0.  0.
         12    1    1    2    0    0  0.14670313863E+01  0.28947027220E+02 -0.13290648621E+02  0.31886108366E+02  0.00000000000E+00 0. -1.
         11    1    3    3    0    0 -0.17999238814E+02 -0.38470091654E+00  0.13977861202E+02  0.22792568892E+02  0.51100000000E-03 0.  1.
        -11    1    3    3    0    0  0.69540900271E+01 -0.77129575688E+01 -0.72259123686E+01  0.12651596436E+02  0.51100000000E-03 0. -1.
        -12    1    3    3    0    0  0.95781174003E+01 -0.20849368734E+02  0.65386997876E+01  0.23857726305E+02  0.00000000000E+00 0.  1.
</event>
<event>
 7    1  0.6316620E-012  0.5930191E+02  0.7816164E-02  0.1266605E+00
        -11   -1    0    0    0    0  0.00000000000E+00  0.00000000000E+00  0.45593999997E+02  0.45594000000E+02  0.51100000000E-03 0.  1.
         11   -1    0    0    0    0 -0.00000000000E+00 -0.00000000000E+00 -0.45593999997E+02  0.45594000000E+02  0.51100000000E-03 0. -1.
    9900012    2    1    2    0    0  0.11234593645E+02  0.65712494720E+01  0.29108849601E+02  0.59301913080E+02  0.49999943558E+02 0.  0.
         12    1    1    2    0    0 -0.11234593645E+02 -0.65712494720E+01 -0.29108849601E+02  0.31886086920E+02  0.00000000000E+00 0. -1.
         11    1    3    3    0    0  0.84685845746E+01 -0.12636070961E+02  0.10257728594E+02  0.18346885572E+02  0.51100000000E-03 0. -1.
        -11    1    3    3    0    0 -0.16834864939E+01 -0.44105733718E+01 -0.51521504107E+01  0.69879852861E+01  0.51100000000E-03 0.  1.
        -12    1    3    3    0    0  0.44494955641E+01  0.23617893804E+02  0.24003271418E+02  0.33967042222E+02  0.00000000000E+00 0.  1.
</event>
<event>
 7    1  0.6316620E-012  0.5930188E+02  0.7816164E-02  0.1266605E+00
        -11   -1    0    0    0    0  0.00000000000E+00  0.00000000000E+00  0.45593999997E+02  0.45594000000E+02  0.51100000000E-03 0.  1.
         11   -1    0    0    0    0 -0.00000000000E+00 -0.00000000000E+00 -0.45593999997E+02  0.45594000000E+02  0.51100000000E-03 0. -1.
    9900012    2    1    2    0    0 -0.28262817273E+02  0.11518226213E+02  0.92340669069E+01  0.59301884417E+02  0.49999891285E+02 0.  0.
         12    1    1    2    0    0  0.28262817273E+02 -0.11518226213E+02 -0.92340669069E+01  0.31886115583E+02  0.00000000000E+00 0. -1.
         11    1    3    3    0    0 -0.10253997865E+02  0.11405194954E+02 -0.14561724083E+02  0.21148682056E+02  0.51100000000E-03 0. -1.
        -11    1    3    3    0    0 -0.19336648404E+02 -0.75146058256E+00  0.59615584030E+01  0.20248724487E+02  0.51100000000E-03 0.  1.
         12    1    3    3    0    0  0.13278289956E+01  0.86449184171E+00  0.17834232587E+02  0.17904477875E+02  0.00000000000E+00 0. -1.
</event>
<event>
 7    1  0.6316620E-012  0.5930195E+02  0.7816164E-02  0.1266605E+00
        -11   -1    0    0    0    0  0.00000000000E+00  0.00000000000E+00  0.45593999997E+02  0.45594000000E+02  0.51100000000E-03 0.  1.
         11   -1    0    0    0    0 -0.00000000000E+00 -0.00000000000E+00 -0.45593999997E+02  0.45594000000E+02  0.51100000000E-03 0. -1.
    9900012    2    1    2    0    0 -0.92270888531E+01 -0.26990153746E+01  0.30402240997E+02  0.59301951165E+02  0.50000013016E+02 0.  0.
         12    1    1    2    0    0  0.92270888531E+01  0.26990153746E+01 -0.30402240997E+02  0.31886048835E+02  0.00000000000E+00 0. -1.
         11    1    3    3    0    0  0.10559064644E+01  0.11716185340E+02  0.10201075990E+02  0.15570674006E+02  0.51100000000E-03 0. -1.
        -11    1    3    3    0    0 -0.22430301622E+02 -0.13302399436E+02  0.16966048903E+02  0.31111397867E+02  0.51100000000E-03 0.  1.
         12    1    3    3    0    0  0.12147306304E+02 -0.11128012780E+01  0.32351161034E+01  0.12619879292E+02  0.00000000000E+00 0. -1.
</event>
<event>
 7    1  0.6316620E-012  0.5930195E+02  0.7816164E-02  0.1266605E+00
        -11   -1    0    0    0    0  0.00000000000E+00  0.00000000000E+00  0.45593999997E+02  0.45594000000E+02  0.51100000000E-03 0.  1.
         11   -1    0    0    0    0 -0.00000000000E+00 -0.00000000000E+00 -0.45593999997E+02  0.45594000000E+02  0.51100000000E-03 0. -1.
    9900012    2    1    2    0    0 -0.21730177422E+02 -0.23290590191E+02  0.14381232742E+01  0.59301946610E+02  0.50000004710E+02 0.  0.
         12    1    1    2    0    0  0.21730177422E+02  0.23290590191E+02 -0.14381232742E+01  0.31886053390E+02  0.00000000000E+00 0. -1.
         11    1    3    3    0    0 -0.16935733803E+02 -0.22798960596E+02 -0.59219191900E+01  0.29011735744E+02  0.51100000000E-03 0. -1.
        -11    1    3    3    0    0 -0.13908657097E+02 -0.83984969507E+01  0.81912338940E+01  0.18195653499E+02  0.51100000000E-03 0.  1.
         12    1    3    3    0    0  0.91142134788E+01  0.79068673562E+01 -0.83119142988E+00  0.12094557368E+02  0.00000000000E+00 0. -1.
</event>
<event>
 7    1  0.6316620E-012  0.5930188E+02  0.7816164E-02  0.1266605E+00
        -11   -1    0    0    0    0  0.00000000000E+00  0.00000000000E+00  0.45593999997E+02  0.45594000000E+02  0.51100000000E-03 0.  1.
         11   -1    0    0    0    0 -0.00000000000E+00 -0.00000000000E+00 -0.45593999997E+02  0.45594000000E+02  0.51100000000E-03 0. -1.
    9900012    2    1    2    0    0  0.98350583030E+01  0.74153749564E+01  0.29411028471E+02  0.59301878359E+02  0.49999880236E+02 0.  0.
         12    1    1    2    0    0 -0.98350583030E+01 -0.74153749564E+01 -0.29411028471E+02  0.31886121641E+02  0.00000000000E+00 0. -1.
         11    1    3    3    0    0 -0.12407083671E+02  0.45984977426E+01  0.23372470799E+02  0.26858039731E+02  0.51100000000E-03 0. -1.
        -11    1    3    3    0    0  0.70827145282E+01 -0.28149433555E+01  0.12814632624E+02  0.14909847777E+02  0.51100000000E-03 0.  1.
         12    1    3    3    0    0  0.15159427445E+02  0.56318205694E+01 -0.67760749523E+01  0.17533990851E+02  0.00000000000E+00 0. -1.
</event>
<event>
 7    1  0.6316620E-012  0.5930193E+02  0.7816164E-02  0.1266605E+00
        -11   -1    0    0    0    0  0.00000000000E+00  0.00000000000E+00  0.45593999997E+02  0.45594000000E+02  0.51100000000E-03 0. -1.
         11   -1    0    0    0    0 -0.00000000000E+00 -0.00000000000E+00 -0.45593999997E+02  0.45594000000E+02  0.51100000000E-03 0.  1.
    9900012    2    1    2    0    0 -0.30348924095E+02 -0.19769482282E+01  0.95789212508E+01  0.59301933288E+02  0.49999980414E+02 0.  0.
         12    1    1    2    0    0  0.30348924095E+02  0.19769482282E+01 -0.95789212508E+01  0.31886066712E+02  0.00000000000E+00 0. -1.
         11    1    3    3    0    0 -0.19747259865E+02  0.80538144072E+01  0.90210950747E+01  0.23155957231E+02  0.51100000000E-03 0. -1.
        -11    1    3    3    0    0 -0.14725187738E+02 -0.14552936308E+02 -0.10720568883E+02  0.23314152494E+02  0.51100000000E-03 0.  1.
         12    1    3    3    0    0  0.41235235085E+01  0.45221736724E+01  0.11278395059E+02  0.12831823563E+02  0.00000000000E+00 0. -1.
</event>
<event>
 7    1  0.6316620E-012  0.5930195E+02  0.7816164E-02  0.1266605E+00
        -11   -1    0    0    0    0  0.00000000000E+00  0.00000000000E+00  0.45593999997E+02  0.45594000000E+02  0.51100000000E-03 0. -1.
         11   -1    0    0    0    0 -0.00000000000E+00 -0.00000000000E+00 -0.45593999997E+02  0.45594000000E+02  0.51100000000E-03 0.  1.
    9900012    2    1    2    0    0  0.25807766372E+02 -0.11370550125E+02 -0.14879182209E+02  0.59301948528E+02  0.50000008207E+02 0.  0.
         12    1    1    2    0    0 -0.25807766372E+02  0.11370550125E+02  0.14879182209E+02  0.31886051472E+02  0.00000000000E+00 0. -1.
         11    1    3    3    0    0  0.18336191796E+02  0.41059743185E+01  0.82193582938E+00  0.18808257055E+02  0.51100000000E-03 0. -1.
        -11    1    3    3    0    0  0.40235400671E+01  0.66578140627E+01  0.55972249717E+01  0.95835426858E+01  0.51100000000E-03 0.  1.
        -12    1    3    3    0    0  0.34480345095E+01 -0.22134338506E+02 -0.21298343010E+02  0.30910148787E+02  0.00000000000E+00 0.  1.
</event>
<event>
 7    1  0.6316620E-012  0.5930195E+02  0.7816164E-02  0.1266605E+00
        -11   -1    0    0    0    0  0.00000000000E+00  0.00000000000E+00  0.45593999997E+02  0.45594000000E+02  0.51100000000E-03 0.  1.
         11   -1    0    0    0    0 -0.00000000000E+00 -0.00000000000E+00 -0.45593999997E+02  0.45594000000E+02  0.51100000000E-03 0. -1.
    9900012    2    1    2    0    0 -0.21458048474E+02 -0.23790781218E+01 -0.23465123306E+02  0.59301954952E+02  0.50000019924E+02 0.  0.
         12    1    1    2    0    0  0.21458048474E+02  0.23790781218E+01  0.23465123306E+02  0.31886045048E+02  0.00000000000E+00 0. -1.
         11    1    3    3    0    0 -0.86088411694E+01  0.34037953864E+01 -0.29326377871E+02  0.30752795135E+02  0.51100000000E-03 0. -1.
        -11    1    3    3    0    0 -0.93198479140E+01 -0.34841746989E+01 -0.88072996925E+01  0.13287872915E+02  0.51100000000E-03 0.  1.
        -12    1    3    3    0    0 -0.35293593906E+01 -0.22986988093E+01  0.14668554257E+02  0.15261286902E+02  0.00000000000E+00 0.  1.
</event>
<event>
 7    1  0.6316620E-012  0.5930189E+02  0.7816164E-02  0.1266605E+00
        -11   -1    0    0    0    0  0.00000000000E+00  0.00000000000E+00  0.45593999997E+02  0.45594000000E+02  0.51100000000E-03 0. -1.
         11   -1    0    0    0    0 -0.00000000000E+00 -0.00000000000E+00 -0.45593999997E+02  0.45594000000E+02  0.51100000000E-03 0.  1.
    9900012    2    1    2    0    0  0.19194748885E+02  0.11762138737E+02 -0.22581800656E+02  0.59301889963E+02  0.49999901399E+02 0.  0.
         12    1    1    2    0    0 -0.19194748885E+02 -0.11762138737E+02  0.22581800656E+02  0.31886110037E+02  0.00000000000E+00 0. -1.
         11    1    3    3    0    0  0.65218286930E+01  0.10176451769E+02  0.16983714037E+01  0.12205690714E+02  0.51100000000E-03 0. -1.
        -11    1    3    3    0    0  0.11493553904E+02 -0.20906072881E+01  0.82730170861E+01  0.14314860536E+02  0.51100000000E-03 0.  1.
        -12    1    3    3    0    0  0.11793662871E+01  0.36762942562E+01 -0.32553189146E+02  0.32781338714E+02  0.00000000000E+00 0.  1.
</event>
<event>
 7    1  0.6316620E-012  0.5930197E+02  0.7816164E-02  0.1266605E+00
        -11   -1    0    0    0    0  0.00000000000E+00  0.00000000000E+00  0.45593999997E+02  0.45594000000E+02  0.51100000000E-03 0.  1.
         11   -1    0    0    0    0 -0.00000000000E+00 -0.00000000000E+00 -0.45593999997E+02  0.45594000000E+02  0.51100000000E-03 0. -1.
    9900012    2    1    2    0    0  0.16201969158E+02  0.25705549769E+02  0.96664271833E+01  0.59301970018E+02  0.50000047400E+02 0.  0.
         12    1    1    2    0    0 -0.16201969158E+02 -0.25705549769E+02 -0.96664271833E+01  0.31886029982E+02  0.00000000000E+00 0. -1.
         11    1    3    3    0    0  0.45327444419E+01  0.37474565606E+01 -0.55604321683E-01  0.58815214827E+01  0.51100000000E-03 0. -1.
        -11    1    3    3    0    0  0.22726796192E+02 -0.49333202279E+01  0.66166285285E+01  0.24179013358E+02  0.51100000000E-03 0.  1.
         12    1    3    3    0    0 -0.11057571476E+02  0.26891413437E+02  0.31054029765E+01  0.29241435177E+02  0.00000000000E+00 0. -1.
</event>
<event>
 7    1  0.6316620E-012  0.5930194E+02  0.7816164E-02  0.1266605E+00
        -11   -1    0    0    0    0  0.00000000000E+00  0.00000000000E+00  0.45593999997E+02  0.45594000000E+02  0.51100000000E-03 0. -1.
         11   -1    0    0    0    0 -0.00000000000E+00 -0.00000000000E+00 -0.45593999997E+02  0.45594000000E+02  0.51100000000E-03 0.  1.
    9900012    2    1    2    0    0 -0.24861923007E+02 -0.95172021483E+01 -0.17550744596E+02  0.59301937399E+02  0.49999987910E+02 0.  0.
         12    1    1    2    0    0  0.24861923007E+02  0.95172021483E+01  0.17550744596E+02  0.31886062601E+02  0.00000000000E+00 0. -1.
         11    1    3    3    0    0 -0.11612604227E+02 -0.18191748625E+02 -0.98574605246E+01  0.23726816542E+02  0.51100000000E-03 0.  1.
        -11    1    3    3    0    0 -0.21030489579E+02  0.10508998945E+02 -0.12105807961E+02  0.26443735315E+02  0.51100000000E-03 0. -1.
         12    1    3    3    0    0  0.77811707981E+01 -0.18344524684E+01  0.44125238894E+01  0.91313855423E+01  0.00000000000E+00 0. -1.
</event>
<event>
 7    1  0.6316620E-012  0.5930194E+02  0.7816164E-02  0.1266605E+00
        -11   -1    0    0    0    0  0.00000000000E+00  0.00000000000E+00  0.45593999997E+02  0.45594000000E+02  0.51100000000E-03 0.  1.
         11   -1    0    0    0    0 -0.00000000000E+00 -0.00000000000E+00 -0.45593999997E+02  0.45594000000E+02  0.51100000000E-03 0. -1.
    9900012    2    1    2    0    0 -0.29930320133E+02  0.89453293257E+01  0.63935592753E+01  0.59301943797E+02  0.49999999579E+02 0.  0.
         12    1    1    2    0    0  0.29930320133E+02 -0.89453293257E+01 -0.63935592753E+01  0.31886056203E+02  0.00000000000E+00 0. -1.
         11    1    3    3    0    0 -0.38351218795E+01 -0.73162167652E+01  0.44978937866E+01  0.94056491728E+01  0.51100000000E-03 0. -1.
        -11    1    3    3    0    0 -0.22502256774E+02 -0.60217902349E+01  0.10744414335E+02  0.25652601373E+02  0.51100000000E-03 0.  1.
        -12    1    3    3    0    0 -0.35929414791E+01  0.22283336326E+02 -0.88487488465E+01  0.24243693251E+02  0.00000000000E+00 0.  1.
</event>
<event>
 7    1  0.6316620E-012  0.5930195E+02  0.7816164E-02  0.1266605E+00
        -11   -1    0    0    0    0  0.00000000000E+00  0.00000000000E+00  0.45593999997E+02  0.45594000000E+02  0.51100000000E-03 0.  1.
         11   -1    0    0    0    0 -0.00000000000E+00 -0.00000000000E+00 -0.45593999997E+02  0.45594000000E+02  0.51100000000E-03 0. -1.
    9900012    2    1    2    0    0 -0.23378674494E+02  0.20738471720E+02 -0.63303876779E+01  0.59301946018E+02  0.50000003630E+02 0.  0.
         12    1    1    2    0    0  0.23378674494E+02 -0.20738471720E+02  0.63303876779E+01  0.31886053982E+02  0.00000000000E+00 0. -1.
         11    1    3    3    0    0 -0.37360784246E+01 -0.34245811101E+00  0.74076742339E+01  0.83035653408E+01  0.51100000000E-03 0. -1.
        -11    1    3    3    0    0 -0.20418216427E+02 -0.47695349588E+01  0.14297018075E+01  0.21016566639E+02  0.51100000000E-03 0.  1.
        -12    1    3    3    0    0  0.77562035731E+00  0.25850464790E+02 -0.15167763719E+02  0.29981814038E+02  0.00000000000E+00 0.  1.
</event>
<event>
 7    1  0.6316620E-012  0.5930194E+02  0.7816164E-02  0.1266605E+00
        -11   -1    0    0    0    0  0.00000000000E+00  0.00000000000E+00  0.45593999997E+02  0.45594000000E+02  0.51100000000E-03 0. -1.
         11   -1    0    0    0    0 -0.00000000000E+00 -0.00000000000E+00 -0.45593999997E+02  0.45594000000E+02  0.51100000000E-03 0.  1.
    9900012    2    1    2    0    0 -0.29053946090E+02  0.11308039200E+02  0.66871183598E+01  0.59301935867E+02  0.49999985116E+02 0.  0.
         12    1    1    2    0    0  0.29053946090E+02 -0.11308039200E+02 -0.66871183598E+01  0.31886064133E+02  0.00000000000E+00 0. -1.
         11    1    3    3    0    0 -0.35129431129E+02  0.62201035083E+01  0.12639354961E+02  0.37848644800E+02  0.51100000000E-03 0. -1.
        -11    1    3    3    0    0  0.52068130038E+00  0.96132561496E+01  0.29095793415E+01  0.10057407967E+02  0.51100000000E-03 0.  1.
        -12    1    3    3    0    0  0.55548037388E+01 -0.45253204578E+01 -0.88618159424E+01  0.11395883100E+02  0.00000000000E+00 0.  1.
</event>
<event>
 7    1  0.6316620E-012  0.5930196E+02  0.7816164E-02  0.1266605E+00
        -11   -1    0    0    0    0  0.00000000000E+00  0.00000000000E+00  0.45593999997E+02  0.45594000000E+02  0.51100000000E-03 0.  1.
         11   -1    0    0    0    0 -0.00000000000E+00 -0.00000000000E+00 -0.45593999997E+02  0.45594000000E+02  0.51100000000E-03 0. -1.
    9900012    2    1    2    0    0 -0.26206932930E+02 -0.13658699688E+02  0.11973141700E+02  0.59301960219E+02  0.50000029529E+02 0.  0.
         12    1    1    2    0    0  0.26206932930E+02  0.13658699688E+02 -0.11973141700E+02  0.31886039781E+02  0.00000000000E+00 0. -1.
         11    1    3    3    0    0  0.31788015223E+01  0.39093638888E+01  0.19621082541E+01  0.54071965190E+01  0.51100000000E-03 0. -1.
        -11    1    3    3    0    0 -0.27609001592E+02 -0.16199752855E+02 -0.10171579530E+02  0.33587944145E+02  0.51100000000E-03 0.  1.
         12    1    3    3    0    0 -0.17767328606E+01 -0.13683107214E+01  0.20182612976E+02  0.20306819555E+02  0.00000000000E+00 0. -1.
</event>
<event>
 7    1  0.6316620E-012  0.5930194E+02  0.7816164E-02  0.1266605E+00
        -11   -1    0    0    0    0  0.00000000000E+00  0.00000000000E+00  0.45593999997E+02  0.45594000000E+02  0.51100000000E-03 0. -1.
         11   -1    0    0    0    0 -0.00000000000E+00 -0.00000000000E+00 -0.45593999997E+02  0.45594000000E+02  0.51100000000E-03 0.  1.
    9900012    2    1    2    0    0 -0.24109161661E+02 -0.11618393729E+02 -0.17334423482E+02  0.59301937429E+02  0.49999987965E+02 0.  0.
         12    1    1    2    0    0  0.24109161661E+02  0.11618393729E+02  0.17334423482E+02  0.31886062571E+02  0.00000000000E+00 0. -1.
         11    1    3    3    0    0 -0.10266807531E+02 -0.11998810921E+02  0.10398783066E+02  0.18908027129E+02  0.51100000000E-03 0. -1.
        -11    1    3    3    0    0  0.38446079935E+01  0.80328238902E+01 -0.38416889062E+01  0.96987547751E+01  0.51100000000E-03 0.  1.
        -12    1    3    3    0    0 -0.17686962124E+02 -0.76524066977E+01 -0.23891517642E+02  0.30695155524E+02  0.00000000000E+00 0.  1.
</event>
<event>
 7    1  0.6316620E-012  0.5930196E+02  0.7816164E-02  0.1266605E+00
        -11   -1    0    0    0    0  0.00000000000E+00  0.00000000000E+00  0.45593999997E+02  0.45594000000E+02  0.51100000000E-03 0.  1.
         11   -1    0    0    0    0 -0.00000000000E+00 -0.00000000000E+00 -0.45593999997E+02  0.45594000000E+02  0.51100000000E-03 0. -1.
    9900012    2    1    2    0    0 -0.26588741033E+02  0.16423013033E+02  0.63279451055E+01  0.59301962365E+02  0.50000033443E+02 0.  0.
         12    1    1    2    0    0  0.26588741033E+02 -0.16423013033E+02 -0.63279451055E+01  0.31886037635E+02  0.00000000000E+00 0. -1.
         11    1    3    3    0    0 -0.15067537310E+02  0.57168743333E+01  0.74914337433E+01  0.17771744780E+02  0.51100000000E-03 0.  1.
        -11    1    3    3    0    0  0.15238770655E+01 -0.12933891317E+02 -0.55845137942E+01  0.14170199028E+02  0.51100000000E-03 0. -1.
         12    1    3    3    0    0 -0.13045080788E+02  0.23640030017E+02  0.44210251564E+01  0.27360018557E+02  0.00000000000E+00 0. -1.
</event>
<event>
 7    1  0.6316620E-012  0.5930203E+02  0.7816164E-02  0.1266604E+00
        -11   -1    0    0    0    0  0.00000000000E+00  0.00000000000E+00  0.45593999997E+02  0.45594000000E+02  0.51100000000E-03 0.  1.
         11   -1    0    0    0    0 -0.00000000000E+00 -0.00000000000E+00 -0.45593999997E+02  0.45594000000E+02  0.51100000000E-03 0. -1.
    9900012    2    1    2    0    0 -0.64226050952E+01  0.28593727657E+02 -0.12564399051E+02  0.59302027519E+02  0.50000152268E+02 0.  0.
         12    1    1    2    0    0  0.64226050952E+01 -0.28593727657E+02  0.12564399051E+02  0.31885972481E+02  0.00000000000E+00 0. -1.
         11    1    3    3    0    0  0.12989119753E+01  0.15350442007E+02  0.65557059275E+01  0.16742177953E+02  0.51100000000E-03 0.  1.
        -11    1    3    3    0    0  0.52897054255E+01 -0.21486296545E+01 -0.21518608325E+02  0.22263155602E+02  0.51100000000E-03 0. -1.
         12    1    3    3    0    0 -0.13011222496E+02  0.15391915305E+02  0.23985033464E+01  0.20296693964E+02  0.00000000000E+00 0. -1.
</event>
<event>
 7    1  0.6316620E-012  0.5930196E+02  0.7816164E-02  0.1266605E+00
        -11   -1    0    0    0    0  0.00000000000E+00  0.00000000000E+00  0.45593999997E+02  0.45594000000E+02  0.51100000000E-03 0.  1.
         11   -1    0    0    0    0 -0.00000000000E+00 -0.00000000000E+00 -0.45593999997E+02  0.45594000000E+02  0.51100000000E-03 0. -1.
    9900012    2    1    2    0    0  0.29352396164E+02 -0.92423162903E+01  0.83508182129E+01  0.59301957038E+02  0.50000023727E+02 0.  0.
         12    1    1    2    0    0 -0.29352396164E+02  0.92423162903E+01 -0.83508182129E+01  0.31886042962E+02  0.00000000000E+00 0. -1.
         11    1    3    3    0    0  0.14816492627E+02  0.20665522784E+01  0.11486223537E+02  0.18860870168E+02  0.51100000000E-03 0. -1.
        -11    1    3    3    0    0  0.17071045151E+02 -0.32771068162E+01  0.13357448415E+02  0.21922167778E+02  0.51100000000E-03 0.  1.
         12    1    3    3    0    0 -0.25351416147E+01 -0.80317617525E+01 -0.16492853740E+02  0.18518919092E+02  0.00000000000E+00 0. -1.
</event>
<event>
 7    1  0.6316620E-012  0.5930196E+02  0.7816164E-02  0.1266605E+00
        -11   -1    0    0    0    0  0.00000000000E+00  0.00000000000E+00  0.45593999997E+02  0.45594000000E+02  0.51100000000E-03 0.  1.
         11   -1    0    0    0    0 -0.00000000000E+00 -0.00000000000E+00 -0.45593999997E+02  0.45594000000E+02  0.51100000000E-03 0. -1.
    9900012    2    1    2    0    0 -0.27549790312E+02  0.58141690195E+01  0.14964085557E+02  0.59301962865E+02  0.50000034354E+02 0.  0.
         12    1    1    2    0    0  0.27549790312E+02 -0.58141690195E+01 -0.14964085557E+02  0.31886037135E+02  0.00000000000E+00 0. -1.
         11    1    3    3    0    0 -0.11547930583E+02  0.13487044858E+02  0.15508317484E+02  0.23574626003E+02  0.51100000000E-03 0. -1.
        -11    1    3    3    0    0 -0.10534370999E+02 -0.19235993145E+02  0.37195230778E+01  0.22244802916E+02  0.51100000000E-03 0.  1.
         12    1    3    3    0    0 -0.54674887305E+01  0.11563117306E+02 -0.42637550042E+01  0.13482533946E+02  0.00000000000E+00 0. -1.
</event>
<event>
 7    1  0.6316620E-012  0.5930193E+02  0.7816164E-02  0.1266605E+00
        -11   -1    0    0    0    0  0.00000000000E+00  0.00000000000E+00  0.45593999997E+02  0.45594000000E+02  0.51100000000E-03 0.  1.
         11   -1    0    0    0    0 -0.00000000000E+00 -0.00000000000E+00 -0.45593999997E+02  0.45594000000E+02  0.51100000000E-03 0. -1.
    9900012    2    1    2    0    0 -0.29482654003E+02  0.95451398463E+01  0.75090026695E+01  0.59301926193E+02  0.49999967474E+02 0.  0.
         12    1    1    2    0    0  0.29482654003E+02 -0.95451398463E+01 -0.75090026695E+01  0.31886073807E+02  0.00000000000E+00 0. -1.
         11    1    3    3    0    0 -0.17973502404E+02  0.14086736703E+02  0.52527661920E+01  0.23432338606E+02  0.51100000000E-03 0. -1.
        -11    1    3    3    0    0 -0.18098954501E+02 -0.14638044370E+02 -0.12569736494E+01  0.23311466706E+02  0.51100000000E-03 0.  1.
         12    1    3    3    0    0  0.65898029021E+01  0.10096447513E+02  0.35132101269E+01  0.12558120881E+02  0.00000000000E+00 0. -1.
</event>
<event>
 7    1  0.6316620E-012  0.5930191E+02  0.7816164E-02  0.1266605E+00
        -11   -1    0    0    0    0  0.00000000000E+00  0.00000000000E+00  0.45593999997E+02  0.45594000000E+02  0.51100000000E-03 0. -1.
         11   -1    0    0    0    0 -0.00000000000E+00 -0.00000000000E+00 -0.45593999997E+02  0.45594000000E+02  0.51100000000E-03 0.  1.
    9900012    2    1    2    0    0  0.73452852339E+01 -0.28928901234E+02  0.11219979570E+02  0.59301913954E+02  0.49999945153E+02 0.  0.
         12    1    1    2    0    0 -0.73452852339E+01  0.28928901234E+02 -0.11219979570E+02  0.31886086046E+02  0.00000000000E+00 0. -1.
         11    1    3    3    0    0 -0.91201075583E+01  0.71454041343E+01  0.87461150621E+01  0.14516462760E+02  0.51100000000E-03 0. -1.
        -11    1    3    3    0    0 -0.15577861451E+01 -0.18767503984E+02 -0.33520892085E+01  0.19128052849E+02  0.51100000000E-03 0.  1.
        -12    1    3    3    0    0  0.18023178937E+02 -0.17306801384E+02  0.58259537164E+01  0.25657398345E+02  0.00000000000E+00 0.  1.
</event>
<event>
 7    1  0.6316620E-012  0.5930176E+02  0.7816164E-02  0.1266605E+00
        -11   -1    0    0    0    0  0.00000000000E+00  0.00000000000E+00  0.45593999997E+02  0.45594000000E+02  0.51100000000E-03 0. -1.
         11   -1    0    0    0    0 -0.00000000000E+00 -0.00000000000E+00 -0.45593999997E+02  0.45594000000E+02  0.51100000000E-03 0.  1.
    9900012    2    1    2    0    0  0.15763893610E+02  0.20545483029E+02 -0.18604168871E+02  0.59301759801E+02  0.49999664014E+02 0.  0.
         12    1    1    2    0    0 -0.15763893610E+02 -0.20545483029E+02  0.18604168871E+02  0.31886240199E+02  0.00000000000E+00 0. -1.
         11    1    3    3    0    0  0.32002654351E+01 -0.34960056384E+01 -0.22696211946E+02  0.23185810127E+02  0.51100000000E-03 0. -1.
        -11    1    3    3    0    0 -0.22305157537E+01  0.93509494332E+01 -0.75618424864E+01  0.12230981885E+02  0.51100000000E-03 0.  1.
         12    1    3    3    0    0  0.14794143929E+02  0.14690539234E+02  0.11653885562E+02  0.23884967789E+02  0.00000000000E+00 0. -1.
</event>
<event>
 7    1  0.6316620E-012  0.5930199E+02  0.7816164E-02  0.1266605E+00
        -11   -1    0    0    0    0  0.00000000000E+00  0.00000000000E+00  0.45593999997E+02  0.45594000000E+02  0.51100000000E-03 0.  1.
         11   -1    0    0    0    0 -0.00000000000E+00 -0.00000000000E+00 -0.45593999997E+02  0.45594000000E+02  0.51100000000E-03 0. -1.
    9900012    2    1    2    0    0  0.30476729380E+02  0.81995995575E+01 -0.45445520282E+01  0.59301993355E+02  0.50000089961E+02 0.  0.
         12    1    1    2    0    0 -0.30476729380E+02 -0.81995995575E+01  0.45445520282E+01  0.31886006645E+02  0.00000000000E+00 0. -1.
         11    1    3    3    0    0  0.17041536918E+02 -0.14214812722E+00  0.58820667576E+01  0.18028668731E+02  0.51100000000E-03 0. -1.
        -11    1    3    3    0    0  0.17237011139E+02  0.20578094304E+02 -0.47572503606E+01  0.27261767174E+02  0.51100000000E-03 0.  1.
         12    1    3    3    0    0 -0.38018186769E+01 -0.12236346619E+02 -0.56693684252E+01  0.14011557450E+02  0.00000000000E+00 0. -1.
</event>
<event>
 7    1  0.6316620E-012  0.5930195E+02  0.7816164E-02  0.1266605E+00
        -11   -1    0    0    0    0  0.00000000000E+00  0.00000000000E+00  0.45593999997E+02  0.45594000000E+02  0.51100000000E-03 0. -1.
         11   -1    0    0    0    0 -0.00000000000E+00 -0.00000000000E+00 -0.45593999997E+02  0.45594000000E+02  0.51100000000E-03 0.  1.
    9900012    2    1    2    0    0  0.16844145188E+02  0.26825955264E+02  0.36555492368E+01  0.59301950650E+02  0.50000012077E+02 0.  0.
         12    1    1    2    0    0 -0.16844145188E+02 -0.26825955264E+02 -0.36555492368E+01  0.31886049350E+02  0.00000000000E+00 0. -1.
         11    1    3    3    0    0  0.25720817032E+02  0.55025538183E+01  0.20388213500E+01  0.26381723220E+02  0.51100000000E-03 0. -1.
        -11    1    3    3    0    0 -0.50781427339E+01  0.21164144718E+02 -0.75173715732E+01  0.23026494108E+02  0.51100000000E-03 0.  1.
        -12    1    3    3    0    0 -0.37985291097E+01  0.15925672755E+00  0.91340994600E+01  0.98937333220E+01  0.00000000000E+00 0.  1.
</event>
<event>
 7    1  0.6316620E-012  0.5930194E+02  0.7816164E-02  0.1266605E+00
        -11   -1    0    0    0    0  0.00000000000E+00  0.00000000000E+00  0.45593999997E+02  0.45594000000E+02  0.51100000000E-03 0. -1.
         11   -1    0    0    0    0 -0.00000000000E+00 -0.00000000000E+00 -0.45593999997E+02  0.45594000000E+02  0.51100000000E-03 0.  1.
    9900012    2    1    2    0    0 -0.69266309549E+01  0.23873502026E+02 -0.19969941816E+02  0.59301938915E+02  0.49999990676E+02 0.  0.
         12    1    1    2    0    0  0.69266309549E+01 -0.23873502026E+02  0.19969941816E+02  0.31886061085E+02  0.00000000000E+00 0. -1.
         11    1    3    3    0    0 -0.15007108047E+02 -0.49287837490E+01  0.50374227543E+01  0.16579560593E+02  0.51100000000E-03 0. -1.
        -11    1    3    3    0    0 -0.37828745990E+01  0.67133197610E+01 -0.59655804584E+00  0.77288216572E+01  0.51100000000E-03 0.  1.
        -12    1    3    3    0    0  0.11863351691E+02  0.22088966014E+02 -0.24410806524E+02  0.34993556665E+02  0.00000000000E+00 0.  1.
</event>
<event>
 7    1  0.6316620E-012  0.5930191E+02  0.7816164E-02  0.1266605E+00
        -11   -1    0    0    0    0  0.00000000000E+00  0.00000000000E+00  0.45593999997E+02  0.45594000000E+02  0.51100000000E-03 0. -1.
         11   -1    0    0    0    0 -0.00000000000E+00 -0.00000000000E+00 -0.45593999997E+02  0.45594000000E+02  0.51100000000E-03 0.  1.
    9900012    2    1    2    0    0 -0.28146622399E+02  0.14190705004E+02 -0.48077335850E+01  0.59301909565E+02  0.49999937149E+02 0.  0.
         12    1    1    2    0    0  0.28146622399E+02 -0.14190705004E+02  0.48077335850E+01  0.31886090435E+02  0.00000000000E+00 0. -1.
         11    1    3    3    0    0 -0.84061624224E+01 -0.27718727482E+01  0.48442293240E+01  0.10090262792E+02  0.51100000000E-03 0. -1.
        -11    1    3    3    0    0 -0.18061183121E+02  0.29272455300E+02 -0.16534788417E+01  0.34435693221E+02  0.51100000000E-03 0.  1.
         12    1    3    3    0    0 -0.16792768555E+01 -0.12309877548E+02 -0.79984840673E+01  0.14775953553E+02  0.00000000000E+00 0. -1.
</event>
<event>
 7    1  0.6316620E-012  0.5930195E+02  0.7816164E-02  0.1266605E+00
        -11   -1    0    0    0    0  0.00000000000E+00  0.00000000000E+00  0.45593999997E+02  0.45594000000E+02  0.51100000000E-03 0.  1.
         11   -1    0    0    0    0 -0.00000000000E+00 -0.00000000000E+00 -0.45593999997E+02  0.45594000000E+02  0.51100000000E-03 0. -1.
    9900012    2    1    2    0    0  0.22130161357E+02 -0.22889682886E+02  0.17432069762E+01  0.59301946703E+02  0.50000004880E+02 0.  0.
         12    1    1    2    0    0 -0.22130161357E+02  0.22889682886E+02 -0.17432069762E+01  0.31886053297E+02  0.00000000000E+00 0. -1.
         11    1    3    3    0    0  0.40335543586E+01  0.24624374123E-02 -0.15247054176E+02  0.15771563909E+02  0.51100000000E-03 0. -1.
        -11    1    3    3    0    0 -0.56732599355E+01 -0.71775112881E+00  0.79437836303E+01  0.97879897632E+01  0.51100000000E-03 0.  1.
         12    1    3    3    0    0  0.23769866934E+02 -0.22174394194E+02  0.90464775220E+01  0.33742393031E+02  0.00000000000E+00 0. -1.
</event>
<event>
 7    1  0.6316620E-012  0.5930193E+02  0.7816164E-02  0.1266605E+00
        -11   -1    0    0    0    0  0.00000000000E+00  0.00000000000E+00  0.45593999997E+02  0.45594000000E+02  0.51100000000E-03 0.  1.
         11   -1    0    0    0    0 -0.00000000000E+00 -0.00000000000E+00 -0.45593999997E+02  0.45594000000E+02  0.51100000000E-03 0. -1.
    9900012    2    1    2    0    0 -0.10543002781E+02 -0.53847724378E+01  0.29606937760E+02  0.59301930230E+02  0.49999974837E+02 0.  0.
         12    1    1    2    0    0  0.10543002781E+02  0.53847724378E+01 -0.29606937760E+02  0.31886069770E+02  0.00000000000E+00 0. -1.
         11    1    3    3    0    0  0.20257157219E+01 -0.10037410988E+02  0.29114210298E+02  0.30862442953E+02  0.51100000000E-03 0.  1.
        -11    1    3    3    0    0  0.56060774665E-01 -0.86423349897E+01 -0.40598041821E+01  0.95485657113E+01  0.51100000000E-03 0. -1.
        -12    1    3    3    0    0 -0.12624779277E+02  0.13294973540E+02  0.45525316445E+01  0.18890921566E+02  0.00000000000E+00 0.  1.
</event>
<event>
 7    1  0.6316620E-012  0.5930196E+02  0.7816164E-02  0.1266605E+00
        -11   -1    0    0    0    0  0.00000000000E+00  0.00000000000E+00  0.45593999997E+02  0.45594000000E+02  0.51100000000E-03 0.  1.
         11   -1    0    0    0    0 -0.00000000000E+00 -0.00000000000E+00 -0.45593999997E+02  0.45594000000E+02  0.51100000000E-03 0. -1.
    9900012    2    1    2    0    0 -0.24290625884E+02 -0.94734989207E+01  0.18355862763E+02  0.59301962532E+02  0.50000033747E+02 0.  0.
         12    1    1    2    0    0  0.24290625884E+02  0.94734989207E+01 -0.18355862763E+02  0.31886037468E+02  0.00000000000E+00 0. -1.
         11    1    3    3    0    0  0.16418662366E+01 -0.99599222767E+00 -0.48185165081E+01  0.51870826923E+01  0.51100000000E-03 0. -1.
        -11    1    3    3    0    0 -0.42872129337E+01  0.15790447790E+02  0.70116659586E+01  0.17801176813E+02  0.51100000000E-03 0.  1.
         12    1    3    3    0    0 -0.21645279187E+02 -0.24267954483E+02  0.16162713313E+02  0.36313703027E+02  0.00000000000E+00 0. -1.
</event>
<event>
 7    1  0.6316620E-012  0.5930196E+02  0.7816164E-02  0.1266605E+00
        -11   -1    0    0    0    0  0.00000000000E+00  0.00000000000E+00  0.45593999997E+02  0.45594000000E+02  0.51100000000E-03 0.  1.
         11   -1    0    0    0    0 -0.00000000000E+00 -0.00000000000E+00 -0.45593999997E+02  0.45594000000E+02  0.51100000000E-03 0. -1.
    9900012    2    1    2    0    0 -0.13424354393E+02 -0.12979384452E+02  0.25846510263E+02  0.59301955962E+02  0.50000021766E+02 0.  0.
         12    1    1    2    0    0  0.13424354393E+02  0.12979384452E+02 -0.25846510263E+02  0.31886044038E+02  0.00000000000E+00 0. -1.
         11    1    3    3    0    0 -0.12141534437E+02 -0.12632111839E+02  0.22065475530E+01  0.17659443943E+02  0.51100000000E-03 0. -1.
        -11    1    3    3    0    0  0.57110140291E+01 -0.80891192552E+01 -0.50493061151E+01  0.11115080930E+02  0.51100000000E-03 0.  1.
        -12    1    3    3    0    0 -0.69938339848E+01  0.77418466428E+01  0.28689268825E+02  0.30527431090E+02  0.00000000000E+00 0.  1.
</event>
<event>
 7    1  0.6316620E-012  0.5930196E+02  0.7816164E-02  0.1266605E+00
        -11   -1    0    0    0    0  0.00000000000E+00  0.00000000000E+00  0.45593999997E+02  0.45594000000E+02  0.51100000000E-03 0. -1.
         11   -1    0    0    0    0 -0.00000000000E+00 -0.00000000000E+00 -0.45593999997E+02  0.45594000000E+02  0.51100000000E-03 0.  1.
    9900012    2    1    2    0    0  0.16857707772E+02 -0.14024090292E+02 -0.23148698297E+02  0.59301958341E+02  0.50000026105E+02 0.  0.
         12    1    1    2    0    0 -0.16857707772E+02  0.14024090292E+02  0.23148698297E+02  0.31886041659E+02  0.00000000000E+00 0. -1.
         11    1    3    3    0    0  0.15920203409E+02 -0.27544094198E+01 -0.84947514587E+01  0.18253779073E+02  0.51100000000E-03 0. -1.
        -11    1    3    3    0    0  0.85262561169E+01  0.85173379205E+01  0.41196268963E+01  0.12736303021E+02  0.51100000000E-03 0.  1.
        -12    1    3    3    0    0 -0.75887517544E+01 -0.19787018793E+02 -0.18773573734E+02  0.28311876247E+02  0.00000000000E+00 0.  1.
</event>
<event>
 7    1  0.6316620E-012  0.5930210E+02  0.7816164E-02  0.1266604E+00
        -11   -1    0    0    0    0  0.00000000000E+00  0.00000000000E+00  0.45593999997E+02  0.45594000000E+02  0.51100000000E-03 0. -1.
         11   -1    0    0    0    0 -0.00000000000E+00 -0.00000000000E+00 -0.45593999997E+02  0.45594000000E+02  0.51100000000E-03 0.  1.
    9900012    2    1    2    0    0  0.22558797614E+02  0.22491206134E+02 -0.13989999328E+01  0.59302095529E+02  0.50000276301E+02 0.  0.
         12    1    1    2    0    0 -0.22558797614E+02 -0.22491206134E+02  0.13989999328E+01  0.31885904471E+02  0.00000000000E+00 0. -1.
         11    1    3    3    0    0  0.29525860894E+01  0.26256760587E+02  0.61722305235E+01  0.27133589351E+02  0.51100000000E-03 0. -1.
        -11    1    3    3    0    0  0.49218395081E+01  0.57015165679E+01 -0.11978354373E+02  0.14149656147E+02  0.51100000000E-03 0.  1.
         12    1    3    3    0    0  0.14684372016E+02 -0.94670710209E+01  0.44071239172E+01  0.18018850031E+02  0.00000000000E+00 0. -1.
</event>
<event>
 7    1  0.6316620E-012  0.5930197E+02  0.7816164E-02  0.1266605E+00
        -11   -1    0    0    0    0  0.00000000000E+00  0.00000000000E+00  0.45593999997E+02  0.45594000000E+02  0.51100000000E-03 0.  1.
         11   -1    0    0    0    0 -0.00000000000E+00 -0.00000000000E+00 -0.45593999997E+02  0.45594000000E+02  0.51100000000E-03 0. -1.
    9900012    2    1    2    0    0  0.27811709336E+02 -0.13509387607E+02  0.77925728745E+01  0.59301969803E+02  0.50000047008E+02 0.  0.
         12    1    1    2    0    0 -0.27811709336E+02  0.13509387607E+02 -0.77925728745E+01  0.31886030197E+02  0.00000000000E+00 0. -1.
         11    1    3    3    0    0  0.16643813933E+02 -0.14098484351E+02  0.25295370259E+01  0.21958651167E+02  0.51100000000E-03 0. -1.
        -11    1    3    3    0    0  0.23169924515E+02 -0.31322879226E+00  0.88183672902E+01  0.24793287726E+02  0.51100000000E-03 0.  1.
        -12    1    3    3    0    0 -0.12002029113E+02  0.90232553624E+00 -0.35553314416E+01  0.12550030910E+02  0.00000000000E+00 0.  1.
</event>
<event>
 7    1  0.6316620E-012  0.5930190E+02  0.7816164E-02  0.1266605E+00
        -11   -1    0    0    0    0  0.00000000000E+00  0.00000000000E+00  0.45593999997E+02  0.45594000000E+02  0.51100000000E-03 0. -1.
         11   -1    0    0    0    0 -0.00000000000E+00 -0.00000000000E+00 -0.45593999997E+02  0.45594000000E+02  0.51100000000E-03 0.  1.
    9900012    2    1    2    0    0  0.52111612308E+01 -0.14619826791E+02 -0.27853683778E+02  0.59301902139E+02  0.49999923606E+02 0.  0.
         12    1    1    2    0    0 -0.52111612308E+01  0.14619826791E+02  0.27853683778E+02  0.31886097861E+02  0.00000000000E+00 0. -1.
         11    1    3    3    0    0 -0.10480501252E+02 -0.18273841690E+01  0.41442810780E+01  0.11417324788E+02  0.51100000000E-03 0. -1.
        -11    1    3    3    0    0 -0.56259226009E+01  0.49433245032E+01 -0.40527901046E+01  0.85154312955E+01  0.51100000000E-03 0.  1.
        -12    1    3    3    0    0  0.21317585084E+02 -0.17735767125E+02 -0.27945174751E+02  0.39369146056E+02  0.00000000000E+00 0.  1.
</event>
<event>
 7    1  0.6316620E-012  0.5930198E+02  0.7816164E-02  0.1266605E+00
        -11   -1    0    0    0    0  0.00000000000E+00  0.00000000000E+00  0.45593999997E+02  0.45594000000E+02  0.51100000000E-03 0. -1.
         11   -1    0    0    0    0 -0.00000000000E+00 -0.00000000000E+00 -0.45593999997E+02  0.45594000000E+02  0.51100000000E-03 0.  1.
    9900012    2    1    2    0    0  0.21531881253E+02 -0.23317528416E+02 -0.30641619002E+01  0.59301982220E+02  0.50000069653E+02 0.  0.
         12    1    1    2    0    0 -0.21531881253E+02  0.23317528416E+02  0.30641619002E+01  0.31886017780E+02  0.00000000000E+00 0. -1.
         11    1    3    3    0    0  0.46537020365E+01  0.16836481211E+01  0.40832254765E+01  0.64159445285E+01  0.51100000000E-03 0. -1.
        -11    1    3    3    0    0 -0.60580367294E+01 -0.41498947773E+01  0.13690504154E+02  0.15535486472E+02  0.51100000000E-03 0.  1.
        -12    1    3    3    0    0  0.22936215946E+02 -0.20851281760E+02 -0.20837891530E+02  0.37350551219E+02  0.00000000000E+00 0.  1.
</event>
<event>
 7    1  0.6316620E-012  0.5930195E+02  0.7816164E-02  0.1266605E+00
        -11   -1    0    0    0    0  0.00000000000E+00  0.00000000000E+00  0.45593999997E+02  0.45594000000E+02  0.51100000000E-03 0. -1.
         11   -1    0    0    0    0 -0.00000000000E+00 -0.00000000000E+00 -0.45593999997E+02  0.45594000000E+02  0.51100000000E-03 0.  1.
    9900012    2    1    2    0    0  0.92871807655E+01  0.26839551669E+02 -0.14495076119E+02  0.59301945178E+02  0.50000002098E+02 0.  0.
         12    1    1    2    0    0 -0.92871807655E+01 -0.26839551669E+02  0.14495076119E+02  0.31886054822E+02  0.00000000000E+00 0. -1.
         11    1    3    3    0    0  0.16275590399E+02  0.16177095527E+02 -0.16335143812E+02  0.28167892823E+02  0.51100000000E-03 0. -1.
        -11    1    3    3    0    0 -0.39214659791E+01 -0.23998051805E+00 -0.12360694264E+02  0.12970052006E+02  0.51100000000E-03 0.  1.
         12    1    3    3    0    0 -0.30669436544E+01  0.10902436661E+02  0.14200761957E+02  0.18164000349E+02  0.00000000000E+00 0. -1.
</event>
<event>
 7    1  0.6316620E-012  0.5930194E+02  0.7816164E-02  0.1266605E+00
        -11   -1    0    0    0    0  0.00000000000E+00  0.00000000000E+00  0.45593999997E+02  0.45594000000E+02  0.51100000000E-03 0.  1.
         11   -1    0    0    0    0 -0.00000000000E+00 -0.00000000000E+00 -0.45593999997E+02  0.45594000000E+02  0.51100000000E-03 0. -1.
    9900012    2    1    2    0    0 -0.14412329269E+02  0.17785696656E+02  0.22196269981E+02  0.59301942835E+02  0.49999997824E+02 0.  0.
         12    1    1    2    0    0  0.14412329269E+02 -0.17785696656E+02 -0.22196269981E+02  0.31886057165E+02  0.00000000000E+00 0. -1.
         11    1    3    3    0    0  0.76304489370E+01 -0.28281135213E+01 -0.35991168549E+01  0.88980682997E+01  0.51100000000E-03 0. -1.
        -11    1    3    3    0    0  0.31628599392E+01 -0.34438234484E+01  0.12087871013E+02  0.12960718685E+02  0.51100000000E-03 0.  1.
         12    1    3    3    0    0 -0.25205638145E+02  0.24057633626E+02  0.13707515822E+02  0.37443155850E+02  0.00000000000E+00 0. -1.
</event>
<event>
 7    1  0.6316620E-012  0.5930201E+02  0.7816164E-02  0.1266605E+00
        -11   -1    0    0    0    0  0.00000000000E+00  0.00000000000E+00  0.45593999997E+02  0.45594000000E+02  0.51100000000E-03 0.  1.
         11   -1    0    0    0    0 -0.00000000000E+00 -0.00000000000E+00 -0.45593999997E+02  0.45594000000E+02  0.51100000000E-03 0. -1.
    9900012    2    1    2    0    0  0.11883819436E+02  0.20846835424E+02  0.20997626824E+02  0.59302014931E+02  0.50000129311E+02 0.  0.
         12    1    1    2    0    0 -0.11883819436E+02 -0.20846835424E+02 -0.20997626824E+02  0.31885985069E+02  0.00000000000E+00 0. -1.
         11    1    3    3    0    0 -0.15097696307E+02 -0.16328660869E+01  0.11414289284E+02  0.18997175726E+02  0.51100000000E-03 0. -1.
        -11    1    3    3    0    0  0.18742507418E+01  0.43754862050E+01 -0.42679949454E+01  0.63932367771E+01  0.51100000000E-03 0.  1.
        -12    1    3    3    0    0  0.25107265001E+02  0.18104215306E+02  0.13851332485E+02  0.33911602428E+02  0.00000000000E+00 0.  1.
</event>
<event>
 7    1  0.6316620E-012  0.5930194E+02  0.7816164E-02  0.1266605E+00
        -11   -1    0    0    0    0  0.00000000000E+00  0.00000000000E+00  0.45593999997E+02  0.45594000000E+02  0.51100000000E-03 0.  1.
         11   -1    0    0    0    0 -0.00000000000E+00 -0.00000000000E+00 -0.45593999997E+02  0.45594000000E+02  0.51100000000E-03 0. -1.
    9900012    2    1    2    0    0  0.30279200972E+02  0.73892029419E+01 -0.67298306520E+01  0.59301937963E+02  0.49999988939E+02 0.  0.
         12    1    1    2    0    0 -0.30279200972E+02 -0.73892029419E+01  0.67298306520E+01  0.31886062037E+02  0.00000000000E+00 0. -1.
         11    1    3    3    0    0 -0.37796268013E+01  0.11256043044E+02 -0.12435794027E+02  0.17193983166E+02  0.51100000000E-03 0. -1.
        -11    1    3    3    0    0  0.75724151531E+01  0.77607305423E+01  0.74074400435E+01  0.13131663187E+02  0.51100000000E-03 0.  1.
        -12    1    3    3    0    0  0.26486412621E+02 -0.11627570644E+02 -0.17014766686E+01  0.28976291610E+02  0.00000000000E+00 0.  1.
</event>
<event>
 7    1  0.6316620E-012  0.5930197E+02  0.7816164E-02  0.1266605E+00
        -11   -1    0    0    0    0  0.00000000000E+00  0.00000000000E+00  0.45593999997E+02  0.45594000000E+02  0.51100000000E-03 0. -1.
         11   -1    0    0    0    0 -0.00000000000E+00 -0.00000000000E+00 -0.45593999997E+02  0.45594000000E+02  0.51100000000E-03 0.  1.
    9900012    2    1    2    0    0 -0.25984200052E+02 -0.18342773178E+02 -0.22545528274E+01  0.59301968753E+02  0.50000045094E+02 0.  0.
         12    1    1    2    0    0  0.25984200052E+02  0.18342773178E+02  0.22545528274E+01  0.31886031247E+02  0.00000000000E+00 0. -1.
         11    1    3    3    0    0 -0.15064270217E+02 -0.15669973150E+02  0.60715815571E+01  0.22568659654E+02  0.51100000000E-03 0. -1.
        -11    1    3    3    0    0 -0.15560743284E+02  0.12630203833E+01 -0.18911855519E+02  0.24523258989E+02  0.51100000000E-03 0.  1.
         12    1    3    3    0    0  0.46408134484E+01 -0.39358204105E+01  0.10585721134E+02  0.12210050110E+02  0.00000000000E+00 0. -1.
</event>
<event>
 7    1  0.6316620E-012  0.5930193E+02  0.7816164E-02  0.1266605E+00
        -11   -1    0    0    0    0  0.00000000000E+00  0.00000000000E+00  0.45593999997E+02  0.45594000000E+02  0.51100000000E-03 0.  1.
         11   -1    0    0    0    0 -0.00000000000E+00 -0.00000000000E+00 -0.45593999997E+02  0.45594000000E+02  0.51100000000E-03 0. -1.
    9900012    2    1    2    0    0 -0.25359625215E+02 -0.14837679199E+02  0.12387651042E+02  0.59301933868E+02  0.49999981471E+02 0.  0.
         12    1    1    2    0    0  0.25359625215E+02  0.14837679199E+02 -0.12387651042E+02  0.31886066132E+02  0.00000000000E+00 0. -1.
         11    1    3    3    0    0 -0.84465680864E+01  0.83754371046E+01  0.37980707664E+01  0.12486704967E+02  0.51100000000E-03 0. -1.
        -11    1    3    3    0    0  0.10287085483E+02 -0.52272816714E+01  0.82844214048E+01  0.14204937159E+02  0.51100000000E-03 0.  1.
        -12    1    3    3    0    0 -0.27200142612E+02 -0.17985834632E+02  0.30515887063E+00  0.32610291742E+02  0.00000000000E+00 0.  1.
</event>
<event>
 7    1  0.6316620E-012  0.5930200E+02  0.7816164E-02  0.1266605E+00
        -11   -1    0    0    0    0  0.00000000000E+00  0.00000000000E+00  0.45593999997E+02  0.45594000000E+02  0.51100000000E-03 0. -1.
         11   -1    0    0    0    0 -0.00000000000E+00 -0.00000000000E+00 -0.45593999997E+02  0.45594000000E+02  0.51100000000E-03 0.  1.
    9900012    2    1    2    0    0 -0.20194607732E+02 -0.81121321682E+01 -0.23304251648E+02  0.59301999708E+02  0.50000101547E+02 0.  0.
         12    1    1    2    0    0  0.20194607732E+02  0.81121321682E+01  0.23304251648E+02  0.31886000292E+02  0.00000000000E+00 0. -1.
         11    1    3    3    0    0  0.82480198987E+01 -0.10350113533E+02  0.12865261460E+01  0.13296985831E+02  0.51100000000E-03 0. -1.
        -11    1    3    3    0    0 -0.44157369825E+01  0.11957735974E+02 -0.58759880808E+01  0.14036146868E+02  0.51100000000E-03 0.  1.
         12    1    3    3    0    0 -0.24026890648E+02 -0.97197546089E+01 -0.18714789713E+02  0.31968867009E+02  0.00000000000E+00 0. -1.
</event>
<event>
 7    1  0.6316620E-012  0.5930191E+02  0.7816164E-02  0.1266605E+00
        -11   -1    0    0    0    0  0.00000000000E+00  0.00000000000E+00  0.45593999997E+02  0.45594000000E+02  0.51100000000E-03 0.  1.
         11   -1    0    0    0    0 -0.00000000000E+00 -0.00000000000E+00 -0.45593999997E+02  0.45594000000E+02  0.51100000000E-03 0. -1.
    9900012    2    1    2    0    0 -0.13050219007E+02 -0.13806441106E+02 -0.25608524442E+02  0.59301912811E+02  0.49999943067E+02 0.  0.
         12    1    1    2    0    0  0.13050219007E+02  0.13806441106E+02  0.25608524442E+02  0.31886087189E+02  0.00000000000E+00 0. -1.
         11    1    3    3    0    0 -0.75933301131E+01 -0.54783280245E+01 -0.56903590273E+01  0.10956775359E+02  0.51100000000E-03 0. -1.
        -11    1    3    3    0    0  0.17957550101E+01 -0.23044852529E+02 -0.76748834501E+00  0.23127451281E+02  0.51100000000E-03 0.  1.
         12    1    3    3    0    0 -0.72526439041E+01  0.14716739447E+02 -0.19150677070E+02  0.25217686170E+02  0.00000000000E+00 0. -1.
</event>
<event>
 7    1  0.6316620E-012  0.5930200E+02  0.7816164E-02  0.1266605E+00
        -11   -1    0    0    0    0  0.00000000000E+00  0.00000000000E+00  0.45593999997E+02  0.45594000000E+02  0.51100000000E-03 0.  1.
         11   -1    0    0    0    0 -0.00000000000E+00 -0.00000000000E+00 -0.45593999997E+02  0.45594000000E+02  0.51100000000E-03 0. -1.
    9900012    2    1    2    0    0 -0.23328139395E+02  0.99113380408E+01  0.19346322783E+02  0.59302001276E+02  0.50000104407E+02 0.  0.
         12    1    1    2    0    0  0.23328139395E+02 -0.99113380408E+01 -0.19346322783E+02  0.31885998724E+02  0.00000000000E+00 0. -1.
         11    1    3    3    0    0 -0.40795979042E+01  0.16578168586E+02  0.70470584135E+01  0.18469970906E+02  0.51100000000E-03 0. -1.
        -11    1    3    3    0    0  0.12417627153E+01  0.71838062666E+01  0.14266699378E+02  0.16021478038E+02  0.51100000000E-03 0.  1.
        -12    1    3    3    0    0 -0.20490304206E+02 -0.13850636812E+02 -0.19674350076E+01  0.24810552333E+02  0.00000000000E+00 0.  1.
</event>
<event>
 7    1  0.6316620E-012  0.5930222E+02  0.7816164E-02  0.1266604E+00
        -11   -1    0    0    0    0  0.00000000000E+00  0.00000000000E+00  0.45593999997E+02  0.45594000000E+02  0.51100000000E-03 0.  1.
         11   -1    0    0    0    0 -0.00000000000E+00 -0.00000000000E+00 -0.45593999997E+02  0.45594000000E+02  0.51100000000E-03 0. -1.
    9900012    2    1    2    0    0  0.42225215766E+01 -0.21612080886E+02  0.23060603819E+02  0.59302216692E+02  0.50000497271E+02 0.  0.
         12    1    1    2    0    0 -0.42225215766E+01  0.21612080886E+02 -0.23060603819E+02  0.31885783308E+02  0.00000000000E+00 0. -1.
         11    1    3    3    0    0  0.26790519331E+02 -0.82415282969E+01  0.13352030976E+02  0.31047245387E+02  0.51100000000E-03 0.  1.
        -11    1    3    3    0    0 -0.10280032785E+02 -0.62888426951E+01  0.23537315624E+01  0.12278789396E+02  0.51100000000E-03 0. -1.
        -12    1    3    3    0    0 -0.12287964969E+02 -0.70817098940E+01  0.73548412807E+01  0.15976181909E+02  0.00000000000E+00 0.  1.
</event>
<event>
 7    1  0.6316620E-012  0.5930228E+02  0.7816164E-02  0.1266604E+00
        -11   -1    0    0    0    0  0.00000000000E+00  0.00000000000E+00  0.45593999997E+02  0.45594000000E+02  0.51100000000E-03 0. -1.
         11   -1    0    0    0    0 -0.00000000000E+00 -0.00000000000E+00 -0.45593999997E+02  0.45594000000E+02  0.51100000000E-03 0.  1.
    9900012    2    1    2    0    0  0.27399583599E+02 -0.15029503054E+01 -0.16238929739E+02  0.59302284074E+02  0.50000620159E+02 0.  0.
         12    1    1    2    0    0 -0.27399583599E+02  0.15029503054E+01  0.16238929739E+02  0.31885715926E+02  0.00000000000E+00 0. -1.
         11    1    3    3    0    0 -0.47258266743E+01 -0.79140411338E+01  0.37314099067E+01  0.99442900689E+01  0.51100000000E-03 0. -1.
        -11    1    3    3    0    0  0.55719587779E+01 -0.96549304809E+01  0.20101102063E+01  0.11327177518E+02  0.51100000000E-03 0.  1.
         12    1    3    3    0    0  0.26553451496E+02  0.16066021309E+02 -0.21980449852E+02  0.38030816488E+02  0.00000000000E+00 0. -1.
</event>
<event>
 7    1  0.6316620E-012  0.5930195E+02  0.7816164E-02  0.1266605E+00
        -11   -1    0    0    0    0  0.00000000000E+00  0.00000000000E+00  0.45593999997E+02  0.45594000000E+02  0.51100000000E-03 0.  1.
         11   -1    0    0    0    0 -0.00000000000E+00 -0.00000000000E+00 -0.45593999997E+02  0.45594000000E+02  0.51100000000E-03 0. -1.
    9900012    2    1    2    0    0  0.28076717244E+02  0.10667751267E+02  0.10705940307E+02  0.59301950917E+02  0.50000012564E+02 0.  0.
         12    1    1    2    0    0 -0.28076717244E+02 -0.10667751267E+02 -0.10705940307E+02  0.31886049083E+02  0.00000000000E+00 0. -1.
         11    1    3    3    0    0 -0.82105561629E+01 -0.21889833980E+01 -0.26911643978E+01  0.89133185121E+01  0.51100000000E-03 0. -1.
        -11    1    3    3    0    0  0.12528589292E+02  0.65410357076E+01 -0.93087348002E+01  0.16923452414E+02  0.51100000000E-03 0.  1.
        -12    1    3    3    0    0  0.23758684115E+02  0.63156989573E+01  0.22705839505E+02  0.33465179990E+02  0.00000000000E+00 0.  1.
</event>
<event>
 7    1  0.6316620E-012  0.5930194E+02  0.7816164E-02  0.1266605E+00
        -11   -1    0    0    0    0  0.00000000000E+00  0.00000000000E+00  0.45593999997E+02  0.45594000000E+02  0.51100000000E-03 0.  1.
         11   -1    0    0    0    0 -0.00000000000E+00 -0.00000000000E+00 -0.45593999997E+02  0.45594000000E+02  0.51100000000E-03 0. -1.
    9900012    2    1    2    0    0  0.11796724188E+02  0.77354119197E+01  0.28595826437E+02  0.59301943663E+02  0.49999999335E+02 0.  0.
         12    1    1    2    0    0 -0.11796724188E+02 -0.77354119197E+01 -0.28595826437E+02  0.31886056337E+02  0.00000000000E+00 0. -1.
         11    1    3    3    0    0 -0.13114263683E+02 -0.16663712875E+01  0.23896761858E+02  0.27309630769E+02  0.51100000000E-03 0.  1.
        -11    1    3    3    0    0 -0.14399704465E+01 -0.22937540560E+01 -0.32597858618E+00  0.27278351959E+01  0.51100000000E-03 0. -1.
         12    1    3    3    0    0  0.26350958317E+02  0.11695537263E+02  0.50250431651E+01  0.29264477698E+02  0.00000000000E+00 0. -1.
</event>
<event>
 7    1  0.6316620E-012  0.5930194E+02  0.7816164E-02  0.1266605E+00
        -11   -1    0    0    0    0  0.00000000000E+00  0.00000000000E+00  0.45593999997E+02  0.45594000000E+02  0.51100000000E-03 0. -1.
         11   -1    0    0    0    0 -0.00000000000E+00 -0.00000000000E+00 -0.45593999997E+02  0.45594000000E+02  0.51100000000E-03 0.  1.
    9900012    2    1    2    0    0  0.54208485878E+01  0.29687759820E+02 -0.10294288172E+02  0.59301936406E+02  0.49999986101E+02 0.  0.
         12    1    1    2    0    0 -0.54208485878E+01 -0.29687759820E+02  0.10294288172E+02  0.31886063594E+02  0.00000000000E+00 0. -1.
         11    1    3    3    0    0  0.15343947154E+02 -0.69750580215E+01 -0.28686409328E+01  0.17097287789E+02  0.51100000000E-03 0. -1.
        -11    1    3    3    0    0 -0.97399955588E+01  0.11814549184E+02  0.23709815490E+01  0.15494277643E+02  0.51100000000E-03 0.  1.
        -12    1    3    3    0    0 -0.18310300791E+00  0.24848268657E+02 -0.97966287885E+01  0.26710370975E+02  0.00000000000E+00 0.  1.
</event>
<event>
 7    1  0.6316620E-012  0.5930194E+02  0.7816164E-02  0.1266605E+00
        -11   -1    0    0    0    0  0.00000000000E+00  0.00000000000E+00  0.45593999997E+02  0.45594000000E+02  0.51100000000E-03 0.  1.
         11   -1    0    0    0    0 -0.00000000000E+00 -0.00000000000E+00 -0.45593999997E+02  0.45594000000E+02  0.51100000000E-03 0. -1.
    9900012    2    1    2    0    0 -0.19720091765E+00 -0.30913787918E+02  0.78115238386E+01  0.59301936017E+02  0.49999985391E+02 0.  0.
         12    1    1    2    0    0  0.19720091765E+00  0.30913787918E+02 -0.78115238386E+01  0.31886063983E+02  0.00000000000E+00 0. -1.
         11    1    3    3    0    0  0.65291184078E+01 -0.27350874835E+02  0.20077266911E+02  0.34551358704E+02  0.51100000000E-03 0.  1.
        -11    1    3    3    0    0 -0.90410556762E+00  0.61503070161E+01  0.20056766191E+01  0.65319539367E+01  0.51100000000E-03 0. -1.
        -12    1    3    3    0    0 -0.58222137578E+01 -0.97132200989E+01 -0.14271419692E+02  0.18218623377E+02  0.00000000000E+00 0.  1.
</event>
<event>
 7    1  0.6316620E-012  0.5930195E+02  0.7816164E-02  0.1266605E+00
        -11   -1    0    0    0    0  0.00000000000E+00  0.00000000000E+00  0.45593999997E+02  0.45594000000E+02  0.51100000000E-03 0.  1.
         11   -1    0    0    0    0 -0.00000000000E+00 -0.00000000000E+00 -0.45593999997E+02  0.45594000000E+02  0.51100000000E-03 0. -1.
    9900012    2    1    2    0    0  0.18969175056E+01 -0.17874673318E+02  0.26336621986E+02  0.59301954465E+02  0.50000019034E+02 0.  0.
         12    1    1    2    0    0 -0.18969175056E+01  0.17874673318E+02 -0.26336621986E+02  0.31886045535E+02  0.00000000000E+00 0. -1.
         11    1    3    3    0    0  0.42883459790E+00 -0.27439720672E+01  0.14392742305E+02  0.14658250685E+02  0.51100000000E-03 0.  1.
        -11    1    3    3    0    0  0.58110083739E+01 -0.98612181685E+00  0.24523992216E+02  0.25222340276E+02  0.51100000000E-03 0. -1.
         12    1    3    3    0    0 -0.43429254662E+01 -0.14144579434E+02 -0.12580112534E+02  0.19421363504E+02  0.00000000000E+00 0. -1.
</event>
<event>
 7    1  0.6316620E-012  0.5930192E+02  0.7816164E-02  0.1266605E+00
        -11   -1    0    0    0    0  0.00000000000E+00  0.00000000000E+00  0.45593999997E+02  0.45594000000E+02  0.51100000000E-03 0. -1.
         11   -1    0    0    0    0 -0.00000000000E+00 -0.00000000000E+00 -0.45593999997E+02  0.45594000000E+02  0.51100000000E-03 0.  1.
    9900012    2    1    2    0    0 -0.26417507339E+02  0.15001892182E+02 -0.96840526815E+01  0.59301916212E+02  0.49999949270E+02 0.  0.
         12    1    1    2    0    0  0.26417507339E+02 -0.15001892182E+02  0.96840526815E+01  0.31886083788E+02  0.00000000000E+00 0. -1.
         11    1    3    3    0    0 -0.40076766072E+02  0.11365070823E+02 -0.25136740598E+01  0.41732847628E+02  0.51100000000E-03 0.  1.
        -11    1    3    3    0    0  0.68572432802E+01  0.54414613475E+01 -0.24330263651E+01  0.90857528337E+01  0.51100000000E-03 0. -1.
        -12    1    3    3    0    0  0.68020154529E+01 -0.18046399892E+01 -0.47373522566E+01  0.84833157501E+01  0.00000000000E+00 0.  1.
</event>
<event>
 7    1  0.6316620E-012  0.5930194E+02  0.7816164E-02  0.1266605E+00
        -11   -1    0    0    0    0  0.00000000000E+00  0.00000000000E+00  0.45593999997E+02  0.45594000000E+02  0.51100000000E-03 0. -1.
         11   -1    0    0    0    0 -0.00000000000E+00 -0.00000000000E+00 -0.45593999997E+02  0.45594000000E+02  0.51100000000E-03 0.  1.
    9900012    2    1    2    0    0 -0.54983312097E+01  0.11796805768E+02 -0.29108840751E+02  0.59301939059E+02  0.49999990939E+02 0.  0.
         12    1    1    2    0    0  0.54983312097E+01 -0.11796805768E+02  0.29108840751E+02  0.31886060941E+02  0.00000000000E+00 0. -1.
         11    1    3    3    0    0 -0.10395088843E+01 -0.55181046482E+01 -0.63201266233E+01  0.84542331660E+01  0.51100000000E-03 0. -1.
        -11    1    3    3    0    0 -0.13433662381E+00 -0.72647009820E+00 -0.30678443943E+02  0.30687338238E+02  0.51100000000E-03 0.  1.
         12    1    3    3    0    0 -0.43244857016E+01  0.18041380515E+02  0.78897298146E+01  0.20160367655E+02  0.00000000000E+00 0. -1.
</event>
<event>
 7    1  0.6316620E-012  0.5930196E+02  0.7816164E-02  0.1266605E+00
        -11   -1    0    0    0    0  0.00000000000E+00  0.00000000000E+00  0.45593999997E+02  0.45594000000E+02  0.51100000000E-03 0.  1.
         11   -1    0    0    0    0 -0.00000000000E+00 -0.00000000000E+00 -0.45593999997E+02  0.45594000000E+02  0.51100000000E-03 0. -1.
    9900012    2    1    2    0    0 -0.24445943218E+02 -0.20031466292E+02  0.42256114226E+01  0.59301959582E+02  0.50000028367E+02 0.  0.
         12    1    1    2    0    0  0.24445943218E+02  0.20031466292E+02 -0.42256114226E+01  0.31886040418E+02  0.00000000000E+00 0. -1.
         11    1    3    3    0    0  0.11414161477E+01 -0.95283376234E+01  0.14148235661E+02  0.17095748631E+02  0.51100000000E-03 0. -1.
        -11    1    3    3    0    0 -0.79336873949E+01 -0.13025814898E+02  0.77429593497E+01  0.17104638821E+02  0.51100000000E-03 0.  1.
         12    1    3    3    0    0 -0.17653671971E+02  0.25226862297E+01 -0.17665583588E+02  0.25101572130E+02  0.00000000000E+00 0. -1.
</event>
<event>
 7    1  0.6316620E-012  0.5930192E+02  0.7816164E-02  0.1266605E+00
        -11   -1    0    0    0    0  0.00000000000E+00  0.00000000000E+00  0.45593999997E+02  0.45594000000E+02  0.51100000000E-03 0.  1.
         11   -1    0    0    0    0 -0.00000000000E+00 -0.00000000000E+00 -0.45593999997E+02  0.45594000000E+02  0.51100000000E-03 0. -1.
    9900012    2    1    2    0    0  0.13595175045E+02 -0.42304897865E+01  0.28530620999E+02  0.59301918978E+02  0.49999954315E+02 0.  0.
         12    1    1    2    0    0 -0.13595175045E+02  0.42304897865E+01 -0.28530620999E+02  0.31886081022E+02  0.00000000000E+00 0. -1.
         11    1    3    3    0    0  0.12331311748E+02 -0.11318449988E+02  0.14597589521E+02  0.22209416464E+02  0.51100000000E-03 0. -1.
        -11    1    3    3    0    0  0.14021644558E+02 -0.48903158476E+01  0.20618337205E+00  0.14851404548E+02  0.51100000000E-03 0.  1.
         12    1    3    3    0    0 -0.12757781262E+02  0.11978276049E+02  0.13726848106E+02  0.22241097966E+02  0.00000000000E+00 0. -1.
</event>
<event>
 7    1  0.6316620E-012  0.5930194E+02  0.7816164E-02  0.1266605E+00
        -11   -1    0    0    0    0  0.00000000000E+00  0.00000000000E+00  0.45593999997E+02  0.45594000000E+02  0.51100000000E-03 0.  1.
         11   -1    0    0    0    0 -0.00000000000E+00 -0.00000000000E+00 -0.45593999997E+02  0.45594000000E+02  0.51100000000E-03 0. -1.
    9900012    2    1    2    0    0 -0.25569825651E+02  0.40017247146E+01  0.18625009799E+02  0.59301940749E+02  0.49999994021E+02 0.  0.
         12    1    1    2    0    0  0.25569825651E+02 -0.40017247146E+01 -0.18625009799E+02  0.31886059251E+02  0.00000000000E+00 0. -1.
         11    1    3    3    0    0  0.29385377464E+01 -0.39374632979E+01  0.76259121267E+01  0.90715576024E+01  0.51100000000E-03 0. -1.
        -11    1    3    3    0    0 -0.29563457757E+02  0.93138533124E+01  0.22689014781E+02  0.38412723023E+02  0.51100000000E-03 0.  1.
         12    1    3    3    0    0  0.10550943594E+01 -0.13746653000E+01 -0.11689917109E+02  0.11817660124E+02  0.00000000000E+00 0. -1.
</event>
<event>
 7    1  0.6316620E-012  0.5930193E+02  0.7816164E-02  0.1266605E+00
        -11   -1    0    0    0    0  0.00000000000E+00  0.00000000000E+00  0.45593999997E+02  0.45594000000E+02  0.51100000000E-03 0. -1.
         11   -1    0    0    0    0 -0.00000000000E+00 -0.00000000000E+00 -0.45593999997E+02  0.45594000000E+02  0.51100000000E-03 0.  1.
    9900012    2    1    2    0    0 -0.90274645749E+01 -0.28631287542E+02 -0.10745974176E+02  0.59301926175E+02  0.49999967441E+02 0.  0.
         12    1    1    2    0    0  0.90274645749E+01  0.28631287542E+02  0.10745974176E+02  0.31886073825E+02  0.00000000000E+00 0. -1.
         11    1    3    3    0    0  0.11139564113E+02 -0.60949601518E+00  0.40418459507E+01  0.11865828794E+02  0.51100000000E-03 0. -1.
        -11    1    3    3    0    0  0.74349136009E+01 -0.76721661925E+01 -0.48477784628E+01  0.11732051424E+02  0.51100000000E-03 0.  1.
        -12    1    3    3    0    0 -0.27601942289E+02 -0.20349625335E+02 -0.99400416640E+01  0.35704045956E+02  0.00000000000E+00 0.  1.
</event>
<event>
 7    1  0.6316620E-012  0.5930192E+02  0.7816164E-02  0.1266605E+00
        -11   -1    0    0    0    0  0.00000000000E+00  0.00000000000E+00  0.45593999997E+02  0.45594000000E+02  0.51100000000E-03 0.  1.
         11   -1    0    0    0    0 -0.00000000000E+00 -0.00000000000E+00 -0.45593999997E+02  0.45594000000E+02  0.51100000000E-03 0. -1.
    9900012    2    1    2    0    0  0.10598507769E+02  0.24206999215E+02  0.17844185228E+02  0.59301919583E+02  0.49999955419E+02 0.  0.
         12    1    1    2    0    0 -0.10598507769E+02 -0.24206999215E+02 -0.17844185228E+02  0.31886080417E+02  0.00000000000E+00 0. -1.
         11    1    3    3    0    0 -0.11137052927E+02  0.51442316170E+01 -0.70299996783E+01  0.14139234865E+02  0.51100000000E-03 0. -1.
        -11    1    3    3    0    0 -0.53346855365E+01  0.21560959173E+01  0.44081656572E+01  0.72484166617E+01  0.51100000000E-03 0.  1.
        -12    1    3    3    0    0  0.27070246232E+02  0.16906671680E+02  0.20466019250E+02  0.37914268057E+02  0.00000000000E+00 0.  1.
</event>
<event>
 7    1  0.6316620E-012  0.5930195E+02  0.7816164E-02  0.1266605E+00
        -11   -1    0    0    0    0  0.00000000000E+00  0.00000000000E+00  0.45593999997E+02  0.45594000000E+02  0.51100000000E-03 0.  1.
         11   -1    0    0    0    0 -0.00000000000E+00 -0.00000000000E+00 -0.45593999997E+02  0.45594000000E+02  0.51100000000E-03 0. -1.
    9900012    2    1    2    0    0 -0.15330875467E+02  0.57686511786E+01  0.27357033512E+02  0.59301947225E+02  0.50000005831E+02 0.  0.
         12    1    1    2    0    0  0.15330875467E+02 -0.57686511786E+01 -0.27357033512E+02  0.31886052775E+02  0.00000000000E+00 0. -1.
         11    1    3    3    0    0 -0.12993151772E+02 -0.97386589846E+01  0.14742791354E+02  0.21932016983E+02  0.51100000000E-03 0. -1.
        -11    1    3    3    0    0  0.10735019392E+02 -0.36123658636E+01  0.76909138350E+01  0.13690872301E+02  0.51100000000E-03 0.  1.
         12    1    3    3    0    0 -0.13072743087E+02  0.19119676027E+02  0.49233283225E+01  0.23679057941E+02  0.00000000000E+00 0. -1.
</event>
<event>
 7    1  0.6316620E-012  0.5930192E+02  0.7816164E-02  0.1266605E+00
        -11   -1    0    0    0    0  0.00000000000E+00  0.00000000000E+00  0.45593999997E+02  0.45594000000E+02  0.51100000000E-03 0.  1.
         11   -1    0    0    0    0 -0.00000000000E+00 -0.00000000000E+00 -0.45593999997E+02  0.45594000000E+02  0.51100000000E-03 0. -1.
    9900012    2    1    2    0    0  0.25654866370E+02  0.29120738399E+01  0.18710155670E+02  0.59301917335E+02  0.49999951320E+02 0.  0.
         12    1    1    2    0    0 -0.25654866370E+02 -0.29120738399E+01 -0.18710155670E+02  0.31886082665E+02  0.00000000000E+00 0. -1.
         11    1    3    3    0    0 -0.60486794376E+01 -0.14753271176E+01  0.83200243581E+01  0.10391627333E+02  0.51100000000E-03 0. -1.
        -11    1    3    3    0    0  0.73487910879E+01  0.88570630481E+01  0.19403048966E+02  0.22559490370E+02  0.51100000000E-03 0.  1.
        -12    1    3    3    0    0  0.24354754719E+02 -0.44696620906E+01 -0.90129176544E+01  0.26350799633E+02  0.00000000000E+00 0.  1.
</event>
<event>
 7    1  0.6316620E-012  0.5930198E+02  0.7816164E-02  0.1266605E+00
        -11   -1    0    0    0    0  0.00000000000E+00  0.00000000000E+00  0.45593999997E+02  0.45594000000E+02  0.51100000000E-03 0.  1.
         11   -1    0    0    0    0 -0.00000000000E+00 -0.00000000000E+00 -0.45593999997E+02  0.45594000000E+02  0.51100000000E-03 0. -1.
    9900012    2    1    2    0    0  0.32684822028E+01  0.26169903374E+02  0.17921260696E+02  0.59301977930E+02  0.50000061829E+02 0.  0.
         12    1    1    2    0    0 -0.32684822028E+01 -0.26169903374E+02 -0.17921260696E+02  0.31886022070E+02  0.00000000000E+00 0. -1.
         11    1    3    3    0    0  0.57943663833E+01  0.13249889346E+02  0.32537333623E+01  0.14822989932E+02  0.51100000000E-03 0.  1.
        -11    1    3    3    0    0  0.14819342078E+02  0.64216121104E+01 -0.55326230626E+01  0.17072197279E+02  0.51100000000E-03 0. -1.
         12    1    3    3    0    0 -0.17345226259E+02  0.64984019174E+01  0.20200150397E+02  0.27406790719E+02  0.00000000000E+00 0. -1.
</event>
<event>
 7    1  0.6316620E-012  0.5930194E+02  0.7816164E-02  0.1266605E+00
        -11   -1    0    0    0    0  0.00000000000E+00  0.00000000000E+00  0.45593999997E+02  0.45594000000E+02  0.51100000000E-03 0.  1.
         11   -1    0    0    0    0 -0.00000000000E+00 -0.00000000000E+00 -0.45593999997E+02  0.45594000000E+02  0.51100000000E-03 0. -1.
    9900012    2    1    2    0    0 -0.13549469419E+02  0.11357570264E+02  0.26535601862E+02  0.59301942074E+02  0.49999996438E+02 0.  0.
         12    1    1    2    0    0  0.13549469419E+02 -0.11357570264E+02 -0.26535601862E+02  0.31886057926E+02  0.00000000000E+00 0. -1.
         11    1    3    3    0    0 -0.18966123397E+02 -0.74715066941E+01  0.93715053030E+01  0.22435738474E+02  0.51100000000E-03 0. -1.
        -11    1    3    3    0    0 -0.25046205183E+01  0.92095297623E+01 -0.54904611872E+01  0.11010618815E+02  0.51100000000E-03 0.  1.
        -12    1    3    3    0    0  0.79212744960E+01  0.96195471960E+01  0.22654557746E+02  0.25855584785E+02  0.00000000000E+00 0.  1.
</event>
<event>
 7    1  0.6316620E-012  0.5930194E+02  0.7816164E-02  0.1266605E+00
        -11   -1    0    0    0    0  0.00000000000E+00  0.00000000000E+00  0.45593999997E+02  0.45594000000E+02  0.51100000000E-03 0.  1.
         11   -1    0    0    0    0 -0.00000000000E+00 -0.00000000000E+00 -0.45593999997E+02  0.45594000000E+02  0.51100000000E-03 0. -1.
    9900012    2    1    2    0    0  0.40763094098E+01  0.24334173787E+02  0.20197839901E+02  0.59301936446E+02  0.49999986172E+02 0.  0.
         12    1    1    2    0    0 -0.40763094098E+01 -0.24334173787E+02 -0.20197839901E+02  0.31886063554E+02  0.00000000000E+00 0. -1.
         11    1    3    3    0    0  0.77725601734E+01  0.18088765006E+02 -0.15313222293E+01  0.19747431709E+02  0.51100000000E-03 0. -1.
        -11    1    3    3    0    0  0.11399372614E+02 -0.24084677067E+01 -0.84130528494E-01  0.11651330006E+02  0.51100000000E-03 0.  1.
         12    1    3    3    0    0 -0.15095623378E+02  0.86538764884E+01  0.21813292659E+02  0.27903174731E+02  0.00000000000E+00 0. -1.
</event>
<event>
 7    1  0.6316620E-012  0.5930195E+02  0.7816164E-02  0.1266605E+00
        -11   -1    0    0    0    0  0.00000000000E+00  0.00000000000E+00  0.45593999997E+02  0.45594000000E+02  0.51100000000E-03 0.  1.
         11   -1    0    0    0    0 -0.00000000000E+00 -0.00000000000E+00 -0.45593999997E+02  0.45594000000E+02  0.51100000000E-03 0. -1.
    9900012    2    1    2    0    0 -0.24385567996E+02 -0.10682395925E+01  0.20516415845E+02  0.59301946914E+02  0.50000005263E+02 0.  0.
         12    1    1    2    0    0  0.24385567996E+02  0.10682395925E+01 -0.20516415845E+02  0.31886053086E+02  0.00000000000E+00 0. -1.
         11    1    3    3    0    0 -0.11502944155E+01 -0.15593240152E+02  0.57526361065E+01  0.16660286255E+02  0.51100000000E-03 0. -1.
        -11    1    3    3    0    0 -0.50877019991E+01 -0.25891160224E+01  0.16673995610E+02  0.17624141490E+02  0.51100000000E-03 0.  1.
        -12    1    3    3    0    0 -0.18147571581E+02  0.17114116581E+02 -0.19102158713E+01  0.25017519168E+02  0.00000000000E+00 0.  1.
</event>
<event>
 7    1  0.6316620E-012  0.5930189E+02  0.7816164E-02  0.1266605E+00
        -11   -1    0    0    0    0  0.00000000000E+00  0.00000000000E+00  0.45593999997E+02  0.45594000000E+02  0.51100000000E-03 0.  1.
         11   -1    0    0    0    0 -0.00000000000E+00 -0.00000000000E+00 -0.45593999997E+02  0.45594000000E+02  0.51100000000E-03 0. -1.
    9900012    2    1    2    0    0  0.21883528794E+02  0.23115445400E+02  0.18738026677E+01  0.59301893543E+02  0.49999907929E+02 0.  0.
         12    1    1    2    0    0 -0.21883528794E+02 -0.23115445400E+02 -0.18738026677E+01  0.31886106457E+02  0.00000000000E+00 0. -1.
         11    1    3    3    0    0  0.77465441331E+01  0.38172710834E+01 -0.78605438982E+01  0.11677699053E+02  0.51100000000E-03 0. -1.
        -11    1    3    3    0    0  0.61991167334E+01  0.29133671570E+02 -0.26822745141E+01  0.29906428477E+02  0.51100000000E-03 0.  1.
        -12    1    3    3    0    0  0.79378679274E+01 -0.98354972535E+01  0.12416621080E+02  0.17717766013E+02  0.00000000000E+00 0.  1.
</event>
<event>
 7    1  0.6316620E-012  0.5930195E+02  0.7816164E-02  0.1266605E+00
        -11   -1    0    0    0    0  0.00000000000E+00  0.00000000000E+00  0.45593999997E+02  0.45594000000E+02  0.51100000000E-03 0.  1.
         11   -1    0    0    0    0 -0.00000000000E+00 -0.00000000000E+00 -0.45593999997E+02  0.45594000000E+02  0.51100000000E-03 0. -1.
    9900012    2    1    2    0    0 -0.74420486851E+01  0.28879957559E+02 -0.11282021913E+02  0.59301952022E+02  0.50000014579E+02 0.  0.
         12    1    1    2    0    0  0.74420486851E+01 -0.28879957559E+02  0.11282021913E+02  0.31886047978E+02  0.00000000000E+00 0. -1.
         11    1    3    3    0    0  0.38406809579E+01  0.65648382404E+01 -0.52429890645E+01  0.92377955127E+01  0.51100000000E-03 0. -1.
        -11    1    3    3    0    0 -0.62145223336E+01  0.35254214781E+02 -0.40465373902E+01  0.36025746526E+02  0.51100000000E-03 0.  1.
         12    1    3    3    0    0 -0.50682073094E+01 -0.12939095462E+02 -0.19924954580E+01  0.14038409983E+02  0.00000000000E+00 0. -1.
</event>
<event>
 7    1  0.6316620E-012  0.5930192E+02  0.7816164E-02  0.1266605E+00
        -11   -1    0    0    0    0  0.00000000000E+00  0.00000000000E+00  0.45593999997E+02  0.45594000000E+02  0.51100000000E-03 0.  1.
         11   -1    0    0    0    0 -0.00000000000E+00 -0.00000000000E+00 -0.45593999997E+02  0.45594000000E+02  0.51100000000E-03 0. -1.
    9900012    2    1    2    0    0  0.23380562026E+02  0.17259737618E+02  0.13121464974E+02  0.59301920493E+02  0.49999957078E+02 0.  0.
         12    1    1    2    0    0 -0.23380562026E+02 -0.17259737618E+02 -0.13121464974E+02  0.31886079507E+02  0.00000000000E+00 0. -1.
         11    1    3    3    0    0  0.26298748872E+01  0.11902563625E+01 -0.33303754822E+01  0.44073068017E+01  0.51100000000E-03 0. -1.
        -11    1    3    3    0    0  0.12004051218E+02 -0.14335432355E+02 -0.10707575790E+01  0.18728277777E+02  0.51100000000E-03 0.  1.
        -12    1    3    3    0    0  0.87466359202E+01  0.30404913610E+02  0.17522598035E+02  0.36166335914E+02  0.00000000000E+00 0.  1.
</event>
<event>
 7    1  0.6316620E-012  0.5930195E+02  0.7816164E-02  0.1266605E+00
        -11   -1    0    0    0    0  0.00000000000E+00  0.00000000000E+00  0.45593999997E+02  0.45594000000E+02  0.51100000000E-03 0.  1.
         11   -1    0    0    0    0 -0.00000000000E+00 -0.00000000000E+00 -0.45593999997E+02  0.45594000000E+02  0.51100000000E-03 0. -1.
    9900012    2    1    2    0    0  0.18497517689E+02 -0.41807852076E+01  0.25633631778E+02  0.59301949700E+02  0.50000010345E+02 0.  0.
         12    1    1    2    0    0 -0.18497517689E+02  0.41807852076E+01 -0.25633631778E+02  0.31886050300E+02  0.00000000000E+00 0. -1.
         11    1    3    3    0    0  0.39112571351E+00 -0.14493202116E+02 -0.14474445547E+01  0.14570551908E+02  0.51100000000E-03 0. -1.
        -11    1    3    3    0    0 -0.30120950608E+01  0.11997380597E+02  0.17621842443E+02  0.21529960269E+02  0.51100000000E-03 0.  1.
        -12    1    3    3    0    0  0.21118487037E+02 -0.16849636882E+01  0.94592338890E+01  0.23201437522E+02  0.00000000000E+00 0.  1.
</event>
<event>
 7    1  0.6316620E-012  0.5930197E+02  0.7816164E-02  0.1266605E+00
        -11   -1    0    0    0    0  0.00000000000E+00  0.00000000000E+00  0.45593999997E+02  0.45594000000E+02  0.51100000000E-03 0.  1.
         11   -1    0    0    0    0 -0.00000000000E+00 -0.00000000000E+00 -0.45593999997E+02  0.45594000000E+02  0.51100000000E-03 0. -1.
    9900012    2    1    2    0    0 -0.14447453207E+02  0.20758141243E+02  0.19418786520E+02  0.59301974817E+02  0.50000056152E+02 0.  0.
         12    1    1    2    0    0  0.14447453207E+02 -0.20758141243E+02 -0.19418786520E+02  0.31886025183E+02  0.00000000000E+00 0. -1.
         11    1    3    3    0    0 -0.68893877756E+01  0.27986748627E+01  0.11988865341E+02  0.14107768688E+02  0.51100000000E-03 0.  1.
        -11    1    3    3    0    0 -0.21101106388E+02  0.21449380369E+02  0.18788453598E+01  0.30147349290E+02  0.51100000000E-03 0. -1.
         12    1    3    3    0    0  0.13543040957E+02 -0.34899139890E+01  0.55510758190E+01  0.15046856840E+02  0.00000000000E+00 0. -1.
</event>
<event>
 7    1  0.6316620E-012  0.5930194E+02  0.7816164E-02  0.1266605E+00
        -11   -1    0    0    0    0  0.00000000000E+00  0.00000000000E+00  0.45593999997E+02  0.45594000000E+02  0.51100000000E-03 0.  1.
         11   -1    0    0    0    0 -0.00000000000E+00 -0.00000000000E+00 -0.45593999997E+02  0.45594000000E+02  0.51100000000E-03 0. -1.
    9900012    2    1    2    0    0 -0.20728888478E+02 -0.94431892049E+01  0.22312775698E+02  0.59301943498E+02  0.49999999034E+02 0.  0.
         12    1    1    2    0    0  0.20728888478E+02  0.94431892049E+01 -0.22312775698E+02  0.31886056502E+02  0.00000000000E+00 0. -1.
         11    1    3    3    0    0  0.25656822601E+00  0.24840784420E+01 -0.38397542899E+01  0.45804133251E+01  0.51100000000E-03 0. -1.
        -11    1    3    3    0    0 -0.22064967868E+02  0.10653971256E+02  0.19012969587E+02  0.31013914995E+02  0.51100000000E-03 0.  1.
        -12    1    3    3    0    0  0.10795111635E+01 -0.22581238903E+02  0.71395604007E+01  0.23707615178E+02  0.00000000000E+00 0.  1.
</event>
<event>
 7    1  0.6316620E-012  0.5930195E+02  0.7816164E-02  0.1266605E+00
        -11   -1    0    0    0    0  0.00000000000E+00  0.00000000000E+00  0.45593999997E+02  0.45594000000E+02  0.51100000000E-03 0. -1.
         11   -1    0    0    0    0 -0.00000000000E+00 -0.00000000000E+00 -0.45593999997E+02  0.45594000000E+02  0.51100000000E-03 0.  1.
    9900012    2    1    2    0    0 -0.22317038234E+02  0.22773195041E+02 -0.22741640634E+00  0.59301947781E+02  0.50000006845E+02 0.  0.
         12    1    1    2    0    0  0.22317038234E+02 -0.22773195041E+02  0.22741640634E+00  0.31886052219E+02  0.00000000000E+00 0. -1.
         11    1    3    3    0    0 -0.14412295376E+01  0.10005922659E+02  0.13856178125E+02  0.17151947508E+02  0.51100000000E-03 0. -1.
        -11    1    3    3    0    0 -0.18203830161E+01  0.19279300702E+02 -0.46661052430E+01  0.19919281319E+02  0.51100000000E-03 0.  1.
        -12    1    3    3    0    0 -0.19055425680E+02 -0.65120283201E+01 -0.94174892883E+01  0.22230718954E+02  0.00000000000E+00 0.  1.
</event>
<event>
 7    1  0.6316620E-012  0.5930195E+02  0.7816164E-02  0.1266605E+00
        -11   -1    0    0    0    0  0.00000000000E+00  0.00000000000E+00  0.45593999997E+02  0.45594000000E+02  0.51100000000E-03 0.  1.
         11   -1    0    0    0    0 -0.00000000000E+00 -0.00000000000E+00 -0.45593999997E+02  0.45594000000E+02  0.51100000000E-03 0. -1.
    9900012    2    1    2    0    0  0.84006977982E+01 -0.17290930616E+02  0.25439574759E+02  0.59301953381E+02  0.50000017059E+02 0.  0.
         12    1    1    2    0    0 -0.84006977982E+01  0.17290930616E+02 -0.25439574759E+02  0.31886046619E+02  0.00000000000E+00 0. -1.
         11    1    3    3    0    0 -0.10276822479E+02 -0.44497372509E+01 -0.36964910768E+01  0.11793103426E+02  0.51100000000E-03 0. -1.
        -11    1    3    3    0    0  0.14359156758E+01 -0.17231721999E+01 -0.62309114522E+01  0.66223435462E+01  0.51100000000E-03 0.  1.
        -12    1    3    3    0    0  0.17241604602E+02 -0.11118021165E+02  0.35366977288E+02  0.40886506409E+02  0.00000000000E+00 0.  1.
</event>
<event>
 7    1  0.6316620E-012  0.5930200E+02  0.7816164E-02  0.1266605E+00
        -11   -1    0    0    0    0  0.00000000000E+00  0.00000000000E+00  0.45593999997E+02  0.45594000000E+02  0.51100000000E-03 0.  1.
         11   -1    0    0    0    0 -0.00000000000E+00 -0.00000000000E+00 -0.45593999997E+02  0.45594000000E+02  0.51100000000E-03 0. -1.
    9900012    2    1    2    0    0  0.19220970424E+02 -0.22217753691E+02  0.12395272635E+02  0.59301998889E+02  0.50000100054E+02 0.  0.
         12    1    1    2    0    0 -0.19220970424E+02  0.22217753691E+02 -0.12395272635E+02  0.31886001111E+02  0.00000000000E+00 0. -1.
         11    1    3    3    0    0 -0.73346924724E+01 -0.77178429325E+00  0.50149304217E+00  0.73922161895E+01  0.51100000000E-03 0. -1.
        -11    1    3    3    0    0 -0.59621872656E+01  0.54643893763E+01  0.11475415116E+00  0.80882876446E+01  0.51100000000E-03 0.  1.
         12    1    3    3    0    0  0.32517850162E+02 -0.26910358774E+02  0.11779025442E+02  0.43821495055E+02  0.00000000000E+00 0. -1.
</event>
<event>
 7    1  0.6316620E-012  0.5930194E+02  0.7816164E-02  0.1266605E+00
        -11   -1    0    0    0    0  0.00000000000E+00  0.00000000000E+00  0.45593999997E+02  0.45594000000E+02  0.51100000000E-03 0.  1.
         11   -1    0    0    0    0 -0.00000000000E+00 -0.00000000000E+00 -0.45593999997E+02  0.45594000000E+02  0.51100000000E-03 0. -1.
    9900012    2    1    2    0    0 -0.15001475162E+02 -0.35479611026E+01  0.27912159110E+02  0.59301938606E+02  0.49999990112E+02 0.  0.
         12    1    1    2    0    0  0.15001475162E+02  0.35479611026E+01 -0.27912159110E+02  0.31886061394E+02  0.00000000000E+00 0. -1.
         11    1    3    3    0    0 -0.11143449804E+01  0.12522315705E+01  0.68482795215E+01  0.70504454687E+01  0.51100000000E-03 0. -1.
        -11    1    3    3    0    0 -0.24694208425E+02 -0.12192345862E+02  0.26364958432E+02  0.38125690299E+02  0.51100000000E-03 0.  1.
        -12    1    3    3    0    0  0.10807078243E+02  0.73921531889E+01 -0.53010788436E+01  0.14125802838E+02  0.00000000000E+00 0.  1.
</event>
<event>
 7    1  0.6316620E-012  0.5930192E+02  0.7816164E-02  0.1266605E+00
        -11   -1    0    0    0    0  0.00000000000E+00  0.00000000000E+00  0.45593999997E+02  0.45594000000E+02  0.51100000000E-03 0.  1.
         11   -1    0    0    0    0 -0.00000000000E+00 -0.00000000000E+00 -0.45593999997E+02  0.45594000000E+02  0.51100000000E-03 0. -1.
    9900012    2    1    2    0    0  0.23576079151E+02 -0.34785558529E+01  0.21184667321E+02  0.59301921714E+02  0.49999959305E+02 0.  0.
         12    1    1    2    0    0 -0.23576079151E+02  0.34785558529E+01 -0.21184667321E+02  0.31886078286E+02  0.00000000000E+00 0. -1.
         11    1    3    3    0    0  0.12159928173E+02  0.87419026800E+01 -0.62195910824E-01  0.14976267367E+02  0.51100000000E-03 0. -1.
        -11    1    3    3    0    0  0.13930394281E+02  0.65094870398E+01  0.20216650109E+02  0.25399650553E+02  0.51100000000E-03 0.  1.
         12    1    3    3    0    0 -0.25142433030E+01 -0.18729945573E+02  0.10302131230E+01  0.18926003794E+02  0.00000000000E+00 0. -1.
</event>
<event>
 7    1  0.6316620E-012  0.5930188E+02  0.7816164E-02  0.1266605E+00
        -11   -1    0    0    0    0  0.00000000000E+00  0.00000000000E+00  0.45593999997E+02  0.45594000000E+02  0.51100000000E-03 0.  1.
         11   -1    0    0    0    0 -0.00000000000E+00 -0.00000000000E+00 -0.45593999997E+02  0.45594000000E+02  0.51100000000E-03 0. -1.
    9900012    2    1    2    0    0  0.15534063326E+02  0.27042134281E+02 -0.66438202273E+01  0.59301882377E+02  0.49999887564E+02 0.  0.
         12    1    1    2    0    0 -0.15534063326E+02 -0.27042134281E+02  0.66438202273E+01  0.31886117623E+02  0.00000000000E+00 0. -1.
         11    1    3    3    0    0  0.27057844865E+01  0.60332337343E+01  0.28035146356E+01  0.71819825642E+01  0.51100000000E-03 0. -1.
        -11    1    3    3    0    0  0.10859828506E+02  0.30893662552E+02  0.63735839327E+01  0.33361307430E+02  0.51100000000E-03 0.  1.
         12    1    3    3    0    0  0.19684503332E+01 -0.98847620059E+01 -0.15820918796E+02  0.18758592382E+02  0.00000000000E+00 0. -1.
</event>
<event>
 7    1  0.6316620E-012  0.5930194E+02  0.7816164E-02  0.1266605E+00
        -11   -1    0    0    0    0  0.00000000000E+00  0.00000000000E+00  0.45593999997E+02  0.45594000000E+02  0.51100000000E-03 0. -1.
         11   -1    0    0    0    0 -0.00000000000E+00 -0.00000000000E+00 -0.45593999997E+02  0.45594000000E+02  0.51100000000E-03 0.  1.
    9900012    2    1    2    0    0  0.16442744836E+02  0.66323711148E+01 -0.26502237178E+02  0.59301940667E+02  0.49999993872E+02 0.  0.
         12    1    1    2    0    0 -0.16442744836E+02 -0.66323711148E+01  0.26502237178E+02  0.31886059333E+02  0.00000000000E+00 0. -1.
         11    1    3    3    0    0  0.28231521445E+02  0.11513243676E+02 -0.13543087086E+02  0.33361486645E+02  0.51100000000E-03 0. -1.
        -11    1    3    3    0    0  0.46867768139E+01 -0.33975355010E+01 -0.46701686367E+01  0.74377146853E+01  0.51100000000E-03 0.  1.
        -12    1    3    3    0    0 -0.16475553423E+02 -0.14833370598E+01 -0.82889814548E+01  0.18502739338E+02  0.00000000000E+00 0.  1.
</event>
<event>
 7    1  0.6316620E-012  0.5930186E+02  0.7816164E-02  0.1266605E+00
        -11   -1    0    0    0    0  0.00000000000E+00  0.00000000000E+00  0.45593999997E+02  0.45594000000E+02  0.51100000000E-03 0.  1.
         11   -1    0    0    0    0 -0.00000000000E+00 -0.00000000000E+00 -0.45593999997E+02  0.45594000000E+02  0.51100000000E-03 0. -1.
    9900012    2    1    2    0    0 -0.17904260975E+02  0.24789786513E+02  0.90349066408E+01  0.59301864856E+02  0.49999855609E+02 0.  0.
         12    1    1    2    0    0  0.17904260975E+02 -0.24789786513E+02 -0.90349066408E+01  0.31886135144E+02  0.00000000000E+00 0. -1.
         11    1    3    3    0    0  0.53648300606E+01  0.96469419249E+01  0.20123294746E-01  0.11038355642E+02  0.51100000000E-03 0. -1.
        -11    1    3    3    0    0 -0.50971820155E+01  0.25459843705E+02  0.86363939412E+01  0.27363702354E+02  0.51100000000E-03 0.  1.
        -12    1    3    3    0    0 -0.18171909020E+02 -0.10316999116E+02  0.37838940491E+00  0.20899806859E+02  0.00000000000E+00 0.  1.
</event>
<event>
 7    1  0.6316620E-012  0.5930200E+02  0.7816164E-02  0.1266605E+00
        -11   -1    0    0    0    0  0.00000000000E+00  0.00000000000E+00  0.45593999997E+02  0.45594000000E+02  0.51100000000E-03 0. -1.
         11   -1    0    0    0    0 -0.00000000000E+00 -0.00000000000E+00 -0.45593999997E+02  0.45594000000E+02  0.51100000000E-03 0.  1.
    9900012    2    1    2    0    0  0.27320832513E+02 -0.16015483511E+02  0.37139841198E+01  0.59301995557E+02  0.50000093978E+02 0.  0.
         12    1    1    2    0    0 -0.27320832513E+02  0.16015483511E+02 -0.37139841198E+01  0.31886004443E+02  0.00000000000E+00 0. -1.
         11    1    3    3    0    0 -0.11780520204E+02 -0.75404788035E+01  0.65243681443E+01  0.15433951432E+02  0.51100000000E-03 0. -1.
        -11    1    3    3    0    0  0.13993864006E+01 -0.57372724590E+01  0.47358689537E+00  0.59244292869E+01  0.51100000000E-03 0.  1.
        -12    1    3    3    0    0  0.37701966316E+02 -0.27377322482E+01 -0.32839709199E+01  0.37943614838E+02  0.00000000000E+00 0.  1.
</event>
<event>
 7    1  0.6316620E-012  0.5930192E+02  0.7816164E-02  0.1266605E+00
        -11   -1    0    0    0    0  0.00000000000E+00  0.00000000000E+00  0.45593999997E+02  0.45594000000E+02  0.51100000000E-03 0.  1.
         11   -1    0    0    0    0 -0.00000000000E+00 -0.00000000000E+00 -0.45593999997E+02  0.45594000000E+02  0.51100000000E-03 0. -1.
    9900012    2    1    2    0    0  0.16563043787E+01 -0.31798876505E+02  0.16763859158E+01  0.59301919010E+02  0.49999954374E+02 0.  0.
         12    1    1    2    0    0 -0.16563043787E+01  0.31798876505E+02 -0.16763859158E+01  0.31886080990E+02  0.00000000000E+00 0. -1.
         11    1    3    3    0    0  0.14334182293E+02 -0.52133827699E+01  0.68157410548E+01  0.16706360115E+02  0.51100000000E-03 0. -1.
        -11    1    3    3    0    0  0.10081810488E+01 -0.54565270818E+00  0.96166605885E+01  0.96847471336E+01  0.51100000000E-03 0.  1.
         12    1    3    3    0    0 -0.13686058963E+02 -0.26039841027E+02 -0.14756015727E+02  0.32910811761E+02  0.00000000000E+00 0. -1.
</event>
<event>
 7    1  0.6316620E-012  0.5930197E+02  0.7816164E-02  0.1266605E+00
        -11   -1    0    0    0    0  0.00000000000E+00  0.00000000000E+00  0.45593999997E+02  0.45594000000E+02  0.51100000000E-03 0. -1.
         11   -1    0    0    0    0 -0.00000000000E+00 -0.00000000000E+00 -0.45593999997E+02  0.45594000000E+02  0.51100000000E-03 0.  1.
    9900012    2    1    2    0    0 -0.21139050962E+02 -0.23843918240E+02  0.11519321252E+01  0.59301970767E+02  0.50000048766E+02 0.  0.
         12    1    1    2    0    0  0.21139050962E+02  0.23843918240E+02 -0.11519321252E+01  0.31886029233E+02  0.00000000000E+00 0. -1.
         11    1    3    3    0    0 -0.23131984122E+01 -0.83870520897E+01  0.38940669643E+01  0.95319089081E+01  0.51100000000E-03 0. -1.
        -11    1    3    3    0    0 -0.26284633516E+02 -0.43252435659E+01  0.12542780972E+02  0.29443353167E+02  0.51100000000E-03 0.  1.
         12    1    3    3    0    0  0.74587809660E+01 -0.11131622585E+02 -0.15284915811E+02  0.20326708692E+02  0.00000000000E+00 0. -1.
</event>
<event>
 7    1  0.6316620E-012  0.5930188E+02  0.7816164E-02  0.1266605E+00
        -11   -1    0    0    0    0  0.00000000000E+00  0.00000000000E+00  0.45593999997E+02  0.45594000000E+02  0.51100000000E-03 0. -1.
         11   -1    0    0    0    0 -0.00000000000E+00 -0.00000000000E+00 -0.45593999997E+02  0.45594000000E+02  0.51100000000E-03 0.  1.
    9900012    2    1    2    0    0 -0.21020268542E+02 -0.13526845615E+02 -0.19796398314E+02  0.59301880323E+02  0.49999883818E+02 0.  0.
         12    1    1    2    0    0  0.21020268542E+02  0.13526845615E+02  0.19796398314E+02  0.31886119677E+02  0.00000000000E+00 0. -1.
         11    1    3    3    0    0 -0.10957658856E+02  0.76600057903E+01 -0.14528154955E+02  0.19743689193E+02  0.51100000000E-03 0. -1.
        -11    1    3    3    0    0 -0.89462015424E+01 -0.17830919508E+02 -0.17677575088E+02  0.26654697030E+02  0.51100000000E-03 0.  1.
         12    1    3    3    0    0 -0.11164081436E+01 -0.33559318976E+01  0.12409331728E+02  0.12903494100E+02  0.00000000000E+00 0. -1.
</event>
<event>
 7    1  0.6316620E-012  0.5930197E+02  0.7816164E-02  0.1266605E+00
        -11   -1    0    0    0    0  0.00000000000E+00  0.00000000000E+00  0.45593999997E+02  0.45594000000E+02  0.51100000000E-03 0.  1.
         11   -1    0    0    0    0 -0.00000000000E+00 -0.00000000000E+00 -0.45593999997E+02  0.45594000000E+02  0.51100000000E-03 0. -1.
    9900012    2    1    2    0    0 -0.77145329119E+01  0.30919080056E+02  0.11023835083E+01  0.59301972042E+02  0.50000051091E+02 0.  0.
         12    1    1    2    0    0  0.77145329119E+01 -0.30919080056E+02 -0.11023835083E+01  0.31886027958E+02  0.00000000000E+00 0. -1.
         11    1    3    3    0    0  0.13067153843E+02 -0.13042072490E+01  0.20664940142E+01  0.13293677591E+02  0.51100000000E-03 0. -1.
        -11    1    3    3    0    0  0.40455910942E+01  0.31953251956E+01 -0.55052904232E+01  0.75422233666E+01  0.51100000000E-03 0.  1.
        -12    1    3    3    0    0 -0.24827277849E+02  0.29027962109E+02  0.45411799172E+01  0.38466071084E+02  0.00000000000E+00 0.  1.
</event>
<event>
 7    1  0.6316620E-012  0.5930194E+02  0.7816164E-02  0.1266605E+00
        -11   -1    0    0    0    0  0.00000000000E+00  0.00000000000E+00  0.45593999997E+02  0.45594000000E+02  0.51100000000E-03 0. -1.
         11   -1    0    0    0    0 -0.00000000000E+00 -0.00000000000E+00 -0.45593999997E+02  0.45594000000E+02  0.51100000000E-03 0.  1.
    9900012    2    1    2    0    0  0.21944603864E+02  0.16179158003E+02 -0.16534514599E+02  0.59301937755E+02  0.49999988560E+02 0.  0.
         12    1    1    2    0    0 -0.21944603864E+02 -0.16179158003E+02  0.16534514599E+02  0.31886062245E+02  0.00000000000E+00 0. -1.
         11    1    3    3    0    0 -0.69889612108E+01 -0.18794991362E+01  0.91379664859E+01  0.11656780326E+02  0.51100000000E-03 0. -1.
        -11    1    3    3    0    0  0.92013560451E+01 -0.31621063474E+01 -0.13691121290E+01  0.98253925063E+01  0.51100000000E-03 0.  1.
        -12    1    3    3    0    0  0.19732209030E+02  0.21220763487E+02 -0.24303368956E+02  0.37819764923E+02  0.00000000000E+00 0.  1.
</event>
<event>
 7    1  0.6316620E-012  0.5930191E+02  0.7816164E-02  0.1266605E+00
        -11   -1    0    0    0    0  0.00000000000E+00  0.00000000000E+00  0.45593999997E+02  0.45594000000E+02  0.51100000000E-03 0.  1.
         11   -1    0    0    0    0 -0.00000000000E+00 -0.00000000000E+00 -0.45593999997E+02  0.45594000000E+02  0.51100000000E-03 0. -1.
    9900012    2    1    2    0    0  0.27300606100E+02  0.66257255204E+01  0.15083084604E+02  0.59301909407E+02  0.49999936861E+02 0.  0.
         12    1    1    2    0    0 -0.27300606100E+02 -0.66257255204E+01 -0.15083084604E+02  0.31886090593E+02  0.00000000000E+00 0. -1.
         11    1    3    3    0    0  0.17767815393E+01 -0.91071697202E+00  0.15042257537E+02  0.15174184331E+02  0.51100000000E-03 0. -1.
        -11    1    3    3    0    0  0.18682283421E+02 -0.61236367978E+01  0.13433148771E+02  0.23811260522E+02  0.51100000000E-03 0.  1.
         12    1    3    3    0    0  0.68415411398E+01  0.13660079290E+02 -0.13392321704E+02  0.20316464555E+02  0.00000000000E+00 0. -1.
</event>
<event>
 7    1  0.6316620E-012  0.5930193E+02  0.7816164E-02  0.1266605E+00
        -11   -1    0    0    0    0  0.00000000000E+00  0.00000000000E+00  0.45593999997E+02  0.45594000000E+02  0.51100000000E-03 0.  1.
         11   -1    0    0    0    0 -0.00000000000E+00 -0.00000000000E+00 -0.45593999997E+02  0.45594000000E+02  0.51100000000E-03 0. -1.
    9900012    2    1    2    0    0 -0.32844949378E+01 -0.21688798348E+02  0.23141511224E+02  0.59301930588E+02  0.49999975490E+02 0.  0.
         12    1    1    2    0    0  0.32844949378E+01  0.21688798348E+02 -0.23141511224E+02  0.31886069412E+02  0.00000000000E+00 0. -1.
         11    1    3    3    0    0  0.12741665209E+02  0.84954311774E+00  0.13445296158E+02  0.18543132013E+02  0.51100000000E-03 0. -1.
        -11    1    3    3    0    0  0.71530615796E+01  0.13920011480E+00  0.20419728251E+01  0.74401155846E+01  0.51100000000E-03 0.  1.
        -12    1    3    3    0    0 -0.23179221726E+02 -0.22677541581E+02  0.76542422412E+01  0.33318682991E+02  0.00000000000E+00 0.  1.
</event>
<event>
 7    1  0.6316620E-012  0.5930198E+02  0.7816164E-02  0.1266605E+00
        -11   -1    0    0    0    0  0.00000000000E+00  0.00000000000E+00  0.45593999997E+02  0.45594000000E+02  0.51100000000E-03 0. -1.
         11   -1    0    0    0    0 -0.00000000000E+00 -0.00000000000E+00 -0.45593999997E+02  0.45594000000E+02  0.51100000000E-03 0.  1.
    9900012    2    1    2    0    0  0.23376331393E+02  0.21347754683E+02 -0.38130005258E+01  0.59301976849E+02  0.50000059858E+02 0.  0.
         12    1    1    2    0    0 -0.23376331393E+02 -0.21347754683E+02  0.38130005258E+01  0.31886023151E+02  0.00000000000E+00 0. -1.
         11    1    3    3    0    0 -0.39634460631E+01  0.46863272248E+01 -0.84921488519E+01  0.10477936817E+02  0.51100000000E-03 0. -1.
        -11    1    3    3    0    0  0.98615452986E+01 -0.10427193710E+02 -0.49455270233E+01  0.15180075169E+02  0.51100000000E-03 0.  1.
         12    1    3    3    0    0  0.17478232157E+02  0.27088621168E+02  0.96246753494E+01  0.33643964863E+02  0.00000000000E+00 0. -1.
</event>
<event>
 7    1  0.6316620E-012  0.5930192E+02  0.7816164E-02  0.1266605E+00
        -11   -1    0    0    0    0  0.00000000000E+00  0.00000000000E+00  0.45593999997E+02  0.45594000000E+02  0.51100000000E-03 0.  1.
         11   -1    0    0    0    0 -0.00000000000E+00 -0.00000000000E+00 -0.45593999997E+02  0.45594000000E+02  0.51100000000E-03 0. -1.
    9900012    2    1    2    0    0 -0.20570215866E+02 -0.24078399995E+02  0.37173612691E+01  0.59301923071E+02  0.49999961780E+02 0.  0.
         12    1    1    2    0    0  0.20570215866E+02  0.24078399995E+02 -0.37173612691E+01  0.31886076929E+02  0.00000000000E+00 0. -1.
         11    1    3    3    0    0  0.88920538022E+00  0.78266437728E+01  0.29050382352E+01  0.83956111370E+01  0.51100000000E-03 0. -1.
        -11    1    3    3    0    0 -0.11948681999E+02  0.36482689664E+01 -0.53499707570E+01  0.13590550222E+02  0.51100000000E-03 0.  1.
        -12    1    3    3    0    0 -0.95107392469E+01 -0.35553312735E+02  0.61622937908E+01  0.37315761713E+02  0.00000000000E+00 0.  1.
</event>
<event>
 7    1  0.6316620E-012  0.5930182E+02  0.7816164E-02  0.1266605E+00
        -11   -1    0    0    0    0  0.00000000000E+00  0.00000000000E+00  0.45593999997E+02  0.45594000000E+02  0.51100000000E-03 0.  1.
         11   -1    0    0    0    0 -0.00000000000E+00 -0.00000000000E+00 -0.45593999997E+02  0.45594000000E+02  0.51100000000E-03 0. -1.
    9900012    2    1    2    0    0 -0.29376506104E+02  0.48214743615E+01  0.11423771930E+02  0.59301822885E+02  0.49999779064E+02 0.  0.
         12    1    1    2    0    0  0.29376506104E+02 -0.48214743615E+01 -0.11423771930E+02  0.31886177115E+02  0.00000000000E+00 0. -1.
         11    1    3    3    0    0 -0.12004432983E+02  0.10383136738E+00 -0.78342698277E+01  0.14335026201E+02  0.51100000000E-03 0. -1.
        -11    1    3    3    0    0 -0.73898699871E+00 -0.10547816121E+02 -0.51135862847E+01  0.11745266776E+02  0.51100000000E-03 0.  1.
        -12    1    3    3    0    0 -0.16633086122E+02  0.15265459115E+02  0.24371628043E+02  0.33221529907E+02  0.00000000000E+00 0.  1.
</event>
<event>
 7    1  0.6316620E-012  0.5930197E+02  0.7816164E-02  0.1266605E+00
        -11   -1    0    0    0    0  0.00000000000E+00  0.00000000000E+00  0.45593999997E+02  0.45594000000E+02  0.51100000000E-03 0. -1.
         11   -1    0    0    0    0 -0.00000000000E+00 -0.00000000000E+00 -0.45593999997E+02  0.45594000000E+02  0.51100000000E-03 0.  1.
    9900012    2    1    2    0    0  0.17531261034E+02  0.20191526481E+02  0.17368820867E+02  0.59301971815E+02  0.50000050678E+02 0.  0.
         12    1    1    2    0    0 -0.17531261034E+02 -0.20191526481E+02 -0.17368820867E+02  0.31886028185E+02  0.00000000000E+00 0. -1.
         11    1    3    3    0    0 -0.57304687085E+01 -0.77789577756E+01  0.36298524646E+01  0.10321157148E+02  0.51100000000E-03 0. -1.
        -11    1    3    3    0    0 -0.45984052424E+01  0.13123859317E+02  0.10133125488E+02  0.17206430384E+02  0.51100000000E-03 0.  1.
        -12    1    3    3    0    0  0.27860134985E+02  0.14846624940E+02  0.36058429145E+01  0.31774384284E+02  0.00000000000E+00 0.  1.
</event>
<event>
 7    1  0.6316620E-012  0.5930169E+02  0.7816164E-02  0.1266606E+00
        -11   -1    0    0    0    0  0.00000000000E+00  0.00000000000E+00  0.45593999997E+02  0.45594000000E+02  0.51100000000E-03 0.  1.
         11   -1    0    0    0    0 -0.00000000000E+00 -0.00000000000E+00 -0.45593999997E+02  0.45594000000E+02  0.51100000000E-03 0. -1.
    9900012    2    1    2    0    0  0.16171929607E+02  0.20049016730E+02  0.18794736347E+02  0.59301694265E+02  0.49999544491E+02 0.  0.
         12    1    1    2    0    0 -0.16171929607E+02 -0.20049016730E+02 -0.18794736347E+02  0.31886305735E+02  0.00000000000E+00 0. -1.
         11    1    3    3    0    0  0.13347969995E+02 -0.65220895573E+01  0.12778555468E+02  0.19595852503E+02  0.51100000000E-03 0. -1.
        -11    1    3    3    0    0  0.95634636723E+01  0.64901708998E+01 -0.82216224605E+01  0.14183695987E+02  0.51100000000E-03 0.  1.
         12    1    3    3    0    0 -0.67395040603E+01  0.20080935388E+02  0.14237803340E+02  0.25522145775E+02  0.00000000000E+00 0. -1.
</event>
<event>
 7    1  0.6316620E-012  0.5930196E+02  0.7816164E-02  0.1266605E+00
        -11   -1    0    0    0    0  0.00000000000E+00  0.00000000000E+00  0.45593999997E+02  0.45594000000E+02  0.51100000000E-03 0. -1.
         11   -1    0    0    0    0 -0.00000000000E+00 -0.00000000000E+00 -0.45593999997E+02  0.45594000000E+02  0.51100000000E-03 0.  1.
    9900012    2    1    2    0    0  0.25651157066E+02  0.18791830207E+02 -0.23674345203E+01  0.59301960930E+02  0.50000030826E+02 0.  0.
         12    1    1    2    0    0 -0.25651157066E+02 -0.18791830207E+02  0.23674345203E+01  0.31886039070E+02  0.00000000000E+00 0. -1.
         11    1    3    3    0    0  0.18678531968E+02  0.28123170850E+02 -0.16717065627E+02  0.37673074981E+02  0.51100000000E-03 0.  1.
        -11    1    3    3    0    0  0.57712564677E+01 -0.65567693291E+01  0.20623391218E+01  0.89750692568E+01  0.51100000000E-03 0. -1.
        -12    1    3    3    0    0  0.12013686306E+01 -0.27745713134E+01  0.12287291984E+02  0.12653816692E+02  0.00000000000E+00 0.  1.
</event>
<event>
 7    1  0.6316620E-012  0.5930195E+02  0.7816164E-02  0.1266605E+00
        -11   -1    0    0    0    0  0.00000000000E+00  0.00000000000E+00  0.45593999997E+02  0.45594000000E+02  0.51100000000E-03 0.  1.
         11   -1    0    0    0    0 -0.00000000000E+00 -0.00000000000E+00 -0.45593999997E+02  0.45594000000E+02  0.51100000000E-03 0. -1.
    9900012    2    1    2    0    0  0.21660686896E+02 -0.10694728308E+02  0.20812438523E+02  0.59301950266E+02  0.50000011377E+02 0.  0.
         12    1    1    2    0    0 -0.21660686896E+02  0.10694728308E+02 -0.20812438523E+02  0.31886049734E+02  0.00000000000E+00 0. -1.
         11    1    3    3    0    0 -0.74008313531E+01  0.46047968296E+01  0.18804952809E+02  0.20726859603E+02  0.51100000000E-03 0. -1.
        -11    1    3    3    0    0 -0.44117225020E+00 -0.45928603839E+01 -0.45851227225E+01  0.65047943935E+01  0.51100000000E-03 0.  1.
        -12    1    3    3    0    0  0.29502690499E+02 -0.10706664754E+02  0.65926084361E+01  0.32070296270E+02  0.00000000000E+00 0.  1.
</event>
<event>
 7    1  0.6316620E-012  0.5930204E+02  0.7816164E-02  0.1266604E+00
        -11   -1    0    0    0    0  0.00000000000E+00  0.00000000000E+00  0.45593999997E+02  0.45594000000E+02  0.51100000000E-03 0.  1.
         11   -1    0    0    0    0 -0.00000000000E+00 -0.00000000000E+00 -0.45593999997E+02  0.45594000000E+02  0.51100000000E-03 0. -1.
    9900012    2    1    2    0    0  0.29161560108E+01  0.13571512538E+01  0.31723313565E+02  0.59302039940E+02  0.50000174922E+02 0.  0.
         12    1    1    2    0    0 -0.29161560108E+01 -0.13571512538E+01 -0.31723313565E+02  0.31885960060E+02  0.00000000000E+00 0. -1.
         11    1    3    3    0    0  0.60359683804E+01  0.15702064454E+02  0.51966364690E+00  0.16830264198E+02  0.51100000000E-03 0. -1.
        -11    1    3    3    0    0 -0.28720883523E+01  0.68405910698E+01  0.59687123133E+01  0.95219800791E+01  0.51100000000E-03 0.  1.
        -12    1    3    3    0    0 -0.24772401735E+00 -0.21185504270E+02  0.25234937604E+02  0.32949795663E+02  0.00000000000E+00 0.  1.
</event>
<event>
 7    1  0.6316620E-012  0.5930192E+02  0.7816164E-02  0.1266605E+00
        -11   -1    0    0    0    0  0.00000000000E+00  0.00000000000E+00  0.45593999997E+02  0.45594000000E+02  0.51100000000E-03 0.  1.
         11   -1    0    0    0    0 -0.00000000000E+00 -0.00000000000E+00 -0.45593999997E+02  0.45594000000E+02  0.51100000000E-03 0. -1.
    9900012    2    1    2    0    0 -0.28047753709E+02 -0.59198595266E+01  0.13964281299E+02  0.59301915619E+02  0.49999948190E+02 0.  0.
         12    1    1    2    0    0  0.28047753709E+02  0.59198595266E+01 -0.13964281299E+02  0.31886084381E+02  0.00000000000E+00 0. -1.
         11    1    3    3    0    0  0.35622809504E+01  0.84467357638E+01 -0.55467951638E+01  0.10714668799E+02  0.51100000000E-03 0. -1.
        -11    1    3    3    0    0 -0.13520182349E+02 -0.17386285034E+02  0.29881495233E+00  0.22026518760E+02  0.51100000000E-03 0.  1.
        -12    1    3    3    0    0 -0.18089852310E+02  0.30196897437E+01  0.19212261510E+02  0.26560728060E+02  0.00000000000E+00 0.  1.
</event>
<event>
 7    1  0.6316620E-012  0.5930193E+02  0.7816164E-02  0.1266605E+00
        -11   -1    0    0    0    0  0.00000000000E+00  0.00000000000E+00  0.45593999997E+02  0.45594000000E+02  0.51100000000E-03 0. -1.
         11   -1    0    0    0    0 -0.00000000000E+00 -0.00000000000E+00 -0.45593999997E+02  0.45594000000E+02  0.51100000000E-03 0.  1.
    9900012    2    1    2    0    0  0.83545624097E+01  0.39448813957E+01 -0.30518197466E+02  0.59301934410E+02  0.49999982459E+02 0.  0.
         12    1    1    2    0    0 -0.83545624097E+01 -0.39448813957E+01  0.30518197466E+02  0.31886065590E+02  0.00000000000E+00 0. -1.
         11    1    3    3    0    0 -0.35700825866E+01 -0.33172705393E+01 -0.15730291809E+02  0.16467903757E+02  0.51100000000E-03 0. -1.
        -11    1    3    3    0    0 -0.26472223958E+01  0.15159499909E+02 -0.20204003581E+02  0.25397243647E+02  0.51100000000E-03 0.  1.
         12    1    3    3    0    0  0.14571867392E+02 -0.78973479741E+01  0.54160979248E+01  0.17436787005E+02  0.00000000000E+00 0. -1.
</event>
<event>
 7    1  0.6316620E-012  0.5930194E+02  0.7816164E-02  0.1266605E+00
        -11   -1    0    0    0    0  0.00000000000E+00  0.00000000000E+00  0.45593999997E+02  0.45594000000E+02  0.51100000000E-03 0. -1.
         11   -1    0    0    0    0 -0.00000000000E+00 -0.00000000000E+00 -0.45593999997E+02  0.45594000000E+02  0.51100000000E-03 0.  1.
    9900012    2    1    2    0    0 -0.96858444634E+01 -0.23397789920E+02  0.19376504944E+02  0.59301935646E+02  0.49999984714E+02 0.  0.
         12    1    1    2    0    0  0.96858444634E+01  0.23397789920E+02 -0.19376504944E+02  0.31886064354E+02  0.00000000000E+00 0. -1.
         11    1    3    3    0    0 -0.66374394739E+01 -0.76745060105E+01  0.14746377663E+02  0.17899980439E+02  0.51100000000E-03 0. -1.
        -11    1    3    3    0    0  0.16133769802E+02 -0.13841817432E+02  0.59729792048E+01  0.22081008100E+02  0.51100000000E-03 0.  1.
        -12    1    3    3    0    0 -0.19182174792E+02 -0.18814664771E+01 -0.13428519232E+01  0.19320947108E+02  0.00000000000E+00 0.  1.
</event>
<event>
 7    1  0.6316620E-012  0.5930196E+02  0.7816164E-02  0.1266605E+00
        -11   -1    0    0    0    0  0.00000000000E+00  0.00000000000E+00  0.45593999997E+02  0.45594000000E+02  0.51100000000E-03 0.  1.
         11   -1    0    0    0    0 -0.00000000000E+00 -0.00000000000E+00 -0.45593999997E+02  0.45594000000E+02  0.51100000000E-03 0. -1.
    9900012    2    1    2    0    0  0.25559170247E+02 -0.18947517213E+02  0.21071425521E+01  0.59301958509E+02  0.50000026410E+02 0.  0.
         12    1    1    2    0    0 -0.25559170247E+02  0.18947517213E+02 -0.21071425521E+01  0.31886041491E+02  0.00000000000E+00 0. -1.
         11    1    3    3    0    0  0.21331381605E+02 -0.16355004067E+02  0.10732601766E+02  0.28943094861E+02  0.51100000000E-03 0. -1.
        -11    1    3    3    0    0  0.31888604968E+01 -0.13058418680E+02  0.39066202209E+01  0.13998314595E+02  0.51100000000E-03 0.  1.
         12    1    3    3    0    0  0.10389281450E+01  0.10465905534E+02 -0.12532079435E+02  0.16360549053E+02  0.00000000000E+00 0. -1.
</event>
<event>
 7    1  0.6316620E-012  0.5930194E+02  0.7816164E-02  0.1266605E+00
        -11   -1    0    0    0    0  0.00000000000E+00  0.00000000000E+00  0.45593999997E+02  0.45594000000E+02  0.51100000000E-03 0.  1.
         11   -1    0    0    0    0 -0.00000000000E+00 -0.00000000000E+00 -0.45593999997E+02  0.45594000000E+02  0.51100000000E-03 0. -1.
    9900012    2    1    2    0    0 -0.60283585074E+01  0.80005423571E+01  0.30271616199E+02  0.59301944559E+02  0.50000000968E+02 0.  0.
         12    1    1    2    0    0  0.60283585074E+01 -0.80005423571E+01 -0.30271616199E+02  0.31886055441E+02  0.00000000000E+00 0. -1.
         11    1    3    3    0    0 -0.12220496110E+01  0.20845076417E+01 -0.30841161516E+01  0.39179522787E+01  0.51100000000E-03 0. -1.
        -11    1    3    3    0    0 -0.15512474726E+02  0.20503357309E+02  0.15826989258E+02  0.30191358404E+02  0.51100000000E-03 0.  1.
        -12    1    3    3    0    0  0.10706165829E+02 -0.14587322593E+02  0.17528743093E+02  0.25192633876E+02  0.00000000000E+00 0.  1.
</event>
<event>
 7    1  0.6316620E-012  0.5930194E+02  0.7816164E-02  0.1266605E+00
        -11   -1    0    0    0    0  0.00000000000E+00  0.00000000000E+00  0.45593999997E+02  0.45594000000E+02  0.51100000000E-03 0.  1.
         11   -1    0    0    0    0 -0.00000000000E+00 -0.00000000000E+00 -0.45593999997E+02  0.45594000000E+02  0.51100000000E-03 0. -1.
    9900012    2    1    2    0    0  0.26404469688E+02  0.17790420642E+02  0.17394450868E+01  0.59301941050E+02  0.49999994570E+02 0.  0.
         12    1    1    2    0    0 -0.26404469688E+02 -0.17790420642E+02 -0.17394450868E+01  0.31886058950E+02  0.00000000000E+00 0. -1.
         11    1    3    3    0    0 -0.85626358135E+00  0.31717219071E+01 -0.24920466383E+01  0.41235062611E+01  0.51100000000E-03 0. -1.
        -11    1    3    3    0    0  0.26939486769E+02  0.26351097949E+02  0.13701051729E+02  0.40097819507E+02  0.51100000000E-03 0.  1.
         12    1    3    3    0    0  0.32124650019E+00 -0.11732399214E+02 -0.94695600039E+01  0.15080615282E+02  0.00000000000E+00 0. -1.
</event>
<event>
 7    1  0.6316620E-012  0.5930196E+02  0.7816164E-02  0.1266605E+00
        -11   -1    0    0    0    0  0.00000000000E+00  0.00000000000E+00  0.45593999997E+02  0.45594000000E+02  0.51100000000E-03 0.  1.
         11   -1    0    0    0    0 -0.00000000000E+00 -0.00000000000E+00 -0.45593999997E+02  0.45594000000E+02  0.51100000000E-03 0. -1.
    9900012    2    1    2    0    0 -0.15746425222E+02  0.13357685892E+02  0.24296945970E+02  0.59301964450E+02  0.50000037245E+02 0.  0.
         12    1    1    2    0    0  0.15746425222E+02 -0.13357685892E+02 -0.24296945970E+02  0.31886035550E+02  0.00000000000E+00 0. -1.
         11    1    3    3    0    0 -0.85128578713E+01  0.64509922265E+01 -0.90125768633E+01  0.13975356590E+02  0.51100000000E-03 0. -1.
        -11    1    3    3    0    0  0.77852002015E+01 -0.67478451727E+01  0.92216885129E+01  0.13826868624E+02  0.51100000000E-03 0.  1.
        -12    1    3    3    0    0 -0.15018767552E+02  0.13654538838E+02  0.24087834320E+02  0.31499739236E+02  0.00000000000E+00 0.  1.
</event>
<event>
 7    1  0.6316620E-012  0.5930196E+02  0.7816164E-02  0.1266605E+00
        -11   -1    0    0    0    0  0.00000000000E+00  0.00000000000E+00  0.45593999997E+02  0.45594000000E+02  0.51100000000E-03 0. -1.
         11   -1    0    0    0    0 -0.00000000000E+00 -0.00000000000E+00 -0.45593999997E+02  0.45594000000E+02  0.51100000000E-03 0.  1.
    9900012    2    1    2    0    0  0.85201150729E+01 -0.30593501108E+02 -0.28574464456E+01  0.59301958052E+02  0.50000025577E+02 0.  0.
         12    1    1    2    0    0 -0.85201150729E+01  0.30593501108E+02  0.28574464456E+01  0.31886041948E+02  0.00000000000E+00 0. -1.
         11    1    3    3    0    0 -0.43540236746E+00  0.83490964679E+01 -0.78940791500E+01  0.11498411757E+02  0.51100000000E-03 0. -1.
        -11    1    3    3    0    0  0.71818818970E+01 -0.41097963533E+01 -0.70704884101E+01  0.10884009384E+02  0.51100000000E-03 0.  1.
        -12    1    3    3    0    0  0.17736355434E+01 -0.34832801223E+02  0.12107121115E+02  0.36919536911E+02  0.00000000000E+00 0.  1.
</event>
<event>
 7    1  0.6316620E-012  0.5930179E+02  0.7816164E-02  0.1266605E+00
        -11   -1    0    0    0    0  0.00000000000E+00  0.00000000000E+00  0.45593999997E+02  0.45594000000E+02  0.51100000000E-03 0. -1.
         11   -1    0    0    0    0 -0.00000000000E+00 -0.00000000000E+00 -0.45593999997E+02  0.45594000000E+02  0.51100000000E-03 0.  1.
    9900012    2    1    2    0    0  0.15875875075E+02  0.22344549354E+02 -0.16291348998E+02  0.59301790639E+02  0.49999720255E+02 0.  0.
         12    1    1    2    0    0 -0.15875875075E+02 -0.22344549354E+02  0.16291348998E+02  0.31886209361E+02  0.00000000000E+00 0. -1.
         11    1    3    3    0    0  0.14031075534E+02  0.12966155016E+02  0.86165052709E+01  0.20957967933E+02  0.51100000000E-03 0. -1.
        -11    1    3    3    0    0  0.25079747675E+01 -0.10352407298E+01  0.55339416968E+01  0.61632922831E+01  0.51100000000E-03 0.  1.
        -12    1    3    3    0    0 -0.66317522616E+00  0.10413635067E+02 -0.30441795966E+02  0.32180530423E+02  0.00000000000E+00 0.  1.
</event>
<event>
 7    1  0.6316620E-012  0.5930202E+02  0.7816164E-02  0.1266604E+00
        -11   -1    0    0    0    0  0.00000000000E+00  0.00000000000E+00  0.45593999997E+02  0.45594000000E+02  0.51100000000E-03 0.  1.
         11   -1    0    0    0    0 -0.00000000000E+00 -0.00000000000E+00 -0.45593999997E+02  0.45594000000E+02  0.51100000000E-03 0. -1.
    9900012    2    1    2    0    0 -0.16613031825E+02  0.16613234405E+02  0.21557435359E+02  0.59302024979E+02  0.50000147635E+02 0.  0.
         12    1    1    2    0    0  0.16613031825E+02 -0.16613234405E+02 -0.21557435359E+02  0.31885975021E+02  0.00000000000E+00 0. -1.
         11    1    3    3    0    0  0.44158070416E+01 -0.10256811349E+01  0.21385604371E+01  0.50124659224E+01  0.51100000000E-03 0. -1.
        -11    1    3    3    0    0 -0.57743092045E+01 -0.11191793062E+02  0.17573108415E+02  0.21619736778E+02  0.51100000000E-03 0.  1.
         12    1    3    3    0    0 -0.15254529662E+02  0.28830708602E+02  0.18457665073E+01  0.32669822278E+02  0.00000000000E+00 0. -1.
</event>
<event>
 7    1  0.6316620E-012  0.5930191E+02  0.7816164E-02  0.1266605E+00
        -11   -1    0    0    0    0  0.00000000000E+00  0.00000000000E+00  0.45593999997E+02  0.45594000000E+02  0.51100000000E-03 0.  1.
         11   -1    0    0    0    0 -0.00000000000E+00 -0.00000000000E+00 -0.45593999997E+02  0.45594000000E+02  0.51100000000E-03 0. -1.
    9900012    2    1    2    0    0 -0.26264902233E+02 -0.22661542520E+01  0.17937174134E+02  0.59301909611E+02  0.49999937231E+02 0.  0.
         12    1    1    2    0    0  0.26264902233E+02  0.22661542520E+01 -0.17937174134E+02  0.31886090389E+02  0.00000000000E+00 0. -1.
         11    1    3    3    0    0  0.17658101419E+00  0.16552461918E+01  0.15942899531E+02  0.16029568507E+02  0.51100000000E-03 0. -1.
        -11    1    3    3    0    0 -0.86916100384E+01  0.14461852684E+02  0.48587782920E+01  0.17558388162E+02  0.51100000000E-03 0.  1.
         12    1    3    3    0    0 -0.17749873209E+02 -0.18383253127E+02 -0.28645036892E+01  0.25713952941E+02  0.00000000000E+00 0. -1.
</event>
<event>
 7    1  0.6316620E-012  0.5930194E+02  0.7816164E-02  0.1266605E+00
        -11   -1    0    0    0    0  0.00000000000E+00  0.00000000000E+00  0.45593999997E+02  0.45594000000E+02  0.51100000000E-03 0. -1.
         11   -1    0    0    0    0 -0.00000000000E+00 -0.00000000000E+00 -0.45593999997E+02  0.45594000000E+02  0.51100000000E-03 0.  1.
    9900012    2    1    2    0    0  0.12650400002E+02 -0.21421764435E+02 -0.19944822929E+02  0.59301943903E+02  0.49999999773E+02 0.  0.
         12    1    1    2    0    0 -0.12650400002E+02  0.21421764435E+02  0.19944822929E+02  0.31886056097E+02  0.00000000000E+00 0. -1.
         11    1    3    3    0    0  0.86410238895E+01 -0.23473987588E+02 -0.93643319047E-02  0.25013905634E+02  0.51100000000E-03 0. -1.
        -11    1    3    3    0    0  0.57662322716E+01 -0.87095666511E+01 -0.20875919659E+02  0.23343307557E+02  0.51100000000E-03 0.  1.
        -12    1    3    3    0    0 -0.17568561586E+01  0.10761789804E+02  0.94046106162E+00  0.10944730712E+02  0.00000000000E+00 0.  1.
</event>
<event>
 7    1  0.6316620E-012  0.5930196E+02  0.7816164E-02  0.1266605E+00
        -11   -1    0    0    0    0  0.00000000000E+00  0.00000000000E+00  0.45593999997E+02  0.45594000000E+02  0.51100000000E-03 0.  1.
         11   -1    0    0    0    0 -0.00000000000E+00 -0.00000000000E+00 -0.45593999997E+02  0.45594000000E+02  0.51100000000E-03 0. -1.
    9900012    2    1    2    0    0 -0.28017773905E+01  0.17597082630E+02  0.26442627383E+02  0.59301955771E+02  0.50000021417E+02 0.  0.
         12    1    1    2    0    0  0.28017773905E+01 -0.17597082630E+02 -0.26442627383E+02  0.31886044229E+02  0.00000000000E+00 0. -1.
         11    1    3    3    0    0 -0.40192163929E+01  0.11758259319E+02 -0.33223567816E+01  0.12862690911E+02  0.51100000000E-03 0. -1.
        -11    1    3    3    0    0 -0.16016963115E+00  0.25413420990E-01 -0.81021273917E+01  0.81037502852E+01  0.51100000000E-03 0.  1.
        -12    1    3    3    0    0  0.13776086336E+01  0.58134098904E+01  0.37867111557E+02  0.38335514575E+02  0.00000000000E+00 0.  1.
</event>
<event>
 7    1  0.6316620E-012  0.5930195E+02  0.7816164E-02  0.1266605E+00
        -11   -1    0    0    0    0  0.00000000000E+00  0.00000000000E+00  0.45593999997E+02  0.45594000000E+02  0.51100000000E-03 0.  1.
         11   -1    0    0    0    0 -0.00000000000E+00 -0.00000000000E+00 -0.45593999997E+02  0.45594000000E+02  0.51100000000E-03 0. -1.
    9900012    2    1    2    0    0  0.77354150119E+01  0.16421033939E+02  0.26215134913E+02  0.59301948198E+02  0.50000007605E+02 0.  0.
         12    1    1    2    0    0 -0.77354150119E+01 -0.16421033939E+02 -0.26215134913E+02  0.31886051802E+02  0.00000000000E+00 0. -1.
         11    1    3    3    0    0  0.15915182371E+02  0.72945924734E+01  0.34068521249E+02  0.38303632329E+02  0.51100000000E-03 0. -1.
        -11    1    3    3    0    0  0.17300651205E+01 -0.31585907015E+01 -0.22652050434E+01  0.42545240263E+01  0.51100000000E-03 0.  1.
        -12    1    3    3    0    0 -0.99098324795E+01  0.12285032167E+02 -0.55881812922E+01  0.16743791843E+02  0.00000000000E+00 0.  1.
</event>
<event>
 7    1  0.6316620E-012  0.5930195E+02  0.7816164E-02  0.1266605E+00
        -11   -1    0    0    0    0  0.00000000000E+00  0.00000000000E+00  0.45593999997E+02  0.45594000000E+02  0.51100000000E-03 0. -1.
         11   -1    0    0    0    0 -0.00000000000E+00 -0.00000000000E+00 -0.45593999997E+02  0.45594000000E+02  0.51100000000E-03 0.  1.
    9900012    2    1    2    0    0  0.26206883276E+02  0.18106667779E+02 -0.14381761485E+01  0.59301945059E+02  0.50000001880E+02 0.  0.
         12    1    1    2    0    0 -0.26206883276E+02 -0.18106667779E+02  0.14381761485E+01  0.31886054941E+02  0.00000000000E+00 0. -1.
         11    1    3    3    0    0 -0.68068669429E+01 -0.10091846429E+02 -0.62851444843E+01  0.13699702310E+02  0.51100000000E-03 0. -1.
        -11    1    3    3    0    0  0.43442734887E+01  0.81608691863E+01 -0.30665188736E+01  0.97404330645E+01  0.51100000000E-03 0.  1.
        -12    1    3    3    0    0  0.28669476730E+02  0.20037645022E+02  0.79134872094E+01  0.35861809684E+02  0.00000000000E+00 0.  1.
</event>
<event>
 7    1  0.6316620E-012  0.5930194E+02  0.7816164E-02  0.1266605E+00
        -11   -1    0    0    0    0  0.00000000000E+00  0.00000000000E+00  0.45593999997E+02  0.45594000000E+02  0.51100000000E-03 0.  1.
         11   -1    0    0    0    0 -0.00000000000E+00 -0.00000000000E+00 -0.45593999997E+02  0.45594000000E+02  0.51100000000E-03 0. -1.
    9900012    2    1    2    0    0  0.15936581284E+02 -0.30285302369E+01  0.27451306981E+02  0.59301939199E+02  0.49999991193E+02 0.  0.
         12    1    1    2    0    0 -0.15936581284E+02  0.30285302369E+01 -0.27451306981E+02  0.31886060801E+02  0.00000000000E+00 0. -1.
         11    1    3    3    0    0  0.12261641871E+01  0.95087066267E+01 -0.16146790489E+01  0.97224569435E+01  0.51100000000E-03 0. -1.
        -11    1    3    3    0    0  0.12876820679E+02 -0.28897436887E+01  0.35476840449E+02  0.37851939684E+02  0.51100000000E-03 0.  1.
         12    1    3    3    0    0  0.18335964188E+01 -0.96474931749E+01 -0.64108544185E+01  0.11727542571E+02  0.00000000000E+00 0. -1.
</event>
<event>
 7    1  0.6316620E-012  0.5930191E+02  0.7816164E-02  0.1266605E+00
        -11   -1    0    0    0    0  0.00000000000E+00  0.00000000000E+00  0.45593999997E+02  0.45594000000E+02  0.51100000000E-03 0.  1.
         11   -1    0    0    0    0 -0.00000000000E+00 -0.00000000000E+00 -0.45593999997E+02  0.45594000000E+02  0.51100000000E-03 0. -1.
    9900012    2    1    2    0    0 -0.16905170210E+02  0.28822855287E+00  0.27034326528E+02  0.59301911084E+02  0.49999939919E+02 0.  0.
         12    1    1    2    0    0  0.16905170210E+02 -0.28822855287E+00 -0.27034326528E+02  0.31886088916E+02  0.00000000000E+00 0. -1.
         11    1    3    3    0    0 -0.15331860910E+02 -0.28965694737E+01 -0.67533397315E+01  0.17001872587E+02  0.51100000000E-03 0. -1.
        -11    1    3    3    0    0 -0.87766035578E+01  0.15003990739E+00  0.12858956718E+01  0.88715731369E+01  0.51100000000E-03 0.  1.
        -12    1    3    3    0    0  0.72032942579E+01  0.30347581192E+01  0.32501770588E+02  0.33428465360E+02  0.00000000000E+00 0.  1.
</event>
<event>
 7    1  0.6316620E-012  0.5930192E+02  0.7816164E-02  0.1266605E+00
        -11   -1    0    0    0    0  0.00000000000E+00  0.00000000000E+00  0.45593999997E+02  0.45594000000E+02  0.51100000000E-03 0.  1.
         11   -1    0    0    0    0 -0.00000000000E+00 -0.00000000000E+00 -0.45593999997E+02  0.45594000000E+02  0.51100000000E-03 0. -1.
    9900012    2    1    2    0    0 -0.75605994318E+01  0.74520220128E+01  0.30067041022E+02  0.59301917587E+02  0.49999951778E+02 0.  0.
         12    1    1    2    0    0  0.75605994318E+01 -0.74520220128E+01 -0.30067041022E+02  0.31886082413E+02  0.00000000000E+00 0. -1.
         11    1    3    3    0    0  0.10275912755E+02  0.18760638362E+02  0.27640097568E+01  0.21568395510E+02  0.51100000000E-03 0. -1.
        -11    1    3    3    0    0 -0.69971845476E+01  0.47889265773E+00  0.12081170369E+01  0.71168445822E+01  0.51100000000E-03 0.  1.
         12    1    3    3    0    0 -0.10839327639E+02 -0.11787509006E+02  0.26094914228E+02  0.30616677495E+02  0.00000000000E+00 0. -1.
</event>
<event>
 7    1  0.6316620E-012  0.5930196E+02  0.7816164E-02  0.1266605E+00
        -11   -1    0    0    0    0  0.00000000000E+00  0.00000000000E+00  0.45593999997E+02  0.45594000000E+02  0.51100000000E-03 0. -1.
         11   -1    0    0    0    0 -0.00000000000E+00 -0.00000000000E+00 -0.45593999997E+02  0.45594000000E+02  0.51100000000E-03 0.  1.
    9900012    2    1    2    0    0  0.29032288188E+02 -0.16807261845E+01 -0.13077507406E+02  0.59301956064E+02  0.50000021951E+02 0.  0.
         12    1    1    2    0    0 -0.29032288188E+02  0.16807261845E+01  0.13077507406E+02  0.31886043936E+02  0.00000000000E+00 0. -1.
         11    1    3    3    0    0  0.60976873258E+01  0.13919539332E+01 -0.10060706815E+02  0.11846398117E+02  0.51100000000E-03 0. -1.
        -11    1    3    3    0    0 -0.83324896002E+00  0.16264570798E+02  0.19958656734E+01  0.16407743511E+02  0.51100000000E-03 0.  1.
         12    1    3    3    0    0  0.23767849822E+02 -0.19337250916E+02 -0.50126662649E+01  0.31047814436E+02  0.00000000000E+00 0. -1.
</event>
<event>
 7    1  0.6316620E-012  0.5930194E+02  0.7816164E-02  0.1266605E+00
        -11   -1    0    0    0    0  0.00000000000E+00  0.00000000000E+00  0.45593999997E+02  0.45594000000E+02  0.51100000000E-03 0. -1.
         11   -1    0    0    0    0 -0.00000000000E+00 -0.00000000000E+00 -0.45593999997E+02  0.45594000000E+02  0.51100000000E-03 0.  1.
    9900012    2    1    2    0    0  0.16295137481E+02  0.85840975510E+01 -0.26028881588E+02  0.59301938578E+02  0.49999990061E+02 0.  0.
         12    1    1    2    0    0 -0.16295137481E+02 -0.85840975510E+01  0.26028881588E+02  0.31886061422E+02  0.00000000000E+00 0. -1.
         11    1    3    3    0    0  0.83533478400E+01  0.20182567551E+02 -0.62413499913E+01  0.22717149976E+02  0.51100000000E-03 0. -1.
        -11    1    3    3    0    0  0.11410671063E+02 -0.63014081454E+01  0.26235611412E+01  0.13296399213E+02  0.51100000000E-03 0.  1.
        -12    1    3    3    0    0 -0.34688814218E+01 -0.52970618542E+01 -0.22411092738E+02  0.23288389389E+02  0.00000000000E+00 0.  1.
</event>
<event>
 7    1  0.6316620E-012  0.5930190E+02  0.7816164E-02  0.1266605E+00
        -11   -1    0    0    0    0  0.00000000000E+00  0.00000000000E+00  0.45593999997E+02  0.45594000000E+02  0.51100000000E-03 0. -1.
         11   -1    0    0    0    0 -0.00000000000E+00 -0.00000000000E+00 -0.45593999997E+02  0.45594000000E+02  0.51100000000E-03 0.  1.
    9900012    2    1    2    0    0 -0.18121299704E+02  0.26232320256E+02  0.45545423490E+00  0.59301896953E+02  0.49999914147E+02 0.  0.
         12    1    1    2    0    0  0.18121299704E+02 -0.26232320256E+02 -0.45545423490E+00  0.31886103047E+02  0.00000000000E+00 0. -1.
         11    1    3    3    0    0  0.36453560651E+01  0.32618081737E+01  0.40645796267E+01  0.63599387738E+01  0.51100000000E-03 0. -1.
        -11    1    3    3    0    0  0.92761460647E+00 -0.89046829901E+01 -0.98587887316E+01  0.13317265618E+02  0.51100000000E-03 0.  1.
        -12    1    3    3    0    0 -0.22694270375E+02  0.31875195072E+02  0.62496633398E+01  0.39624692562E+02  0.00000000000E+00 0.  1.
</event>
<event>
 7    1  0.6316620E-012  0.5930194E+02  0.7816164E-02  0.1266605E+00
        -11   -1    0    0    0    0  0.00000000000E+00  0.00000000000E+00  0.45593999997E+02  0.45594000000E+02  0.51100000000E-03 0. -1.
         11   -1    0    0    0    0 -0.00000000000E+00 -0.00000000000E+00 -0.45593999997E+02  0.45594000000E+02  0.51100000000E-03 0.  1.
    9900012    2    1    2    0    0  0.29517632268E+02  0.10274764488E+02 -0.63134129367E+01  0.59301943754E+02  0.49999999501E+02 0.  0.
         12    1    1    2    0    0 -0.29517632268E+02 -0.10274764488E+02  0.63134129367E+01  0.31886056246E+02  0.00000000000E+00 0. -1.
         11    1    3    3    0    0 -0.37338849368E+01 -0.10145213452E+02 -0.10292790336E+02  0.14926780827E+02  0.51100000000E-03 0. -1.
        -11    1    3    3    0    0  0.15846891664E+02 -0.11300486142E+00  0.69312612915E+01  0.17296795335E+02  0.51100000000E-03 0.  1.
        -12    1    3    3    0    0  0.17404625541E+02  0.20532982801E+02 -0.29518838926E+01  0.27078367592E+02  0.00000000000E+00 0.  1.
</event>
<event>
 7    1  0.6316620E-012  0.5930194E+02  0.7816164E-02  0.1266605E+00
        -11   -1    0    0    0    0  0.00000000000E+00  0.00000000000E+00  0.45593999997E+02  0.45594000000E+02  0.51100000000E-03 0. -1.
         11   -1    0    0    0    0 -0.00000000000E+00 -0.00000000000E+00 -0.45593999997E+02  0.45594000000E+02  0.51100000000E-03 0.  1.
    9900012    2    1    2    0    0 -0.24235527010E+02  0.14461697283E+02 -0.14839797305E+02  0.59301936558E+02  0.49999986377E+02 0.  0.
         12    1    1    2    0    0  0.24235527010E+02 -0.14461697283E+02  0.14839797305E+02  0.31886063442E+02  0.00000000000E+00 0. -1.
         11    1    3    3    0    0 -0.54948189697E+01  0.93199572465E+00 -0.16021200269E+02  0.16962915724E+02  0.51100000000E-03 0. -1.
        -11    1    3    3    0    0  0.49185865385E+01  0.95486240223E+00 -0.11612812417E+02  0.12647595354E+02  0.51100000000E-03 0.  1.
        -12    1    3    3    0    0 -0.23659294579E+02  0.12574839157E+02  0.12794215381E+02  0.29691425479E+02  0.00000000000E+00 0.  1.
</event>
<event>
 7    1  0.6316620E-012  0.5930194E+02  0.7816164E-02  0.1266605E+00
        -11   -1    0    0    0    0  0.00000000000E+00  0.00000000000E+00  0.45593999997E+02  0.45594000000E+02  0.51100000000E-03 0.  1.
         11   -1    0    0    0    0 -0.00000000000E+00 -0.00000000000E+00 -0.45593999997E+02  0.45594000000E+02  0.51100000000E-03 0. -1.
    9900012    2    1    2    0    0 -0.21574549765E+02 -0.20670801571E+02  0.11134514919E+02  0.59301942583E+02  0.49999997364E+02 0.  0.
         12    1    1    2    0    0  0.21574549765E+02  0.20670801571E+02 -0.11134514919E+02  0.31886057417E+02  0.00000000000E+00 0. -1.
         11    1    3    3    0    0 -0.45499813714E+01 -0.70438209011E+01 -0.23261296875E+01  0.87022194267E+01  0.51100000000E-03 0. -1.
        -11    1    3    3    0    0  0.55644572902E+01 -0.22777414540E+02  0.16185597663E+01  0.23503053717E+02  0.51100000000E-03 0.  1.
        -12    1    3    3    0    0 -0.22589025683E+02  0.91504338693E+01  0.11842084840E+02  0.27096669439E+02  0.00000000000E+00 0.  1.
</event>
<event>
 7    1  0.6316620E-012  0.5930194E+02  0.7816164E-02  0.1266605E+00
        -11   -1    0    0    0    0  0.00000000000E+00  0.00000000000E+00  0.45593999997E+02  0.45594000000E+02  0.51100000000E-03 0.  1.
         11   -1    0    0    0    0 -0.00000000000E+00 -0.00000000000E+00 -0.45593999997E+02  0.45594000000E+02  0.51100000000E-03 0. -1.
    9900012    2    1    2    0    0  0.92688260021E+01  0.30506573237E+02 -0.39846475168E+00  0.59301938464E+02  0.49999989853E+02 0.  0.
         12    1    1    2    0    0 -0.92688260021E+01 -0.30506573237E+02  0.39846475168E+00  0.31886061536E+02  0.00000000000E+00 0. -1.
         11    1    3    3    0    0 -0.76852446122E+01  0.91387869283E+00 -0.56963536261E+01  0.96097140389E+01  0.51100000000E-03 0. -1.
        -11    1    3    3    0    0  0.79061780261E+01 -0.76233703458E+01 -0.28950439652E+00  0.10986684644E+02  0.51100000000E-03 0.  1.
        -12    1    3    3    0    0  0.90478925882E+01  0.37216064890E+02  0.55873932709E+01  0.38705539781E+02  0.00000000000E+00 0.  1.
</event>
<event>
 7    1  0.6316620E-012  0.5930193E+02  0.7816164E-02  0.1266605E+00
        -11   -1    0    0    0    0  0.00000000000E+00  0.00000000000E+00  0.45593999997E+02  0.45594000000E+02  0.51100000000E-03 0.  1.
         11   -1    0    0    0    0 -0.00000000000E+00 -0.00000000000E+00 -0.45593999997E+02  0.45594000000E+02  0.51100000000E-03 0. -1.
    9900012    2    1    2    0    0  0.23266647544E+02 -0.10206627675E+02  0.19266801068E+02  0.59301925299E+02  0.49999965844E+02 0.  0.
         12    1    1    2    0    0 -0.23266647544E+02  0.10206627675E+02 -0.19266801068E+02  0.31886074701E+02  0.00000000000E+00 0. -1.
         11    1    3    3    0    0 -0.15945101837E+01 -0.99996096197E+01 -0.44027320705E+01  0.11041680362E+02  0.51100000000E-03 0. -1.
        -11    1    3    3    0    0 -0.34448821292E+01  0.47976979917E+01  0.18022626794E+02  0.18965763779E+02  0.51100000000E-03 0.  1.
        -12    1    3    3    0    0  0.28306039857E+02 -0.50047160475E+01  0.56469063449E+01  0.29294481158E+02  0.00000000000E+00 0.  1.
</event>
<event>
 7    1  0.6316620E-012  0.5930194E+02  0.7816164E-02  0.1266605E+00
        -11   -1    0    0    0    0  0.00000000000E+00  0.00000000000E+00  0.45593999997E+02  0.45594000000E+02  0.51100000000E-03 0.  1.
         11   -1    0    0    0    0 -0.00000000000E+00 -0.00000000000E+00 -0.45593999997E+02  0.45594000000E+02  0.51100000000E-03 0. -1.
    9900012    2    1    2    0    0 -0.31706920275E+02 -0.36152126912E+00  0.33557927192E+01  0.59301939790E+02  0.49999992271E+02 0.  0.
         12    1    1    2    0    0  0.31706920275E+02  0.36152126912E+00 -0.33557927192E+01  0.31886060210E+02  0.00000000000E+00 0. -1.
         11    1    3    3    0    0 -0.71223058282E+01  0.13011945317E+02  0.19739042014E+02  0.24691450770E+02  0.51100000000E-03 0.  1.
        -11    1    3    3    0    0 -0.13776190410E+02 -0.67070311591E+00 -0.68586192413E+01  0.15403698355E+02  0.51100000000E-03 0. -1.
        -12    1    3    3    0    0 -0.10808424037E+02 -0.12702763470E+02 -0.95246300539E+01  0.19206790664E+02  0.00000000000E+00 0.  1.
</event>
<event>
 7    1  0.6316620E-012  0.5930193E+02  0.7816164E-02  0.1266605E+00
        -11   -1    0    0    0    0  0.00000000000E+00  0.00000000000E+00  0.45593999997E+02  0.45594000000E+02  0.51100000000E-03 0.  1.
         11   -1    0    0    0    0 -0.00000000000E+00 -0.00000000000E+00 -0.45593999997E+02  0.45594000000E+02  0.51100000000E-03 0. -1.
    9900012    2    1    2    0    0 -0.77566486689E+01  0.55884505136E+01  0.30419157761E+02  0.59301928799E+02  0.49999972227E+02 0.  0.
         12    1    1    2    0    0  0.77566486689E+01 -0.55884505136E+01 -0.30419157761E+02  0.31886071201E+02  0.00000000000E+00 0. -1.
         11    1    3    3    0    0  0.66473479600E+01 -0.12466819390E+02  0.28286733282E+01  0.14408685355E+02  0.51100000000E-03 0. -1.
        -11    1    3    3    0    0 -0.14573310006E+02 -0.44592293586E+00  0.44064554025E+01  0.15231449743E+02  0.51100000000E-03 0.  1.
        -12    1    3    3    0    0  0.16931337704E+00  0.18501192840E+02  0.23184029030E+02  0.29661793701E+02  0.00000000000E+00 0.  1.
</event>
<event>
 7    1  0.6316620E-012  0.5930195E+02  0.7816164E-02  0.1266605E+00
        -11   -1    0    0    0    0  0.00000000000E+00  0.00000000000E+00  0.45593999997E+02  0.45594000000E+02  0.51100000000E-03 0.  1.
         11   -1    0    0    0    0 -0.00000000000E+00 -0.00000000000E+00 -0.45593999997E+02  0.45594000000E+02  0.51100000000E-03 0. -1.
    9900012    2    1    2    0    0  0.25992245768E+01  0.28750699868E+02  0.13541105148E+02  0.59301949133E+02  0.50000009311E+02 0.  0.
         12    1    1    2    0    0 -0.25992245768E+01 -0.28750699868E+02 -0.13541105148E+02  0.31886050867E+02  0.00000000000E+00 0. -1.
         11    1    3    3    0    0 -0.60009303040E+00 -0.80884389098E+01 -0.30649459247E+01  0.86704584322E+01  0.51100000000E-03 0. -1.
        -11    1    3    3    0    0 -0.38151579154E+01  0.25319659323E+02 -0.40886222505E+01  0.25929855579E+02  0.51100000000E-03 0.  1.
         12    1    3    3    0    0  0.70144755226E+01  0.11519479454E+02  0.20694673323E+02  0.24701635122E+02  0.00000000000E+00 0. -1.
</event>
<event>
 7    1  0.6316620E-012  0.5930198E+02  0.7816164E-02  0.1266605E+00
        -11   -1    0    0    0    0  0.00000000000E+00  0.00000000000E+00  0.45593999997E+02  0.45594000000E+02  0.51100000000E-03 0.  1.
         11   -1    0    0    0    0 -0.00000000000E+00 -0.00000000000E+00 -0.45593999997E+02  0.45594000000E+02  0.51100000000E-03 0. -1.
    9900012    2    1    2    0    0 -0.27261143746E+02 -0.68781516076E+01  0.15041247294E+02  0.59301983503E+02  0.50000071993E+02 0.  0.
         12    1    1    2    0    0  0.27261143746E+02  0.68781516076E+01 -0.15041247294E+02  0.31886016497E+02  0.00000000000E+00 0. -1.
         11    1    3    3    0    0 -0.68799185015E+01  0.17843565408E+02  0.16620179563E+02  0.25336859987E+02  0.51100000000E-03 0.  1.
        -11    1    3    3    0    0 -0.12412975207E+02 -0.89330268301E+01  0.32448220348E+01  0.15633610975E+02  0.51100000000E-03 0. -1.
        -12    1    3    3    0    0 -0.79682500380E+01 -0.15788690185E+02 -0.48237543043E+01  0.18331512540E+02  0.00000000000E+00 0.  1.
</event>
<event>
 7    1  0.6316620E-012  0.5930194E+02  0.7816164E-02  0.1266605E+00
        -11   -1    0    0    0    0  0.00000000000E+00  0.00000000000E+00  0.45593999997E+02  0.45594000000E+02  0.51100000000E-03 0.  1.
         11   -1    0    0    0    0 -0.00000000000E+00 -0.00000000000E+00 -0.45593999997E+02  0.45594000000E+02  0.51100000000E-03 0. -1.
    9900012    2    1    2    0    0  0.81734285468E+01  0.13870984823E+02  0.27522924691E+02  0.59301944463E+02  0.50000000794E+02 0.  0.
         12    1    1    2    0    0 -0.81734285468E+01 -0.13870984823E+02 -0.27522924691E+02  0.31886055537E+02  0.00000000000E+00 0. -1.
         11    1    3    3    0    0 -0.12903914095E+02 -0.23420259739E+01 -0.50847387487E+01  0.14065939465E+02  0.51100000000E-03 0. -1.
        -11    1    3    3    0    0  0.26803241262E+00 -0.26626447565E+01  0.79104170074E+00  0.27905672733E+01  0.51100000000E-03 0.  1.
        -12    1    3    3    0    0  0.20809310229E+02  0.18875655553E+02  0.31816621739E+02  0.42445437725E+02  0.00000000000E+00 0.  1.
</event>
<event>
 7    1  0.6316620E-012  0.5930196E+02  0.7816164E-02  0.1266605E+00
        -11   -1    0    0    0    0  0.00000000000E+00  0.00000000000E+00  0.45593999997E+02  0.45594000000E+02  0.51100000000E-03 0. -1.
         11   -1    0    0    0    0 -0.00000000000E+00 -0.00000000000E+00 -0.45593999997E+02  0.45594000000E+02  0.51100000000E-03 0.  1.
    9900012    2    1    2    0    0  0.12403175077E+02  0.23845761265E+02 -0.17154024228E+02  0.59301958704E+02  0.50000026766E+02 0.  0.
         12    1    1    2    0    0 -0.12403175077E+02 -0.23845761265E+02  0.17154024228E+02  0.31886041296E+02  0.00000000000E+00 0. -1.
         11    1    3    3    0    0 -0.14795923256E+00 -0.14692728565E+01  0.54700489931E+01  0.56658707106E+01  0.51100000000E-03 0. -1.
        -11    1    3    3    0    0  0.13742306368E+02 -0.61374793895E+01 -0.15003872223E+02  0.21251725095E+02  0.51100000000E-03 0.  1.
        -12    1    3    3    0    0 -0.11911720587E+01  0.31452513511E+02 -0.76202009984E+01  0.32384362898E+02  0.00000000000E+00 0.  1.
</event>
<event>
 7    1  0.6316620E-012  0.5930195E+02  0.7816164E-02  0.1266605E+00
        -11   -1    0    0    0    0  0.00000000000E+00  0.00000000000E+00  0.45593999997E+02  0.45594000000E+02  0.51100000000E-03 0.  1.
         11   -1    0    0    0    0 -0.00000000000E+00 -0.00000000000E+00 -0.45593999997E+02  0.45594000000E+02  0.51100000000E-03 0. -1.
    9900012    2    1    2    0    0 -0.23767114157E+01  0.21085919865E+00  0.31796651749E+02  0.59301948485E+02  0.50000008129E+02 0.  0.
         12    1    1    2    0    0  0.23767114157E+01 -0.21085919865E+00 -0.31796651749E+02  0.31886051515E+02  0.00000000000E+00 0. -1.
         11    1    3    3    0    0  0.88091452270E+01  0.82268343133E+01 -0.24818853523E+01  0.12306160962E+02  0.51100000000E-03 0. -1.
        -11    1    3    3    0    0  0.77152004984E+01  0.20161253753E+01  0.19281091300E+02  0.20865032045E+02  0.51100000000E-03 0.  1.
         12    1    3    3    0    0 -0.18901057141E+02 -0.10032100490E+02  0.14997445802E+02  0.26130755478E+02  0.00000000000E+00 0. -1.
</event>
<event>
 7    1  0.6316620E-012  0.5930202E+02  0.7816164E-02  0.1266605E+00
        -11   -1    0    0    0    0  0.00000000000E+00  0.00000000000E+00  0.45593999997E+02  0.45594000000E+02  0.51100000000E-03 0. -1.
         11   -1    0    0    0    0 -0.00000000000E+00 -0.00000000000E+00 -0.45593999997E+02  0.45594000000E+02  0.51100000000E-03 0.  1.
    9900012    2    1    2    0    0 -0.13428912354E+01 -0.23355787394E+02 -0.21666099666E+02  0.59302015047E+02  0.50000129522E+02 0.  0.
         12    1    1    2    0    0  0.13428912354E+01  0.23355787394E+02  0.21666099666E+02  0.31885984953E+02  0.00000000000E+00 0. -1.
         11    1    3    3    0    0 -0.14152273116E+02  0.13439073270E+01 -0.76436241378E+01  0.16140567260E+02  0.51100000000E-03 0.  1.
        -11    1    3    3    0    0 -0.27890683327E+01  0.38103813088E+01  0.38322359525E+01  0.60814423075E+01  0.51100000000E-03 0. -1.
        -12    1    3    3    0    0  0.15598450213E+02 -0.28510076030E+02 -0.17854711481E+02  0.37080005480E+02  0.00000000000E+00 0.  1.
</event>
<event>
 7    1  0.6316620E-012  0.5930197E+02  0.7816164E-02  0.1266605E+00
        -11   -1    0    0    0    0  0.00000000000E+00  0.00000000000E+00  0.45593999997E+02  0.45594000000E+02  0.51100000000E-03 0. -1.
         11   -1    0    0    0    0 -0.00000000000E+00 -0.00000000000E+00 -0.45593999997E+02  0.45594000000E+02  0.51100000000E-03 0.  1.
    9900012    2    1    2    0    0  0.87762115986E+01  0.24825628998E+02 -0.17982915374E+02  0.59301968725E+02  0.50000045041E+02 0.  0.
         12    1    1    2    0    0 -0.87762115986E+01 -0.24825628998E+02  0.17982915374E+02  0.31886031275E+02  0.00000000000E+00 0. -1.
         11    1    3    3    0    0 -0.11234259250E+02 -0.25153198631E+01 -0.23905492882E+01  0.11757982015E+02  0.51100000000E-03 0. -1.
        -11    1    3    3    0    0  0.11539319592E+02 -0.12201458028E+01  0.35483378390E+01  0.12134057611E+02  0.51100000000E-03 0.  1.
        -12    1    3    3    0    0  0.84711512571E+01  0.28561094664E+02 -0.19140703925E+02  0.35409929098E+02  0.00000000000E+00 0.  1.
</event>
<event>
 7    1  0.6316620E-012  0.5930216E+02  0.7816164E-02  0.1266604E+00
        -11   -1    0    0    0    0  0.00000000000E+00  0.00000000000E+00  0.45593999997E+02  0.45594000000E+02  0.51100000000E-03 0.  1.
         11   -1    0    0    0    0 -0.00000000000E+00 -0.00000000000E+00 -0.45593999997E+02  0.45594000000E+02  0.51100000000E-03 0. -1.
    9900012    2    1    2    0    0 -0.16601890569E+02  0.21574225178E+02  0.16602317874E+02  0.59302157981E+02  0.50000390199E+02 0.  0.
         12    1    1    2    0    0  0.16601890569E+02 -0.21574225178E+02 -0.16602317874E+02  0.31885842019E+02  0.00000000000E+00 0. -1.
         11    1    3    3    0    0  0.10077379289E+02  0.23249269009E+02  0.36078209457E+01  0.25594891190E+02  0.51100000000E-03 0. -1.
        -11    1    3    3    0    0 -0.29899978717E+01  0.37799468180E+01  0.72876402936E+01  0.87371497944E+01  0.51100000000E-03 0.  1.
         12    1    3    3    0    0 -0.23689271986E+02 -0.54549906492E+01  0.57068566343E+01  0.24970116997E+02  0.00000000000E+00 0. -1.
</event>
<event>
 7    1  0.6316620E-012  0.5930192E+02  0.7816164E-02  0.1266605E+00
        -11   -1    0    0    0    0  0.00000000000E+00  0.00000000000E+00  0.45593999997E+02  0.45594000000E+02  0.51100000000E-03 0. -1.
         11   -1    0    0    0    0 -0.00000000000E+00 -0.00000000000E+00 -0.45593999997E+02  0.45594000000E+02  0.51100000000E-03 0.  1.
    9900012    2    1    2    0    0  0.25323125900E+02  0.18823165822E+02  0.45988832045E+01  0.59301921476E+02  0.49999958871E+02 0.  0.
         12    1    1    2    0    0 -0.25323125900E+02 -0.18823165822E+02 -0.45988832045E+01  0.31886078524E+02  0.00000000000E+00 0. -1.
         11    1    3    3    0    0  0.15325113001E+02  0.17506933631E+02  0.17961806517E+02  0.29393507910E+02  0.51100000000E-03 0. -1.
        -11    1    3    3    0    0  0.11631702974E+02  0.19677680398E+01  0.39999740539E+01  0.12456661585E+02  0.51100000000E-03 0.  1.
        -12    1    3    3    0    0 -0.16336900749E+01 -0.65153584894E+00 -0.17362897367E+02  0.17451751981E+02  0.00000000000E+00 0.  1.
</event>
<event>
 7    1  0.6316620E-012  0.5930195E+02  0.7816164E-02  0.1266605E+00
        -11   -1    0    0    0    0  0.00000000000E+00  0.00000000000E+00  0.45593999997E+02  0.45594000000E+02  0.51100000000E-03 0.  1.
         11   -1    0    0    0    0 -0.00000000000E+00 -0.00000000000E+00 -0.45593999997E+02  0.45594000000E+02  0.51100000000E-03 0. -1.
    9900012    2    1    2    0    0  0.27306855525E+02 -0.13903310520E+02  0.88178100338E+01  0.59301950137E+02  0.50000011142E+02 0.  0.
         12    1    1    2    0    0 -0.27306855525E+02  0.13903310520E+02 -0.88178100338E+01  0.31886049863E+02  0.00000000000E+00 0. -1.
         11    1    3    3    0    0 -0.26835208465E+01 -0.18258533387E+02  0.47625814133E+01  0.19059315506E+02  0.51100000000E-03 0. -1.
        -11    1    3    3    0    0  0.22460563241E+02 -0.88798105433E+01 -0.10707422425E+01  0.24175905890E+02  0.51100000000E-03 0.  1.
         12    1    3    3    0    0  0.75298131305E+01  0.13235033411E+02  0.51259708630E+01  0.16066728741E+02  0.00000000000E+00 0. -1.
</event>
<event>
 7    1  0.6316620E-012  0.5930190E+02  0.7816164E-02  0.1266605E+00
        -11   -1    0    0    0    0  0.00000000000E+00  0.00000000000E+00  0.45593999997E+02  0.45594000000E+02  0.51100000000E-03 0. -1.
         11   -1    0    0    0    0 -0.00000000000E+00 -0.00000000000E+00 -0.45593999997E+02  0.45594000000E+02  0.51100000000E-03 0.  1.
    9900012    2    1    2    0    0 -0.46404663168E+01 -0.16092183846E+02 -0.27133580104E+02  0.59301898359E+02  0.49999916711E+02 0.  0.
         12    1    1    2    0    0  0.46404663168E+01  0.16092183846E+02  0.27133580104E+02  0.31886101641E+02  0.00000000000E+00 0. -1.
         11    1    3    3    0    0  0.18942893104E+02 -0.10995972136E+02 -0.73369971601E+01  0.23099266871E+02  0.51100000000E-03 0. -1.
        -11    1    3    3    0    0 -0.61739922692E+01 -0.19158330614E+01 -0.17125190767E+02  0.18304664868E+02  0.51100000000E-03 0.  1.
        -12    1    3    3    0    0 -0.17409367152E+02 -0.31803786495E+01 -0.26713921769E+01  0.17897966621E+02  0.00000000000E+00 0.  1.
</event>
<event>
 7    1  0.6316620E-012  0.5930193E+02  0.7816164E-02  0.1266605E+00
        -11   -1    0    0    0    0  0.00000000000E+00  0.00000000000E+00  0.45593999997E+02  0.45594000000E+02  0.51100000000E-03 0. -1.
         11   -1    0    0    0    0 -0.00000000000E+00 -0.00000000000E+00 -0.45593999997E+02  0.45594000000E+02  0.51100000000E-03 0.  1.
    9900012    2    1    2    0    0 -0.43237473803E+01  0.24973262025E+02  0.19348454953E+02  0.59301932248E+02  0.49999978517E+02 0.  0.
         12    1    1    2    0    0  0.43237473803E+01 -0.24973262025E+02 -0.19348454953E+02  0.31886067752E+02  0.00000000000E+00 0. -1.
         11    1    3    3    0    0  0.36410506407E+01 -0.24357548440E+01  0.38929796727E+01  0.58604984789E+01  0.51100000000E-03 0. -1.
        -11    1    3    3    0    0  0.40761988573E+01  0.26764072766E+02  0.25916466221E+02  0.37477916295E+02  0.51100000000E-03 0.  1.
        -12    1    3    3    0    0 -0.12040996878E+02  0.64494410283E+00 -0.10460990940E+02  0.15963517475E+02  0.00000000000E+00 0.  1.
</event>
<event>
 7    1  0.6316620E-012  0.5930202E+02  0.7816164E-02  0.1266604E+00
        -11   -1    0    0    0    0  0.00000000000E+00  0.00000000000E+00  0.45593999997E+02  0.45594000000E+02  0.51100000000E-03 0. -1.
         11   -1    0    0    0    0 -0.00000000000E+00 -0.00000000000E+00 -0.45593999997E+02  0.45594000000E+02  0.51100000000E-03 0.  1.
    9900012    2    1    2    0    0 -0.33358437712E+00 -0.15527218474E+02 -0.27847973456E+02  0.59302024749E+02  0.50000147216E+02 0.  0.
         12    1    1    2    0    0  0.33358437712E+00  0.15527218474E+02  0.27847973456E+02  0.31885975251E+02  0.00000000000E+00 0. -1.
         11    1    3    3    0    0 -0.12666958049E+02 -0.14376050190E+01  0.10502655996E+01  0.12791465612E+02  0.51100000000E-03 0. -1.
        -11    1    3    3    0    0 -0.47304728475E+00  0.24600738309E+01 -0.25121987634E+02  0.25246583926E+02  0.51100000000E-03 0.  1.
        -12    1    3    3    0    0  0.12806420957E+02 -0.16549687286E+02 -0.37762514221E+01  0.21263975211E+02  0.00000000000E+00 0.  1.
</event>
<event>
 7    1  0.6316620E-012  0.5930194E+02  0.7816164E-02  0.1266605E+00
        -11   -1    0    0    0    0  0.00000000000E+00  0.00000000000E+00  0.45593999997E+02  0.45594000000E+02  0.51100000000E-03 0.  1.
         11   -1    0    0    0    0 -0.00000000000E+00 -0.00000000000E+00 -0.45593999997E+02  0.45594000000E+02  0.51100000000E-03 0. -1.
    9900012    2    1    2    0    0 -0.45282548340E+01  0.14904660116E+02  0.27822062172E+02  0.59301935199E+02  0.49999983898E+02 0.  0.
         12    1    1    2    0    0  0.45282548340E+01 -0.14904660116E+02 -0.27822062172E+02  0.31886064801E+02  0.00000000000E+00 0. -1.
         11    1    3    3    0    0 -0.80626231526E+01 -0.28917090435E+01  0.15242391960E+02  0.17484232503E+02  0.51100000000E-03 0. -1.
        -11    1    3    3    0    0 -0.79530244670E+01 -0.36284804194E+01  0.15026971644E+02  0.17384658334E+02  0.51100000000E-03 0.  1.
        -12    1    3    3    0    0  0.11487392786E+02  0.21424849579E+02 -0.24473014326E+01  0.24433044362E+02  0.00000000000E+00 0.  1.
</event>
<event>
 7    1  0.6316620E-012  0.5930196E+02  0.7816164E-02  0.1266605E+00
        -11   -1    0    0    0    0  0.00000000000E+00  0.00000000000E+00  0.45593999997E+02  0.45594000000E+02  0.51100000000E-03 0.  1.
         11   -1    0    0    0    0 -0.00000000000E+00 -0.00000000000E+00 -0.45593999997E+02  0.45594000000E+02  0.51100000000E-03 0. -1.
    9900012    2    1    2    0    0  0.14366299008E+01  0.13531000452E+02  0.28836919985E+02  0.59301955515E+02  0.50000020949E+02 0.  0.
         12    1    1    2    0    0 -0.14366299008E+01 -0.13531000452E+02 -0.28836919985E+02  0.31886044485E+02  0.00000000000E+00 0. -1.
         11    1    3    3    0    0  0.88705258671E+01  0.54300653232E+01  0.24904163160E+02  0.26988686176E+02  0.51100000000E-03 0. -1.
        -11    1    3    3    0    0 -0.18241394590E+01  0.12707112745E+02  0.14580695989E+02  0.19426654238E+02  0.51100000000E-03 0.  1.
         12    1    3    3    0    0 -0.56097565073E+01 -0.46061776161E+01 -0.10647939164E+02  0.12886615100E+02  0.00000000000E+00 0. -1.
</event>
<event>
 7    1  0.6316620E-012  0.5930195E+02  0.7816164E-02  0.1266605E+00
        -11   -1    0    0    0    0  0.00000000000E+00  0.00000000000E+00  0.45593999997E+02  0.45594000000E+02  0.51100000000E-03 0.  1.
         11   -1    0    0    0    0 -0.00000000000E+00 -0.00000000000E+00 -0.45593999997E+02  0.45594000000E+02  0.51100000000E-03 0. -1.
    9900012    2    1    2    0    0 -0.15710226405E+01 -0.12652552974E+02  0.29226101853E+02  0.59301949156E+02  0.50000009353E+02 0.  0.
         12    1    1    2    0    0  0.15710226405E+01  0.12652552974E+02 -0.29226101853E+02  0.31886050844E+02  0.00000000000E+00 0. -1.
         11    1    3    3    0    0 -0.11612815027E+02  0.30822408999E+01  0.33064882290E+02  0.35180166613E+02  0.51100000000E-03 0.  1.
        -11    1    3    3    0    0  0.28368892640E+01 -0.30401922624E+01 -0.79373455264E+01  0.89605894871E+01  0.51100000000E-03 0. -1.
        -12    1    3    3    0    0  0.72049031227E+01 -0.12694601612E+02  0.40985650896E+01  0.15161193056E+02  0.00000000000E+00 0.  1.
</event>
<event>
 7    1  0.6316620E-012  0.5930195E+02  0.7816164E-02  0.1266605E+00
        -11   -1    0    0    0    0  0.00000000000E+00  0.00000000000E+00  0.45593999997E+02  0.45594000000E+02  0.51100000000E-03 0.  1.
         11   -1    0    0    0    0 -0.00000000000E+00 -0.00000000000E+00 -0.45593999997E+02  0.45594000000E+02  0.51100000000E-03 0. -1.
    9900012    2    1    2    0    0  0.30547664826E+02 -0.68036498318E+01  0.61049788081E+01  0.59301949075E+02  0.50000009204E+02 0.  0.
         12    1    1    2    0    0 -0.30547664826E+02  0.68036498318E+01 -0.61049788081E+01  0.31886050925E+02  0.00000000000E+00 0. -1.
         11    1    3    3    0    0  0.11952609650E+02 -0.15113884534E+02 -0.74581801632E+01  0.20662014296E+02  0.51100000000E-03 0. -1.
        -11    1    3    3    0    0 -0.52565486589E+01  0.10301934972E+02  0.10004614426E+01  0.11608707565E+02  0.51100000000E-03 0.  1.
        -12    1    3    3    0    0  0.23851603835E+02 -0.19917002705E+01  0.12562697529E+02  0.27031227214E+02  0.00000000000E+00 0.  1.
</event>
<event>
 7    1  0.6316620E-012  0.5930193E+02  0.7816164E-02  0.1266605E+00
        -11   -1    0    0    0    0  0.00000000000E+00  0.00000000000E+00  0.45593999997E+02  0.45594000000E+02  0.51100000000E-03 0.  1.
         11   -1    0    0    0    0 -0.00000000000E+00 -0.00000000000E+00 -0.45593999997E+02  0.45594000000E+02  0.51100000000E-03 0. -1.
    9900012    2    1    2    0    0  0.23726358394E+02 -0.21054234076E+02 -0.32404426966E+01  0.59301932133E+02  0.49999978307E+02 0.  0.
         12    1    1    2    0    0 -0.23726358394E+02  0.21054234076E+02  0.32404426966E+01  0.31886067867E+02  0.00000000000E+00 0. -1.
         11    1    3    3    0    0  0.30035951754E+01  0.60942409215E+01 -0.61198658265E+01  0.91440753706E+01  0.51100000000E-03 0. -1.
        -11    1    3    3    0    0  0.10225324143E+02 -0.17358298362E+02 -0.16500457049E+02  0.26040984216E+02  0.51100000000E-03 0.  1.
         12    1    3    3    0    0  0.10497439075E+02 -0.97901766353E+01  0.19379880179E+02  0.24116872546E+02  0.00000000000E+00 0. -1.
</event>
<event>
 7    1  0.6316620E-012  0.5930192E+02  0.7816164E-02  0.1266605E+00
        -11   -1    0    0    0    0  0.00000000000E+00  0.00000000000E+00  0.45593999997E+02  0.45594000000E+02  0.51100000000E-03 0. -1.
         11   -1    0    0    0    0 -0.00000000000E+00 -0.00000000000E+00 -0.45593999997E+02  0.45594000000E+02  0.51100000000E-03 0.  1.
    9900012    2    1    2    0    0 -0.92074736084E+01 -0.24829144419E+02 -0.17761139531E+02  0.59301920588E+02  0.49999957251E+02 0.  0.
         12    1    1    2    0    0  0.92074736084E+01  0.24829144419E+02  0.17761139531E+02  0.31886079412E+02  0.00000000000E+00 0. -1.
         11    1    3    3    0    0  0.76217236925E+01 -0.18039278269E+02 -0.38550032183E+01  0.19959140327E+02  0.51100000000E-03 0. -1.
        -11    1    3    3    0    0 -0.23750935725E+01 -0.17955021709E+02 -0.39348964825E+01  0.18533949515E+02  0.51100000000E-03 0.  1.
         12    1    3    3    0    0 -0.14454103728E+02  0.11165155559E+02 -0.99712398304E+01  0.20808830746E+02  0.00000000000E+00 0. -1.
</event>
<event>
 7    1  0.6316620E-012  0.5930203E+02  0.7816164E-02  0.1266604E+00
        -11   -1    0    0    0    0  0.00000000000E+00  0.00000000000E+00  0.45593999997E+02  0.45594000000E+02  0.51100000000E-03 0. -1.
         11   -1    0    0    0    0 -0.00000000000E+00 -0.00000000000E+00 -0.45593999997E+02  0.45594000000E+02  0.51100000000E-03 0.  1.
    9900012    2    1    2    0    0  0.96165581120E+01  0.86107651623E+00 -0.30389066293E+02  0.59302031411E+02  0.50000159366E+02 0.  0.
         12    1    1    2    0    0 -0.96165581120E+01 -0.86107651623E+00  0.30389066293E+02  0.31885968589E+02  0.00000000000E+00 0. -1.
         11    1    3    3    0    0 -0.15316911596E+02  0.50631180841E+01 -0.10024461416E+02  0.18992966396E+02  0.51100000000E-03 0. -1.
        -11    1    3    3    0    0  0.99372667297E+01  0.78399251763E+01 -0.16324255274E+02  0.20656597187E+02  0.51100000000E-03 0.  1.
        -12    1    3    3    0    0  0.14996202978E+02 -0.12041966744E+02 -0.40403496028E+01  0.19652467828E+02  0.00000000000E+00 0.  1.
</event>
<event>
 7    1  0.6316620E-012  0.5930199E+02  0.7816164E-02  0.1266605E+00
        -11   -1    0    0    0    0  0.00000000000E+00  0.00000000000E+00  0.45593999997E+02  0.45594000000E+02  0.51100000000E-03 0. -1.
         11   -1    0    0    0    0 -0.00000000000E+00 -0.00000000000E+00 -0.45593999997E+02  0.45594000000E+02  0.51100000000E-03 0.  1.
    9900012    2    1    2    0    0  0.16594786159E+02 -0.15598069134E+02 -0.22316613000E+02  0.59301985759E+02  0.50000076109E+02 0.  0.
         12    1    1    2    0    0 -0.16594786159E+02  0.15598069134E+02  0.22316613000E+02  0.31886014241E+02  0.00000000000E+00 0. -1.
         11    1    3    3    0    0  0.19870812755E+02 -0.85778522480E+01 -0.25399384339E+02  0.33370008597E+02  0.51100000000E-03 0. -1.
        -11    1    3    3    0    0  0.18322595958E+01  0.85315613901E+01 -0.16748115581E+01  0.88853648769E+01  0.51100000000E-03 0.  1.
         12    1    3    3    0    0 -0.51082861917E+01 -0.15551778276E+02  0.47575828977E+01  0.17046612285E+02  0.00000000000E+00 0. -1.
</event>
<event>
 7    1  0.6316620E-012  0.5930193E+02  0.7816164E-02  0.1266605E+00
        -11   -1    0    0    0    0  0.00000000000E+00  0.00000000000E+00  0.45593999997E+02  0.45594000000E+02  0.51100000000E-03 0.  1.
         11   -1    0    0    0    0 -0.00000000000E+00 -0.00000000000E+00 -0.45593999997E+02  0.45594000000E+02  0.51100000000E-03 0. -1.
    9900012    2    1    2    0    0  0.17977700911E+02 -0.17270343542E+02  0.19881114056E+02  0.59301934200E+02  0.49999982077E+02 0.  0.
         12    1    1    2    0    0 -0.17977700911E+02  0.17270343542E+02 -0.19881114056E+02  0.31886065800E+02  0.00000000000E+00 0. -1.
         11    1    3    3    0    0  0.17344386614E+02 -0.21242027783E+02  0.14671803705E+02  0.31101660978E+02  0.51100000000E-03 0. -1.
        -11    1    3    3    0    0  0.46774135460E+01  0.36839410385E+01  0.15786879954E+02  0.16872320469E+02  0.51100000000E-03 0.  1.
         12    1    3    3    0    0 -0.40440992484E+01  0.28774320298E+00 -0.10577569603E+02  0.11327952754E+02  0.00000000000E+00 0. -1.
</event>
<event>
 7    1  0.6316620E-012  0.5930192E+02  0.7816164E-02  0.1266605E+00
        -11   -1    0    0    0    0  0.00000000000E+00  0.00000000000E+00  0.45593999997E+02  0.45594000000E+02  0.51100000000E-03 0.  1.
         11   -1    0    0    0    0 -0.00000000000E+00 -0.00000000000E+00 -0.45593999997E+02  0.45594000000E+02  0.51100000000E-03 0. -1.
    9900012    2    1    2    0    0 -0.26241901292E+02  0.89894922764E+01  0.15724935772E+02  0.59301922163E+02  0.49999960124E+02 0.  0.
         12    1    1    2    0    0  0.26241901292E+02 -0.89894922764E+01 -0.15724935772E+02  0.31886077837E+02  0.00000000000E+00 0. -1.
         11    1    3    3    0    0 -0.13252964914E+02  0.36268105141E+01 -0.73100919265E+00  0.13759695063E+02  0.51100000000E-03 0. -1.
        -11    1    3    3    0    0 -0.16078337052E+02 -0.14615039399E+02  0.49606792929E+01  0.22287230386E+02  0.51100000000E-03 0.  1.
        -12    1    3    3    0    0  0.30894006743E+01  0.19977721161E+02  0.11495265672E+02  0.23254996714E+02  0.00000000000E+00 0.  1.
</event>
<event>
 7    1  0.6316620E-012  0.5930193E+02  0.7816164E-02  0.1266605E+00
        -11   -1    0    0    0    0  0.00000000000E+00  0.00000000000E+00  0.45593999997E+02  0.45594000000E+02  0.51100000000E-03 0.  1.
         11   -1    0    0    0    0 -0.00000000000E+00 -0.00000000000E+00 -0.45593999997E+02  0.45594000000E+02  0.51100000000E-03 0. -1.
    9900012    2    1    2    0    0  0.22248278523E+02 -0.16650658434E+02  0.15636221805E+02  0.59301925361E+02  0.49999965957E+02 0.  0.
         12    1    1    2    0    0 -0.22248278523E+02  0.16650658434E+02 -0.15636221805E+02  0.31886074639E+02  0.00000000000E+00 0. -1.
         11    1    3    3    0    0 -0.71382529486E+01 -0.14698550674E+02 -0.13469203328E+00  0.16340752408E+02  0.51100000000E-03 0. -1.
        -11    1    3    3    0    0  0.29681433118E+01 -0.11495312242E+02  0.47477604492E+01  0.12786450164E+02  0.51100000000E-03 0.  1.
        -12    1    3    3    0    0  0.26418388160E+02  0.95432044815E+01  0.11023153389E+02  0.30174722789E+02  0.00000000000E+00 0.  1.
</event>
<event>
 7    1  0.6316620E-012  0.5930196E+02  0.7816164E-02  0.1266605E+00
        -11   -1    0    0    0    0  0.00000000000E+00  0.00000000000E+00  0.45593999997E+02  0.45594000000E+02  0.51100000000E-03 0. -1.
         11   -1    0    0    0    0 -0.00000000000E+00 -0.00000000000E+00 -0.45593999997E+02  0.45594000000E+02  0.51100000000E-03 0.  1.
    9900012    2    1    2    0    0 -0.66655416281E+01 -0.14458284073E+02 -0.27626948389E+02  0.59301957586E+02  0.50000024727E+02 0.  0.
         12    1    1    2    0    0  0.66655416281E+01  0.14458284073E+02  0.27626948389E+02  0.31886042414E+02  0.00000000000E+00 0. -1.
         11    1    3    3    0    0 -0.12818121795E+02 -0.11704841244E+02 -0.20348774504E+02  0.26746591913E+02  0.51100000000E-03 0. -1.
        -11    1    3    3    0    0  0.49289196829E+01 -0.16751602392E+02 -0.59218681954E+01  0.18438518247E+02  0.51100000000E-03 0.  1.
         12    1    3    3    0    0  0.12236604836E+01  0.13998159563E+02 -0.13563056898E+01  0.14116847426E+02  0.00000000000E+00 0. -1.
</event>
<event>
 7    1  0.6316620E-012  0.5930195E+02  0.7816164E-02  0.1266605E+00
        -11   -1    0    0    0    0  0.00000000000E+00  0.00000000000E+00  0.45593999997E+02  0.45594000000E+02  0.51100000000E-03 0. -1.
         11   -1    0    0    0    0 -0.00000000000E+00 -0.00000000000E+00 -0.45593999997E+02  0.45594000000E+02  0.51100000000E-03 0.  1.
    9900012    2    1    2    0    0 -0.66243398018E+01  0.18731315498E+02 -0.24939447055E+02  0.59301951680E+02  0.50000013955E+02 0.  0.
         12    1    1    2    0    0  0.66243398018E+01 -0.18731315498E+02  0.24939447055E+02  0.31886048320E+02  0.00000000000E+00 0. -1.
         11    1    3    3    0    0 -0.71909083960E+01  0.68675677716E+00 -0.17362276107E+02  0.18805037366E+02  0.51100000000E-03 0. -1.
        -11    1    3    3    0    0 -0.15487515243E+02  0.12527395960E+02 -0.11599858516E+02  0.23051149554E+02  0.51100000000E-03 0.  1.
         12    1    3    3    0    0  0.16054083837E+02  0.55171627612E+01  0.40226875685E+01  0.17445764760E+02  0.00000000000E+00 0. -1.
</event>
<event>
 7    1  0.6316620E-012  0.5930195E+02  0.7816164E-02  0.1266605E+00
        -11   -1    0    0    0    0  0.00000000000E+00  0.00000000000E+00  0.45593999997E+02  0.45594000000E+02  0.51100000000E-03 0.  1.
         11   -1    0    0    0    0 -0.00000000000E+00 -0.00000000000E+00 -0.45593999997E+02  0.45594000000E+02  0.51100000000E-03 0. -1.
    9900012    2    1    2    0    0  0.15071494994E+02  0.19375547830E+02  0.20350887288E+02  0.59301946176E+02  0.50000003918E+02 0.  0.
         12    1    1    2    0    0 -0.15071494994E+02 -0.19375547830E+02 -0.20350887288E+02  0.31886053824E+02  0.00000000000E+00 0. -1.
         11    1    3    3    0    0 -0.77995228432E+01  0.23046137756E+02  0.68933457510E+01  0.25287847634E+02  0.51100000000E-03 0.  1.
        -11    1    3    3    0    0  0.16755781091E+02  0.14983768795E+01 -0.16626550492E+01  0.16904607518E+02  0.51100000000E-03 0. -1.
        -12    1    3    3    0    0  0.61152367461E+01 -0.51689668064E+01  0.15120196586E+02  0.17109491024E+02  0.00000000000E+00 0.  1.
</event>
<event>
 7    1  0.6316620E-012  0.5930189E+02  0.7816164E-02  0.1266605E+00
        -11   -1    0    0    0    0  0.00000000000E+00  0.00000000000E+00  0.45593999997E+02  0.45594000000E+02  0.51100000000E-03 0.  1.
         11   -1    0    0    0    0 -0.00000000000E+00 -0.00000000000E+00 -0.45593999997E+02  0.45594000000E+02  0.51100000000E-03 0. -1.
    9900012    2    1    2    0    0  0.63317492929E+01  0.21851545883E+02  0.22341511995E+02  0.59301886019E+02  0.49999894207E+02 0.  0.
         12    1    1    2    0    0 -0.63317492929E+01 -0.21851545883E+02 -0.22341511995E+02  0.31886113981E+02  0.00000000000E+00 0. -1.
         11    1    3    3    0    0  0.42396609421E+00 -0.49516633753E+00 -0.19731437529E+01  0.20780359673E+01  0.51100000000E-03 0. -1.
        -11    1    3    3    0    0 -0.15414583236E+01  0.29801478984E+02 -0.94249471670E+00  0.29856197681E+02  0.51100000000E-03 0.  1.
        -12    1    3    3    0    0  0.74492415223E+01 -0.74547667636E+01  0.25257150464E+02  0.27367652371E+02  0.00000000000E+00 0.  1.
</event>
<event>
 7    1  0.6316620E-012  0.5930201E+02  0.7816164E-02  0.1266605E+00
        -11   -1    0    0    0    0  0.00000000000E+00  0.00000000000E+00  0.45593999997E+02  0.45594000000E+02  0.51100000000E-03 0. -1.
         11   -1    0    0    0    0 -0.00000000000E+00 -0.00000000000E+00 -0.45593999997E+02  0.45594000000E+02  0.51100000000E-03 0.  1.
    9900012    2    1    2    0    0 -0.26153866562E+01  0.26495779407E+02 -0.17545648205E+02  0.59302010213E+02  0.50000120706E+02 0.  0.
         12    1    1    2    0    0  0.26153866562E+01 -0.26495779407E+02  0.17545648205E+02  0.31885989787E+02  0.00000000000E+00 0. -1.
         11    1    3    3    0    0  0.10752981218E+02  0.25447462475E+01  0.69307557235E+01  0.13043684820E+02  0.51100000000E-03 0. -1.
        -11    1    3    3    0    0 -0.75127990453E+01  0.55185287954E+01  0.53218293437E+01  0.10733973048E+02  0.51100000000E-03 0.  1.
        -12    1    3    3    0    0 -0.58555688284E+01  0.18432504364E+02 -0.29798233272E+02  0.35524352346E+02  0.00000000000E+00 0.  1.
</event>
<event>
 7    1  0.6316620E-012  0.5930190E+02  0.7816164E-02  0.1266605E+00
        -11   -1    0    0    0    0  0.00000000000E+00  0.00000000000E+00  0.45593999997E+02  0.45594000000E+02  0.51100000000E-03 0.  1.
         11   -1    0    0    0    0 -0.00000000000E+00 -0.00000000000E+00 -0.45593999997E+02  0.45594000000E+02  0.51100000000E-03 0. -1.
    9900012    2    1    2    0    0 -0.46461985530E+01  0.22244706885E+01  0.31467247200E+02  0.59301904642E+02  0.49999928171E+02 0.  0.
         12    1    1    2    0    0  0.46461985530E+01 -0.22244706885E+01 -0.31467247200E+02  0.31886095358E+02  0.00000000000E+00 0. -1.
         11    1    3    3    0    0 -0.70710237098E+01 -0.45197666217E+01 -0.29850221898E+01  0.89071894755E+01  0.51100000000E-03 0. -1.
        -11    1    3    3    0    0 -0.43606695575E+01  0.98322568207E+01 -0.38116658053E+01  0.11411288694E+02  0.51100000000E-03 0.  1.
        -12    1    3    3    0    0  0.67854947142E+01 -0.30880195105E+01  0.38263935195E+02  0.38983426473E+02  0.00000000000E+00 0.  1.
</event>
<event>
 7    1  0.6316620E-012  0.5930194E+02  0.7816164E-02  0.1266605E+00
        -11   -1    0    0    0    0  0.00000000000E+00  0.00000000000E+00  0.45593999997E+02  0.45594000000E+02  0.51100000000E-03 0.  1.
         11   -1    0    0    0    0 -0.00000000000E+00 -0.00000000000E+00 -0.45593999997E+02  0.45594000000E+02  0.51100000000E-03 0. -1.
    9900012    2    1    2    0    0 -0.23575684106E+02 -0.21416242668E+02  0.15008253307E+01  0.59301940229E+02  0.49999993072E+02 0.  0.
         12    1    1    2    0    0  0.23575684106E+02  0.21416242668E+02 -0.15008253307E+01  0.31886059771E+02  0.00000000000E+00 0. -1.
         11    1    3    3    0    0 -0.19865924282E+02 -0.18942718434E+01 -0.73745715265E+01  0.21275044509E+02  0.51100000000E-03 0. -1.
        -11    1    3    3    0    0 -0.14516325569E+02 -0.20165701630E+02  0.14304277044E+01  0.24888257350E+02  0.51100000000E-03 0.  1.
         12    1    3    3    0    0  0.10806565745E+02  0.64373080555E+00  0.74449691527E+01  0.13138638371E+02  0.00000000000E+00 0. -1.
</event>
<event>
 7    1  0.6316620E-012  0.5930182E+02  0.7816164E-02  0.1266605E+00
        -11   -1    0    0    0    0  0.00000000000E+00  0.00000000000E+00  0.45593999997E+02  0.45594000000E+02  0.51100000000E-03 0.  1.
         11   -1    0    0    0    0 -0.00000000000E+00 -0.00000000000E+00 -0.45593999997E+02  0.45594000000E+02  0.51100000000E-03 0. -1.
    9900012    2    1    2    0    0 -0.20962043559E+02 -0.15951237072E+02  0.17968835380E+02  0.59301823070E+02  0.49999779401E+02 0.  0.
         12    1    1    2    0    0  0.20962043559E+02  0.15951237072E+02 -0.17968835380E+02  0.31886176930E+02  0.00000000000E+00 0. -1.
         11    1    3    3    0    0 -0.24262581330E+02 -0.75237306174E+01 -0.30512535250E+01  0.25584947206E+02  0.51100000000E-03 0. -1.
        -11    1    3    3    0    0  0.27309343612E+01  0.59551893540E+01 -0.17477598587E+01  0.67806303182E+01  0.51100000000E-03 0.  1.
        -12    1    3    3    0    0  0.56960340964E+00 -0.14382695809E+02  0.22767848763E+02  0.26936245545E+02  0.00000000000E+00 0.  1.
</event>
<event>
 7    1  0.6316620E-012  0.5930194E+02  0.7816164E-02  0.1266605E+00
        -11   -1    0    0    0    0  0.00000000000E+00  0.00000000000E+00  0.45593999997E+02  0.45594000000E+02  0.51100000000E-03 0. -1.
         11   -1    0    0    0    0 -0.00000000000E+00 -0.00000000000E+00 -0.45593999997E+02  0.45594000000E+02  0.51100000000E-03 0.  1.
    9900012    2    1    2    0    0  0.29071602990E+01 -0.30770714507E+02 -0.78378736615E+01  0.59301941670E+02  0.49999995700E+02 0.  0.
         12    1    1    2    0    0 -0.29071602990E+01  0.30770714507E+02  0.78378736615E+01  0.31886058330E+02  0.00000000000E+00 0. -1.
         11    1    3    3    0    0 -0.14611286061E+00  0.91121525180E+01  0.68614164341E+01  0.11407528576E+02  0.51100000000E-03 0. -1.
        -11    1    3    3    0    0  0.89432854784E+01 -0.14758337634E+02  0.16661966382E+01  0.17336871009E+02  0.51100000000E-03 0.  1.
        -12    1    3    3    0    0 -0.58900123188E+01 -0.25124529391E+02 -0.16365486734E+02  0.30557542085E+02  0.00000000000E+00 0.  1.
</event>
<event>
 7    1  0.6316620E-012  0.5930200E+02  0.7816164E-02  0.1266605E+00
        -11   -1    0    0    0    0  0.00000000000E+00  0.00000000000E+00  0.45593999997E+02  0.45594000000E+02  0.51100000000E-03 0. -1.
         11   -1    0    0    0    0 -0.00000000000E+00 -0.00000000000E+00 -0.45593999997E+02  0.45594000000E+02  0.51100000000E-03 0.  1.
    9900012    2    1    2    0    0 -0.26812033298E+02  0.18188082683E+01 -0.17161694306E+02  0.59302000807E+02  0.50000103552E+02 0.  0.
         12    1    1    2    0    0  0.26812033298E+02 -0.18188082683E+01  0.17161694306E+02  0.31885999193E+02  0.00000000000E+00 0. -1.
         11    1    3    3    0    0  0.47896262885E+01 -0.10143658501E+02  0.77874323357E+01  0.13655710542E+02  0.51100000000E-03 0. -1.
        -11    1    3    3    0    0 -0.48410567955E+01 -0.28670772645E+01  0.76808718687E+00  0.56785492096E+01  0.51100000000E-03 0.  1.
         12    1    3    3    0    0 -0.26760602791E+02  0.14829544034E+02 -0.25717213829E+02  0.39967741055E+02  0.00000000000E+00 0. -1.
</event>
<event>
 7    1  0.6316620E-012  0.5930180E+02  0.7816164E-02  0.1266605E+00
        -11   -1    0    0    0    0  0.00000000000E+00  0.00000000000E+00  0.45593999997E+02  0.45594000000E+02  0.51100000000E-03 0.  1.
         11   -1    0    0    0    0 -0.00000000000E+00 -0.00000000000E+00 -0.45593999997E+02  0.45594000000E+02  0.51100000000E-03 0. -1.
    9900012    2    1    2    0    0 -0.62432179711E+01 -0.29844924635E+02 -0.93291291461E+01  0.59301796907E+02  0.49999731686E+02 0.  0.
         12    1    1    2    0    0  0.62432179711E+01  0.29844924635E+02  0.93291291461E+01  0.31886203093E+02  0.00000000000E+00 0. -1.
         11    1    3    3    0    0  0.10216139181E+02 -0.52791155432E+01  0.71405201689E+00  0.11521650542E+02  0.51100000000E-03 0. -1.
        -11    1    3    3    0    0 -0.11734598000E+02  0.19325666732E+01  0.89102145221E+01  0.14860266729E+02  0.51100000000E-03 0.  1.
        -12    1    3    3    0    0 -0.47247591515E+01 -0.26498375764E+02 -0.18953395685E+02  0.32919879635E+02  0.00000000000E+00 0.  1.
</event>
<event>
 7    1  0.6316620E-012  0.5930212E+02  0.7816164E-02  0.1266604E+00
        -11   -1    0    0    0    0  0.00000000000E+00  0.00000000000E+00  0.45593999997E+02  0.45594000000E+02  0.51100000000E-03 0.  1.
         11   -1    0    0    0    0 -0.00000000000E+00 -0.00000000000E+00 -0.45593999997E+02  0.45594000000E+02  0.51100000000E-03 0. -1.
    9900012    2    1    2    0    0 -0.15541552287E+02 -0.26271895308E+02  0.92172111319E+01  0.59302120498E+02  0.50000321838E+02 0.  0.
         12    1    1    2    0    0  0.15541552287E+02  0.26271895308E+02 -0.92172111319E+01  0.31885879502E+02  0.00000000000E+00 0. -1.
         11    1    3    3    0    0 -0.41911802164E+00 -0.16371223289E+01 -0.39923594461E+01  0.43352927980E+01  0.51100000000E-03 0. -1.
        -11    1    3    3    0    0  0.13818530520E+02  0.14751075106E+01  0.67767290388E+01  0.15461299578E+02  0.51100000000E-03 0.  1.
         12    1    3    3    0    0 -0.28940964786E+02 -0.26109880490E+02  0.64328415393E+01  0.39505528122E+02  0.00000000000E+00 0. -1.
</event>
<event>
 7    1  0.6316620E-012  0.5930194E+02  0.7816164E-02  0.1266605E+00
        -11   -1    0    0    0    0  0.00000000000E+00  0.00000000000E+00  0.45593999997E+02  0.45594000000E+02  0.51100000000E-03 0. -1.
         11   -1    0    0    0    0 -0.00000000000E+00 -0.00000000000E+00 -0.45593999997E+02  0.45594000000E+02  0.51100000000E-03 0.  1.
    9900012    2    1    2    0    0 -0.11728339718E+02 -0.29611428141E+02  0.15264037571E+01  0.59301944466E+02  0.50000000800E+02 0.  0.
         12    1    1    2    0    0  0.11728339718E+02  0.29611428141E+02 -0.15264037571E+01  0.31886055534E+02  0.00000000000E+00 0. -1.
         11    1    3    3    0    0 -0.14666264329E+02 -0.52034546587E+00  0.48033410200E+01  0.15441572265E+02  0.51100000000E-03 0. -1.
        -11    1    3    3    0    0 -0.73804701513E+01 -0.11330103870E+01 -0.10794520145E+02  0.13125422569E+02  0.51100000000E-03 0.  1.
        -12    1    3    3    0    0  0.10318394762E+02 -0.27958072288E+02  0.75175828824E+01  0.30734949632E+02  0.00000000000E+00 0.  1.
</event>
<event>
 7    1  0.6316620E-012  0.5930195E+02  0.7816164E-02  0.1266605E+00
        -11   -1    0    0    0    0  0.00000000000E+00  0.00000000000E+00  0.45593999997E+02  0.45594000000E+02  0.51100000000E-03 0.  1.
         11   -1    0    0    0    0 -0.00000000000E+00 -0.00000000000E+00 -0.45593999997E+02  0.45594000000E+02  0.51100000000E-03 0. -1.
    9900012    2    1    2    0    0  0.80615148039E+01 -0.17943652026E+02  0.25094971176E+02  0.59301949017E+02  0.50000009099E+02 0.  0.
         12    1    1    2    0    0 -0.80615148039E+01  0.17943652026E+02 -0.25094971176E+02  0.31886050983E+02  0.00000000000E+00 0. -1.
         11    1    3    3    0    0 -0.44381926402E+01 -0.53839153541E+01 -0.85004201872E+01  0.10997328861E+02  0.51100000000E-03 0. -1.
        -11    1    3    3    0    0  0.13552728486E+02 -0.20157973177E+02  0.15936334957E+02  0.29051456145E+02  0.51100000000E-03 0.  1.
         12    1    3    3    0    0 -0.10530210419E+01  0.75982365042E+01  0.17659056406E+02  0.19253164011E+02  0.00000000000E+00 0. -1.
</event>
<event>
 7    1  0.6316620E-012  0.5930192E+02  0.7816164E-02  0.1266605E+00
        -11   -1    0    0    0    0  0.00000000000E+00  0.00000000000E+00  0.45593999997E+02  0.45594000000E+02  0.51100000000E-03 0.  1.
         11   -1    0    0    0    0 -0.00000000000E+00 -0.00000000000E+00 -0.45593999997E+02  0.45594000000E+02  0.51100000000E-03 0. -1.
    9900012    2    1    2    0    0 -0.17333241041E+02  0.71995740948E+01  0.25776870077E+02  0.59301919289E+02  0.49999954882E+02 0.  0.
         12    1    1    2    0    0  0.17333241041E+02 -0.71995740948E+01 -0.25776870077E+02  0.31886080711E+02  0.00000000000E+00 0. -1.
         11    1    3    3    0    0 -0.56410377643E+01  0.20902335685E+02  0.55619326744E+01  0.22353166207E+02  0.51100000000E-03 0. -1.
        -11    1    3    3    0    0 -0.48617475107E+01  0.40119798589E+01  0.16418517446E+02  0.17586935112E+02  0.51100000000E-03 0.  1.
        -12    1    3    3    0    0 -0.68304557664E+01 -0.17714741449E+02  0.37964199565E+01  0.19361817969E+02  0.00000000000E+00 0.  1.
</event>
<event>
 7    1  0.6316620E-012  0.5930196E+02  0.7816164E-02  0.1266605E+00
        -11   -1    0    0    0    0  0.00000000000E+00  0.00000000000E+00  0.45593999997E+02  0.45594000000E+02  0.51100000000E-03 0. -1.
         11   -1    0    0    0    0 -0.00000000000E+00 -0.00000000000E+00 -0.45593999997E+02  0.45594000000E+02  0.51100000000E-03 0.  1.
    9900012    2    1    2    0    0 -0.12722569532E+02  0.59797759874E+01 -0.28619883607E+02  0.59301964905E+02  0.50000038076E+02 0.  0.
         12    1    1    2    0    0  0.12722569532E+02 -0.59797759874E+01  0.28619883607E+02  0.31886035095E+02  0.00000000000E+00 0. -1.
         11    1    3    3    0    0  0.11967866069E+02  0.14439166039E+00 -0.18664734288E+01  0.12113397150E+02  0.51100000000E-03 0. -1.
        -11    1    3    3    0    0  0.40159449689E+01 -0.51250122233E+01 -0.10686806040E+02  0.12514047622E+02  0.51100000000E-03 0.  1.
        -12    1    3    3    0    0 -0.28706380570E+02  0.10960396550E+02 -0.16066604138E+02  0.34674520134E+02  0.00000000000E+00 0.  1.
</event>
<event>
 7    1  0.6316620E-012  0.5930195E+02  0.7816164E-02  0.1266605E+00
        -11   -1    0    0    0    0  0.00000000000E+00  0.00000000000E+00  0.45593999997E+02  0.45594000000E+02  0.51100000000E-03 0.  1.
         11   -1    0    0    0    0 -0.00000000000E+00 -0.00000000000E+00 -0.45593999997E+02  0.45594000000E+02  0.51100000000E-03 0. -1.
    9900012    2    1    2    0    0  0.29613965608E+02  0.10185014398E+02 -0.59999123697E+01  0.59301946218E+02  0.50000003995E+02 0.  0.
         12    1    1    2    0    0 -0.29613965608E+02 -0.10185014398E+02  0.59999123697E+01  0.31886053782E+02  0.00000000000E+00 0. -1.
         11    1    3    3    0    0  0.12129565986E+01  0.56278295850E+01  0.27605198507E+01  0.63846847734E+01  0.51100000000E-03 0. -1.
        -11    1    3    3    0    0 -0.84031802113E-01  0.18448992308E+02 -0.10407998114E+02  0.21182511738E+02  0.51100000000E-03 0.  1.
        -12    1    3    3    0    0  0.28485040812E+02 -0.13891807496E+02  0.16475658934E+01  0.31734749707E+02  0.00000000000E+00 0.  1.
</event>
<event>
 7    1  0.6316620E-012  0.5930195E+02  0.7816164E-02  0.1266605E+00
        -11   -1    0    0    0    0  0.00000000000E+00  0.00000000000E+00  0.45593999997E+02  0.45594000000E+02  0.51100000000E-03 0. -1.
         11   -1    0    0    0    0 -0.00000000000E+00 -0.00000000000E+00 -0.45593999997E+02  0.45594000000E+02  0.51100000000E-03 0.  1.
    9900012    2    1    2    0    0  0.29056620831E+02  0.20980428551E+01  0.12962689872E+02  0.59301947773E+02  0.50000006830E+02 0.  0.
         12    1    1    2    0    0 -0.29056620831E+02 -0.20980428551E+01 -0.12962689872E+02  0.31886052227E+02  0.00000000000E+00 0. -1.
         11    1    3    3    0    0 -0.38235123798E+01  0.67041914418E+01  0.13707924439E+02  0.15731262585E+02  0.51100000000E-03 0. -1.
        -11    1    3    3    0    0  0.12591643239E+02 -0.71271070753E+01  0.12575058944E+02  0.19169695940E+02  0.51100000000E-03 0.  1.
        -12    1    3    3    0    0  0.20288489972E+02  0.25209584886E+01 -0.13320293512E+02  0.24400989248E+02  0.00000000000E+00 0.  1.
</event>
<event>
 7    1  0.6316620E-012  0.5930192E+02  0.7816164E-02  0.1266605E+00
        -11   -1    0    0    0    0  0.00000000000E+00  0.00000000000E+00  0.45593999997E+02  0.45594000000E+02  0.51100000000E-03 0. -1.
         11   -1    0    0    0    0 -0.00000000000E+00 -0.00000000000E+00 -0.45593999997E+02  0.45594000000E+02  0.51100000000E-03 0.  1.
    9900012    2    1    2    0    0 -0.31694911824E+02 -0.90202362046E+00  0.33676890094E+01  0.59301915082E+02  0.49999947209E+02 0.  0.
         12    1    1    2    0    0  0.31694911824E+02  0.90202362046E+00 -0.33676890094E+01  0.31886084918E+02  0.00000000000E+00 0. -1.
         11    1    3    3    0    0  0.16657370269E+01 -0.89198910229E+01  0.35056330578E+01  0.97277232229E+01  0.51100000000E-03 0. -1.
        -11    1    3    3    0    0 -0.38628295383E+02  0.89524058967E+01  0.73939793565E+01  0.40335613377E+02  0.51100000000E-03 0.  1.
         12    1    3    3    0    0  0.52676465320E+01 -0.93453849425E+00 -0.75319234048E+01  0.92385784815E+01  0.00000000000E+00 0. -1.
</event>
<event>
 7    1  0.6316620E-012  0.5930194E+02  0.7816164E-02  0.1266605E+00
        -11   -1    0    0    0    0  0.00000000000E+00  0.00000000000E+00  0.45593999997E+02  0.45594000000E+02  0.51100000000E-03 0.  1.
         11   -1    0    0    0    0 -0.00000000000E+00 -0.00000000000E+00 -0.45593999997E+02  0.45594000000E+02  0.51100000000E-03 0. -1.
    9900012    2    1    2    0    0 -0.17367790523E+01 -0.24084093308E+02  0.20824519692E+02  0.59301943920E+02  0.49999999804E+02 0.  0.
         12    1    1    2    0    0  0.17367790523E+01  0.24084093308E+02 -0.20824519692E+02  0.31886056080E+02  0.00000000000E+00 0. -1.
         11    1    3    3    0    0  0.88312495847E+01 -0.15955017663E+02 -0.39571612679E+01  0.18660457750E+02  0.51100000000E-03 0. -1.
        -11    1    3    3    0    0 -0.12193786303E+02 -0.18255994887E+02  0.17065545235E+02  0.27806520964E+02  0.51100000000E-03 0.  1.
         12    1    3    3    0    0  0.16257576660E+01  0.10126919242E+02  0.77161357250E+01  0.12834965207E+02  0.00000000000E+00 0. -1.
</event>
<event>
 7    1  0.6316620E-012  0.5930194E+02  0.7816164E-02  0.1266605E+00
        -11   -1    0    0    0    0  0.00000000000E+00  0.00000000000E+00  0.45593999997E+02  0.45594000000E+02  0.51100000000E-03 0. -1.
         11   -1    0    0    0    0 -0.00000000000E+00 -0.00000000000E+00 -0.45593999997E+02  0.45594000000E+02  0.51100000000E-03 0.  1.
    9900012    2    1    2    0    0  0.31581640115E+02 -0.18525092305E+01  0.39861415201E+01  0.59301935536E+02  0.49999984513E+02 0.  0.
         12    1    1    2    0    0 -0.31581640115E+02  0.18525092305E+01 -0.39861415201E+01  0.31886064464E+02  0.00000000000E+00 0. -1.
         11    1    3    3    0    0  0.16148821266E+02 -0.89030334037E+01 -0.69954451369E+01  0.19722694668E+02  0.51100000000E-03 0. -1.
        -11    1    3    3    0    0  0.11063993939E+02 -0.53766179715E+01 -0.92821026659E+01  0.15410302166E+02  0.51100000000E-03 0.  1.
         12    1    3    3    0    0  0.43688249099E+01  0.12427142145E+02  0.20263689323E+02  0.24168938701E+02  0.00000000000E+00 0. -1.
</event>
<event>
 7    1  0.6392887E-012  0.5930194E+02  0.7816164E-02  0.1266605E+00
        -11   -1    0    0    0    0  0.00000000000E+00  0.00000000000E+00  0.45593999997E+02  0.45594000000E+02  0.51100000000E-03 0. -1.
         11   -1    0    0    0    0 -0.00000000000E+00 -0.00000000000E+00 -0.45593999997E+02  0.45594000000E+02  0.51100000000E-03 0.  1.
    9900012    2    1    2    0    0  0.75403753272E+01 -0.58156951255E+01 -0.30430923828E+02  0.59301941998E+02  0.49999996298E+02 0.  0.
         12    1    1    2    0    0 -0.75403753272E+01  0.58156951255E+01  0.30430923828E+02  0.31886058002E+02  0.00000000000E+00 0. -1.
         11    1    3    3    0    0 -0.37989054113E+01 -0.10519097633E+02  0.73654518987E+01  0.13391526398E+02  0.51100000000E-03 0. -1.
        -11    1    3    3    0    0 -0.55134066598E+01  0.65228470205E+01 -0.17452789615E+02  0.19430518568E+02  0.51100000000E-03 0.  1.
        -12    1    3    3    0    0  0.16852687398E+02 -0.18194445130E+01 -0.20343586112E+02  0.26479897031E+02  0.00000000000E+00 0.  1.
</event>
<event>
 7    1  0.6316620E-012  0.5930195E+02  0.7816164E-02  0.1266605E+00
        -11   -1    0    0    0    0  0.00000000000E+00  0.00000000000E+00  0.45593999997E+02  0.45594000000E+02  0.51100000000E-03 0.  1.
         11   -1    0    0    0    0 -0.00000000000E+00 -0.00000000000E+00 -0.45593999997E+02  0.45594000000E+02  0.51100000000E-03 0. -1.
    9900012    2    1    2    0    0  0.22999131841E+02  0.11656412508E+02  0.18758678959E+02  0.59301952044E+02  0.50000014619E+02 0.  0.
         12    1    1    2    0    0 -0.22999131841E+02 -0.11656412508E+02 -0.18758678959E+02  0.31886047956E+02  0.00000000000E+00 0. -1.
         11    1    3    3    0    0  0.42951481248E+01  0.64850875856E+01  0.24530918117E+00  0.77823412456E+01  0.51100000000E-03 0. -1.
        -11    1    3    3    0    0  0.31155476052E+02  0.10281660937E+02  0.64307867156E+01  0.33432488057E+02  0.51100000000E-03 0.  1.
         12    1    3    3    0    0 -0.12451492336E+02 -0.51103360147E+01  0.12082583062E+02  0.18087122741E+02  0.00000000000E+00 0. -1.
</event>
<event>
 7    1  0.6316620E-012  0.5930196E+02  0.7816164E-02  0.1266605E+00
        -11   -1    0    0    0    0  0.00000000000E+00  0.00000000000E+00  0.45593999997E+02  0.45594000000E+02  0.51100000000E-03 0. -1.
         11   -1    0    0    0    0 -0.00000000000E+00 -0.00000000000E+00 -0.45593999997E+02  0.45594000000E+02  0.51100000000E-03 0.  1.
    9900012    2    1    2    0    0 -0.66469911876E+00 -0.12649111952E+02 -0.29262221231E+02  0.59301961528E+02  0.50000031916E+02 0.  0.
         12    1    1    2    0    0  0.66469911876E+00  0.12649111952E+02  0.29262221231E+02  0.31886038472E+02  0.00000000000E+00 0. -1.
         11    1    3    3    0    0  0.20157915522E+02 -0.26694166766E+01 -0.25078871034E+01  0.20487968215E+02  0.51100000000E-03 0.  1.
        -11    1    3    3    0    0 -0.29532181099E+01 -0.31147844534E+01  0.16186170061E+01  0.45872977524E+01  0.51100000000E-03 0. -1.
        -12    1    3    3    0    0 -0.17869396531E+02 -0.68649108222E+01 -0.28372951134E+02  0.34226695561E+02  0.00000000000E+00 0.  1.
</event>
<event>
 7    1  0.6316620E-012  0.5930194E+02  0.7816164E-02  0.1266605E+00
        -11   -1    0    0    0    0  0.00000000000E+00  0.00000000000E+00  0.45593999997E+02  0.45594000000E+02  0.51100000000E-03 0.  1.
         11   -1    0    0    0    0 -0.00000000000E+00 -0.00000000000E+00 -0.45593999997E+02  0.45594000000E+02  0.51100000000E-03 0. -1.
    9900012    2    1    2    0    0 -0.12460149386E+00 -0.79049634060E+01  0.30890400585E+02  0.59301940032E+02  0.49999992712E+02 0.  0.
         12    1    1    2    0    0  0.12460149386E+00  0.79049634060E+01 -0.30890400585E+02  0.31886059968E+02  0.00000000000E+00 0. -1.
         11    1    3    3    0    0  0.50983030539E+01  0.12029292774E+01 -0.67805852947E+01  0.85683178089E+01  0.51100000000E-03 0. -1.
        -11    1    3    3    0    0  0.16877448221E+01 -0.94926889262E+01 -0.25083507095E+01  0.99625021544E+01  0.51100000000E-03 0.  1.
        -12    1    3    3    0    0 -0.69106493699E+01  0.38479624270E+00  0.40179336589E+02  0.40771120068E+02  0.00000000000E+00 0.  1.
</event>
<event>
 7    1  0.6316620E-012  0.5930200E+02  0.7816164E-02  0.1266605E+00
        -11   -1    0    0    0    0  0.00000000000E+00  0.00000000000E+00  0.45593999997E+02  0.45594000000E+02  0.51100000000E-03 0.  1.
         11   -1    0    0    0    0 -0.00000000000E+00 -0.00000000000E+00 -0.45593999997E+02  0.45594000000E+02  0.51100000000E-03 0. -1.
    9900012    2    1    2    0    0  0.31164231409E+02  0.67376655498E+01 -0.33354162554E+00  0.59302004541E+02  0.50000110361E+02 0.  0.
         12    1    1    2    0    0 -0.31164231409E+02 -0.67376655498E+01  0.33354162554E+00  0.31885995459E+02  0.00000000000E+00 0. -1.
         11    1    3    3    0    0  0.16092030624E+02 -0.57781617062E+01 -0.13490624277E+02  0.21779291676E+02  0.51100000000E-03 0. -1.
        -11    1    3    3    0    0  0.10277929998E+02  0.21563334819E+02  0.49375408028E+01  0.24392469391E+02  0.51100000000E-03 0.  1.
         12    1    3    3    0    0  0.47942707877E+01 -0.90475075626E+01  0.82195418482E+01  0.13130243474E+02  0.00000000000E+00 0. -1.
</event>
<event>
 7    1  0.6316620E-012  0.5930194E+02  0.7816164E-02  0.1266605E+00
        -11   -1    0    0    0    0  0.00000000000E+00  0.00000000000E+00  0.45593999997E+02  0.45594000000E+02  0.51100000000E-03 0.  1.
         11   -1    0    0    0    0 -0.00000000000E+00 -0.00000000000E+00 -0.45593999997E+02  0.45594000000E+02  0.51100000000E-03 0. -1.
    9900012    2    1    2    0    0  0.10488938641E+02  0.45438144479E+01  0.29766708610E+02  0.59301936822E+02  0.49999986858E+02 0.  0.
         12    1    1    2    0    0 -0.10488938641E+02 -0.45438144479E+01 -0.29766708610E+02  0.31886063178E+02  0.00000000000E+00 0. -1.
         11    1    3    3    0    0 -0.29190982882E+01 -0.15369605121E+01 -0.95551829629E+01  0.10108654913E+02  0.51100000000E-03 0. -1.
        -11    1    3    3    0    0  0.10298489030E+02 -0.90356576237E+01  0.22679732290E+02  0.26496645863E+02  0.51100000000E-03 0.  1.
        -12    1    3    3    0    0  0.31095478993E+01  0.15116432584E+02  0.16642159283E+02  0.22696636046E+02  0.00000000000E+00 0.  1.
</event>
<event>
 7    1  0.6316620E-012  0.5930194E+02  0.7816164E-02  0.1266605E+00
        -11   -1    0    0    0    0  0.00000000000E+00  0.00000000000E+00  0.45593999997E+02  0.45594000000E+02  0.51100000000E-03 0.  1.
         11   -1    0    0    0    0 -0.00000000000E+00 -0.00000000000E+00 -0.45593999997E+02  0.45594000000E+02  0.51100000000E-03 0. -1.
    9900012    2    1    2    0    0  0.18884007781E+01  0.31190875236E+02  0.63469568800E+01  0.59301943218E+02  0.49999998523E+02 0.  0.
         12    1    1    2    0    0 -0.18884007781E+01 -0.31190875236E+02 -0.63469568800E+01  0.31886056782E+02  0.00000000000E+00 0. -1.
         11    1    3    3    0    0 -0.55015267801E+01  0.10945899551E+02 -0.82061453421E+01  0.14745180078E+02  0.51100000000E-03 0. -1.
        -11    1    3    3    0    0  0.48611967437E+00  0.22958200986E+01 -0.11745053631E+02  0.11977202817E+02  0.51100000000E-03 0.  1.
        -12    1    3    3    0    0  0.69038078838E+01  0.17949155586E+02  0.26298155853E+02  0.32579560323E+02  0.00000000000E+00 0.  1.
</event>
<event>
 7    1  0.6316620E-012  0.5930195E+02  0.7816164E-02  0.1266605E+00
        -11   -1    0    0    0    0  0.00000000000E+00  0.00000000000E+00  0.45593999997E+02  0.45594000000E+02  0.51100000000E-03 0. -1.
         11   -1    0    0    0    0 -0.00000000000E+00 -0.00000000000E+00 -0.45593999997E+02  0.45594000000E+02  0.51100000000E-03 0.  1.
    9900012    2    1    2    0    0 -0.16087878430E+02  0.21059231859E+02 -0.17731578019E+02  0.59301953868E+02  0.50000017947E+02 0.  0.
         12    1    1    2    0    0  0.16087878430E+02 -0.21059231859E+02  0.17731578019E+02  0.31886046132E+02  0.00000000000E+00 0. -1.
         11    1    3    3    0    0  0.83974777810E+01  0.58068583222E+01  0.47169740568E+01  0.11246647552E+02  0.51100000000E-03 0. -1.
        -11    1    3    3    0    0 -0.39722321735E+01 -0.31834119501E+01  0.63777455663E+01  0.81601702712E+01  0.51100000000E-03 0.  1.
        -12    1    3    3    0    0 -0.20513124037E+02  0.18435785487E+02 -0.28826297642E+02  0.39895136045E+02  0.00000000000E+00 0.  1.
</event>
<event>
 7    1  0.6316620E-012  0.5930195E+02  0.7816164E-02  0.1266605E+00
        -11   -1    0    0    0    0  0.00000000000E+00  0.00000000000E+00  0.45593999997E+02  0.45594000000E+02  0.51100000000E-03 0.  1.
         11   -1    0    0    0    0 -0.00000000000E+00 -0.00000000000E+00 -0.45593999997E+02  0.45594000000E+02  0.51100000000E-03 0. -1.
    9900012    2    1    2    0    0  0.19504187580E+01 -0.30791495624E+02  0.80498298452E+01  0.59301951379E+02  0.50000013407E+02 0.  0.
         12    1    1    2    0    0 -0.19504187580E+01  0.30791495624E+02 -0.80498298452E+01  0.31886048621E+02  0.00000000000E+00 0. -1.
         11    1    3    3    0    0  0.38141176096E+01 -0.23222728295E+02 -0.12118294731E+02  0.26470656774E+02  0.51100000000E-03 0. -1.
        -11    1    3    3    0    0  0.90234104718E+01 -0.68059310121E+01  0.17706027284E+01  0.11440177786E+02  0.51100000000E-03 0.  1.
        -12    1    3    3    0    0 -0.10887109323E+02 -0.76283631704E+00  0.18397521847E+02  0.21391116820E+02  0.00000000000E+00 0.  1.
</event>
<event>
 7    1  0.6316620E-012  0.5930188E+02  0.7816164E-02  0.1266605E+00
        -11   -1    0    0    0    0  0.00000000000E+00  0.00000000000E+00  0.45593999997E+02  0.45594000000E+02  0.51100000000E-03 0.  1.
         11   -1    0    0    0    0 -0.00000000000E+00 -0.00000000000E+00 -0.45593999997E+02  0.45594000000E+02  0.51100000000E-03 0. -1.
    9900012    2    1    2    0    0 -0.19390555449E+02  0.22538940276E+02  0.11520722038E+02  0.59301882242E+02  0.49999887317E+02 0.  0.
         12    1    1    2    0    0  0.19390555449E+02 -0.22538940276E+02 -0.11520722038E+02  0.31886117758E+02  0.00000000000E+00 0. -1.
         11    1    3    3    0    0 -0.72024100556E+01  0.14319774813E+02  0.13521373486E+02  0.20970412550E+02  0.51100000000E-03 0. -1.
        -11    1    3    3    0    0  0.42071312653E+01  0.71384165601E+01  0.13436807961E+02  0.15786220349E+02  0.51100000000E-03 0.  1.
         12    1    3    3    0    0 -0.16395276659E+02  0.10807489036E+01 -0.15437459409E+02  0.22545249343E+02  0.00000000000E+00 0. -1.
</event>
<event>
 7    1  0.6316620E-012  0.5930195E+02  0.7816164E-02  0.1266605E+00
        -11   -1    0    0    0    0  0.00000000000E+00  0.00000000000E+00  0.45593999997E+02  0.45594000000E+02  0.51100000000E-03 0.  1.
         11   -1    0    0    0    0 -0.00000000000E+00 -0.00000000000E+00 -0.45593999997E+02  0.45594000000E+02  0.51100000000E-03 0. -1.
    9900012    2    1    2    0    0 -0.10400390246E+02  0.18035032513E+01  0.30088199522E+02  0.59301945184E+02  0.50000002109E+02 0.  0.
         12    1    1    2    0    0  0.10400390246E+02 -0.18035032513E+01 -0.30088199522E+02  0.31886054816E+02  0.00000000000E+00 0. -1.
         11    1    3    3    0    0 -0.33163913837E+01  0.79849649729E+01 -0.13914790072E+01  0.87575299895E+01  0.51100000000E-03 0. -1.
        -11    1    3    3    0    0  0.10254148194E+02  0.10671728165E+02  0.16196536778E+02  0.21939943963E+02  0.51100000000E-03 0.  1.
         12    1    3    3    0    0 -0.17338147057E+02 -0.16853189886E+02  0.15283141751E+02  0.28604471232E+02  0.00000000000E+00 0. -1.
</event>
<event>
 7    1  0.6316620E-012  0.5930220E+02  0.7816164E-02  0.1266604E+00
        -11   -1    0    0    0    0  0.00000000000E+00  0.00000000000E+00  0.45593999997E+02  0.45594000000E+02  0.51100000000E-03 0.  1.
         11   -1    0    0    0    0 -0.00000000000E+00 -0.00000000000E+00 -0.45593999997E+02  0.45594000000E+02  0.51100000000E-03 0. -1.
    9900012    2    1    2    0    0  0.21478371861E+02  0.15538607178E+02  0.17718231562E+02  0.59302195940E+02  0.50000459426E+02 0.  0.
         12    1    1    2    0    0 -0.21478371861E+02 -0.15538607178E+02 -0.17718231562E+02  0.31885804060E+02  0.00000000000E+00 0. -1.
         11    1    3    3    0    0  0.72908822768E+01  0.14368660617E+01  0.20082723850E+01  0.76977078853E+01  0.51100000000E-03 0. -1.
        -11    1    3    3    0    0 -0.11244738038E+02 -0.81081465154E+01  0.10608137566E+02  0.17456195357E+02  0.51100000000E-03 0.  1.
         12    1    3    3    0    0  0.25432227622E+02  0.22209887632E+02  0.51018216117E+01  0.34148292698E+02  0.00000000000E+00 0. -1.
</event>
<event>
 7    1  0.6316620E-012  0.5930197E+02  0.7816164E-02  0.1266605E+00
        -11   -1    0    0    0    0  0.00000000000E+00  0.00000000000E+00  0.45593999997E+02  0.45594000000E+02  0.51100000000E-03 0. -1.
         11   -1    0    0    0    0 -0.00000000000E+00 -0.00000000000E+00 -0.45593999997E+02  0.45594000000E+02  0.51100000000E-03 0.  1.
    9900012    2    1    2    0    0  0.17651329337E+02  0.26403703369E+02 -0.28274032089E+01  0.59301965630E+02  0.50000039397E+02 0.  0.
         12    1    1    2    0    0 -0.17651329337E+02 -0.26403703369E+02  0.28274032089E+01  0.31886034370E+02  0.00000000000E+00 0. -1.
         11    1    3    3    0    0 -0.90448212985E+01  0.20423869608E+01  0.13981890360E+02  0.16777168864E+02  0.51100000000E-03 0. -1.
        -11    1    3    3    0    0  0.26383954559E+00  0.69691239380E+01 -0.67248689889E+00  0.70064640625E+01  0.51100000000E-03 0.  1.
         12    1    3    3    0    0  0.26432311090E+02  0.17392192470E+02 -0.16136806670E+02  0.35518332703E+02  0.00000000000E+00 0. -1.
</event>
<event>
 7    1  0.6316620E-012  0.5930181E+02  0.7816164E-02  0.1266605E+00
        -11   -1    0    0    0    0  0.00000000000E+00  0.00000000000E+00  0.45593999997E+02  0.45594000000E+02  0.51100000000E-03 0.  1.
         11   -1    0    0    0    0 -0.00000000000E+00 -0.00000000000E+00 -0.45593999997E+02  0.45594000000E+02  0.51100000000E-03 0. -1.
    9900012    2    1    2    0    0 -0.37824239139E+01 -0.77074527610E+01  0.30708591232E+02  0.59301809663E+02  0.49999754950E+02 0.  0.
         12    1    1    2    0    0  0.37824239139E+01  0.77074527610E+01 -0.30708591232E+02  0.31886190337E+02  0.00000000000E+00 0. -1.
         11    1    3    3    0    0 -0.21383795129E+02 -0.68810847792E+01  0.50901409138E+01  0.23033140399E+02  0.51100000000E-03 0. -1.
        -11    1    3    3    0    0  0.55590453907E+01  0.31311592351E+01 -0.13033146249E+01  0.65119715206E+01  0.51100000000E-03 0.  1.
        -12    1    3    3    0    0  0.12042325824E+02 -0.39575272170E+01  0.26921764944E+02  0.29756697744E+02  0.00000000000E+00 0.  1.
</event>
<event>
 7    1  0.6316620E-012  0.5930196E+02  0.7816164E-02  0.1266605E+00
        -11   -1    0    0    0    0  0.00000000000E+00  0.00000000000E+00  0.45593999997E+02  0.45594000000E+02  0.51100000000E-03 0.  1.
         11   -1    0    0    0    0 -0.00000000000E+00 -0.00000000000E+00 -0.45593999997E+02  0.45594000000E+02  0.51100000000E-03 0. -1.
    9900012    2    1    2    0    0  0.12441284858E+01  0.22275405218E+02  0.22781085572E+02  0.59301962411E+02  0.50000033527E+02 0.  0.
         12    1    1    2    0    0 -0.12441284858E+01 -0.22275405218E+02 -0.22781085572E+02  0.31886037589E+02  0.00000000000E+00 0. -1.
         11    1    3    3    0    0  0.12421981570E+02  0.98911865780E+01  0.11757079865E+02  0.19757786447E+02  0.51100000000E-03 0. -1.
        -11    1    3    3    0    0 -0.99656067884E+01  0.22450969933E+02  0.14854048860E+02  0.28705437419E+02  0.51100000000E-03 0.  1.
        -12    1    3    3    0    0 -0.12122462962E+01 -0.10066751294E+02 -0.38300431540E+01  0.10838738545E+02  0.00000000000E+00 0.  1.
</event>
<event>
 7    1  0.6316620E-012  0.5930194E+02  0.7816164E-02  0.1266605E+00
        -11   -1    0    0    0    0  0.00000000000E+00  0.00000000000E+00  0.45593999997E+02  0.45594000000E+02  0.51100000000E-03 0. -1.
         11   -1    0    0    0    0 -0.00000000000E+00 -0.00000000000E+00 -0.45593999997E+02  0.45594000000E+02  0.51100000000E-03 0.  1.
    9900012    2    1    2    0    0  0.24683173433E+02  0.15626034975E+02 -0.12778456087E+02  0.59301937845E+02  0.49999988724E+02 0.  0.
         12    1    1    2    0    0 -0.24683173433E+02 -0.15626034975E+02  0.12778456087E+02  0.31886062155E+02  0.00000000000E+00 0. -1.
         11    1    3    3    0    0  0.39344227099E+01 -0.11741764038E+02 -0.87297861249E+00  0.12414136970E+02  0.51100000000E-03 0. -1.
        -11    1    3    3    0    0 -0.60317407455E+01 -0.12447370580E+01 -0.17717470096E+01  0.64086156455E+01  0.51100000000E-03 0.  1.
         12    1    3    3    0    0  0.26780491469E+02  0.28612536071E+02 -0.10133730465E+02  0.40479185230E+02  0.00000000000E+00 0. -1.
</event>
<event>
 7    1  0.6316620E-012  0.5930200E+02  0.7816164E-02  0.1266605E+00
        -11   -1    0    0    0    0  0.00000000000E+00  0.00000000000E+00  0.45593999997E+02  0.45594000000E+02  0.51100000000E-03 0.  1.
         11   -1    0    0    0    0 -0.00000000000E+00 -0.00000000000E+00 -0.45593999997E+02  0.45594000000E+02  0.51100000000E-03 0. -1.
    9900012    2    1    2    0    0  0.25661325655E+02  0.18743366797E+02 -0.26266556895E+01  0.59302003804E+02  0.50000109018E+02 0.  0.
         12    1    1    2    0    0 -0.25661325655E+02 -0.18743366797E+02  0.26266556895E+01  0.31885996196E+02  0.00000000000E+00 0. -1.
         11    1    3    3    0    0  0.85431024214E+01  0.28778336269E+02  0.76550202290E+01  0.30980261012E+02  0.51100000000E-03 0. -1.
        -11    1    3    3    0    0 -0.22072990230E+01 -0.14243404824E+01 -0.62559815455E+01  0.67851470246E+01  0.51100000000E-03 0.  1.
        -12    1    3    3    0    0  0.19325522257E+02 -0.86106289893E+01 -0.40256943730E+01  0.21536595768E+02  0.00000000000E+00 0.  1.
</event>
<event>
 7    1  0.6316620E-012  0.5930193E+02  0.7816164E-02  0.1266605E+00
        -11   -1    0    0    0    0  0.00000000000E+00  0.00000000000E+00  0.45593999997E+02  0.45594000000E+02  0.51100000000E-03 0. -1.
         11   -1    0    0    0    0 -0.00000000000E+00 -0.00000000000E+00 -0.45593999997E+02  0.45594000000E+02  0.51100000000E-03 0.  1.
    9900012    2    1    2    0    0 -0.69177050557E+01 -0.46120102687E+01 -0.30783048558E+02  0.59301931561E+02  0.49999977263E+02 0.  0.
         12    1    1    2    0    0  0.69177050557E+01  0.46120102687E+01  0.30783048558E+02  0.31886068439E+02  0.00000000000E+00 0. -1.
         11    1    3    3    0    0 -0.49437346654E+01  0.45306198177E+01  0.21545335046E+01  0.70433687436E+01  0.51100000000E-03 0. -1.
        -11    1    3    3    0    0 -0.70400639741E+01 -0.85748305755E+01  0.62546343893E+01  0.12736195341E+02  0.51100000000E-03 0.  1.
        -12    1    3    3    0    0  0.50660935838E+01 -0.56779951092E+00 -0.39192216452E+02  0.39522367476E+02  0.00000000000E+00 0.  1.
</event>
<event>
 7    1  0.6316620E-012  0.5930194E+02  0.7816164E-02  0.1266605E+00
        -11   -1    0    0    0    0  0.00000000000E+00  0.00000000000E+00  0.45593999997E+02  0.45594000000E+02  0.51100000000E-03 0. -1.
         11   -1    0    0    0    0 -0.00000000000E+00 -0.00000000000E+00 -0.45593999997E+02  0.45594000000E+02  0.51100000000E-03 0.  1.
    9900012    2    1    2    0    0 -0.22880535376E+02  0.21920656534E+02 -0.35618281364E+01  0.59301941892E+02  0.49999996106E+02 0.  0.
         12    1    1    2    0    0  0.22880535376E+02 -0.21920656534E+02  0.35618281364E+01  0.31886058108E+02  0.00000000000E+00 0. -1.
         11    1    3    3    0    0 -0.30903386893E+01  0.91287477448E+01 -0.46519801864E+01  0.10701642328E+02  0.51100000000E-03 0.  1.
        -11    1    3    3    0    0 -0.10159445773E+00  0.18762987638E+02  0.14782130880E+02  0.23886636853E+02  0.51100000000E-03 0. -1.
         12    1    3    3    0    0 -0.19688602229E+02 -0.59710788483E+01 -0.13691978830E+02  0.24713662711E+02  0.00000000000E+00 0. -1.
</event>
<event>
 7    1  0.6316620E-012  0.5930207E+02  0.7816164E-02  0.1266604E+00
        -11   -1    0    0    0    0  0.00000000000E+00  0.00000000000E+00  0.45593999997E+02  0.45594000000E+02  0.51100000000E-03 0.  1.
         11   -1    0    0    0    0 -0.00000000000E+00 -0.00000000000E+00 -0.45593999997E+02  0.45594000000E+02  0.51100000000E-03 0. -1.
    9900012    2    1    2    0    0  0.15209661710E+02  0.12629015795E+02  0.25017721339E+02  0.59302074731E+02  0.50000238371E+02 0.  0.
         12    1    1    2    0    0 -0.15209661710E+02 -0.12629015795E+02 -0.25017721339E+02  0.31885925269E+02  0.00000000000E+00 0. -1.
         11    1    3    3    0    0  0.46506927559E+01 -0.58900950965E+01  0.87923176169E+01  0.11559715078E+02  0.51100000000E-03 0. -1.
        -11    1    3    3    0    0  0.18997545999E+02  0.25269205346E+02  0.18598161495E+02  0.36678755487E+02  0.51100000000E-03 0.  1.
         12    1    3    3    0    0 -0.84385770449E+01 -0.67500944547E+01 -0.23727577728E+01  0.11063604166E+02  0.00000000000E+00 0. -1.
</event>
<event>
 7    1  0.6316620E-012  0.5930198E+02  0.7816164E-02  0.1266605E+00
        -11   -1    0    0    0    0  0.00000000000E+00  0.00000000000E+00  0.45593999997E+02  0.45594000000E+02  0.51100000000E-03 0. -1.
         11   -1    0    0    0    0 -0.00000000000E+00 -0.00000000000E+00 -0.45593999997E+02  0.45594000000E+02  0.51100000000E-03 0.  1.
    9900012    2    1    2    0    0 -0.10997921736E+02 -0.66105440329E+01 -0.29190146139E+02  0.59301981018E+02  0.50000067461E+02 0.  0.
         12    1    1    2    0    0  0.10997921736E+02  0.66105440329E+01  0.29190146139E+02  0.31886018982E+02  0.00000000000E+00 0. -1.
         11    1    3    3    0    0  0.85841871349E+01  0.53967020109E+01 -0.45022249613E+01  0.11094263888E+02  0.51100000000E-03 0. -1.
        -11    1    3    3    0    0 -0.17506661866E+02 -0.11253884221E+02 -0.33326697356E+02  0.39291244275E+02  0.51100000000E-03 0.  1.
         12    1    3    3    0    0 -0.20754470044E+01 -0.75336182321E+00  0.86387761785E+01  0.89164728546E+01  0.00000000000E+00 0. -1.
</event>
<event>
 7    1  0.6316620E-012  0.5930196E+02  0.7816164E-02  0.1266605E+00
        -11   -1    0    0    0    0  0.00000000000E+00  0.00000000000E+00  0.45593999997E+02  0.45594000000E+02  0.51100000000E-03 0.  1.
         11   -1    0    0    0    0 -0.00000000000E+00 -0.00000000000E+00 -0.45593999997E+02  0.45594000000E+02  0.51100000000E-03 0. -1.
    9900012    2    1    2    0    0  0.23864700215E+02 -0.12163259292E+02  0.17298867177E+02  0.59301959190E+02  0.50000027652E+02 0.  0.
         12    1    1    2    0    0 -0.23864700215E+02  0.12163259292E+02 -0.17298867177E+02  0.31886040810E+02  0.00000000000E+00 0. -1.
         11    1    3    3    0    0  0.19331292458E+02  0.79620070389E+01  0.13717081423E+02  0.25005014441E+02  0.51100000000E-03 0. -1.
        -11    1    3    3    0    0  0.16234697866E+01  0.31300085672E+01  0.94927142457E+01  0.10126412582E+02  0.51100000000E-03 0.  1.
         12    1    3    3    0    0  0.29099379703E+01 -0.23255274898E+02 -0.59109284922E+01  0.24170532166E+02  0.00000000000E+00 0. -1.
</event>
<event>
 7    1  0.6316620E-012  0.5930213E+02  0.7816164E-02  0.1266604E+00
        -11   -1    0    0    0    0  0.00000000000E+00  0.00000000000E+00  0.45593999997E+02  0.45594000000E+02  0.51100000000E-03 0.  1.
         11   -1    0    0    0    0 -0.00000000000E+00 -0.00000000000E+00 -0.45593999997E+02  0.45594000000E+02  0.51100000000E-03 0. -1.
    9900012    2    1    2    0    0  0.12592017859E+02  0.23166796175E+02  0.17929003079E+02  0.59302133065E+02  0.50000344758E+02 0.  0.
         12    1    1    2    0    0 -0.12592017859E+02 -0.23166796175E+02 -0.17929003079E+02  0.31885866935E+02  0.00000000000E+00 0. -1.
         11    1    3    3    0    0  0.69011040863E+01  0.15738709248E+02  0.80339910722E+01  0.18970430127E+02  0.51100000000E-03 0. -1.
        -11    1    3    3    0    0  0.14270682301E+02  0.11962340174E+01  0.20714054433E+02  0.25182442306E+02  0.51100000000E-03 0.  1.
         12    1    3    3    0    0 -0.85797685286E+01  0.62318529100E+01 -0.10819042426E+02  0.15149260633E+02  0.00000000000E+00 0. -1.
</event>
<event>
 7    1  0.6316620E-012  0.5930202E+02  0.7816164E-02  0.1266604E+00
        -11   -1    0    0    0    0  0.00000000000E+00  0.00000000000E+00  0.45593999997E+02  0.45594000000E+02  0.51100000000E-03 0.  1.
         11   -1    0    0    0    0 -0.00000000000E+00 -0.00000000000E+00 -0.45593999997E+02  0.45594000000E+02  0.51100000000E-03 0. -1.
    9900012    2    1    2    0    0 -0.56203357328E+01 -0.29680262021E+02  0.10208308252E+02  0.59302020562E+02  0.50000139580E+02 0.  0.
         12    1    1    2    0    0  0.56203357328E+01  0.29680262021E+02 -0.10208308252E+02  0.31885979438E+02  0.00000000000E+00 0. -1.
         11    1    3    3    0    0 -0.99868465753E+01 -0.38319348396E+01  0.17019967869E+02  0.20102242055E+02  0.51100000000E-03 0. -1.
        -11    1    3    3    0    0 -0.55442564048E+00 -0.13495219134E+02  0.10686195084E+02  0.17222749284E+02  0.51100000000E-03 0.  1.
         12    1    3    3    0    0  0.49209364831E+01 -0.12353108047E+02 -0.17497854701E+02  0.21977029222E+02  0.00000000000E+00 0. -1.
</event>
<event>
 7    1  0.6316620E-012  0.5930190E+02  0.7816164E-02  0.1266605E+00
        -11   -1    0    0    0    0  0.00000000000E+00  0.00000000000E+00  0.45593999997E+02  0.45594000000E+02  0.51100000000E-03 0. -1.
         11   -1    0    0    0    0 -0.00000000000E+00 -0.00000000000E+00 -0.45593999997E+02  0.45594000000E+02  0.51100000000E-03 0.  1.
    9900012    2    1    2    0    0  0.65779371149E+01 -0.43183733722E+01 -0.30899931492E+02  0.59301900027E+02  0.49999919753E+02 0.  0.
         12    1    1    2    0    0 -0.65779371149E+01  0.43183733722E+01  0.30899931492E+02  0.31886099973E+02  0.00000000000E+00 0. -1.
         11    1    3    3    0    0  0.20974858942E+01  0.10219783009E+02 -0.20656694165E+02  0.23141789600E+02  0.51100000000E-03 0. -1.
        -11    1    3    3    0    0  0.64405803185E+01 -0.13834033194E+02 -0.20577388520E+02  0.25618166754E+02  0.51100000000E-03 0.  1.
        -12    1    3    3    0    0 -0.19601290978E+01 -0.70412318653E+00  0.10334151192E+02  0.10541943673E+02  0.00000000000E+00 0.  1.
</event>
<event>
 7    1  0.6316620E-012  0.5930196E+02  0.7816164E-02  0.1266605E+00
        -11   -1    0    0    0    0  0.00000000000E+00  0.00000000000E+00  0.45593999997E+02  0.45594000000E+02  0.51100000000E-03 0.  1.
         11   -1    0    0    0    0 -0.00000000000E+00 -0.00000000000E+00 -0.45593999997E+02  0.45594000000E+02  0.51100000000E-03 0. -1.
    9900012    2    1    2    0    0 -0.12613574577E+02 -0.45674507276E+01  0.28926729735E+02  0.59301959748E+02  0.50000028671E+02 0.  0.
         12    1    1    2    0    0  0.12613574577E+02  0.45674507276E+01 -0.28926729735E+02  0.31886040252E+02  0.00000000000E+00 0. -1.
         11    1    3    3    0    0 -0.17500874829E+02 -0.12101273619E+02  0.18301828249E+02  0.28065608144E+02  0.51100000000E-03 0. -1.
        -11    1    3    3    0    0  0.33066299769E+00 -0.49346406061E+01  0.16125486959E+02  0.16866871252E+02  0.51100000000E-03 0.  1.
         12    1    3    3    0    0  0.45566372540E+01  0.12468463497E+02 -0.55005854727E+01  0.14369480352E+02  0.00000000000E+00 0. -1.
</event>
<event>
 7    1  0.6316620E-012  0.5930196E+02  0.7816164E-02  0.1266605E+00
        -11   -1    0    0    0    0  0.00000000000E+00  0.00000000000E+00  0.45593999997E+02  0.45594000000E+02  0.51100000000E-03 0.  1.
         11   -1    0    0    0    0 -0.00000000000E+00 -0.00000000000E+00 -0.45593999997E+02  0.45594000000E+02  0.51100000000E-03 0. -1.
    9900012    2    1    2    0    0 -0.25681298235E+02 -0.14602426341E+02  0.11998308041E+02  0.59301963402E+02  0.50000035333E+02 0.  0.
         12    1    1    2    0    0  0.25681298235E+02  0.14602426341E+02 -0.11998308041E+02  0.31886036598E+02  0.00000000000E+00 0. -1.
         11    1    3    3    0    0  0.13620375745E+02 -0.15786548053E+01  0.98647923752E+01  0.16891445032E+02  0.51100000000E-03 0. -1.
        -11    1    3    3    0    0 -0.42613142066E+01 -0.41347833125E+01 -0.13614948322E+01  0.60917074986E+01  0.51100000000E-03 0.  1.
        -12    1    3    3    0    0 -0.35040359773E+02 -0.88889882237E+01  0.34950104982E+01  0.36318810871E+02  0.00000000000E+00 0.  1.
</event>
<event>
 7    1  0.6316620E-012  0.5930194E+02  0.7816164E-02  0.1266605E+00
        -11   -1    0    0    0    0  0.00000000000E+00  0.00000000000E+00  0.45593999997E+02  0.45594000000E+02  0.51100000000E-03 0.  1.
         11   -1    0    0    0    0 -0.00000000000E+00 -0.00000000000E+00 -0.45593999997E+02  0.45594000000E+02  0.51100000000E-03 0. -1.
    9900012    2    1    2    0    0 -0.16320050098E+02  0.97886152663E+01 -0.25584367652E+02  0.59301938905E+02  0.49999990657E+02 0.  0.
         12    1    1    2    0    0  0.16320050098E+02 -0.97886152663E+01  0.25584367652E+02  0.31886061095E+02  0.00000000000E+00 0. -1.
         11    1    3    3    0    0  0.64609626215E+01  0.38435001167E+01 -0.16731562463E+02  0.18342892734E+02  0.51100000000E-03 0. -1.
        -11    1    3    3    0    0  0.71318841340E+01 -0.15149792002E+01  0.30616299920E+01  0.79077501065E+01  0.51100000000E-03 0.  1.
        -12    1    3    3    0    0 -0.29912896853E+02  0.74600943498E+01 -0.11914435181E+02  0.33051296064E+02  0.00000000000E+00 0.  1.
</event>
<event>
 7    1  0.6316620E-012  0.5930197E+02  0.7816164E-02  0.1266605E+00
        -11   -1    0    0    0    0  0.00000000000E+00  0.00000000000E+00  0.45593999997E+02  0.45594000000E+02  0.51100000000E-03 0.  1.
         11   -1    0    0    0    0 -0.00000000000E+00 -0.00000000000E+00 -0.45593999997E+02  0.45594000000E+02  0.51100000000E-03 0. -1.
    9900012    2    1    2    0    0 -0.61075779900E+01  0.94328841871E+01  0.29840189104E+02  0.59301973299E+02  0.50000053384E+02 0.  0.
         12    1    1    2    0    0  0.61075779900E+01 -0.94328841871E+01 -0.29840189104E+02  0.31886026701E+02  0.00000000000E+00 0. -1.
         11    1    3    3    0    0 -0.63240883079E+00  0.11638559590E+01 -0.65877720904E+01  0.67196162836E+01  0.51100000000E-03 0. -1.
        -11    1    3    3    0    0  0.27547099656E+01  0.21758713523E+02  0.23706578872E+02  0.32296004756E+02  0.51100000000E-03 0.  1.
         12    1    3    3    0    0 -0.82298791248E+01 -0.13489685295E+02  0.12721382323E+02  0.20286352259E+02  0.00000000000E+00 0. -1.
</event>
<event>
 7    1  0.6316620E-012  0.5930194E+02  0.7816164E-02  0.1266605E+00
        -11   -1    0    0    0    0  0.00000000000E+00  0.00000000000E+00  0.45593999997E+02  0.45594000000E+02  0.51100000000E-03 0.  1.
         11   -1    0    0    0    0 -0.00000000000E+00 -0.00000000000E+00 -0.45593999997E+02  0.45594000000E+02  0.51100000000E-03 0. -1.
    9900012    2    1    2    0    0  0.16307709175E+02  0.22010395325E+02  0.16319366889E+02  0.59301943226E+02  0.49999998539E+02 0.  0.
         12    1    1    2    0    0 -0.16307709175E+02 -0.22010395325E+02 -0.16319366889E+02  0.31886056774E+02  0.00000000000E+00 0. -1.
         11    1    3    3    0    0  0.32151962591E+01  0.10971166368E+02  0.19832806470E+02  0.22892011515E+02  0.51100000000E-03 0. -1.
        -11    1    3    3    0    0  0.10610984027E+02 -0.49234093117E+01  0.99684512611E+01  0.15368895929E+02  0.51100000000E-03 0.  1.
         12    1    3    3    0    0  0.24815288895E+01  0.15962638269E+02 -0.13481890842E+02  0.21041035783E+02  0.00000000000E+00 0. -1.
</event>
<event>
 7    1  0.6316620E-012  0.5930195E+02  0.7816164E-02  0.1266605E+00
        -11   -1    0    0    0    0  0.00000000000E+00  0.00000000000E+00  0.45593999997E+02  0.45594000000E+02  0.51100000000E-03 0. -1.
         11   -1    0    0    0    0 -0.00000000000E+00 -0.00000000000E+00 -0.45593999997E+02  0.45594000000E+02  0.51100000000E-03 0.  1.
    9900012    2    1    2    0    0 -0.28885426914E+02 -0.13459758349E+02  0.10897013998E+01  0.59301946121E+02  0.50000003818E+02 0.  0.
         12    1    1    2    0    0  0.28885426914E+02  0.13459758349E+02 -0.10897013998E+01  0.31886053879E+02  0.00000000000E+00 0. -1.
         11    1    3    3    0    0  0.32609899985E+01  0.11940072850E+01  0.94636606627E+01  0.10080703476E+02  0.51100000000E-03 0. -1.
        -11    1    3    3    0    0 -0.28157100604E+01 -0.14021531441E+01 -0.15866513448E+02  0.16175305433E+02  0.51100000000E-03 0.  1.
         12    1    3    3    0    0 -0.29330706852E+02 -0.13251612490E+02  0.74925541855E+01  0.33045937212E+02  0.00000000000E+00 0. -1.
</event>
<event>
 7    1  0.6316620E-012  0.5930196E+02  0.7816164E-02  0.1266605E+00
        -11   -1    0    0    0    0  0.00000000000E+00  0.00000000000E+00  0.45593999997E+02  0.45594000000E+02  0.51100000000E-03 0.  1.
         11   -1    0    0    0    0 -0.00000000000E+00 -0.00000000000E+00 -0.45593999997E+02  0.45594000000E+02  0.51100000000E-03 0. -1.
    9900012    2    1    2    0    0  0.23079179876E+02  0.83893765738E+01  0.20339361783E+02  0.59301955705E+02  0.50000021296E+02 0.  0.
         12    1    1    2    0    0 -0.23079179876E+02 -0.83893765738E+01 -0.20339361783E+02  0.31886044295E+02  0.00000000000E+00 0. -1.
         11    1    3    3    0    0  0.79717496212E+01 -0.13240170430E+02  0.21698901854E+01  0.15606387434E+02  0.51100000000E-03 0. -1.
        -11    1    3    3    0    0 -0.55739906073E+01 -0.38936022553E+01  0.42468373633E+01  0.80165539769E+01  0.51100000000E-03 0.  1.
         12    1    3    3    0    0  0.20681420862E+02  0.25523149260E+02  0.13922634235E+02  0.35679014294E+02  0.00000000000E+00 0. -1.
</event>
<event>
 7    1  0.6316620E-012  0.5930194E+02  0.7816164E-02  0.1266605E+00
        -11   -1    0    0    0    0  0.00000000000E+00  0.00000000000E+00  0.45593999997E+02  0.45594000000E+02  0.51100000000E-03 0.  1.
         11   -1    0    0    0    0 -0.00000000000E+00 -0.00000000000E+00 -0.45593999997E+02  0.45594000000E+02  0.51100000000E-03 0. -1.
    9900012    2    1    2    0    0 -0.26689269177E+02  0.16019792143E+01  0.17373461251E+02  0.59301943762E+02  0.49999999515E+02 0.  0.
         12    1    1    2    0    0  0.26689269177E+02 -0.16019792143E+01 -0.17373461251E+02  0.31886056238E+02  0.00000000000E+00 0. -1.
         11    1    3    3    0    0  0.12594599077E+02 -0.12545282435E+01  0.12744344115E+01  0.12720925688E+02  0.51100000000E-03 0. -1.
        -11    1    3    3    0    0 -0.23277476099E+02  0.10926459579E+02  0.10783084719E+02  0.27883746678E+02  0.51100000000E-03 0.  1.
        -12    1    3    3    0    0 -0.16006392154E+02 -0.80699521208E+01  0.53159421200E+01  0.18697271396E+02  0.00000000000E+00 0.  1.
</event>
<event>
 7    1  0.6316620E-012  0.5930194E+02  0.7816164E-02  0.1266605E+00
        -11   -1    0    0    0    0  0.00000000000E+00  0.00000000000E+00  0.45593999997E+02  0.45594000000E+02  0.51100000000E-03 0. -1.
         11   -1    0    0    0    0 -0.00000000000E+00 -0.00000000000E+00 -0.45593999997E+02  0.45594000000E+02  0.51100000000E-03 0.  1.
    9900012    2    1    2    0    0  0.74653400686E+01 -0.27536645856E+02 -0.14238061252E+02  0.59301944183E+02  0.50000000284E+02 0.  0.
         12    1    1    2    0    0 -0.74653400686E+01  0.27536645856E+02  0.14238061252E+02  0.31886055817E+02  0.00000000000E+00 0. -1.
         11    1    3    3    0    0  0.53414960646E+01 -0.14091535479E+02  0.13331268617E+02  0.20120280206E+02  0.51100000000E-03 0. -1.
        -11    1    3    3    0    0 -0.28088816402E+01  0.99142968332E+00  0.34836431076E+01  0.45835050396E+01  0.51100000000E-03 0.  1.
        -12    1    3    3    0    0  0.49327256443E+01 -0.14436540060E+02 -0.31052972977E+02  0.34598158938E+02  0.00000000000E+00 0.  1.
</event>
<event>
 7    1  0.6316620E-012  0.5930194E+02  0.7816164E-02  0.1266605E+00
        -11   -1    0    0    0    0  0.00000000000E+00  0.00000000000E+00  0.45593999997E+02  0.45594000000E+02  0.51100000000E-03 0.  1.
         11   -1    0    0    0    0 -0.00000000000E+00 -0.00000000000E+00 -0.45593999997E+02  0.45594000000E+02  0.51100000000E-03 0. -1.
    9900012    2    1    2    0    0 -0.23641926529E+02 -0.10995645669E+02  0.18354175378E+02  0.59301942428E+02  0.49999997082E+02 0.  0.
         12    1    1    2    0    0  0.23641926529E+02  0.10995645669E+02 -0.18354175378E+02  0.31886057572E+02  0.00000000000E+00 0. -1.
         11    1    3    3    0    0 -0.16194821224E+02 -0.90306822282E+01  0.14110421710E+02  0.23300846703E+02  0.51100000000E-03 0. -1.
        -11    1    3    3    0    0 -0.88690085200E+01  0.27017921118E+00  0.19020711249E+02  0.20988562734E+02  0.51100000000E-03 0.  1.
         12    1    3    3    0    0  0.14219032147E+01 -0.22351426523E+01 -0.14776957582E+02  0.15012532991E+02  0.00000000000E+00 0. -1.
</event>
<event>
 7    1  0.6316620E-012  0.5930197E+02  0.7816164E-02  0.1266605E+00
        -11   -1    0    0    0    0  0.00000000000E+00  0.00000000000E+00  0.45593999997E+02  0.45594000000E+02  0.51100000000E-03 0.  1.
         11   -1    0    0    0    0 -0.00000000000E+00 -0.00000000000E+00 -0.45593999997E+02  0.45594000000E+02  0.51100000000E-03 0. -1.
    9900012    2    1    2    0    0 -0.20368762608E+02  0.23101931796E+02 -0.82542935293E+01  0.59301966936E+02  0.50000041779E+02 0.  0.
         12    1    1    2    0    0  0.20368762608E+02 -0.23101931796E+02  0.82542935293E+01  0.31886033064E+02  0.00000000000E+00 0. -1.
         11    1    3    3    0    0  0.58060961984E+01 -0.76878155148E+01  0.69208402034E+01  0.11862178967E+02  0.51100000000E-03 0. -1.
        -11    1    3    3    0    0 -0.75808793875E+01 -0.14001501346E+01 -0.16663822844E+01  0.78871403478E+01  0.51100000000E-03 0.  1.
        -12    1    3    3    0    0 -0.18593979419E+02  0.32189897445E+02 -0.13508751448E+02  0.39552647622E+02  0.00000000000E+00 0.  1.
</event>
<event>
 7    1  0.6316620E-012  0.5930159E+02  0.7816164E-02  0.1266606E+00
        -11   -1    0    0    0    0  0.00000000000E+00  0.00000000000E+00  0.45593999997E+02  0.45594000000E+02  0.51100000000E-03 0. -1.
         11   -1    0    0    0    0 -0.00000000000E+00 -0.00000000000E+00 -0.45593999997E+02  0.45594000000E+02  0.51100000000E-03 0.  1.
    9900012    2    1    2    0    0 -0.30323133889E+02  0.60013491004E+01 -0.78252645945E+01  0.59301585874E+02  0.49999346809E+02 0.  0.
         12    1    1    2    0    0  0.30323133889E+02 -0.60013491004E+01  0.78252645945E+01  0.31886414126E+02  0.00000000000E+00 0. -1.
         11    1    3    3    0    0 -0.27068243379E+02  0.11856577046E+02 -0.21538731166E+02  0.36567542430E+02  0.51100000000E-03 0. -1.
        -11    1    3    3    0    0  0.10869117927E-01 -0.21833592428E+01 -0.38882016281E+01  0.44592923074E+01  0.51100000000E-03 0.  1.
         12    1    3    3    0    0 -0.32657596279E+01 -0.36718687029E+01  0.17601668199E+02  0.18274751137E+02  0.00000000000E+00 0. -1.
</event>
<event>
 7    1  0.6316620E-012  0.5930193E+02  0.7816164E-02  0.1266605E+00
        -11   -1    0    0    0    0  0.00000000000E+00  0.00000000000E+00  0.45593999997E+02  0.45594000000E+02  0.51100000000E-03 0. -1.
         11   -1    0    0    0    0 -0.00000000000E+00 -0.00000000000E+00 -0.45593999997E+02  0.45594000000E+02  0.51100000000E-03 0.  1.
    9900012    2    1    2    0    0  0.16876275990E+02  0.42902684903E-01 -0.27053855813E+02  0.59301927080E+02  0.49999969091E+02 0.  0.
         12    1    1    2    0    0 -0.16876275990E+02 -0.42902684903E-01  0.27053855813E+02  0.31886072920E+02  0.00000000000E+00 0. -1.
         11    1    3    3    0    0  0.99827356694E+01 -0.51214835036E+01  0.36644782342E+01  0.11803093057E+02  0.51100000000E-03 0. -1.
        -11    1    3    3    0    0  0.11176765858E+02 -0.12512285924E+02 -0.85697387187E+01  0.18839262620E+02  0.51100000000E-03 0.  1.
        -12    1    3    3    0    0 -0.42832255377E+01  0.17676672113E+02 -0.22148595328E+02  0.28659571403E+02  0.00000000000E+00 0.  1.
</event>
<event>
 7    1  0.6316620E-012  0.5930195E+02  0.7816164E-02  0.1266605E+00
        -11   -1    0    0    0    0  0.00000000000E+00  0.00000000000E+00  0.45593999997E+02  0.45594000000E+02  0.51100000000E-03 0.  1.
         11   -1    0    0    0    0 -0.00000000000E+00 -0.00000000000E+00 -0.45593999997E+02  0.45594000000E+02  0.51100000000E-03 0. -1.
    9900012    2    1    2    0    0  0.29475813116E+02 -0.59157544581E+01 -0.10625460557E+02  0.59301950986E+02  0.50000012690E+02 0.  0.
         12    1    1    2    0    0 -0.29475813116E+02  0.59157544581E+01  0.10625460557E+02  0.31886049014E+02  0.00000000000E+00 0. -1.
         11    1    3    3    0    0  0.99631717874E+01  0.91978504436E+00  0.74119939691E+01  0.12451845303E+02  0.51100000000E-03 0.  1.
        -11    1    3    3    0    0  0.31052892323E+02 -0.43968809205E+01 -0.11814972464E+02  0.33514299307E+02  0.51100000000E-03 0. -1.
         12    1    3    3    0    0 -0.11540250994E+02 -0.24386585820E+01 -0.62224820620E+01  0.13335806376E+02  0.00000000000E+00 0. -1.
</event>
<event>
 7    1  0.6316620E-012  0.5930192E+02  0.7816164E-02  0.1266605E+00
        -11   -1    0    0    0    0  0.00000000000E+00  0.00000000000E+00  0.45593999997E+02  0.45594000000E+02  0.51100000000E-03 0.  1.
         11   -1    0    0    0    0 -0.00000000000E+00 -0.00000000000E+00 -0.45593999997E+02  0.45594000000E+02  0.51100000000E-03 0. -1.
    9900012    2    1    2    0    0  0.13857840574E+02  0.12266152418E+02  0.25965819851E+02  0.59301920889E+02  0.49999957801E+02 0.  0.
         12    1    1    2    0    0 -0.13857840574E+02 -0.12266152418E+02 -0.25965819851E+02  0.31886079111E+02  0.00000000000E+00 0. -1.
         11    1    3    3    0    0  0.43574491941E+01 -0.86965794944E+01  0.23806918197E+02  0.25717449575E+02  0.51100000000E-03 0.  1.
        -11    1    3    3    0    0  0.11682272262E+02  0.13389386701E+02  0.11649804541E+02  0.21247802417E+02  0.51100000000E-03 0. -1.
         12    1    3    3    0    0 -0.21818808829E+01  0.75733452118E+01 -0.94909028861E+01  0.12336668897E+02  0.00000000000E+00 0. -1.
</event>
<event>
 7    1  0.6316620E-012  0.5930193E+02  0.7816164E-02  0.1266605E+00
        -11   -1    0    0    0    0  0.00000000000E+00  0.00000000000E+00  0.45593999997E+02  0.45594000000E+02  0.51100000000E-03 0.  1.
         11   -1    0    0    0    0 -0.00000000000E+00 -0.00000000000E+00 -0.45593999997E+02  0.45594000000E+02  0.51100000000E-03 0. -1.
    9900012    2    1    2    0    0  0.12248916367E+02 -0.29437274384E+02  0.36416031018E+00  0.59301926425E+02  0.49999967896E+02 0.  0.
         12    1    1    2    0    0 -0.12248916367E+02  0.29437274384E+02 -0.36416031018E+00  0.31886073575E+02  0.00000000000E+00 0. -1.
         11    1    3    3    0    0 -0.28941376684E+00 -0.22787656891E+01 -0.45878483744E+01  0.51307783388E+01  0.51100000000E-03 0. -1.
        -11    1    3    3    0    0 -0.15634154831E+02 -0.16328450406E+02  0.76567272446E+01  0.23867772463E+02  0.51100000000E-03 0.  1.
        -12    1    3    3    0    0  0.28172484966E+02 -0.10830058288E+02 -0.27047185600E+01  0.30303375623E+02  0.00000000000E+00 0.  1.
</event>
<event>
 7    1  0.6316620E-012  0.5930194E+02  0.7816164E-02  0.1266605E+00
        -11   -1    0    0    0    0  0.00000000000E+00  0.00000000000E+00  0.45593999997E+02  0.45594000000E+02  0.51100000000E-03 0.  1.
         11   -1    0    0    0    0 -0.00000000000E+00 -0.00000000000E+00 -0.45593999997E+02  0.45594000000E+02  0.51100000000E-03 0. -1.
    9900012    2    1    2    0    0  0.65062016640E+01 -0.59318799591E+01  0.30646421878E+02  0.59301936683E+02  0.49999986604E+02 0.  0.
         12    1    1    2    0    0 -0.65062016640E+01  0.59318799591E+01 -0.30646421878E+02  0.31886063317E+02  0.00000000000E+00 0. -1.
         11    1    3    3    0    0  0.57220556187E+01 -0.10231438650E+02  0.18531262184E+01  0.11868375389E+02  0.51100000000E-03 0. -1.
        -11    1    3    3    0    0  0.18440988377E+02  0.54351971034E+01  0.10185862498E+02  0.21756911890E+02  0.51100000000E-03 0.  1.
         12    1    3    3    0    0 -0.17656842332E+02 -0.11356384130E+01  0.18607433162E+02  0.25676649404E+02  0.00000000000E+00 0. -1.
</event>
<event>
 7    1  0.6316620E-012  0.5930204E+02  0.7816164E-02  0.1266604E+00
        -11   -1    0    0    0    0  0.00000000000E+00  0.00000000000E+00  0.45593999997E+02  0.45594000000E+02  0.51100000000E-03 0. -1.
         11   -1    0    0    0    0 -0.00000000000E+00 -0.00000000000E+00 -0.45593999997E+02  0.45594000000E+02  0.51100000000E-03 0.  1.
    9900012    2    1    2    0    0  0.24329129942E+02 -0.20444500670E+01  0.20509212257E+02  0.59302044985E+02  0.50000184122E+02 0.  0.
         12    1    1    2    0    0 -0.24329129942E+02  0.20444500670E+01 -0.20509212257E+02  0.31885955015E+02  0.00000000000E+00 0. -1.
         11    1    3    3    0    0  0.11986425716E+02 -0.11701300868E+01  0.30188846871E+02  0.32502462699E+02  0.51100000000E-03 0. -1.
        -11    1    3    3    0    0 -0.59654108191E+01 -0.25091130358E+01 -0.13103631063E+01  0.66029407235E+01  0.51100000000E-03 0.  1.
        -12    1    3    3    0    0  0.18308115045E+02  0.16347930555E+01 -0.83692715077E+01  0.20196641562E+02  0.00000000000E+00 0.  1.
</event>
<event>
 7    1  0.6316620E-012  0.5930194E+02  0.7816164E-02  0.1266605E+00
        -11   -1    0    0    0    0  0.00000000000E+00  0.00000000000E+00  0.45593999997E+02  0.45594000000E+02  0.51100000000E-03 0. -1.
         11   -1    0    0    0    0 -0.00000000000E+00 -0.00000000000E+00 -0.45593999997E+02  0.45594000000E+02  0.51100000000E-03 0.  1.
    9900012    2    1    2    0    0 -0.11020432021E+02 -0.22869154305E+02 -0.19294370326E+02  0.59301939302E+02  0.49999991381E+02 0.  0.
         12    1    1    2    0    0  0.11020432021E+02  0.22869154305E+02  0.19294370326E+02  0.31886060698E+02  0.00000000000E+00 0. -1.
         11    1    3    3    0    0  0.72502578091E+01 -0.21432371811E+02 -0.18741450812E+01  0.22702978214E+02  0.51100000000E-03 0.  1.
        -11    1    3    3    0    0 -0.15025479561E+02 -0.10753204420E+02 -0.19119129849E+02  0.26588297572E+02  0.51100000000E-03 0. -1.
        -12    1    3    3    0    0 -0.32452102692E+01  0.93164219256E+01  0.16989046036E+01  0.10010663516E+02  0.00000000000E+00 0.  1.
</event>
<event>
 7    1  0.6316620E-012  0.5930195E+02  0.7816164E-02  0.1266605E+00
        -11   -1    0    0    0    0  0.00000000000E+00  0.00000000000E+00  0.45593999997E+02  0.45594000000E+02  0.51100000000E-03 0. -1.
         11   -1    0    0    0    0 -0.00000000000E+00 -0.00000000000E+00 -0.45593999997E+02  0.45594000000E+02  0.51100000000E-03 0.  1.
    9900012    2    1    2    0    0  0.14697791142E+02  0.25058418597E+02 -0.13144234151E+02  0.59301948215E+02  0.50000007636E+02 0.  0.
         12    1    1    2    0    0 -0.14697791142E+02 -0.25058418597E+02  0.13144234151E+02  0.31886051785E+02  0.00000000000E+00 0. -1.
         11    1    3    3    0    0  0.22429248519E+02 -0.19679855020E+01 -0.10101625467E+02  0.24677661830E+02  0.51100000000E-03 0. -1.
        -11    1    3    3    0    0  0.36209820824E+01  0.12403431138E+02 -0.83276387901E+01  0.15372253684E+02  0.51100000000E-03 0.  1.
        -12    1    3    3    0    0 -0.11352439460E+02  0.14622972961E+02  0.52850301061E+01  0.19252032701E+02  0.00000000000E+00 0.  1.
</event>
<event>
 7    1  0.6316620E-012  0.5930196E+02  0.7816164E-02  0.1266605E+00
        -11   -1    0    0    0    0  0.00000000000E+00  0.00000000000E+00  0.45593999997E+02  0.45594000000E+02  0.51100000000E-03 0.  1.
         11   -1    0    0    0    0 -0.00000000000E+00 -0.00000000000E+00 -0.45593999997E+02  0.45594000000E+02  0.51100000000E-03 0. -1.
    9900012    2    1    2    0    0 -0.29092341560E+02 -0.94483184200E+00  0.13017782779E+02  0.59301957392E+02  0.50000024374E+02 0.  0.
         12    1    1    2    0    0  0.29092341560E+02  0.94483184200E+00 -0.13017782779E+02  0.31886042608E+02  0.00000000000E+00 0. -1.
         11    1    3    3    0    0  0.70487092075E+01 -0.63416912393E+00 -0.66569561536E+01  0.97160453613E+01  0.51100000000E-03 0. -1.
        -11    1    3    3    0    0  0.12821451454E+01 -0.21175833027E+01  0.10803104926E+02  0.11083101169E+02  0.51100000000E-03 0.  1.
        -12    1    3    3    0    0 -0.37423195913E+02  0.18069205847E+01  0.88716340075E+01  0.38502810863E+02  0.00000000000E+00 0.  1.
</event>
<event>
 7    1  0.6316620E-012  0.5930194E+02  0.7816164E-02  0.1266605E+00
        -11   -1    0    0    0    0  0.00000000000E+00  0.00000000000E+00  0.45593999997E+02  0.45594000000E+02  0.51100000000E-03 0.  1.
         11   -1    0    0    0    0 -0.00000000000E+00 -0.00000000000E+00 -0.45593999997E+02  0.45594000000E+02  0.51100000000E-03 0. -1.
    9900012    2    1    2    0    0  0.64518548539E+01 -0.10256454433E+02  0.29494055782E+02  0.59301943250E+02  0.49999998582E+02 0.  0.
         12    1    1    2    0    0 -0.64518548539E+01  0.10256454433E+02 -0.29494055782E+02  0.31886056750E+02  0.00000000000E+00 0. -1.
         11    1    3    3    0    0 -0.90429148918E+00 -0.25727820398E+01  0.18155915902E+01  0.32761751487E+01  0.51100000000E-03 0.  1.
        -11    1    3    3    0    0  0.19110939394E+02  0.14241493113E+02  0.13497163817E+02  0.27390172727E+02  0.51100000000E-03 0. -1.
         12    1    3    3    0    0 -0.11754793051E+02 -0.21925165506E+02  0.14181300374E+02  0.28635595375E+02  0.00000000000E+00 0. -1.
</event>
<event>
 7    1  0.6316620E-012  0.5930194E+02  0.7816164E-02  0.1266605E+00
        -11   -1    0    0    0    0  0.00000000000E+00  0.00000000000E+00  0.45593999997E+02  0.45594000000E+02  0.51100000000E-03 0.  1.
         11   -1    0    0    0    0 -0.00000000000E+00 -0.00000000000E+00 -0.45593999997E+02  0.45594000000E+02  0.51100000000E-03 0. -1.
    9900012    2    1    2    0    0 -0.58263262029E+01 -0.17860722319E+02  0.25763724303E+02  0.59301937704E+02  0.49999988467E+02 0.  0.
         12    1    1    2    0    0  0.58263262029E+01  0.17860722319E+02 -0.25763724303E+02  0.31886062296E+02  0.00000000000E+00 0. -1.
         11    1    3    3    0    0  0.65456339575E+00 -0.12966451929E+02 -0.11996009766E-01  0.12982968576E+02  0.51100000000E-03 0. -1.
        -11    1    3    3    0    0 -0.10663958758E+02 -0.18418112326E+02  0.62115364721E+01  0.22170477299E+02  0.51100000000E-03 0.  1.
         12    1    3    3    0    0  0.41830691589E+01  0.13523841936E+02  0.19564183841E+02  0.24148491830E+02  0.00000000000E+00 0. -1.
</event>
<event>
 7    1  0.6316620E-012  0.5930202E+02  0.7816164E-02  0.1266605E+00
        -11   -1    0    0    0    0  0.00000000000E+00  0.00000000000E+00  0.45593999997E+02  0.45594000000E+02  0.51100000000E-03 0. -1.
         11   -1    0    0    0    0 -0.00000000000E+00 -0.00000000000E+00 -0.45593999997E+02  0.45594000000E+02  0.51100000000E-03 0.  1.
    9900012    2    1    2    0    0 -0.24691722063E+02  0.19470714272E+02 -0.52844993126E+01  0.59302018979E+02  0.50000136693E+02 0.  0.
         12    1    1    2    0    0  0.24691722063E+02 -0.19470714272E+02  0.52844993126E+01  0.31885981021E+02  0.00000000000E+00 0. -1.
         11    1    3    3    0    0 -0.33133410543E+02  0.11421209235E+02 -0.34424637187E+01  0.35215301665E+02  0.51100000000E-03 0. -1.
        -11    1    3    3    0    0 -0.57628311556E+01 -0.25319266643E+01 -0.77493220258E+00  0.63420340381E+01  0.51100000000E-03 0.  1.
        -12    1    3    3    0    0  0.14204519636E+02  0.10581431701E+02 -0.10671033913E+01  0.17744683276E+02  0.00000000000E+00 0.  1.
</event>
<event>
 7    1  0.6316620E-012  0.5930196E+02  0.7816164E-02  0.1266605E+00
        -11   -1    0    0    0    0  0.00000000000E+00  0.00000000000E+00  0.45593999997E+02  0.45594000000E+02  0.51100000000E-03 0. -1.
         11   -1    0    0    0    0 -0.00000000000E+00 -0.00000000000E+00 -0.45593999997E+02  0.45594000000E+02  0.51100000000E-03 0.  1.
    9900012    2    1    2    0    0  0.16906837544E+02  0.16428931074E+02 -0.21470174623E+02  0.59301963396E+02  0.50000035323E+02 0.  0.
         12    1    1    2    0    0 -0.16906837544E+02 -0.16428931074E+02  0.21470174623E+02  0.31886036604E+02  0.00000000000E+00 0. -1.
         11    1    3    3    0    0 -0.39382174370E+01 -0.45188024278E+01  0.10304209259E+02  0.11920816276E+02  0.51100000000E-03 0. -1.
        -11    1    3    3    0    0 -0.32380367618E+01  0.34035708407E+01 -0.15689883480E+01  0.49528679808E+01  0.51100000000E-03 0.  1.
        -12    1    3    3    0    0  0.24083091743E+02  0.17544162661E+02 -0.30205395534E+02  0.42428279139E+02  0.00000000000E+00 0.  1.
</event>
<event>
 7    1  0.6316620E-012  0.5930190E+02  0.7816164E-02  0.1266605E+00
        -11   -1    0    0    0    0  0.00000000000E+00  0.00000000000E+00  0.45593999997E+02  0.45594000000E+02  0.51100000000E-03 0. -1.
         11   -1    0    0    0    0 -0.00000000000E+00 -0.00000000000E+00 -0.45593999997E+02  0.45594000000E+02  0.51100000000E-03 0.  1.
    9900012    2    1    2    0    0  0.23937542105E+02 -0.42321844775E+01 -0.20635073836E+02  0.59301896762E+02  0.49999913799E+02 0.  0.
         12    1    1    2    0    0 -0.23937542105E+02  0.42321844775E+01  0.20635073836E+02  0.31886103238E+02  0.00000000000E+00 0. -1.
         11    1    3    3    0    0  0.71589189917E+01 -0.22396394221E+01  0.62155212196E+01  0.97416020327E+01  0.51100000000E-03 0. -1.
        -11    1    3    3    0    0 -0.65939465098E+01 -0.86103224224E+01  0.28282649313E+01  0.11207893003E+02  0.51100000000E-03 0.  1.
         12    1    3    3    0    0  0.23372569623E+02  0.66177773670E+01 -0.29678859987E+02  0.38352401726E+02  0.00000000000E+00 0. -1.
</event>
<event>
 7    1  0.6316620E-012  0.5930203E+02  0.7816164E-02  0.1266604E+00
        -11   -1    0    0    0    0  0.00000000000E+00  0.00000000000E+00  0.45593999997E+02  0.45594000000E+02  0.51100000000E-03 0.  1.
         11   -1    0    0    0    0 -0.00000000000E+00 -0.00000000000E+00 -0.45593999997E+02  0.45594000000E+02  0.51100000000E-03 0. -1.
    9900012    2    1    2    0    0  0.20977820679E+02  0.25730823286E+00  0.24012074719E+02  0.59302032863E+02  0.50000162014E+02 0.  0.
         12    1    1    2    0    0 -0.20977820679E+02 -0.25730823286E+00 -0.24012074719E+02  0.31885967137E+02  0.00000000000E+00 0. -1.
         11    1    3    3    0    0 -0.95465500084E+01 -0.10845933132E+02  0.21376541202E+02  0.25801693677E+02  0.51100000000E-03 0. -1.
        -11    1    3    3    0    0  0.75314744620E+01 -0.32487854803E+00  0.20709928876E+01  0.78177788050E+01  0.51100000000E-03 0.  1.
        -12    1    3    3    0    0  0.22992896225E+02  0.11428119913E+02  0.56454062907E+00  0.25682560381E+02  0.00000000000E+00 0.  1.
</event>
<event>
 7    1  0.6316620E-012  0.5930195E+02  0.7816164E-02  0.1266605E+00
        -11   -1    0    0    0    0  0.00000000000E+00  0.00000000000E+00  0.45593999997E+02  0.45594000000E+02  0.51100000000E-03 0.  1.
         11   -1    0    0    0    0 -0.00000000000E+00 -0.00000000000E+00 -0.45593999997E+02  0.45594000000E+02  0.51100000000E-03 0. -1.
    9900012    2    1    2    0    0 -0.30403540967E+02 -0.71463036565E+01 -0.64245608353E+01  0.59301953816E+02  0.50000017852E+02 0.  0.
         12    1    1    2    0    0  0.30403540967E+02  0.71463036565E+01  0.64245608353E+01  0.31886046184E+02  0.00000000000E+00 0. -1.
         11    1    3    3    0    0  0.91638133622E+01 -0.11335002795E+02 -0.12885709761E+01  0.14632777560E+02  0.51100000000E-03 0. -1.
        -11    1    3    3    0    0 -0.15176667457E+00  0.32931859844E+01  0.29487273245E+01  0.44230193473E+01  0.51100000000E-03 0.  1.
         12    1    3    3    0    0 -0.39415587655E+02  0.89551315410E+00 -0.80847171837E+01  0.40246156909E+02  0.00000000000E+00 0. -1.
</event>
<event>
 7    1  0.6316620E-012  0.5930195E+02  0.7816164E-02  0.1266605E+00
        -11   -1    0    0    0    0  0.00000000000E+00  0.00000000000E+00  0.45593999997E+02  0.45594000000E+02  0.51100000000E-03 0.  1.
         11   -1    0    0    0    0 -0.00000000000E+00 -0.00000000000E+00 -0.45593999997E+02  0.45594000000E+02  0.51100000000E-03 0. -1.
    9900012    2    1    2    0    0 -0.20860232479E+02 -0.18954065450E+02  0.14910197619E+02  0.59301954632E+02  0.50000019340E+02 0.  0.
         12    1    1    2    0    0  0.20860232479E+02  0.18954065450E+02 -0.14910197619E+02  0.31886045368E+02  0.00000000000E+00 0. -1.
         11    1    3    3    0    0 -0.63335499319E+01 -0.19361234216E+01  0.14018922391E+02  0.15504599766E+02  0.51100000000E-03 0.  1.
        -11    1    3    3    0    0 -0.24677519893E+02 -0.15831238808E+02 -0.78469631888E+01  0.30350995731E+02  0.51100000000E-03 0. -1.
         12    1    3    3    0    0  0.10150837347E+02 -0.11867032208E+01  0.87382384164E+01  0.13446359135E+02  0.00000000000E+00 0. -1.
</event>
<event>
 7    1  0.6316620E-012  0.5930195E+02  0.7816164E-02  0.1266605E+00
        -11   -1    0    0    0    0  0.00000000000E+00  0.00000000000E+00  0.45593999997E+02  0.45594000000E+02  0.51100000000E-03 0. -1.
         11   -1    0    0    0    0 -0.00000000000E+00 -0.00000000000E+00 -0.45593999997E+02  0.45594000000E+02  0.51100000000E-03 0.  1.
    9900012    2    1    2    0    0  0.29158378555E+02  0.12658054047E+02 -0.25065121302E+01  0.59301953283E+02  0.50000016879E+02 0.  0.
         12    1    1    2    0    0 -0.29158378555E+02 -0.12658054047E+02  0.25065121302E+01  0.31886046717E+02  0.00000000000E+00 0. -1.
         11    1    3    3    0    0  0.82787898531E+01  0.99519139976E+01  0.73765849276E+01  0.14899428147E+02  0.51100000000E-03 0. -1.
        -11    1    3    3    0    0 -0.40530480632E+01  0.50838581076E+01  0.10338105594E+02  0.12212667169E+02  0.51100000000E-03 0.  1.
        -12    1    3    3    0    0  0.24932636765E+02 -0.23777180585E+01 -0.20221202651E+02  0.32189857966E+02  0.00000000000E+00 0.  1.
</event>
<event>
 7    1  0.6316620E-012  0.5930208E+02  0.7816164E-02  0.1266604E+00
        -11   -1    0    0    0    0  0.00000000000E+00  0.00000000000E+00  0.45593999997E+02  0.45594000000E+02  0.51100000000E-03 0. -1.
         11   -1    0    0    0    0 -0.00000000000E+00 -0.00000000000E+00 -0.45593999997E+02  0.45594000000E+02  0.51100000000E-03 0.  1.
    9900012    2    1    2    0    0  0.14044903423E+02  0.28515707379E+02  0.25113976015E+01  0.59302078382E+02  0.50000245030E+02 0.  0.
         12    1    1    2    0    0 -0.14044903423E+02 -0.28515707379E+02 -0.25113976015E+01  0.31885921618E+02  0.00000000000E+00 0. -1.
         11    1    3    3    0    0  0.38904022987E+00 -0.35858728126E+01  0.54151448943E+01  0.65064299440E+01  0.51100000000E-03 0. -1.
        -11    1    3    3    0    0 -0.85368666097E+01  0.67322074811E+01  0.11779512172E+02  0.16029897577E+02  0.51100000000E-03 0.  1.
        -12    1    3    3    0    0  0.22192729803E+02  0.25369372711E+02 -0.14683259464E+02  0.36765750861E+02  0.00000000000E+00 0.  1.
</event>
<event>
 7    1  0.6316620E-012  0.5930195E+02  0.7816164E-02  0.1266605E+00
        -11   -1    0    0    0    0  0.00000000000E+00  0.00000000000E+00  0.45593999997E+02  0.45594000000E+02  0.51100000000E-03 0.  1.
         11   -1    0    0    0    0 -0.00000000000E+00 -0.00000000000E+00 -0.45593999997E+02  0.45594000000E+02  0.51100000000E-03 0. -1.
    9900012    2    1    2    0    0  0.67372526759E+01  0.74589911755E+00  0.31157233656E+02  0.59301950571E+02  0.50000011934E+02 0.  0.
         12    1    1    2    0    0 -0.67372526759E+01 -0.74589911755E+00 -0.31157233656E+02  0.31886049429E+02  0.00000000000E+00 0. -1.
         11    1    3    3    0    0  0.18845072267E+02  0.15429127043E+01  0.20703101328E+02  0.28038112155E+02  0.51100000000E-03 0. -1.
        -11    1    3    3    0    0 -0.19957157804E+01  0.94009066524E+01  0.13511300199E+02  0.16580565753E+02  0.51100000000E-03 0.  1.
        -12    1    3    3    0    0 -0.10112103811E+02 -0.10197920239E+02 -0.30571678714E+01  0.14683272663E+02  0.00000000000E+00 0.  1.
</event>
<event>
 7    1  0.6316620E-012  0.5930193E+02  0.7816164E-02  0.1266605E+00
        -11   -1    0    0    0    0  0.00000000000E+00  0.00000000000E+00  0.45593999997E+02  0.45594000000E+02  0.51100000000E-03 0. -1.
         11   -1    0    0    0    0 -0.00000000000E+00 -0.00000000000E+00 -0.45593999997E+02  0.45594000000E+02  0.51100000000E-03 0.  1.
    9900012    2    1    2    0    0 -0.18851445103E+02  0.25024046321E+02 -0.59280156082E+01  0.59301933359E+02  0.49999980543E+02 0.  0.
         12    1    1    2    0    0  0.18851445103E+02 -0.25024046321E+02  0.59280156082E+01  0.31886066641E+02  0.00000000000E+00 0. -1.
         11    1    3    3    0    0 -0.10349249946E+02  0.10147593891E+02 -0.12173034322E+02  0.18927847239E+02  0.51100000000E-03 0. -1.
        -11    1    3    3    0    0 -0.91663770919E+01  0.22902545633E+02 -0.63054519543E+01  0.25461888973E+02  0.51100000000E-03 0.  1.
         12    1    3    3    0    0  0.66418193532E+00 -0.80260932031E+01  0.12550470669E+02  0.14912197147E+02  0.00000000000E+00 0. -1.
</event>
<event>
 7    1  0.6316620E-012  0.5930192E+02  0.7816164E-02  0.1266605E+00
        -11   -1    0    0    0    0  0.00000000000E+00  0.00000000000E+00  0.45593999997E+02  0.45594000000E+02  0.51100000000E-03 0. -1.
         11   -1    0    0    0    0 -0.00000000000E+00 -0.00000000000E+00 -0.45593999997E+02  0.45594000000E+02  0.51100000000E-03 0.  1.
    9900012    2    1    2    0    0  0.23104533344E+02 -0.14972684298E+02 -0.16084810125E+02  0.59301923840E+02  0.49999963182E+02 0.  0.
         12    1    1    2    0    0 -0.23104533344E+02  0.14972684298E+02  0.16084810125E+02  0.31886076160E+02  0.00000000000E+00 0. -1.
         11    1    3    3    0    0  0.10240068947E+02 -0.85059428311E+01 -0.17034987371E+02  0.21619455832E+02  0.51100000000E-03 0. -1.
        -11    1    3    3    0    0 -0.10350789085E+02  0.48623391630E+01 -0.22427865462E+01  0.11653809187E+02  0.51100000000E-03 0.  1.
         12    1    3    3    0    0  0.23215253483E+02 -0.11329080630E+02  0.31929637927E+01  0.26028658820E+02  0.00000000000E+00 0. -1.
</event>
<event>
 7    1  0.6316620E-012  0.5930192E+02  0.7816164E-02  0.1266605E+00
        -11   -1    0    0    0    0  0.00000000000E+00  0.00000000000E+00  0.45593999997E+02  0.45594000000E+02  0.51100000000E-03 0.  1.
         11   -1    0    0    0    0 -0.00000000000E+00 -0.00000000000E+00 -0.45593999997E+02  0.45594000000E+02  0.51100000000E-03 0. -1.
    9900012    2    1    2    0    0  0.31172173909E+02  0.61797534985E+01 -0.26131210759E+01  0.59301918691E+02  0.49999953792E+02 0.  0.
         12    1    1    2    0    0 -0.31172173909E+02 -0.61797534985E+01  0.26131210759E+01  0.31886081309E+02  0.00000000000E+00 0. -1.
         11    1    3    3    0    0 -0.51919973828E+01  0.19334431796E+01  0.34281580989E+00  0.55509064389E+01  0.51100000000E-03 0. -1.
        -11    1    3    3    0    0 -0.45928018842E+00  0.15080341354E+02 -0.29175843256E+01  0.15366845226E+02  0.51100000000E-03 0.  1.
         12    1    3    3    0    0  0.36823451480E+02 -0.10834031035E+02 -0.38352560185E-01  0.38384167026E+02  0.00000000000E+00 0. -1.
</event>
<event>
 7    1  0.6316620E-012  0.5930195E+02  0.7816164E-02  0.1266605E+00
        -11   -1    0    0    0    0  0.00000000000E+00  0.00000000000E+00  0.45593999997E+02  0.45594000000E+02  0.51100000000E-03 0. -1.
         11   -1    0    0    0    0 -0.00000000000E+00 -0.00000000000E+00 -0.45593999997E+02  0.45594000000E+02  0.51100000000E-03 0.  1.
    9900012    2    1    2    0    0  0.19660765366E+02  0.44740581851E-01  0.25103240344E+02  0.59301947058E+02  0.50000005526E+02 0.  0.
         12    1    1    2    0    0 -0.19660765366E+02 -0.44740581851E-01 -0.25103240344E+02  0.31886052942E+02  0.00000000000E+00 0. -1.
         11    1    3    3    0    0  0.23544750804E+02 -0.41107199852E+01  0.13140738334E+02  0.27275122611E+02  0.51100000000E-03 0. -1.
        -11    1    3    3    0    0 -0.13153971051E+02  0.53608679843E+01 -0.28727263654E+01  0.14492012179E+02  0.51100000000E-03 0.  1.
         12    1    3    3    0    0  0.92699856130E+01 -0.12054074172E+01  0.14835228375E+02  0.17534812267E+02  0.00000000000E+00 0. -1.
</event>
<event>
 7    1  0.6316620E-012  0.5930191E+02  0.7816164E-02  0.1266605E+00
        -11   -1    0    0    0    0  0.00000000000E+00  0.00000000000E+00  0.45593999997E+02  0.45594000000E+02  0.51100000000E-03 0.  1.
         11   -1    0    0    0    0 -0.00000000000E+00 -0.00000000000E+00 -0.45593999997E+02  0.45594000000E+02  0.51100000000E-03 0. -1.
    9900012    2    1    2    0    0  0.27789233288E+02 -0.87746993941E+00  0.15611245803E+02  0.59301914700E+02  0.49999946514E+02 0.  0.
         12    1    1    2    0    0 -0.27789233288E+02  0.87746993941E+00 -0.15611245803E+02  0.31886085300E+02  0.00000000000E+00 0. -1.
         11    1    3    3    0    0  0.62635320432E+00  0.40728923258E+01  0.14052850262E+02  0.14644567968E+02  0.51100000000E-03 0. -1.
        -11    1    3    3    0    0  0.76920220754E+01  0.14833091954E+02 -0.12623004480E+01  0.16756527779E+02  0.51100000000E-03 0.  1.
        -12    1    3    3    0    0  0.19470858008E+02 -0.19783454219E+02  0.28206959890E+01  0.27900818953E+02  0.00000000000E+00 0.  1.
</event>
<event>
 7    1  0.6316620E-012  0.5930196E+02  0.7816164E-02  0.1266605E+00
        -11   -1    0    0    0    0  0.00000000000E+00  0.00000000000E+00  0.45593999997E+02  0.45594000000E+02  0.51100000000E-03 0.  1.
         11   -1    0    0    0    0 -0.00000000000E+00 -0.00000000000E+00 -0.45593999997E+02  0.45594000000E+02  0.51100000000E-03 0. -1.
    9900012    2    1    2    0    0 -0.19135634213E+02 -0.13706572699E+02  0.21509924233E+02  0.59301961168E+02  0.50000031259E+02 0.  0.
         12    1    1    2    0    0  0.19135634213E+02  0.13706572699E+02 -0.21509924233E+02  0.31886038832E+02  0.00000000000E+00 0. -1.
         11    1    3    3    0    0 -0.11857610597E+02 -0.96714088244E+01 -0.46828710442E+01  0.16002136082E+02  0.51100000000E-03 0. -1.
        -11    1    3    3    0    0 -0.10809015863E+02  0.71733632987E+01  0.28509353088E+02  0.31322119640E+02  0.51100000000E-03 0.  1.
         12    1    3    3    0    0  0.35309922476E+01 -0.11208527174E+02 -0.23165578107E+01  0.11977705446E+02  0.00000000000E+00 0. -1.
</event>
<event>
 7    1  0.6316620E-012  0.5930198E+02  0.7816164E-02  0.1266605E+00
        -11   -1    0    0    0    0  0.00000000000E+00  0.00000000000E+00  0.45593999997E+02  0.45594000000E+02  0.51100000000E-03 0.  1.
         11   -1    0    0    0    0 -0.00000000000E+00 -0.00000000000E+00 -0.45593999997E+02  0.45594000000E+02  0.51100000000E-03 0. -1.
    9900012    2    1    2    0    0 -0.49245032830E+00 -0.31864908716E+02  0.10504475307E+01  0.59301978693E+02  0.50000063221E+02 0.  0.
         12    1    1    2    0    0  0.49245032830E+00  0.31864908716E+02 -0.10504475307E+01  0.31886021307E+02  0.00000000000E+00 0. -1.
         11    1    3    3    0    0 -0.79381568932E+01 -0.16618920208E+01 -0.95039981271E+01  0.12494086626E+02  0.51100000000E-03 0. -1.
        -11    1    3    3    0    0  0.31622666862E+01 -0.20283919282E+02 -0.10562890790E+02  0.23087052088E+02  0.51100000000E-03 0.  1.
        -12    1    3    3    0    0  0.42834398786E+01 -0.99190974129E+01  0.21117336447E+02  0.23720839979E+02  0.00000000000E+00 0.  1.
</event>
<event>
 7    1  0.6316620E-012  0.5930194E+02  0.7816164E-02  0.1266605E+00
        -11   -1    0    0    0    0  0.00000000000E+00  0.00000000000E+00  0.45593999997E+02  0.45594000000E+02  0.51100000000E-03 0. -1.
         11   -1    0    0    0    0 -0.00000000000E+00 -0.00000000000E+00 -0.45593999997E+02  0.45594000000E+02  0.51100000000E-03 0.  1.
    9900012    2    1    2    0    0  0.88375275056E+01 -0.13449844007E+02 -0.27526723491E+02  0.59301941881E+02  0.49999996084E+02 0.  0.
         12    1    1    2    0    0 -0.88375275056E+01  0.13449844007E+02  0.27526723491E+02  0.31886058119E+02  0.00000000000E+00 0. -1.
         11    1    3    3    0    0 -0.40253564526E+01  0.56529924354E+01 -0.83467050346E+01  0.10854828568E+02  0.51100000000E-03 0. -1.
        -11    1    3    3    0    0 -0.49205243202E+01  0.45710235223E+01  0.64308310169E+01  0.92984624243E+01  0.51100000000E-03 0.  1.
         12    1    3    3    0    0  0.17783408278E+02 -0.23673859965E+02 -0.25610849473E+02  0.39148650888E+02  0.00000000000E+00 0. -1.
</event>
<event>
 7    1  0.6316620E-012  0.5930194E+02  0.7816164E-02  0.1266605E+00
        -11   -1    0    0    0    0  0.00000000000E+00  0.00000000000E+00  0.45593999997E+02  0.45594000000E+02  0.51100000000E-03 0.  1.
         11   -1    0    0    0    0 -0.00000000000E+00 -0.00000000000E+00 -0.45593999997E+02  0.45594000000E+02  0.51100000000E-03 0. -1.
    9900012    2    1    2    0    0  0.12289036445E+02  0.22119190319E+02 -0.19402107343E+02  0.59301940876E+02  0.49999994252E+02 0.  0.
         12    1    1    2    0    0 -0.12289036445E+02 -0.22119190319E+02  0.19402107343E+02  0.31886059124E+02  0.00000000000E+00 0. -1.
         11    1    3    3    0    0  0.25138231822E+02 -0.33505149665E+01 -0.93932465624E+01  0.27044218068E+02  0.51100000000E-03 0. -1.
        -11    1    3    3    0    0 -0.24799810859E+01  0.95118702509E+01  0.16093599906E+01  0.99607239544E+01  0.51100000000E-03 0.  1.
        -12    1    3    3    0    0 -0.10369214291E+02  0.15957835034E+02 -0.11618220771E+02  0.22296998853E+02  0.00000000000E+00 0.  1.
</event>
<event>
 7    1  0.6316620E-012  0.5930197E+02  0.7816164E-02  0.1266605E+00
        -11   -1    0    0    0    0  0.00000000000E+00  0.00000000000E+00  0.45593999997E+02  0.45594000000E+02  0.51100000000E-03 0.  1.
         11   -1    0    0    0    0 -0.00000000000E+00 -0.00000000000E+00 -0.45593999997E+02  0.45594000000E+02  0.51100000000E-03 0. -1.
    9900012    2    1    2    0    0 -0.25757580051E+02 -0.10662166673E+02  0.15478510577E+02  0.59301968294E+02  0.50000044256E+02 0.  0.
         12    1    1    2    0    0  0.25757580051E+02  0.10662166673E+02 -0.15478510577E+02  0.31886031706E+02  0.00000000000E+00 0. -1.
         11    1    3    3    0    0  0.33120425501E+01  0.11847004428E+02 -0.42935261513E+01  0.13029025553E+02  0.51100000000E-03 0. -1.
        -11    1    3    3    0    0 -0.13925707992E+02  0.85678147628E-01  0.27785366516E+01  0.14200455979E+02  0.51100000000E-03 0.  1.
        -12    1    3    3    0    0 -0.15143914610E+02 -0.22594849249E+02  0.16993500077E+02  0.32072486763E+02  0.00000000000E+00 0.  1.
</event>
<event>
 7    1  0.6316620E-012  0.5930192E+02  0.7816164E-02  0.1266605E+00
        -11   -1    0    0    0    0  0.00000000000E+00  0.00000000000E+00  0.45593999997E+02  0.45594000000E+02  0.51100000000E-03 0.  1.
         11   -1    0    0    0    0 -0.00000000000E+00 -0.00000000000E+00 -0.45593999997E+02  0.45594000000E+02  0.51100000000E-03 0. -1.
    9900012    2    1    2    0    0 -0.76686336507E+01  0.96352122204E+01  0.29412183627E+02  0.59301924633E+02  0.49999964629E+02 0.  0.
         12    1    1    2    0    0  0.76686336507E+01 -0.96352122204E+01 -0.29412183627E+02  0.31886075367E+02  0.00000000000E+00 0. -1.
         11    1    3    3    0    0 -0.18975038063E+01  0.49677877669E+01 -0.63172799184E+01  0.82575699706E+01  0.51100000000E-03 0. -1.
        -11    1    3    3    0    0 -0.14520737454E+02 -0.10597758939E+02  0.12464901180E+02  0.21875513078E+02  0.51100000000E-03 0.  1.
        -12    1    3    3    0    0  0.87496076095E+01  0.15265183393E+02  0.23264562365E+02  0.29168841585E+02  0.00000000000E+00 0.  1.
</event>
<event>
 7    1  0.6316620E-012  0.5930199E+02  0.7816164E-02  0.1266605E+00
        -11   -1    0    0    0    0  0.00000000000E+00  0.00000000000E+00  0.45593999997E+02  0.45594000000E+02  0.51100000000E-03 0.  1.
         11   -1    0    0    0    0 -0.00000000000E+00 -0.00000000000E+00 -0.45593999997E+02  0.45594000000E+02  0.51100000000E-03 0. -1.
    9900012    2    1    2    0    0 -0.15740380065E+02  0.48929795177E+01  0.27294993481E+02  0.59301992375E+02  0.50000088174E+02 0.  0.
         12    1    1    2    0    0  0.15740380065E+02 -0.48929795177E+01 -0.27294993481E+02  0.31886007625E+02  0.00000000000E+00 0. -1.
         11    1    3    3    0    0 -0.18058123658E+02 -0.14362554226E+02  0.40041372864E+01  0.23418196122E+02  0.51100000000E-03 0. -1.
        -11    1    3    3    0    0  0.42575816308E+00 -0.20719306158E+01 -0.18857793741E+01  0.28337837954E+01  0.51100000000E-03 0.  1.
        -12    1    3    3    0    0  0.18919854300E+01  0.21327464360E+02  0.25176635568E+02  0.33050012457E+02  0.00000000000E+00 0.  1.
</event>
<event>
 7    1  0.6316620E-012  0.5930195E+02  0.7816164E-02  0.1266605E+00
        -11   -1    0    0    0    0  0.00000000000E+00  0.00000000000E+00  0.45593999997E+02  0.45594000000E+02  0.51100000000E-03 0. -1.
         11   -1    0    0    0    0 -0.00000000000E+00 -0.00000000000E+00 -0.45593999997E+02  0.45594000000E+02  0.51100000000E-03 0.  1.
    9900012    2    1    2    0    0 -0.86370958050E+01 -0.19274628505E+02 -0.23887438857E+02  0.59301945632E+02  0.50000002927E+02 0.  0.
         12    1    1    2    0    0  0.86370958050E+01  0.19274628505E+02  0.23887438857E+02  0.31886054368E+02  0.00000000000E+00 0. -1.
         11    1    3    3    0    0 -0.59953281398E+01 -0.10371774381E+02  0.25374113567E+01  0.12245657188E+02  0.51100000000E-03 0. -1.
        -11    1    3    3    0    0 -0.54710265495E+00 -0.23106592824E+02 -0.98407686401E+01  0.25120801757E+02  0.51100000000E-03 0.  1.
         12    1    3    3    0    0 -0.20946650102E+01  0.14203738699E+02 -0.16584081574E+02  0.21935486687E+02  0.00000000000E+00 0. -1.
</event>
<event>
 7    1  0.6316620E-012  0.5930194E+02  0.7816164E-02  0.1266605E+00
        -11   -1    0    0    0    0  0.00000000000E+00  0.00000000000E+00  0.45593999997E+02  0.45594000000E+02  0.51100000000E-03 0. -1.
         11   -1    0    0    0    0 -0.00000000000E+00 -0.00000000000E+00 -0.45593999997E+02  0.45594000000E+02  0.51100000000E-03 0.  1.
    9900012    2    1    2    0    0  0.31592006966E+01  0.28104961275E+02 -0.14725880781E+02  0.59301937808E+02  0.49999988657E+02 0.  0.
         12    1    1    2    0    0 -0.31592006966E+01 -0.28104961275E+02  0.14725880781E+02  0.31886062192E+02  0.00000000000E+00 0. -1.
         11    1    3    3    0    0  0.14921813447E+02  0.12413521730E+02 -0.13051130169E+02  0.23389913152E+02  0.51100000000E-03 0. -1.
        -11    1    3    3    0    0 -0.17313102589E+02  0.56304689463E+00 -0.73642340498E+01  0.18822658857E+02  0.51100000000E-03 0.  1.
         12    1    3    3    0    0  0.55504898382E+01  0.15128392651E+02  0.56894834378E+01  0.17089365799E+02  0.00000000000E+00 0. -1.
</event>
<event>
 7    1  0.6316620E-012  0.5930191E+02  0.7816164E-02  0.1266605E+00
        -11   -1    0    0    0    0  0.00000000000E+00  0.00000000000E+00  0.45593999997E+02  0.45594000000E+02  0.51100000000E-03 0. -1.
         11   -1    0    0    0    0 -0.00000000000E+00 -0.00000000000E+00 -0.45593999997E+02  0.45594000000E+02  0.51100000000E-03 0.  1.
    9900012    2    1    2    0    0 -0.27853153572E+02  0.83134148722E+01  0.13107689672E+02  0.59301912763E+02  0.49999942981E+02 0.  0.
         12    1    1    2    0    0  0.27853153572E+02 -0.83134148722E+01 -0.13107689672E+02  0.31886087237E+02  0.00000000000E+00 0. -1.
         11    1    3    3    0    0  0.24867779854E+01  0.62515070080E+01 -0.43887735552E+01  0.80328536772E+01  0.51100000000E-03 0. -1.
        -11    1    3    3    0    0 -0.21629806859E+02  0.91297475783E+01  0.27556522913E+02  0.36201695967E+02  0.51100000000E-03 0.  1.
        -12    1    3    3    0    0 -0.87101246982E+01 -0.70678397141E+01 -0.10060059686E+02  0.15067363119E+02  0.00000000000E+00 0.  1.
</event>
<event>
 7    1  0.6316620E-012  0.5930190E+02  0.7816164E-02  0.1266605E+00
        -11   -1    0    0    0    0  0.00000000000E+00  0.00000000000E+00  0.45593999997E+02  0.45594000000E+02  0.51100000000E-03 0. -1.
         11   -1    0    0    0    0 -0.00000000000E+00 -0.00000000000E+00 -0.45593999997E+02  0.45594000000E+02  0.51100000000E-03 0.  1.
    9900012    2    1    2    0    0  0.73186270841E+01  0.30542498538E+02 -0.55060920682E+01  0.59301896927E+02  0.49999914099E+02 0.  0.
         12    1    1    2    0    0 -0.73186270841E+01 -0.30542498538E+02  0.55060920682E+01  0.31886103073E+02  0.00000000000E+00 0. -1.
         11    1    3    3    0    0 -0.23011732423E+01 -0.26172605571E+01  0.22248679371E+01  0.41346691178E+01  0.51100000000E-03 0. -1.
        -11    1    3    3    0    0 -0.10271260622E+02  0.15297105546E+02 -0.18716102408E+02  0.26263905316E+02  0.51100000000E-03 0.  1.
        -12    1    3    3    0    0  0.19891060949E+02  0.17862653550E+02  0.10985142403E+02  0.28903322493E+02  0.00000000000E+00 0.  1.
</event>
<event>
 7    1  0.6316620E-012  0.5930213E+02  0.7816164E-02  0.1266604E+00
        -11   -1    0    0    0    0  0.00000000000E+00  0.00000000000E+00  0.45593999997E+02  0.45594000000E+02  0.51100000000E-03 0. -1.
         11   -1    0    0    0    0 -0.00000000000E+00 -0.00000000000E+00 -0.45593999997E+02  0.45594000000E+02  0.51100000000E-03 0.  1.
    9900012    2    1    2    0    0  0.26049980224E+02  0.14274226112E+02 -0.11591107879E+02  0.59302128793E+02  0.50000336966E+02 0.  0.
         12    1    1    2    0    0 -0.26049980224E+02 -0.14274226112E+02  0.11591107879E+02  0.31885871207E+02  0.00000000000E+00 0. -1.
         11    1    3    3    0    0 -0.22586388187E+01 -0.33344720552E+01 -0.95678499456E+01  0.10380939555E+02  0.51100000000E-03 0. -1.
        -11    1    3    3    0    0 -0.52626062744E+01 -0.40817949860E+01  0.50154947021E+01  0.83373414513E+01  0.51100000000E-03 0.  1.
        -12    1    3    3    0    0  0.33571225317E+02  0.21690493153E+02 -0.70387526358E+01  0.40583847787E+02  0.00000000000E+00 0.  1.
</event>
<event>
 7    1  0.6316620E-012  0.5930188E+02  0.7816164E-02  0.1266605E+00
        -11   -1    0    0    0    0  0.00000000000E+00  0.00000000000E+00  0.45593999997E+02  0.45594000000E+02  0.51100000000E-03 0.  1.
         11   -1    0    0    0    0 -0.00000000000E+00 -0.00000000000E+00 -0.45593999997E+02  0.45594000000E+02  0.51100000000E-03 0. -1.
    9900012    2    1    2    0    0 -0.29967285604E+02  0.45517493340E+01  0.98978658554E+01  0.59301884261E+02  0.49999890999E+02 0.  0.
         12    1    1    2    0    0  0.29967285604E+02 -0.45517493340E+01 -0.98978658554E+01  0.31886115739E+02  0.00000000000E+00 0. -1.
         11    1    3    3    0    0  0.28250692545E+00  0.34683464818E+01 -0.71781521088E+01  0.79771614900E+01  0.51100000000E-03 0. -1.
        -11    1    3    3    0    0 -0.23940705640E+02  0.12016106096E+02  0.24818209371E+02  0.36516950981E+02  0.51100000000E-03 0.  1.
         12    1    3    3    0    0 -0.63090868886E+01 -0.10932703244E+02 -0.77421914072E+01  0.14807771790E+02  0.00000000000E+00 0. -1.
</event>
<event>
 7    1  0.6316620E-012  0.5930191E+02  0.7816164E-02  0.1266605E+00
        -11   -1    0    0    0    0  0.00000000000E+00  0.00000000000E+00  0.45593999997E+02  0.45594000000E+02  0.51100000000E-03 0.  1.
         11   -1    0    0    0    0 -0.00000000000E+00 -0.00000000000E+00 -0.45593999997E+02  0.45594000000E+02  0.51100000000E-03 0. -1.
    9900012    2    1    2    0    0  0.23301868209E+02 -0.46000435091E+01  0.21274051007E+02  0.59301910422E+02  0.49999938712E+02 0.  0.
         12    1    1    2    0    0 -0.23301868209E+02  0.46000435091E+01 -0.21274051007E+02  0.31886089578E+02  0.00000000000E+00 0. -1.
         11    1    3    3    0    0  0.17565403910E+02 -0.51157234895E+01  0.85788392267E+01  0.20206695031E+02  0.51100000000E-03 0. -1.
        -11    1    3    3    0    0  0.65687498993E+01  0.13077048872E+02 -0.66022716802E+01  0.16054521919E+02  0.51100000000E-03 0.  1.
         12    1    3    3    0    0 -0.83228560045E+00 -0.12561368892E+02  0.19297483460E+02  0.23040693472E+02  0.00000000000E+00 0. -1.
</event>
<event>
 7    1  0.6316620E-012  0.5930195E+02  0.7816164E-02  0.1266605E+00
        -11   -1    0    0    0    0  0.00000000000E+00  0.00000000000E+00  0.45593999997E+02  0.45594000000E+02  0.51100000000E-03 0. -1.
         11   -1    0    0    0    0 -0.00000000000E+00 -0.00000000000E+00 -0.45593999997E+02  0.45594000000E+02  0.51100000000E-03 0.  1.
    9900012    2    1    2    0    0  0.15790111326E+02  0.11519916121E+02 -0.25192934401E+02  0.59301952474E+02  0.50000015404E+02 0.  0.
         12    1    1    2    0    0 -0.15790111326E+02 -0.11519916121E+02  0.25192934401E+02  0.31886047526E+02  0.00000000000E+00 0. -1.
         11    1    3    3    0    0 -0.30274987979E+01 -0.50133337884E+01  0.46232584374E+01  0.74614866806E+01  0.51100000000E-03 0. -1.
        -11    1    3    3    0    0  0.13748810464E+02 -0.72679414714E+01 -0.20617309869E+02  0.25824914887E+02  0.51100000000E-03 0.  1.
         12    1    3    3    0    0  0.50687996594E+01  0.23801191380E+02 -0.91988829689E+01  0.26015550907E+02  0.00000000000E+00 0. -1.
</event>
<event>
 7    1  0.6316620E-012  0.5930190E+02  0.7816164E-02  0.1266605E+00
        -11   -1    0    0    0    0  0.00000000000E+00  0.00000000000E+00  0.45593999997E+02  0.45594000000E+02  0.51100000000E-03 0.  1.
         11   -1    0    0    0    0 -0.00000000000E+00 -0.00000000000E+00 -0.45593999997E+02  0.45594000000E+02  0.51100000000E-03 0. -1.
    9900012    2    1    2    0    0  0.43667673681E+01  0.17334916506E+02  0.26403700566E+02  0.59301899720E+02  0.49999919193E+02 0.  0.
         12    1    1    2    0    0 -0.43667673681E+01 -0.17334916506E+02 -0.26403700566E+02  0.31886100280E+02  0.00000000000E+00 0. -1.
         11    1    3    3    0    0  0.57353222975E+01  0.75248147745E+00 -0.34704431701E+01  0.67456746355E+01  0.51100000000E-03 0. -1.
        -11    1    3    3    0    0  0.15513903640E+02 -0.40652891964E+01  0.73287796420E+01  0.17632889545E+02  0.51100000000E-03 0.  1.
         12    1    3    3    0    0 -0.16882458570E+02  0.20647724225E+02  0.22545364094E+02  0.34923335539E+02  0.00000000000E+00 0. -1.
</event>
<event>
 7    1  0.6316620E-012  0.5930193E+02  0.7816164E-02  0.1266605E+00
        -11   -1    0    0    0    0  0.00000000000E+00  0.00000000000E+00  0.45593999997E+02  0.45594000000E+02  0.51100000000E-03 0. -1.
         11   -1    0    0    0    0 -0.00000000000E+00 -0.00000000000E+00 -0.45593999997E+02  0.45594000000E+02  0.51100000000E-03 0.  1.
    9900012    2    1    2    0    0 -0.11435832851E+02  0.27345341105E+02 -0.11754818040E+02  0.59301926233E+02  0.49999967546E+02 0.  0.
         12    1    1    2    0    0  0.11435832851E+02 -0.27345341105E+02  0.11754818040E+02  0.31886073767E+02  0.00000000000E+00 0. -1.
         11    1    3    3    0    0 -0.97255959602E+01 -0.80668776196E+01 -0.21546967203E+01  0.12818129720E+02  0.51100000000E-03 0. -1.
        -11    1    3    3    0    0  0.11143061553E+02  0.62140903725E+01 -0.68039697386E+01  0.14459486312E+02  0.51100000000E-03 0.  1.
         12    1    3    3    0    0 -0.12853298444E+02  0.29198128352E+02 -0.27961515809E+01  0.32024310201E+02  0.00000000000E+00 0. -1.
</event>
<event>
 7    1  0.6316620E-012  0.5930195E+02  0.7816164E-02  0.1266605E+00
        -11   -1    0    0    0    0  0.00000000000E+00  0.00000000000E+00  0.45593999997E+02  0.45594000000E+02  0.51100000000E-03 0.  1.
         11   -1    0    0    0    0 -0.00000000000E+00 -0.00000000000E+00 -0.45593999997E+02  0.45594000000E+02  0.51100000000E-03 0. -1.
    9900012    2    1    2    0    0  0.13546185962E+02  0.16866943366E+02  0.23424932364E+02  0.59301946796E+02  0.50000005049E+02 0.  0.
         12    1    1    2    0    0 -0.13546185962E+02 -0.16866943366E+02 -0.23424932364E+02  0.31886053204E+02  0.00000000000E+00 0. -1.
         11    1    3    3    0    0  0.79078730222E+00 -0.87805740874E+01  0.24299396048E+01  0.91448582606E+01  0.51100000000E-03 0. -1.
        -11    1    3    3    0    0 -0.12150233601E+02  0.57179297782E+01  0.85387513958E+01  0.15913301769E+02  0.51100000000E-03 0.  1.
        -12    1    3    3    0    0  0.24905632262E+02  0.19929587675E+02  0.12456241364E+02  0.34243786767E+02  0.00000000000E+00 0.  1.
</event>
<event>
 7    1  0.6316620E-012  0.5930196E+02  0.7816164E-02  0.1266605E+00
        -11   -1    0    0    0    0  0.00000000000E+00  0.00000000000E+00  0.45593999997E+02  0.45594000000E+02  0.51100000000E-03 0. -1.
         11   -1    0    0    0    0 -0.00000000000E+00 -0.00000000000E+00 -0.45593999997E+02  0.45594000000E+02  0.51100000000E-03 0.  1.
    9900012    2    1    2    0    0 -0.11250720465E+02  0.18137370187E+02 -0.23689170155E+02  0.59301957742E+02  0.50000025011E+02 0.  0.
         12    1    1    2    0    0  0.11250720465E+02 -0.18137370187E+02  0.23689170155E+02  0.31886042258E+02  0.00000000000E+00 0. -1.
         11    1    3    3    0    0 -0.23058001809E+02 -0.39308999377E+01 -0.18848549652E+02  0.30039827662E+02  0.51100000000E-03 0. -1.
        -11    1    3    3    0    0  0.12330030465E+02  0.10247706418E+02 -0.65272511040E+01  0.17310405695E+02  0.51100000000E-03 0.  1.
        -12    1    3    3    0    0 -0.52274912095E+00  0.11820563706E+02  0.16866306008E+01  0.11951724384E+02  0.00000000000E+00 0.  1.
</event>
<event>
 7    1  0.6316620E-012  0.5930193E+02  0.7816164E-02  0.1266605E+00
        -11   -1    0    0    0    0  0.00000000000E+00  0.00000000000E+00  0.45593999997E+02  0.45594000000E+02  0.51100000000E-03 0.  1.
         11   -1    0    0    0    0 -0.00000000000E+00 -0.00000000000E+00 -0.45593999997E+02  0.45594000000E+02  0.51100000000E-03 0. -1.
    9900012    2    1    2    0    0 -0.21277545857E+02  0.35916412779E+01  0.23475261757E+02  0.59301925307E+02  0.49999965858E+02 0.  0.
         12    1    1    2    0    0  0.21277545857E+02 -0.35916412779E+01 -0.23475261757E+02  0.31886074693E+02  0.00000000000E+00 0. -1.
         11    1    3    3    0    0 -0.73192511951E+01  0.15153520293E+02  0.33296467534E+01  0.17154800002E+02  0.51100000000E-03 0. -1.
        -11    1    3    3    0    0 -0.17549581262E+02  0.48161158838E+01  0.35220182047E+01  0.18536110357E+02  0.51100000000E-03 0.  1.
         12    1    3    3    0    0  0.35912866001E+01 -0.16377994899E+02  0.16623596799E+02  0.23611014948E+02  0.00000000000E+00 0. -1.
</event>
<event>
 7    1  0.6316620E-012  0.5930196E+02  0.7816164E-02  0.1266605E+00
        -11   -1    0    0    0    0  0.00000000000E+00  0.00000000000E+00  0.45593999997E+02  0.45594000000E+02  0.51100000000E-03 0.  1.
         11   -1    0    0    0    0 -0.00000000000E+00 -0.00000000000E+00 -0.45593999997E+02  0.45594000000E+02  0.51100000000E-03 0. -1.
    9900012    2    1    2    0    0 -0.20782585447E+02  0.10487487417E+01  0.24159967665E+02  0.59301956511E+02  0.50000022767E+02 0.  0.
         12    1    1    2    0    0  0.20782585447E+02 -0.10487487417E+01 -0.24159967665E+02  0.31886043489E+02  0.00000000000E+00 0. -1.
         11    1    3    3    0    0 -0.10175445874E+02  0.30647644835E+01  0.14496968354E+02  0.17974831621E+02  0.51100000000E-03 0. -1.
        -11    1    3    3    0    0 -0.22799204000E+02  0.31262691325E+01 -0.27596479222E+01  0.23177422606E+02  0.51100000000E-03 0.  1.
         12    1    3    3    0    0  0.12192064428E+02 -0.51422848742E+01  0.12422647233E+02  0.18149702285E+02  0.00000000000E+00 0. -1.
</event>
<event>
 7    1  0.6316620E-012  0.5930194E+02  0.7816164E-02  0.1266605E+00
        -11   -1    0    0    0    0  0.00000000000E+00  0.00000000000E+00  0.45593999997E+02  0.45594000000E+02  0.51100000000E-03 0.  1.
         11   -1    0    0    0    0 -0.00000000000E+00 -0.00000000000E+00 -0.45593999997E+02  0.45594000000E+02  0.51100000000E-03 0. -1.
    9900012    2    1    2    0    0 -0.26834883794E+02 -0.61151694196E+01  0.16100146437E+02  0.59301937206E+02  0.49999987558E+02 0.  0.
         12    1    1    2    0    0  0.26834883794E+02  0.61151694196E+01 -0.16100146437E+02  0.31886062794E+02  0.00000000000E+00 0. -1.
         11    1    3    3    0    0  0.42334047355E+01  0.15350260931E+02  0.82885498671E+01  0.17951386729E+02  0.51100000000E-03 0. -1.
        -11    1    3    3    0    0 -0.45014596681E+01  0.11544459995E+01 -0.20683966806E+01  0.50866639164E+01  0.51100000000E-03 0.  1.
         12    1    3    3    0    0 -0.26566828861E+02 -0.22619876351E+02  0.98799932500E+01  0.36263886561E+02  0.00000000000E+00 0. -1.
</event>
<event>
 7    1  0.6316620E-012  0.5930195E+02  0.7816164E-02  0.1266605E+00
        -11   -1    0    0    0    0  0.00000000000E+00  0.00000000000E+00  0.45593999997E+02  0.45594000000E+02  0.51100000000E-03 0. -1.
         11   -1    0    0    0    0 -0.00000000000E+00 -0.00000000000E+00 -0.45593999997E+02  0.45594000000E+02  0.51100000000E-03 0.  1.
    9900012    2    1    2    0    0  0.25221551358E+02  0.19508756260E+02 -0.47230351173E-01  0.59301945769E+02  0.50000003175E+02 0.  0.
         12    1    1    2    0    0 -0.25221551358E+02 -0.19508756260E+02  0.47230351173E-01  0.31886054231E+02  0.00000000000E+00 0. -1.
         11    1    3    3    0    0  0.11909599043E+02 -0.11382863509E+02 -0.37969382594E+01  0.16906355948E+02  0.51100000000E-03 0. -1.
        -11    1    3    3    0    0  0.13864710101E+02  0.81030002366E+01 -0.65980713232E+01  0.17361547871E+02  0.51100000000E-03 0.  1.
         12    1    3    3    0    0 -0.55275778566E+00  0.22788619532E+02  0.10347779231E+02  0.25034041950E+02  0.00000000000E+00 0. -1.
</event>
<event>
 7    1  0.6316620E-012  0.5930185E+02  0.7816164E-02  0.1266605E+00
        -11   -1    0    0    0    0  0.00000000000E+00  0.00000000000E+00  0.45593999997E+02  0.45594000000E+02  0.51100000000E-03 0. -1.
         11   -1    0    0    0    0 -0.00000000000E+00 -0.00000000000E+00 -0.45593999997E+02  0.45594000000E+02  0.51100000000E-03 0.  1.
    9900012    2    1    2    0    0  0.98218018817E+01  0.24567616082E+02 -0.17795806467E+02  0.59301854420E+02  0.49999836577E+02 0.  0.
         12    1    1    2    0    0 -0.98218018817E+01 -0.24567616082E+02  0.17795806467E+02  0.31886145580E+02  0.00000000000E+00 0. -1.
         11    1    3    3    0    0  0.20625576886E+01  0.82682730787E+01  0.48529949826E+01  0.98066326782E+01  0.51100000000E-03 0. -1.
        -11    1    3    3    0    0  0.13286016148E+02  0.28038953445E+02 -0.15588125329E+02  0.34723058432E+02  0.51100000000E-03 0.  1.
         12    1    3    3    0    0 -0.55267719545E+01 -0.11739610442E+02 -0.70606761205E+01  0.14772163310E+02  0.00000000000E+00 0. -1.
</event>
<event>
 7    1  0.6316620E-012  0.5930194E+02  0.7816164E-02  0.1266605E+00
        -11   -1    0    0    0    0  0.00000000000E+00  0.00000000000E+00  0.45593999997E+02  0.45594000000E+02  0.51100000000E-03 0.  1.
         11   -1    0    0    0    0 -0.00000000000E+00 -0.00000000000E+00 -0.45593999997E+02  0.45594000000E+02  0.51100000000E-03 0. -1.
    9900012    2    1    2    0    0  0.83616474471E+01 -0.23201057611E+02 -0.20211748089E+02  0.59301937479E+02  0.49999988056E+02 0.  0.
         12    1    1    2    0    0 -0.83616474471E+01  0.23201057611E+02  0.20211748089E+02  0.31886062521E+02  0.00000000000E+00 0. -1.
         11    1    3    3    0    0  0.12957587443E+02 -0.15454813868E+02 -0.11656023026E+02  0.23294059695E+02  0.51100000000E-03 0. -1.
        -11    1    3    3    0    0  0.13569275057E+02  0.26613205148E+01 -0.14693770783E+01  0.13905643520E+02  0.51100000000E-03 0.  1.
         12    1    3    3    0    0 -0.18165215053E+02 -0.10407564257E+02 -0.70863479847E+01  0.22102234263E+02  0.00000000000E+00 0. -1.
</event>
<event>
 7    1  0.6316620E-012  0.5930194E+02  0.7816164E-02  0.1266605E+00
        -11   -1    0    0    0    0  0.00000000000E+00  0.00000000000E+00  0.45593999997E+02  0.45594000000E+02  0.51100000000E-03 0.  1.
         11   -1    0    0    0    0 -0.00000000000E+00 -0.00000000000E+00 -0.45593999997E+02  0.45594000000E+02  0.51100000000E-03 0. -1.
    9900012    2    1    2    0    0  0.22819071897E+02 -0.75063499504E+01  0.20968199533E+02  0.59301941550E+02  0.49999995482E+02 0.  0.
         12    1    1    2    0    0 -0.22819071897E+02  0.75063499504E+01 -0.20968199533E+02  0.31886058450E+02  0.00000000000E+00 0. -1.
         11    1    3    3    0    0 -0.47867721877E+01  0.14595662491E+02  0.40933176401E+01  0.15896597154E+02  0.51100000000E-03 0. -1.
        -11    1    3    3    0    0  0.19764037026E+02 -0.65624976936E+01  0.15470707941E+02  0.25942751203E+02  0.51100000000E-03 0.  1.
        -12    1    3    3    0    0  0.78418070585E+01 -0.15539514748E+02  0.14041739525E+01  0.17462593193E+02  0.00000000000E+00 0.  1.
</event>
<event>
 7    1  0.6316620E-012  0.5930197E+02  0.7816164E-02  0.1266605E+00
        -11   -1    0    0    0    0  0.00000000000E+00  0.00000000000E+00  0.45593999997E+02  0.45594000000E+02  0.51100000000E-03 0.  1.
         11   -1    0    0    0    0 -0.00000000000E+00 -0.00000000000E+00 -0.45593999997E+02  0.45594000000E+02  0.51100000000E-03 0. -1.
    9900012    2    1    2    0    0 -0.28224460848E+02 -0.95535738903E+01 -0.11350241093E+02  0.59301969562E+02  0.50000046569E+02 0.  0.
         12    1    1    2    0    0  0.28224460848E+02  0.95535738903E+01  0.11350241093E+02  0.31886030438E+02  0.00000000000E+00 0. -1.
         11    1    3    3    0    0 -0.20856502124E+02 -0.62596036101E+01  0.13869612854E+02  0.25817483982E+02  0.51100000000E-03 0. -1.
        -11    1    3    3    0    0 -0.20767121449E+01 -0.84209602397E+01 -0.17008442918E+01  0.88384487472E+01  0.51100000000E-03 0.  1.
         12    1    3    3    0    0 -0.52912465786E+01  0.51269899595E+01 -0.23519009655E+02  0.24646036832E+02  0.00000000000E+00 0. -1.
</event>
<event>
 7    1  0.6316620E-012  0.5930197E+02  0.7816164E-02  0.1266605E+00
        -11   -1    0    0    0    0  0.00000000000E+00  0.00000000000E+00  0.45593999997E+02  0.45594000000E+02  0.51100000000E-03 0.  1.
         11   -1    0    0    0    0 -0.00000000000E+00 -0.00000000000E+00 -0.45593999997E+02  0.45594000000E+02  0.51100000000E-03 0. -1.
    9900012    2    1    2    0    0 -0.18389956450E+02 -0.26037336815E+02  0.76531974035E+00  0.59301966679E+02  0.50000041310E+02 0.  0.
         12    1    1    2    0    0  0.18389956450E+02  0.26037336815E+02 -0.76531974035E+00  0.31886033321E+02  0.00000000000E+00 0. -1.
         11    1    3    3    0    0 -0.22006022077E+01  0.41923644085E+01 -0.41906726893E+01  0.63229982809E+01  0.51100000000E-03 0. -1.
        -11    1    3    3    0    0  0.32051210619E+01 -0.71438137187E+01  0.18377010730E+02  0.19975519996E+02  0.51100000000E-03 0.  1.
         12    1    3    3    0    0 -0.19394475304E+02 -0.23085887505E+02 -0.13421018300E+02  0.33003448402E+02  0.00000000000E+00 0. -1.
</event>
<event>
 7    1  0.6316620E-012  0.5930195E+02  0.7816164E-02  0.1266605E+00
        -11   -1    0    0    0    0  0.00000000000E+00  0.00000000000E+00  0.45593999997E+02  0.45594000000E+02  0.51100000000E-03 0. -1.
         11   -1    0    0    0    0 -0.00000000000E+00 -0.00000000000E+00 -0.45593999997E+02  0.45594000000E+02  0.51100000000E-03 0.  1.
    9900012    2    1    2    0    0  0.95605890486E+01 -0.29691516761E+02 -0.66127927293E+01  0.59301951982E+02  0.50000014508E+02 0.  0.
         12    1    1    2    0    0 -0.95605890486E+01  0.29691516761E+02  0.66127927293E+01  0.31886048018E+02  0.00000000000E+00 0. -1.
         11    1    3    3    0    0 -0.10129582358E+02 -0.11318802717E+02  0.11758879697E+02  0.19209242194E+02  0.51100000000E-03 0. -1.
        -11    1    3    3    0    0  0.13004783118E+02 -0.19323006583E+02 -0.32313063271E+01  0.23514767874E+02  0.51100000000E-03 0.  1.
        -12    1    3    3    0    0  0.66853882882E+01  0.95029253906E+00 -0.15140366099E+02  0.16577941914E+02  0.00000000000E+00 0.  1.
</event>
<event>
 7    1  0.6316620E-012  0.5930194E+02  0.7816164E-02  0.1266605E+00
        -11   -1    0    0    0    0  0.00000000000E+00  0.00000000000E+00  0.45593999997E+02  0.45594000000E+02  0.51100000000E-03 0.  1.
         11   -1    0    0    0    0 -0.00000000000E+00 -0.00000000000E+00 -0.45593999997E+02  0.45594000000E+02  0.51100000000E-03 0. -1.
    9900012    2    1    2    0    0 -0.12742166527E+02 -0.11308908643E+01  0.29207517849E+02  0.59301940023E+02  0.49999992696E+02 0.  0.
         12    1    1    2    0    0  0.12742166527E+02  0.11308908643E+01 -0.29207517849E+02  0.31886059977E+02  0.00000000000E+00 0. -1.
         11    1    3    3    0    0  0.65827464809E+01  0.27664886687E+01 -0.51133626464E+01  0.87825103815E+01  0.51100000000E-03 0. -1.
        -11    1    3    3    0    0 -0.11830134837E+01 -0.15397379550E+02  0.12145382721E+02  0.19646606313E+02  0.51100000000E-03 0.  1.
         12    1    3    3    0    0 -0.18141899524E+02  0.11500000017E+02  0.22175497775E+02  0.30872823329E+02  0.00000000000E+00 0. -1.
</event>
<event>
 7    1  0.6316620E-012  0.5930193E+02  0.7816164E-02  0.1266605E+00
        -11   -1    0    0    0    0  0.00000000000E+00  0.00000000000E+00  0.45593999997E+02  0.45594000000E+02  0.51100000000E-03 0. -1.
         11   -1    0    0    0    0 -0.00000000000E+00 -0.00000000000E+00 -0.45593999997E+02  0.45594000000E+02  0.51100000000E-03 0.  1.
    9900012    2    1    2    0    0 -0.22609419260E+02 -0.20807155216E+02 -0.85204488007E+01  0.59301927880E+02  0.49999970551E+02 0.  0.
         12    1    1    2    0    0  0.22609419260E+02  0.20807155216E+02  0.85204488007E+01  0.31886072120E+02  0.00000000000E+00 0. -1.
         11    1    3    3    0    0 -0.84995452510E+01 -0.57808319294E+01 -0.10219538253E+02  0.14494800779E+02  0.51100000000E-03 0. -1.
        -11    1    3    3    0    0 -0.10773835847E+02 -0.19261192647E+02  0.17465504512E+02  0.28144500869E+02  0.51100000000E-03 0.  1.
         12    1    3    3    0    0 -0.33360381617E+01  0.42348693601E+01 -0.15766415060E+02  0.16662626232E+02  0.00000000000E+00 0. -1.
</event>
<event>
 7    1  0.6316620E-012  0.5930200E+02  0.7816164E-02  0.1266605E+00
        -11   -1    0    0    0    0  0.00000000000E+00  0.00000000000E+00  0.45593999997E+02  0.45594000000E+02  0.51100000000E-03 0. -1.
         11   -1    0    0    0    0 -0.00000000000E+00 -0.00000000000E+00 -0.45593999997E+02  0.45594000000E+02  0.51100000000E-03 0.  1.
    9900012    2    1    2    0    0 -0.17940827650E+02  0.22310097784E+02 -0.14039355377E+02  0.59301995871E+02  0.50000094549E+02 0.  0.
         12    1    1    2    0    0  0.17940827650E+02 -0.22310097784E+02  0.14039355377E+02  0.31886004129E+02  0.00000000000E+00 0. -1.
         11    1    3    3    0    0  0.52322473463E+01  0.32879159158E+00 -0.10909771615E+01  0.53548807299E+01  0.51100000000E-03 0. -1.
        -11    1    3    3    0    0  0.48162482948E+01  0.83440169786E+01 -0.19842862201E+02  0.22058060830E+02  0.51100000000E-03 0.  1.
         12    1    3    3    0    0 -0.27989323291E+02  0.13637289214E+02  0.68944839858E+01  0.31889054311E+02  0.00000000000E+00 0. -1.
</event>
<event>
 7    1  0.6316620E-012  0.5930197E+02  0.7816164E-02  0.1266605E+00
        -11   -1    0    0    0    0  0.00000000000E+00  0.00000000000E+00  0.45593999997E+02  0.45594000000E+02  0.51100000000E-03 0.  1.
         11   -1    0    0    0    0 -0.00000000000E+00 -0.00000000000E+00 -0.45593999997E+02  0.45594000000E+02  0.51100000000E-03 0. -1.
    9900012    2    1    2    0    0 -0.23459037627E+02  0.80769658063E+01  0.20028861953E+02  0.59301966472E+02  0.50000040933E+02 0.  0.
         12    1    1    2    0    0  0.23459037627E+02 -0.80769658063E+01 -0.20028861953E+02  0.31886033528E+02  0.00000000000E+00 0. -1.
         11    1    3    3    0    0 -0.70459418326E+00  0.32415032534E+01  0.95220790532E+01  0.10083342009E+02  0.51100000000E-03 0. -1.
        -11    1    3    3    0    0 -0.29236855865E+02 -0.50710255398E+01  0.18468724402E+02  0.34951435195E+02  0.51100000000E-03 0.  1.
         12    1    3    3    0    0  0.64824124210E+01  0.99064880926E+01 -0.79619415031E+01  0.14267189268E+02  0.00000000000E+00 0. -1.
</event>
<event>
 7    1  0.6316620E-012  0.5930197E+02  0.7816164E-02  0.1266605E+00
        -11   -1    0    0    0    0  0.00000000000E+00  0.00000000000E+00  0.45593999997E+02  0.45594000000E+02  0.51100000000E-03 0.  1.
         11   -1    0    0    0    0 -0.00000000000E+00 -0.00000000000E+00 -0.45593999997E+02  0.45594000000E+02  0.51100000000E-03 0. -1.
    9900012    2    1    2    0    0 -0.23382884050E+02  0.88626495033E+00  0.21660422784E+02  0.59301974107E+02  0.50000054857E+02 0.  0.
         12    1    1    2    0    0  0.23382884050E+02 -0.88626495033E+00 -0.21660422784E+02  0.31886025893E+02  0.00000000000E+00 0. -1.
         11    1    3    3    0    0 -0.24589583622E+02 -0.45699078362E+01 -0.63992670123E+01  0.25816318461E+02  0.51100000000E-03 0. -1.
        -11    1    3    3    0    0  0.14005025083E+01 -0.54090965207E+01  0.34073824350E+01  0.65444623741E+01  0.51100000000E-03 0.  1.
        -12    1    3    3    0    0 -0.19380293700E+00  0.10865269307E+02  0.24652307361E+02  0.26941193272E+02  0.00000000000E+00 0.  1.
</event>
<event>
 7    1  0.6316620E-012  0.5930193E+02  0.7816164E-02  0.1266605E+00
        -11   -1    0    0    0    0  0.00000000000E+00  0.00000000000E+00  0.45593999997E+02  0.45594000000E+02  0.51100000000E-03 0.  1.
         11   -1    0    0    0    0 -0.00000000000E+00 -0.00000000000E+00 -0.45593999997E+02  0.45594000000E+02  0.51100000000E-03 0. -1.
    9900012    2    1    2    0    0  0.21680179307E+02 -0.60132372373E+01  0.22594954480E+02  0.59301934629E+02  0.49999982859E+02 0.  0.
         12    1    1    2    0    0 -0.21680179307E+02  0.60132372373E+01 -0.22594954480E+02  0.31886065371E+02  0.00000000000E+00 0. -1.
         11    1    3    3    0    0  0.21101205099E+02 -0.30260765746E+01  0.14488956564E+02  0.25774946336E+02  0.51100000000E-03 0. -1.
        -11    1    3    3    0    0  0.92328791984E+01 -0.96619635055E+01  0.15397969803E+02  0.20388650554E+02  0.51100000000E-03 0.  1.
         12    1    3    3    0    0 -0.86539049898E+01  0.66748028428E+01 -0.72919718867E+01  0.13138337740E+02  0.00000000000E+00 0. -1.
</event>
<event>
 7    1  0.6316620E-012  0.5930194E+02  0.7816164E-02  0.1266605E+00
        -11   -1    0    0    0    0  0.00000000000E+00  0.00000000000E+00  0.45593999997E+02  0.45594000000E+02  0.51100000000E-03 0.  1.
         11   -1    0    0    0    0 -0.00000000000E+00 -0.00000000000E+00 -0.45593999997E+02  0.45594000000E+02  0.51100000000E-03 0. -1.
    9900012    2    1    2    0    0 -0.24465945072E+02  0.12901496260E+02  0.15864727564E+02  0.59301942629E+02  0.49999997448E+02 0.  0.
         12    1    1    2    0    0  0.24465945072E+02 -0.12901496260E+02 -0.15864727564E+02  0.31886057371E+02  0.00000000000E+00 0. -1.
         11    1    3    3    0    0  0.32783825315E+01  0.97114835982E+01  0.29946484530E+00  0.10254286185E+02  0.51100000000E-03 0. -1.
        -11    1    3    3    0    0 -0.78907653930E+01  0.19303336219E+02  0.54874532605E+01  0.21563745296E+02  0.51100000000E-03 0.  1.
        -12    1    3    3    0    0 -0.19853562210E+02 -0.16113323557E+02  0.10077809458E+02  0.27483911147E+02  0.00000000000E+00 0.  1.
</event>
<event>
 7    1  0.6316620E-012  0.5930196E+02  0.7816164E-02  0.1266605E+00
        -11   -1    0    0    0    0  0.00000000000E+00  0.00000000000E+00  0.45593999997E+02  0.45594000000E+02  0.51100000000E-03 0. -1.
         11   -1    0    0    0    0 -0.00000000000E+00 -0.00000000000E+00 -0.45593999997E+02  0.45594000000E+02  0.51100000000E-03 0.  1.
    9900012    2    1    2    0    0 -0.97214597079E+01 -0.69443373969E+01 -0.29563307993E+02  0.59301956341E+02  0.50000022457E+02 0.  0.
         12    1    1    2    0    0  0.97214597079E+01  0.69443373969E+01  0.29563307993E+02  0.31886043659E+02  0.00000000000E+00 0. -1.
         11    1    3    3    0    0  0.77025196113E-01 -0.11688340527E+02 -0.10405842966E+02  0.15649434662E+02  0.51100000000E-03 0. -1.
        -11    1    3    3    0    0  0.12398611118E+02  0.49647014814E+01 -0.16602659715E+02  0.21307795013E+02  0.51100000000E-03 0.  1.
         12    1    3    3    0    0 -0.22197096022E+02 -0.22069835125E+00 -0.25548053123E+01  0.22344726666E+02  0.00000000000E+00 0. -1.
</event>
<event>
 7    1  0.6316620E-012  0.5930194E+02  0.7816164E-02  0.1266605E+00
        -11   -1    0    0    0    0  0.00000000000E+00  0.00000000000E+00  0.45593999997E+02  0.45594000000E+02  0.51100000000E-03 0.  1.
         11   -1    0    0    0    0 -0.00000000000E+00 -0.00000000000E+00 -0.45593999997E+02  0.45594000000E+02  0.51100000000E-03 0. -1.
    9900012    2    1    2    0    0  0.17180560993E+02  0.26426292591E+02 -0.48166400970E+01  0.59301942890E+02  0.49999997926E+02 0.  0.
         12    1    1    2    0    0 -0.17180560993E+02 -0.26426292591E+02  0.48166400970E+01  0.31886057110E+02  0.00000000000E+00 0. -1.
         11    1    3    3    0    0  0.52336941903E+01 -0.93333689522E+00 -0.12779242838E+01  0.54677018366E+01  0.51100000000E-03 0. -1.
        -11    1    3    3    0    0  0.20039025356E+02  0.80578986693E+01  0.14656221433E+02  0.26101668436E+02  0.51100000000E-03 0.  1.
         12    1    3    3    0    0 -0.80921585532E+01  0.19301730817E+02 -0.18194937246E+02  0.27732572618E+02  0.00000000000E+00 0. -1.
</event>
<event>
 7    1  0.6316620E-012  0.5930193E+02  0.7816164E-02  0.1266605E+00
        -11   -1    0    0    0    0  0.00000000000E+00  0.00000000000E+00  0.45593999997E+02  0.45594000000E+02  0.51100000000E-03 0. -1.
         11   -1    0    0    0    0 -0.00000000000E+00 -0.00000000000E+00 -0.45593999997E+02  0.45594000000E+02  0.51100000000E-03 0.  1.
    9900012    2    1    2    0    0  0.14638703895E+02 -0.23956753318E+02 -0.15116346801E+02  0.59301927463E+02  0.49999969790E+02 0.  0.
         12    1    1    2    0    0 -0.14638703895E+02  0.23956753318E+02  0.15116346801E+02  0.31886072537E+02  0.00000000000E+00 0. -1.
         11    1    3    3    0    0  0.92523236968E+01 -0.12734657236E+02  0.26894004822E+01  0.15969028271E+02  0.51100000000E-03 0. -1.
        -11    1    3    3    0    0  0.65688488034E+01  0.10139398601E+02  0.40565697095E+01  0.12744133421E+02  0.51100000000E-03 0.  1.
        -12    1    3    3    0    0 -0.11824686056E+01 -0.21361494682E+02 -0.21862316992E+02  0.30588765770E+02  0.00000000000E+00 0.  1.
</event>
<event>
 7    1  0.6316620E-012  0.5930193E+02  0.7816164E-02  0.1266605E+00
        -11   -1    0    0    0    0  0.00000000000E+00  0.00000000000E+00  0.45593999997E+02  0.45594000000E+02  0.51100000000E-03 0.  1.
         11   -1    0    0    0    0 -0.00000000000E+00 -0.00000000000E+00 -0.45593999997E+02  0.45594000000E+02  0.51100000000E-03 0. -1.
    9900012    2    1    2    0    0 -0.81818782440E+00  0.27602146485E+02  0.15942828732E+02  0.59301926083E+02  0.49999967272E+02 0.  0.
         12    1    1    2    0    0  0.81818782440E+00 -0.27602146485E+02 -0.15942828732E+02  0.31886073917E+02  0.00000000000E+00 0. -1.
         11    1    3    3    0    0 -0.15087700613E+02  0.37054320693E+01  0.89675835677E+01  0.17938408288E+02  0.51100000000E-03 0. -1.
        -11    1    3    3    0    0  0.12403498977E+02  0.25622179236E+02  0.15538356941E+02  0.32431210159E+02  0.51100000000E-03 0.  1.
         12    1    3    3    0    0  0.18660138115E+01 -0.17254648202E+01 -0.85631117772E+01  0.89323076358E+01  0.00000000000E+00 0. -1.
</event>
<event>
 7    1  0.6316620E-012  0.5930197E+02  0.7816164E-02  0.1266605E+00
        -11   -1    0    0    0    0  0.00000000000E+00  0.00000000000E+00  0.45593999997E+02  0.45594000000E+02  0.51100000000E-03 0.  1.
         11   -1    0    0    0    0 -0.00000000000E+00 -0.00000000000E+00 -0.45593999997E+02  0.45594000000E+02  0.51100000000E-03 0. -1.
    9900012    2    1    2    0    0  0.21570889267E+02  0.26545647181E+01  0.23331721919E+02  0.59301965042E+02  0.50000038325E+02 0.  0.
         12    1    1    2    0    0 -0.21570889267E+02 -0.26545647181E+01 -0.23331721919E+02  0.31886034958E+02  0.00000000000E+00 0. -1.
         11    1    3    3    0    0  0.16144649427E+02 -0.11880557817E+02 -0.16419077686E+01  0.20112016819E+02  0.51100000000E-03 0. -1.
        -11    1    3    3    0    0  0.15301294586E+02  0.51019635591E+01  0.16725852951E+02  0.23236045390E+02  0.51100000000E-03 0.  1.
        -12    1    3    3    0    0 -0.98750547454E+01  0.94331589760E+01  0.82477767369E+01  0.15953902833E+02  0.00000000000E+00 0.  1.
</event>
<event>
 7    1  0.6316620E-012  0.5930198E+02  0.7816164E-02  0.1266605E+00
        -11   -1    0    0    0    0  0.00000000000E+00  0.00000000000E+00  0.45593999997E+02  0.45594000000E+02  0.51100000000E-03 0. -1.
         11   -1    0    0    0    0 -0.00000000000E+00 -0.00000000000E+00 -0.45593999997E+02  0.45594000000E+02  0.51100000000E-03 0.  1.
    9900012    2    1    2    0    0  0.23815288244E+02  0.21221176671E+01  0.21096140386E+02  0.59301976781E+02  0.50000059734E+02 0.  0.
         12    1    1    2    0    0 -0.23815288244E+02 -0.21221176671E+01 -0.21096140386E+02  0.31886023219E+02  0.00000000000E+00 0. -1.
         11    1    3    3    0    0  0.12445179202E+02  0.10709148047E+02  0.13747479676E+02  0.21414049943E+02  0.51100000000E-03 0. -1.
        -11    1    3    3    0    0  0.10688057157E+02 -0.13941971942E+02  0.18491803245E+02  0.25506076432E+02  0.51100000000E-03 0.  1.
        -12    1    3    3    0    0  0.68205188524E+00  0.53549415623E+01 -0.11143142535E+02  0.12381850406E+02  0.00000000000E+00 0.  1.
</event>
<event>
 7    1  0.6316620E-012  0.5930196E+02  0.7816164E-02  0.1266605E+00
        -11   -1    0    0    0    0  0.00000000000E+00  0.00000000000E+00  0.45593999997E+02  0.45594000000E+02  0.51100000000E-03 0.  1.
         11   -1    0    0    0    0 -0.00000000000E+00 -0.00000000000E+00 -0.45593999997E+02  0.45594000000E+02  0.51100000000E-03 0. -1.
    9900012    2    1    2    0    0 -0.14813836965E+02 -0.27326658400E+02  0.71079711206E+01  0.59301964210E+02  0.50000036808E+02 0.  0.
         12    1    1    2    0    0  0.14813836965E+02  0.27326658400E+02 -0.71079711206E+01  0.31886035790E+02  0.00000000000E+00 0. -1.
         11    1    3    3    0    0  0.13866156486E+02 -0.21365881790E+01  0.48077794197E+01  0.14830712995E+02  0.51100000000E-03 0. -1.
        -11    1    3    3    0    0 -0.18571437300E+02 -0.40585316862E+01  0.75689484714E+01  0.20461156958E+02  0.51100000000E-03 0.  1.
        -12    1    3    3    0    0 -0.10108556152E+02 -0.21131538535E+02 -0.52687567705E+01  0.24010094257E+02  0.00000000000E+00 0.  1.
</event>
<event>
 7    1  0.6316620E-012  0.5930193E+02  0.7816164E-02  0.1266605E+00
        -11   -1    0    0    0    0  0.00000000000E+00  0.00000000000E+00  0.45593999997E+02  0.45594000000E+02  0.51100000000E-03 0.  1.
         11   -1    0    0    0    0 -0.00000000000E+00 -0.00000000000E+00 -0.45593999997E+02  0.45594000000E+02  0.51100000000E-03 0. -1.
    9900012    2    1    2    0    0 -0.20960022579E+02  0.18731445729E+02  0.15050985705E+02  0.59301925041E+02  0.49999965372E+02 0.  0.
         12    1    1    2    0    0  0.20960022579E+02 -0.18731445729E+02 -0.15050985705E+02  0.31886074959E+02  0.00000000000E+00 0. -1.
         11    1    3    3    0    0  0.70966852709E+01 -0.89543209811E+01 -0.39226151456E+01  0.12080137247E+02  0.51100000000E-03 0. -1.
        -11    1    3    3    0    0 -0.13020209682E+02  0.64275625316E+01  0.15008792333E+02  0.20883085687E+02  0.51100000000E-03 0.  1.
        -12    1    3    3    0    0 -0.15036498168E+02  0.21258204178E+02  0.39648085175E+01  0.26338702106E+02  0.00000000000E+00 0.  1.
</event>
<event>
 7    1  0.6316620E-012  0.5930196E+02  0.7816164E-02  0.1266605E+00
        -11   -1    0    0    0    0  0.00000000000E+00  0.00000000000E+00  0.45593999997E+02  0.45594000000E+02  0.51100000000E-03 0. -1.
         11   -1    0    0    0    0 -0.00000000000E+00 -0.00000000000E+00 -0.45593999997E+02  0.45594000000E+02  0.51100000000E-03 0.  1.
    9900012    2    1    2    0    0 -0.12873608932E+02  0.24663278177E+02 -0.15579232395E+02  0.59301959490E+02  0.50000028200E+02 0.  0.
         12    1    1    2    0    0  0.12873608932E+02 -0.24663278177E+02  0.15579232395E+02  0.31886040510E+02  0.00000000000E+00 0. -1.
         11    1    3    3    0    0  0.11429149655E+02  0.16889119723E+02  0.72722386659E+01  0.21650710896E+02  0.51100000000E-03 0. -1.
        -11    1    3    3    0    0 -0.13454275060E+02  0.11491143276E+02 -0.96121742000E+01  0.20135982328E+02  0.51100000000E-03 0.  1.
        -12    1    3    3    0    0 -0.10848483527E+02 -0.37169848222E+01 -0.13239296861E+02  0.17515266266E+02  0.00000000000E+00 0.  1.
</event>
<event>
 7    1  0.6316620E-012  0.5930183E+02  0.7816164E-02  0.1266605E+00
        -11   -1    0    0    0    0  0.00000000000E+00  0.00000000000E+00  0.45593999997E+02  0.45594000000E+02  0.51100000000E-03 0. -1.
         11   -1    0    0    0    0 -0.00000000000E+00 -0.00000000000E+00 -0.45593999997E+02  0.45594000000E+02  0.51100000000E-03 0.  1.
    9900012    2    1    2    0    0 -0.25819671193E+01 -0.13057799311E+02 -0.28975074607E+02  0.59301833321E+02  0.49999798096E+02 0.  0.
         12    1    1    2    0    0  0.25819671193E+01  0.13057799311E+02  0.28975074607E+02  0.31886166679E+02  0.00000000000E+00 0. -1.
         11    1    3    3    0    0  0.42243217179E+01  0.22154767401E+01  0.39205600060E+00  0.47861194438E+01  0.51100000000E-03 0. -1.
        -11    1    3    3    0    0  0.14580147420E+02 -0.13732862824E+02 -0.25985552341E+02  0.32808857811E+02  0.51100000000E-03 0.  1.
         12    1    3    3    0    0 -0.21386436257E+02 -0.15404132270E+01 -0.33815782661E+01  0.21706856066E+02  0.00000000000E+00 0. -1.
</event>
<event>
 7    1  0.6316620E-012  0.5930194E+02  0.7816164E-02  0.1266605E+00
        -11   -1    0    0    0    0  0.00000000000E+00  0.00000000000E+00  0.45593999997E+02  0.45594000000E+02  0.51100000000E-03 0.  1.
         11   -1    0    0    0    0 -0.00000000000E+00 -0.00000000000E+00 -0.45593999997E+02  0.45594000000E+02  0.51100000000E-03 0. -1.
    9900012    2    1    2    0    0 -0.66844033327E+00  0.19213943730E+02  0.25438125349E+02  0.59301942429E+02  0.49999997085E+02 0.  0.
         12    1    1    2    0    0  0.66844033327E+00 -0.19213943730E+02 -0.25438125349E+02  0.31886057571E+02  0.00000000000E+00 0. -1.
         11    1    3    3    0    0 -0.63613316103E+01  0.10354693173E+02 -0.21238837735E+01  0.12336818598E+02  0.51100000000E-03 0. -1.
        -11    1    3    3    0    0 -0.12652870063E+02  0.88614626790E+01  0.21105406076E+01  0.15590863464E+02  0.51100000000E-03 0.  1.
         12    1    3    3    0    0  0.18345761340E+02 -0.22121219768E-02  0.25451468515E+02  0.31374260367E+02  0.00000000000E+00 0. -1.
</event>
<event>
 7    1  0.6316620E-012  0.5930195E+02  0.7816164E-02  0.1266605E+00
        -11   -1    0    0    0    0  0.00000000000E+00  0.00000000000E+00  0.45593999997E+02  0.45594000000E+02  0.51100000000E-03 0.  1.
         11   -1    0    0    0    0 -0.00000000000E+00 -0.00000000000E+00 -0.45593999997E+02  0.45594000000E+02  0.51100000000E-03 0. -1.
    9900012    2    1    2    0    0  0.96654111424E+01 -0.12640426792E+02  0.27631854846E+02  0.59301953455E+02  0.50000017193E+02 0.  0.
         12    1    1    2    0    0 -0.96654111424E+01  0.12640426792E+02 -0.27631854846E+02  0.31886046545E+02  0.00000000000E+00 0. -1.
         11    1    3    3    0    0 -0.20291908996E+01 -0.61916110799E+01 -0.88545498494E+01  0.10993485197E+02  0.51100000000E-03 0. -1.
        -11    1    3    3    0    0  0.79361430107E+01  0.10283099944E+02  0.86241497272E+01  0.15591679484E+02  0.51100000000E-03 0.  1.
         12    1    3    3    0    0  0.37584590314E+01 -0.16731915656E+02  0.27862254969E+02  0.32716788775E+02  0.00000000000E+00 0. -1.
</event>
<event>
 7    1  0.6316620E-012  0.5930192E+02  0.7816164E-02  0.1266605E+00
        -11   -1    0    0    0    0  0.00000000000E+00  0.00000000000E+00  0.45593999997E+02  0.45594000000E+02  0.51100000000E-03 0.  1.
         11   -1    0    0    0    0 -0.00000000000E+00 -0.00000000000E+00 -0.45593999997E+02  0.45594000000E+02  0.51100000000E-03 0. -1.
    9900012    2    1    2    0    0 -0.17088433692E+02 -0.18388257394E+02 -0.19661624633E+02  0.59301920604E+02  0.49999957280E+02 0.  0.
         12    1    1    2    0    0  0.17088433692E+02  0.18388257394E+02  0.19661624633E+02  0.31886079396E+02  0.00000000000E+00 0. -1.
         11    1    3    3    0    0 -0.65042999785E+01  0.67191510612E+01 -0.91394751337E+01  0.13076043560E+02  0.51100000000E-03 0. -1.
        -11    1    3    3    0    0 -0.22897488458E+01  0.42934717596E+01  0.88169519030E+01  0.10070525838E+02  0.51100000000E-03 0.  1.
        -12    1    3    3    0    0 -0.82943848677E+01 -0.29400880215E+02 -0.19339101403E+02  0.36155351206E+02  0.00000000000E+00 0.  1.
</event>
<event>
 7    1  0.6316620E-012  0.5930194E+02  0.7816164E-02  0.1266605E+00
        -11   -1    0    0    0    0  0.00000000000E+00  0.00000000000E+00  0.45593999997E+02  0.45594000000E+02  0.51100000000E-03 0.  1.
         11   -1    0    0    0    0 -0.00000000000E+00 -0.00000000000E+00 -0.45593999997E+02  0.45594000000E+02  0.51100000000E-03 0. -1.
    9900012    2    1    2    0    0 -0.95217402387E+01  0.89707006615E+01  0.29078922618E+02  0.59301941163E+02  0.49999994776E+02 0.  0.
         12    1    1    2    0    0  0.95217402387E+01 -0.89707006615E+01 -0.29078922618E+02  0.31886058837E+02  0.00000000000E+00 0. -1.
         11    1    3    3    0    0  0.23851091961E+01 -0.10279950476E+02 -0.18565106292E+01  0.10715071612E+02  0.51100000000E-03 0.  1.
        -11    1    3    3    0    0 -0.40553286509E+01  0.10791022384E+02 -0.36775780158E+01  0.12100265901E+02  0.51100000000E-03 0. -1.
        -12    1    3    3    0    0 -0.78515207840E+01  0.84596287542E+01  0.34613011263E+02  0.36486603651E+02  0.00000000000E+00 0.  1.
</event>
<event>
 7    1  0.6316620E-012  0.5930197E+02  0.7816164E-02  0.1266605E+00
        -11   -1    0    0    0    0  0.00000000000E+00  0.00000000000E+00  0.45593999997E+02  0.45594000000E+02  0.51100000000E-03 0. -1.
         11   -1    0    0    0    0 -0.00000000000E+00 -0.00000000000E+00 -0.45593999997E+02  0.45594000000E+02  0.51100000000E-03 0.  1.
    9900012    2    1    2    0    0 -0.42510650621E+01  0.85003967602E+01 -0.30436665721E+02  0.59301969839E+02  0.50000047073E+02 0.  0.
         12    1    1    2    0    0  0.42510650621E+01 -0.85003967602E+01  0.30436665721E+02  0.31886030161E+02  0.00000000000E+00 0. -1.
         11    1    3    3    0    0 -0.14854813446E+02 -0.49513696172E+01 -0.49316787934E+01  0.16416546518E+02  0.51100000000E-03 0.  1.
        -11    1    3    3    0    0  0.39263266933E+01  0.72753655723E+01  0.59214610105E+01  0.10169104497E+02  0.51100000000E-03 0. -1.
        -12    1    3    3    0    0  0.66774216906E+01  0.61764008050E+01 -0.31426447938E+02  0.32716318823E+02  0.00000000000E+00 0.  1.
</event>
<event>
 7    1  0.6316620E-012  0.5930196E+02  0.7816164E-02  0.1266605E+00
        -11   -1    0    0    0    0  0.00000000000E+00  0.00000000000E+00  0.45593999997E+02  0.45594000000E+02  0.51100000000E-03 0.  1.
         11   -1    0    0    0    0 -0.00000000000E+00 -0.00000000000E+00 -0.45593999997E+02  0.45594000000E+02  0.51100000000E-03 0. -1.
    9900012    2    1    2    0    0 -0.20513157719E+02 -0.24289195106E+02  0.24423300818E+01  0.59301958936E+02  0.50000027190E+02 0.  0.
         12    1    1    2    0    0  0.20513157719E+02  0.24289195106E+02 -0.24423300818E+01  0.31886041064E+02  0.00000000000E+00 0. -1.
         11    1    3    3    0    0 -0.13520987802E+02 -0.28068890947E+01  0.49228418031E+01  0.14660494849E+02  0.51100000000E-03 0. -1.
        -11    1    3    3    0    0 -0.46406147933E+01 -0.13668598800E+02  0.17719903731E+02  0.22855215757E+02  0.51100000000E-03 0.  1.
        -12    1    3    3    0    0 -0.23515551233E+01 -0.78137072116E+01 -0.20200415452E+02  0.21786248331E+02  0.00000000000E+00 0.  1.
</event>
<event>
 7    1  0.6316620E-012  0.5930198E+02  0.7816164E-02  0.1266605E+00
        -11   -1    0    0    0    0  0.00000000000E+00  0.00000000000E+00  0.45593999997E+02  0.45594000000E+02  0.51100000000E-03 0.  1.
         11   -1    0    0    0    0 -0.00000000000E+00 -0.00000000000E+00 -0.45593999997E+02  0.45594000000E+02  0.51100000000E-03 0. -1.
    9900012    2    1    2    0    0  0.23575430324E+02 -0.80868134083E+01  0.19887705817E+02  0.59301979415E+02  0.50000064539E+02 0.  0.
         12    1    1    2    0    0 -0.23575430324E+02  0.80868134083E+01 -0.19887705817E+02  0.31886020585E+02  0.00000000000E+00 0. -1.
         11    1    3    3    0    0  0.20083566702E+02 -0.51519279124E+00  0.23169488678E+02  0.30666598783E+02  0.51100000000E-03 0. -1.
        -11    1    3    3    0    0  0.14773562102E+02 -0.80384442300E+01  0.19780837807E+00  0.16820043140E+02  0.51100000000E-03 0.  1.
         12    1    3    3    0    0 -0.11281698480E+02  0.46682361301E+00 -0.34795912389E+01  0.11815337492E+02  0.00000000000E+00 0. -1.
</event>
<event>
 7    1  0.6316620E-012  0.5930194E+02  0.7816164E-02  0.1266605E+00
        -11   -1    0    0    0    0  0.00000000000E+00  0.00000000000E+00  0.45593999997E+02  0.45594000000E+02  0.51100000000E-03 0. -1.
         11   -1    0    0    0    0 -0.00000000000E+00 -0.00000000000E+00 -0.45593999997E+02  0.45594000000E+02  0.51100000000E-03 0.  1.
    9900012    2    1    2    0    0  0.15083030659E+02 -0.18852421775E+02 -0.20828085306E+02  0.59301941006E+02  0.49999994490E+02 0.  0.
         12    1    1    2    0    0 -0.15083030659E+02  0.18852421775E+02  0.20828085306E+02  0.31886058994E+02  0.00000000000E+00 0. -1.
         11    1    3    3    0    0  0.40152984320E+00  0.56716039145E+01 -0.22816409692E+01  0.61265163798E+01  0.51100000000E-03 0. -1.
        -11    1    3    3    0    0  0.35938843537E+01 -0.67575923844E+00 -0.25669099802E+02  0.25928272989E+02  0.51100000000E-03 0.  1.
        -12    1    3    3    0    0  0.11087616462E+02 -0.23848266451E+02  0.71226554644E+01  0.27247151638E+02  0.00000000000E+00 0.  1.
</event>
<event>
 7    1  0.6316620E-012  0.5930195E+02  0.7816164E-02  0.1266605E+00
        -11   -1    0    0    0    0  0.00000000000E+00  0.00000000000E+00  0.45593999997E+02  0.45594000000E+02  0.51100000000E-03 0.  1.
         11   -1    0    0    0    0 -0.00000000000E+00 -0.00000000000E+00 -0.45593999997E+02  0.45594000000E+02  0.51100000000E-03 0. -1.
    9900012    2    1    2    0    0 -0.20886315849E+02  0.39872856283E+00  0.24089900489E+02  0.59301945371E+02  0.50000002451E+02 0.  0.
         12    1    1    2    0    0  0.20886315849E+02 -0.39872856283E+00 -0.24089900489E+02  0.31886054629E+02  0.00000000000E+00 0. -1.
         11    1    3    3    0    0  0.35542610702E+01  0.81886266728E+01  0.17883250051E+02  0.19987421324E+02  0.51100000000E-03 0. -1.
        -11    1    3    3    0    0 -0.58836514079E+01  0.98057208415E+01  0.75558422215E+01  0.13706212717E+02  0.51100000000E-03 0.  1.
        -12    1    3    3    0    0 -0.18556925512E+02 -0.17595618951E+02 -0.13491917834E+01  0.25608311330E+02  0.00000000000E+00 0.  1.
</event>
<event>
 7    1  0.6316620E-012  0.5930195E+02  0.7816164E-02  0.1266605E+00
        -11   -1    0    0    0    0  0.00000000000E+00  0.00000000000E+00  0.45593999997E+02  0.45594000000E+02  0.51100000000E-03 0. -1.
         11   -1    0    0    0    0 -0.00000000000E+00 -0.00000000000E+00 -0.45593999997E+02  0.45594000000E+02  0.51100000000E-03 0.  1.
    9900012    2    1    2    0    0  0.10209920444E+02  0.27222010094E+02 -0.13093510550E+02  0.59301947758E+02  0.50000006803E+02 0.  0.
         12    1    1    2    0    0 -0.10209920444E+02 -0.27222010094E+02  0.13093510550E+02  0.31886052242E+02  0.00000000000E+00 0. -1.
         11    1    3    3    0    0  0.27421509322E+01 -0.51716101676E+01  0.35240247593E-01  0.58537326209E+01  0.51100000000E-03 0. -1.
        -11    1    3    3    0    0 -0.63772930759E+01  0.25311022586E+02  0.79204297403E+01  0.27277297133E+02  0.51100000000E-03 0.  1.
         12    1    3    3    0    0  0.13845062587E+02  0.70825976758E+01 -0.21049180538E+02  0.26170918005E+02  0.00000000000E+00 0. -1.
</event>
<event>
 7    1  0.6316620E-012  0.5930194E+02  0.7816164E-02  0.1266605E+00
        -11   -1    0    0    0    0  0.00000000000E+00  0.00000000000E+00  0.45593999997E+02  0.45594000000E+02  0.51100000000E-03 0.  1.
         11   -1    0    0    0    0 -0.00000000000E+00 -0.00000000000E+00 -0.45593999997E+02  0.45594000000E+02  0.51100000000E-03 0. -1.
    9900012    2    1    2    0    0  0.13767484676E+02 -0.10244049686E+02  0.26874464715E+02  0.59301936555E+02  0.49999986372E+02 0.  0.
         12    1    1    2    0    0 -0.13767484676E+02  0.10244049686E+02 -0.26874464715E+02  0.31886063445E+02  0.00000000000E+00 0. -1.
         11    1    3    3    0    0  0.15175582650E+01  0.43096418192E+01 -0.42801459794E+01  0.62606425839E+01  0.51100000000E-03 0. -1.
        -11    1    3    3    0    0  0.12260791790E+02  0.11007378082E+02  0.17598358216E+02  0.24107915707E+02  0.51100000000E-03 0.  1.
         12    1    3    3    0    0 -0.10865378889E-01 -0.25561069588E+02  0.13556252478E+02  0.28933378264E+02  0.00000000000E+00 0. -1.
</event>
<event>
 7    1  0.6316620E-012  0.5930193E+02  0.7816164E-02  0.1266605E+00
        -11   -1    0    0    0    0  0.00000000000E+00  0.00000000000E+00  0.45593999997E+02  0.45594000000E+02  0.51100000000E-03 0.  1.
         11   -1    0    0    0    0 -0.00000000000E+00 -0.00000000000E+00 -0.45593999997E+02  0.45594000000E+02  0.51100000000E-03 0. -1.
    9900012    2    1    2    0    0 -0.22636815743E+02 -0.11879137270E+02  0.19057337620E+02  0.59301930213E+02  0.49999974806E+02 0.  0.
         12    1    1    2    0    0  0.22636815743E+02  0.11879137270E+02 -0.19057337620E+02  0.31886069787E+02  0.00000000000E+00 0. -1.
         11    1    3    3    0    0 -0.22993173913E+01  0.64386529254E+01 -0.41193631084E+01  0.79819962816E+01  0.51100000000E-03 0. -1.
        -11    1    3    3    0    0 -0.19939824686E+02  0.95849319187E+00 -0.14827390868E+01  0.20017837874E+02  0.51100000000E-03 0.  1.
        -12    1    3    3    0    0 -0.39767366620E+00 -0.19276283387E+02  0.24659439815E+02  0.31302096057E+02  0.00000000000E+00 0.  1.
</event>
<event>
 7    1  0.6316620E-012  0.5930193E+02  0.7816164E-02  0.1266605E+00
        -11   -1    0    0    0    0  0.00000000000E+00  0.00000000000E+00  0.45593999997E+02  0.45594000000E+02  0.51100000000E-03 0. -1.
         11   -1    0    0    0    0 -0.00000000000E+00 -0.00000000000E+00 -0.45593999997E+02  0.45594000000E+02  0.51100000000E-03 0.  1.
    9900012    2    1    2    0    0  0.68734810560E+01  0.30213130741E+02 -0.75261696546E+01  0.59301933440E+02  0.49999980691E+02 0.  0.
         12    1    1    2    0    0 -0.68734810560E+01 -0.30213130741E+02  0.75261696546E+01  0.31886066560E+02  0.00000000000E+00 0. -1.
         11    1    3    3    0    0  0.46407540506E+01 -0.93716628263E+01 -0.12396740344E+02  0.16218626135E+02  0.51100000000E-03 0. -1.
        -11    1    3    3    0    0  0.47323759770E+01  0.74897418374E+01 -0.39564207038E+01  0.97028284652E+01  0.51100000000E-03 0.  1.
         12    1    3    3    0    0 -0.24996489716E+01  0.32095051730E+02  0.88269913932E+01  0.33380478840E+02  0.00000000000E+00 0. -1.
</event>
<event>
 7    1  0.6316620E-012  0.5930199E+02  0.7816164E-02  0.1266605E+00
        -11   -1    0    0    0    0  0.00000000000E+00  0.00000000000E+00  0.45593999997E+02  0.45594000000E+02  0.51100000000E-03 0.  1.
         11   -1    0    0    0    0 -0.00000000000E+00 -0.00000000000E+00 -0.45593999997E+02  0.45594000000E+02  0.51100000000E-03 0. -1.
    9900012    2    1    2    0    0  0.47404976111E+01 -0.29120712879E+02  0.12092545355E+02  0.59301985991E+02  0.50000076532E+02 0.  0.
         12    1    1    2    0    0 -0.47404976111E+01  0.29120712879E+02 -0.12092545355E+02  0.31886014009E+02  0.00000000000E+00 0. -1.
         11    1    3    3    0    0 -0.34954558384E+01  0.89431448038E+01  0.12542211923E+02  0.15795731407E+02  0.51100000000E-03 0. -1.
        -11    1    3    3    0    0 -0.32397696340E+01 -0.73089602505E+01 -0.62799640962E+01  0.10166363978E+02  0.51100000000E-03 0.  1.
        -12    1    3    3    0    0  0.11475723084E+02 -0.30754897432E+02  0.58302975283E+01  0.33339890606E+02  0.00000000000E+00 0.  1.
</event>
<event>
 7    1  0.6316620E-012  0.5930193E+02  0.7816164E-02  0.1266605E+00
        -11   -1    0    0    0    0  0.00000000000E+00  0.00000000000E+00  0.45593999997E+02  0.45594000000E+02  0.51100000000E-03 0. -1.
         11   -1    0    0    0    0 -0.00000000000E+00 -0.00000000000E+00 -0.45593999997E+02  0.45594000000E+02  0.51100000000E-03 0.  1.
    9900012    2    1    2    0    0 -0.11178789541E+02  0.19493675754E+02 -0.22621948626E+02  0.59301932672E+02  0.49999979290E+02 0.  0.
         12    1    1    2    0    0  0.11178789541E+02 -0.19493675754E+02  0.22621948626E+02  0.31886067328E+02  0.00000000000E+00 0. -1.
         11    1    3    3    0    0 -0.16160132318E+02  0.16407140959E+02  0.76212844310E+01  0.24257537542E+02  0.51100000000E-03 0. -1.
        -11    1    3    3    0    0 -0.61987765252E+01  0.12607696817E+01 -0.12133507874E+02  0.13683434664E+02  0.51100000000E-03 0.  1.
        -12    1    3    3    0    0  0.11180119302E+02  0.18257651131E+01 -0.18109725183E+02  0.21360960466E+02  0.00000000000E+00 0.  1.
</event>
<event>
 7    1  0.6316620E-012  0.5930192E+02  0.7816164E-02  0.1266605E+00
        -11   -1    0    0    0    0  0.00000000000E+00  0.00000000000E+00  0.45593999997E+02  0.45594000000E+02  0.51100000000E-03 0. -1.
         11   -1    0    0    0    0 -0.00000000000E+00 -0.00000000000E+00 -0.45593999997E+02  0.45594000000E+02  0.51100000000E-03 0.  1.
    9900012    2    1    2    0    0  0.12195908323E+02  0.29357827495E+02 -0.24698307376E+01  0.59301917160E+02  0.49999950999E+02 0.  0.
         12    1    1    2    0    0 -0.12195908323E+02 -0.29357827495E+02  0.24698307376E+01  0.31886082840E+02  0.00000000000E+00 0. -1.
         11    1    3    3    0    0  0.38771496471E+01 -0.81622864807E+00 -0.13062682760E+02  0.13650355297E+02  0.51100000000E-03 0. -1.
        -11    1    3    3    0    0  0.13537243814E+02  0.32759553152E+02  0.23038470182E+01  0.35521162765E+02  0.51100000000E-03 0.  1.
         12    1    3    3    0    0 -0.52184851386E+01 -0.25854970095E+01  0.82890050038E+01  0.10130399098E+02  0.00000000000E+00 0. -1.
</event>
<event>
 7    1  0.6316620E-012  0.5930194E+02  0.7816164E-02  0.1266605E+00
        -11   -1    0    0    0    0  0.00000000000E+00  0.00000000000E+00  0.45593999997E+02  0.45594000000E+02  0.51100000000E-03 0.  1.
         11   -1    0    0    0    0 -0.00000000000E+00 -0.00000000000E+00 -0.45593999997E+02  0.45594000000E+02  0.51100000000E-03 0. -1.
    9900012    2    1    2    0    0 -0.83852196874E+01  0.81327562673E+01  0.29669295783E+02  0.59301941197E+02  0.49999994837E+02 0.  0.
         12    1    1    2    0    0  0.83852196874E+01 -0.81327562673E+01 -0.29669295783E+02  0.31886058803E+02  0.00000000000E+00 0. -1.
         11    1    3    3    0    0 -0.57311550385E+01  0.14899484420E+02  0.26597090693E+02  0.31020090387E+02  0.51100000000E-03 0. -1.
        -11    1    3    3    0    0 -0.32524304701E+01  0.99544203169E+01  0.46849218926E+01  0.11472457505E+02  0.51100000000E-03 0.  1.
         12    1    3    3    0    0  0.59836582119E+00 -0.16721148469E+02 -0.16127168021E+01  0.16809393305E+02  0.00000000000E+00 0. -1.
</event>
<event>
 7    1  0.6316620E-012  0.5930193E+02  0.7816164E-02  0.1266605E+00
        -11   -1    0    0    0    0  0.00000000000E+00  0.00000000000E+00  0.45593999997E+02  0.45594000000E+02  0.51100000000E-03 0.  1.
         11   -1    0    0    0    0 -0.00000000000E+00 -0.00000000000E+00 -0.45593999997E+02  0.45594000000E+02  0.51100000000E-03 0. -1.
    9900012    2    1    2    0    0  0.34067453473E+01 -0.23549355752E+01  0.31615973139E+02  0.59301931053E+02  0.49999976336E+02 0.  0.
         12    1    1    2    0    0 -0.34067453473E+01  0.23549355752E+01 -0.31615973139E+02  0.31886068947E+02  0.00000000000E+00 0. -1.
         11    1    3    3    0    0 -0.95068242926E+01 -0.17244729230E+01  0.22306394758E+02  0.24309026356E+02  0.51100000000E-03 0. -1.
        -11    1    3    3    0    0 -0.91154775637E+01  0.57034396427E+01  0.39311468106E+01  0.11448802142E+02  0.51100000000E-03 0.  1.
        -12    1    3    3    0    0  0.22029047204E+02 -0.63339022949E+01  0.53784315699E+01  0.23544102555E+02  0.00000000000E+00 0.  1.
</event>
<event>
 7    1  0.6316620E-012  0.5930190E+02  0.7816164E-02  0.1266605E+00
        -11   -1    0    0    0    0  0.00000000000E+00  0.00000000000E+00  0.45593999997E+02  0.45594000000E+02  0.51100000000E-03 0. -1.
         11   -1    0    0    0    0 -0.00000000000E+00 -0.00000000000E+00 -0.45593999997E+02  0.45594000000E+02  0.51100000000E-03 0.  1.
    9900012    2    1    2    0    0 -0.28634206777E+02 -0.10471831872E+02 -0.93352067201E+01  0.59301903578E+02  0.49999926230E+02 0.  0.
         12    1    1    2    0    0  0.28634206777E+02  0.10471831872E+02  0.93352067201E+01  0.31886096422E+02  0.00000000000E+00 0. -1.
         11    1    3    3    0    0 -0.12995848792E+02 -0.15714761478E+02  0.36260948625E+01  0.20712179469E+02  0.51100000000E-03 0. -1.
        -11    1    3    3    0    0 -0.16703113995E+02  0.11885885198E+02  0.35087698649E+01  0.20798551639E+02  0.51100000000E-03 0.  1.
        -12    1    3    3    0    0  0.10647560106E+01 -0.66429555921E+01 -0.16470071448E+02  0.17791172470E+02  0.00000000000E+00 0.  1.
</event>
<event>
 7    1  0.6316620E-012  0.5930195E+02  0.7816164E-02  0.1266605E+00
        -11   -1    0    0    0    0  0.00000000000E+00  0.00000000000E+00  0.45593999997E+02  0.45594000000E+02  0.51100000000E-03 0.  1.
         11   -1    0    0    0    0 -0.00000000000E+00 -0.00000000000E+00 -0.45593999997E+02  0.45594000000E+02  0.51100000000E-03 0. -1.
    9900012    2    1    2    0    0 -0.72707602015E+01 -0.26588804108E+02  0.16027843240E+02  0.59301949496E+02  0.50000009973E+02 0.  0.
         12    1    1    2    0    0  0.72707602015E+01  0.26588804108E+02 -0.16027843240E+02  0.31886050504E+02  0.00000000000E+00 0. -1.
         11    1    3    3    0    0 -0.11056853429E+02 -0.19820079778E+02  0.22230191320E+02  0.31769025426E+02  0.51100000000E-03 0. -1.
        -11    1    3    3    0    0 -0.29386403873E+01 -0.15444699034E+02 -0.23330943098E+01  0.15893950576E+02  0.51100000000E-03 0.  1.
         12    1    3    3    0    0  0.67247336151E+01  0.86759747037E+01 -0.38692537706E+01  0.11638973494E+02  0.00000000000E+00 0. -1.
</event>
<event>
 7    1  0.6316620E-012  0.5930196E+02  0.7816164E-02  0.1266605E+00
        -11   -1    0    0    0    0  0.00000000000E+00  0.00000000000E+00  0.45593999997E+02  0.45594000000E+02  0.51100000000E-03 0.  1.
         11   -1    0    0    0    0 -0.00000000000E+00 -0.00000000000E+00 -0.45593999997E+02  0.45594000000E+02  0.51100000000E-03 0. -1.
    9900012    2    1    2    0    0 -0.21805794384E+02 -0.21326604713E+02 -0.92953256629E+01  0.59301955773E+02  0.50000021420E+02 0.  0.
         12    1    1    2    0    0  0.21805794384E+02  0.21326604713E+02  0.92953256629E+01  0.31886044227E+02  0.00000000000E+00 0. -1.
         11    1    3    3    0    0 -0.44644556299E+01 -0.97856788677E+01 -0.83195231722E+01  0.13597990331E+02  0.51100000000E-03 0. -1.
        -11    1    3    3    0    0  0.16356093004E+01  0.76683178768E+01 -0.13753160973E+02  0.15831227174E+02  0.51100000000E-03 0.  1.
        -12    1    3    3    0    0 -0.18976948054E+02 -0.19209243722E+02  0.12777358482E+02  0.29872738267E+02  0.00000000000E+00 0.  1.
</event>
<event>
 7    1  0.6316620E-012  0.5930156E+02  0.7816164E-02  0.1266606E+00
        -11   -1    0    0    0    0  0.00000000000E+00  0.00000000000E+00  0.45593999997E+02  0.45594000000E+02  0.51100000000E-03 0. -1.
         11   -1    0    0    0    0 -0.00000000000E+00 -0.00000000000E+00 -0.45593999997E+02  0.45594000000E+02  0.51100000000E-03 0.  1.
    9900012    2    1    2    0    0  0.87255303868E+01 -0.72188969249E-01 -0.30669285809E+02  0.59301557993E+02  0.49999295961E+02 0.  0.
         12    1    1    2    0    0 -0.87255303868E+01  0.72188969249E-01  0.30669285809E+02  0.31886442007E+02  0.00000000000E+00 0. -1.
         11    1    3    3    0    0  0.24275955368E+02  0.92406831446E+01 -0.24390819071E+02  0.35631787623E+02  0.51100000000E-03 0. -1.
        -11    1    3    3    0    0 -0.72710959103E+00  0.91084991046E+00 -0.55253614294E+01  0.56469421020E+01  0.51100000000E-03 0.  1.
         12    1    3    3    0    0 -0.14823315390E+02 -0.10223722024E+02 -0.75310530851E+00  0.18022828268E+02  0.00000000000E+00 0. -1.
</event>
<event>
 7    1  0.6316620E-012  0.5930195E+02  0.7816164E-02  0.1266605E+00
        -11   -1    0    0    0    0  0.00000000000E+00  0.00000000000E+00  0.45593999997E+02  0.45594000000E+02  0.51100000000E-03 0.  1.
         11   -1    0    0    0    0 -0.00000000000E+00 -0.00000000000E+00 -0.45593999997E+02  0.45594000000E+02  0.51100000000E-03 0. -1.
    9900012    2    1    2    0    0 -0.26053581700E+02  0.53204457186E+01  0.17596139724E+02  0.59301946697E+02  0.50000004869E+02 0.  0.
         12    1    1    2    0    0  0.26053581700E+02 -0.53204457186E+01 -0.17596139724E+02  0.31886053303E+02  0.00000000000E+00 0. -1.
         11    1    3    3    0    0 -0.16334121758E+02  0.17425850450E+02  0.10050784536E+02  0.25912971030E+02  0.51100000000E-03 0. -1.
        -11    1    3    3    0    0 -0.16315797290E+02  0.77678612282E+00 -0.13682431993E+01  0.16391483386E+02  0.51100000000E-03 0.  1.
         12    1    3    3    0    0  0.65963373490E+01 -0.12882190855E+02  0.89135983871E+01  0.16997492281E+02  0.00000000000E+00 0. -1.
</event>
<event>
 7    1  0.6316620E-012  0.5930200E+02  0.7816164E-02  0.1266605E+00
        -11   -1    0    0    0    0  0.00000000000E+00  0.00000000000E+00  0.45593999997E+02  0.45594000000E+02  0.51100000000E-03 0.  1.
         11   -1    0    0    0    0 -0.00000000000E+00 -0.00000000000E+00 -0.45593999997E+02  0.45594000000E+02  0.51100000000E-03 0. -1.
    9900012    2    1    2    0    0  0.20351932799E+02  0.15432483247E+02  0.19088062160E+02  0.59302002684E+02  0.50000106975E+02 0.  0.
         12    1    1    2    0    0 -0.20351932799E+02 -0.15432483247E+02 -0.19088062160E+02  0.31885997316E+02  0.00000000000E+00 0. -1.
         11    1    3    3    0    0 -0.98087849322E-01  0.83335514190E+01 -0.14515283181E+01  0.84595883587E+01  0.51100000000E-03 0. -1.
        -11    1    3    3    0    0 -0.11165861568E+02  0.96497815879E+01  0.74105429596E+01  0.16513960653E+02  0.51100000000E-03 0.  1.
         12    1    3    3    0    0  0.31615882216E+02 -0.25508497600E+01  0.13129047518E+02  0.34328453672E+02  0.00000000000E+00 0. -1.
</event>
<event>
 7    1  0.6755708E-012  0.5930194E+02  0.7816164E-02  0.1266605E+00
        -11   -1    0    0    0    0  0.00000000000E+00  0.00000000000E+00  0.45593999997E+02  0.45594000000E+02  0.51100000000E-03 0. -1.
         11   -1    0    0    0    0 -0.00000000000E+00 -0.00000000000E+00 -0.45593999997E+02  0.45594000000E+02  0.51100000000E-03 0.  1.
    9900012    2    1    2    0    0 -0.10081243149E+01 -0.11050343493E+02 -0.29893045082E+02  0.59301944267E+02  0.50000000436E+02 0.  0.
         12    1    1    2    0    0  0.10081243149E+01  0.11050343493E+02  0.29893045082E+02  0.31886055733E+02  0.00000000000E+00 0. -1.
         11    1    3    3    0    0 -0.82009179229E+01 -0.18310289794E+02  0.10144968461E+01  0.20088578129E+02  0.51100000000E-03 0. -1.
        -11    1    3    3    0    0 -0.20225745417E+01  0.21592879228E+01  0.26929640592E+01  0.40006734178E+01  0.51100000000E-03 0.  1.
        -12    1    3    3    0    0  0.92153681497E+01  0.51006583784E+01 -0.33600505987E+02  0.35212692720E+02  0.00000000000E+00 0.  1.
</event>
<event>
 7    1  0.6316620E-012  0.5930188E+02  0.7816164E-02  0.1266605E+00
        -11   -1    0    0    0    0  0.00000000000E+00  0.00000000000E+00  0.45593999997E+02  0.45594000000E+02  0.51100000000E-03 0. -1.
         11   -1    0    0    0    0 -0.00000000000E+00 -0.00000000000E+00 -0.45593999997E+02  0.45594000000E+02  0.51100000000E-03 0.  1.
    9900012    2    1    2    0    0 -0.30470509375E+02 -0.89930347518E+01  0.27199764109E+01  0.59301876258E+02  0.49999876404E+02 0.  0.
         12    1    1    2    0    0  0.30470509375E+02  0.89930347518E+01 -0.27199764109E+01  0.31886123742E+02  0.00000000000E+00 0. -1.
         11    1    3    3    0    0  0.10400119745E+02 -0.74611687305E+01  0.31004065373E+01  0.13169815887E+02  0.51100000000E-03 0.  1.
        -11    1    3    3    0    0 -0.70896859069E+01 -0.25545771224E+01 -0.85146637530E+01  0.11370532513E+02  0.51100000000E-03 0. -1.
        -12    1    3    3    0    0 -0.33780943213E+02  0.10227111011E+01  0.81342336266E+01  0.34761527858E+02  0.00000000000E+00 0.  1.
</event>
<event>
 7    1  0.6316620E-012  0.5930190E+02  0.7816164E-02  0.1266605E+00
        -11   -1    0    0    0    0  0.00000000000E+00  0.00000000000E+00  0.45593999997E+02  0.45594000000E+02  0.51100000000E-03 0.  1.
         11   -1    0    0    0    0 -0.00000000000E+00 -0.00000000000E+00 -0.45593999997E+02  0.45594000000E+02  0.51100000000E-03 0. -1.
    9900012    2    1    2    0    0  0.37828508286E+01 -0.31056454218E+02  0.61571382441E+01  0.59301895498E+02  0.49999911493E+02 0.  0.
         12    1    1    2    0    0 -0.37828508286E+01  0.31056454218E+02 -0.61571382441E+01  0.31886104502E+02  0.00000000000E+00 0. -1.
         11    1    3    3    0    0  0.40118265050E+00 -0.82652430776E+01  0.21675016832E+00  0.82778120024E+01  0.51100000000E-03 0.  1.
        -11    1    3    3    0    0 -0.60643658054E+01 -0.26331144700E+02 -0.12679268676E+02  0.29847438219E+02  0.51100000000E-03 0. -1.
        -12    1    3    3    0    0  0.94460339835E+01  0.35399335594E+01  0.18619656751E+02  0.21176645276E+02  0.00000000000E+00 0.  1.
</event>
<event>
 7    1  0.6316620E-012  0.5930194E+02  0.7816164E-02  0.1266605E+00
        -11   -1    0    0    0    0  0.00000000000E+00  0.00000000000E+00  0.45593999997E+02  0.45594000000E+02  0.51100000000E-03 0. -1.
         11   -1    0    0    0    0 -0.00000000000E+00 -0.00000000000E+00 -0.45593999997E+02  0.45594000000E+02  0.51100000000E-03 0.  1.
    9900012    2    1    2    0    0  0.22466676783E+02 -0.48871660175E+01 -0.22092644565E+02  0.59301938762E+02  0.49999990397E+02 0.  0.
         12    1    1    2    0    0 -0.22466676783E+02  0.48871660175E+01  0.22092644565E+02  0.31886061238E+02  0.00000000000E+00 0. -1.
         11    1    3    3    0    0  0.13940284959E+02 -0.13804115077E+01 -0.19579333141E+02  0.24074620811E+02  0.51100000000E-03 0. -1.
        -11    1    3    3    0    0  0.39058554152E+01 -0.70211862498E+01 -0.17445306654E+02  0.19206548035E+02  0.51100000000E-03 0.  1.
         12    1    3    3    0    0  0.46205364096E+01  0.35144317400E+01  0.14931995230E+02  0.16020769917E+02  0.00000000000E+00 0. -1.
</event>
<event>
 7    1  0.6316620E-012  0.5930191E+02  0.7816164E-02  0.1266605E+00
        -11   -1    0    0    0    0  0.00000000000E+00  0.00000000000E+00  0.45593999997E+02  0.45594000000E+02  0.51100000000E-03 0. -1.
         11   -1    0    0    0    0 -0.00000000000E+00 -0.00000000000E+00 -0.45593999997E+02  0.45594000000E+02  0.51100000000E-03 0.  1.
    9900012    2    1    2    0    0 -0.22573960061E+02 -0.20425007069E+02 -0.94846324529E+01  0.59301908371E+02  0.49999934970E+02 0.  0.
         12    1    1    2    0    0  0.22573960061E+02  0.20425007069E+02  0.94846324529E+01  0.31886091629E+02  0.00000000000E+00 0. -1.
         11    1    3    3    0    0 -0.40314344382E+01 -0.14306453509E+02 -0.88826410104E+01  0.17315553333E+02  0.51100000000E-03 0. -1.
        -11    1    3    3    0    0 -0.51230487382E+01 -0.21119268016E+02  0.12927965558E+01  0.21770173015E+02  0.51100000000E-03 0.  1.
         12    1    3    3    0    0 -0.13419476885E+02  0.15000714456E+02 -0.18947879983E+01  0.20216182023E+02  0.00000000000E+00 0. -1.
</event>
<event>
 7    1  0.6316620E-012  0.5930215E+02  0.7816164E-02  0.1266604E+00
        -11   -1    0    0    0    0  0.00000000000E+00  0.00000000000E+00  0.45593999997E+02  0.45594000000E+02  0.51100000000E-03 0.  1.
         11   -1    0    0    0    0 -0.00000000000E+00 -0.00000000000E+00 -0.45593999997E+02  0.45594000000E+02  0.51100000000E-03 0. -1.
    9900012    2    1    2    0    0  0.18744498261E+02 -0.13335985335E+02  0.22079467604E+02  0.59302147188E+02  0.50000370513E+02 0.  0.
         12    1    1    2    0    0 -0.18744498261E+02  0.13335985335E+02 -0.22079467604E+02  0.31885852812E+02  0.00000000000E+00 0. -1.
         11    1    3    3    0    0  0.37338140684E+01 -0.22058136676E+01 -0.51055160854E+01  0.66987518384E+01  0.51100000000E-03 0. -1.
        -11    1    3    3    0    0  0.12150315412E+02  0.10679692285E+02 -0.17340172013E+01  0.16269382528E+02  0.51100000000E-03 0.  1.
         12    1    3    3    0    0  0.28603687804E+01 -0.21809863953E+02  0.28919000891E+02  0.36334012822E+02  0.00000000000E+00 0. -1.
</event>
<event>
 7    1  0.6316620E-012  0.5930195E+02  0.7816164E-02  0.1266605E+00
        -11   -1    0    0    0    0  0.00000000000E+00  0.00000000000E+00  0.45593999997E+02  0.45594000000E+02  0.51100000000E-03 0. -1.
         11   -1    0    0    0    0 -0.00000000000E+00 -0.00000000000E+00 -0.45593999997E+02  0.45594000000E+02  0.51100000000E-03 0.  1.
    9900012    2    1    2    0    0  0.15469623641E+02 -0.10187124356E+02 -0.25954447158E+02  0.59301951554E+02  0.50000013726E+02 0.  0.
         12    1    1    2    0    0 -0.15469623641E+02  0.10187124356E+02  0.25954447158E+02  0.31886048446E+02  0.00000000000E+00 0. -1.
         11    1    3    3    0    0  0.24904844343E+02 -0.94899335471E+01 -0.16080790213E+02  0.31127189475E+02  0.51100000000E-03 0. -1.
        -11    1    3    3    0    0  0.57910701983E+01  0.12772520781E+01 -0.11293147736E+02  0.12755510690E+02  0.51100000000E-03 0.  1.
         12    1    3    3    0    0 -0.15226290901E+02 -0.19744428873E+01  0.14194907910E+01  0.15419251389E+02  0.00000000000E+00 0. -1.
</event>
<event>
 7    1  0.6316620E-012  0.5930193E+02  0.7816164E-02  0.1266605E+00
        -11   -1    0    0    0    0  0.00000000000E+00  0.00000000000E+00  0.45593999997E+02  0.45594000000E+02  0.51100000000E-03 0. -1.
         11   -1    0    0    0    0 -0.00000000000E+00 -0.00000000000E+00 -0.45593999997E+02  0.45594000000E+02  0.51100000000E-03 0.  1.
    9900012    2    1    2    0    0  0.24848031880E+02  0.19769069310E+02  0.29121339759E+01  0.59301932291E+02  0.49999978595E+02 0.  0.
         12    1    1    2    0    0 -0.24848031880E+02 -0.19769069310E+02 -0.29121339759E+01  0.31886067709E+02  0.00000000000E+00 0. -1.
         11    1    3    3    0    0  0.10146420814E+02  0.12699483840E+00  0.10290074462E+02  0.14451699406E+02  0.51100000000E-03 0. -1.
        -11    1    3    3    0    0 -0.12223338556E+02  0.91549783295E+01 -0.13348879227E+01  0.15329891053E+02  0.51100000000E-03 0.  1.
         12    1    3    3    0    0  0.26924949621E+02  0.10487096142E+02 -0.60430525636E+01  0.29520341832E+02  0.00000000000E+00 0. -1.
</event>
<event>
 7    1  0.6316620E-012  0.5930194E+02  0.7816164E-02  0.1266605E+00
        -11   -1    0    0    0    0  0.00000000000E+00  0.00000000000E+00  0.45593999997E+02  0.45594000000E+02  0.51100000000E-03 0. -1.
         11   -1    0    0    0    0 -0.00000000000E+00 -0.00000000000E+00 -0.45593999997E+02  0.45594000000E+02  0.51100000000E-03 0.  1.
    9900012    2    1    2    0    0 -0.94060845391E+01  0.18777635462E+01 -0.30409212864E+02  0.59301942713E+02  0.49999997603E+02 0.  0.
         12    1    1    2    0    0  0.94060845391E+01 -0.18777635462E+01  0.30409212864E+02  0.31886057287E+02  0.00000000000E+00 0. -1.
         11    1    3    3    0    0  0.10436667026E+02 -0.77884209433E+00 -0.51695436769E+01  0.11672822954E+02  0.51100000000E-03 0. -1.
        -11    1    3    3    0    0  0.43696152200E+01  0.23643114304E+01 -0.22751322114E+02  0.23287467959E+02  0.51100000000E-03 0.  1.
         12    1    3    3    0    0 -0.24212366785E+02  0.29229421017E+00 -0.24883470724E+01  0.24341651801E+02  0.00000000000E+00 0. -1.
</event>
<event>
 7    1  0.6316620E-012  0.5930192E+02  0.7816164E-02  0.1266605E+00
        -11   -1    0    0    0    0  0.00000000000E+00  0.00000000000E+00  0.45593999997E+02  0.45594000000E+02  0.51100000000E-03 0.  1.
         11   -1    0    0    0    0 -0.00000000000E+00 -0.00000000000E+00 -0.45593999997E+02  0.45594000000E+02  0.51100000000E-03 0. -1.
    9900012    2    1    2    0    0  0.15701636787E+01  0.57069358979E+01  0.31331888671E+02  0.59301924998E+02  0.49999965294E+02 0.  0.
         12    1    1    2    0    0 -0.15701636787E+01 -0.57069358979E+01 -0.31331888671E+02  0.31886075002E+02  0.00000000000E+00 0. -1.
         11    1    3    3    0    0 -0.10982683998E+02 -0.41644579726E+01  0.21912360158E+02  0.24861890233E+02  0.51100000000E-03 0. -1.
        -11    1    3    3    0    0 -0.20869265443E+01 -0.86219567471E+01 -0.42577437776E+00  0.88811420792E+01  0.51100000000E-03 0.  1.
         12    1    3    3    0    0  0.14639774221E+02  0.18493350618E+02  0.98453028911E+01  0.25558892686E+02  0.00000000000E+00 0. -1.
</event>
<event>
 7    1  0.6316620E-012  0.5930194E+02  0.7816164E-02  0.1266605E+00
        -11   -1    0    0    0    0  0.00000000000E+00  0.00000000000E+00  0.45593999997E+02  0.45594000000E+02  0.51100000000E-03 0.  1.
         11   -1    0    0    0    0 -0.00000000000E+00 -0.00000000000E+00 -0.45593999997E+02  0.45594000000E+02  0.51100000000E-03 0. -1.
    9900012    2    1    2    0    0 -0.25772647143E+02 -0.18016306459E+02  0.52824478087E+01  0.59301938876E+02  0.49999990604E+02 0.  0.
         12    1    1    2    0    0  0.25772647143E+02  0.18016306459E+02 -0.52824478087E+01  0.31886061124E+02  0.00000000000E+00 0. -1.
         11    1    3    3    0    0  0.11404772628E+02 -0.12575307584E+02  0.20077478439E+01  0.17094977367E+02  0.51100000000E-03 0. -1.
        -11    1    3    3    0    0 -0.13945372849E+02  0.55931119661E+01 -0.38665029914E+01  0.15514708215E+02  0.51100000000E-03 0.  1.
        -12    1    3    3    0    0 -0.23232046922E+02 -0.11034110841E+02  0.71412029562E+01  0.26692253294E+02  0.00000000000E+00 0.  1.
</event>
<event>
 7    1  0.6316620E-012  0.5930196E+02  0.7816164E-02  0.1266605E+00
        -11   -1    0    0    0    0  0.00000000000E+00  0.00000000000E+00  0.45593999997E+02  0.45594000000E+02  0.51100000000E-03 0.  1.
         11   -1    0    0    0    0 -0.00000000000E+00 -0.00000000000E+00 -0.45593999997E+02  0.45594000000E+02  0.51100000000E-03 0. -1.
    9900012    2    1    2    0    0  0.15352434545E+01  0.48083795851E+00  0.31845432012E+02  0.59301957322E+02  0.50000024246E+02 0.  0.
         12    1    1    2    0    0 -0.15352434545E+01 -0.48083795851E+00 -0.31845432012E+02  0.31886042678E+02  0.00000000000E+00 0. -1.
         11    1    3    3    0    0 -0.11033519364E+02 -0.48918543915E+01  0.16439421215E+01  0.12180777270E+02  0.51100000000E-03 0. -1.
        -11    1    3    3    0    0 -0.10318332920E+02 -0.29071442418E+01  0.14958576276E+02  0.18403219456E+02  0.51100000000E-03 0.  1.
        -12    1    3    3    0    0  0.22887095738E+02  0.82798365918E+01  0.15242913615E+02  0.28717960596E+02  0.00000000000E+00 0.  1.
</event>
<event>
 7    1  0.6316620E-012  0.5930203E+02  0.7816164E-02  0.1266604E+00
        -11   -1    0    0    0    0  0.00000000000E+00  0.00000000000E+00  0.45593999997E+02  0.45594000000E+02  0.51100000000E-03 0. -1.
         11   -1    0    0    0    0 -0.00000000000E+00 -0.00000000000E+00 -0.45593999997E+02  0.45594000000E+02  0.51100000000E-03 0.  1.
    9900012    2    1    2    0    0  0.51723806714E+01  0.24743989066E+02 -0.19434420315E+02  0.59302028010E+02  0.50000153164E+02 0.  0.
         12    1    1    2    0    0 -0.51723806714E+01 -0.24743989066E+02  0.19434420315E+02  0.31885971990E+02  0.00000000000E+00 0. -1.
         11    1    3    3    0    0  0.87173668563E+01  0.34191021106E+01 -0.59770324005E+01  0.11108900068E+02  0.51100000000E-03 0. -1.
        -11    1    3    3    0    0 -0.16292201660E+02 -0.34439171506E+01 -0.11561325336E+02  0.20272164267E+02  0.51100000000E-03 0.  1.
         12    1    3    3    0    0  0.12747215475E+02  0.24768804106E+02 -0.18960625785E+01  0.27920963675E+02  0.00000000000E+00 0. -1.
</event>
<event>
 7    1  0.6316620E-012  0.5930195E+02  0.7816164E-02  0.1266605E+00
        -11   -1    0    0    0    0  0.00000000000E+00  0.00000000000E+00  0.45593999997E+02  0.45594000000E+02  0.51100000000E-03 0.  1.
         11   -1    0    0    0    0 -0.00000000000E+00 -0.00000000000E+00 -0.45593999997E+02  0.45594000000E+02  0.51100000000E-03 0. -1.
    9900012    2    1    2    0    0  0.68056690782E+01 -0.12131282402E+02  0.28692069120E+02  0.59301953291E+02  0.50000016895E+02 0.  0.
         12    1    1    2    0    0 -0.68056690782E+01  0.12131282402E+02 -0.28692069120E+02  0.31886046709E+02  0.00000000000E+00 0. -1.
         11    1    3    3    0    0 -0.11075828480E+02 -0.14335172604E+02  0.17187136623E+01  0.18196843875E+02  0.51100000000E-03 0. -1.
        -11    1    3    3    0    0  0.55528897893E+01 -0.13278907640E+01 -0.44023646536E+01  0.72096250733E+01  0.51100000000E-03 0.  1.
        -12    1    3    3    0    0  0.12328607769E+02  0.35317809668E+01  0.31375720111E+02  0.33895484343E+02  0.00000000000E+00 0.  1.
</event>
<event>
 7    1  0.6316620E-012  0.5930195E+02  0.7816164E-02  0.1266605E+00
        -11   -1    0    0    0    0  0.00000000000E+00  0.00000000000E+00  0.45593999997E+02  0.45594000000E+02  0.51100000000E-03 0.  1.
         11   -1    0    0    0    0 -0.00000000000E+00 -0.00000000000E+00 -0.45593999997E+02  0.45594000000E+02  0.51100000000E-03 0. -1.
    9900012    2    1    2    0    0  0.19860109125E+02 -0.92353919055E+01  0.23173341608E+02  0.59301950395E+02  0.50000011613E+02 0.  0.
         12    1    1    2    0    0 -0.19860109125E+02  0.92353919055E+01 -0.23173341608E+02  0.31886049605E+02  0.00000000000E+00 0. -1.
         11    1    3    3    0    0 -0.18720944063E+01  0.11044248789E+02  0.78012598735E+00  0.11228925399E+02  0.51100000000E-03 0. -1.
        -11    1    3    3    0    0  0.12928707303E+02  0.44599362354E+01  0.15996447676E+02  0.21045874709E+02  0.51100000000E-03 0.  1.
        -12    1    3    3    0    0  0.88034962282E+01 -0.24739576930E+02  0.63967679455E+01  0.27027150288E+02  0.00000000000E+00 0.  1.
</event>
<event>
 7    1  0.6316620E-012  0.5930195E+02  0.7816164E-02  0.1266605E+00
        -11   -1    0    0    0    0  0.00000000000E+00  0.00000000000E+00  0.45593999997E+02  0.45594000000E+02  0.51100000000E-03 0. -1.
         11   -1    0    0    0    0 -0.00000000000E+00 -0.00000000000E+00 -0.45593999997E+02  0.45594000000E+02  0.51100000000E-03 0.  1.
    9900012    2    1    2    0    0  0.20089293501E+02  0.24642719859E+02  0.24242460546E+01  0.59301947809E+02  0.50000006895E+02 0.  0.
         12    1    1    2    0    0 -0.20089293501E+02 -0.24642719859E+02 -0.24242460546E+01  0.31886052191E+02  0.00000000000E+00 0. -1.
         11    1    3    3    0    0  0.15540510232E+02  0.38055961879E+02  0.99507863457E+00  0.41118777639E+02  0.51100000000E-03 0. -1.
        -11    1    3    3    0    0  0.43232990241E+01 -0.14096284655E+01  0.38233512777E+01  0.59410421743E+01  0.51100000000E-03 0.  1.
        -12    1    3    3    0    0  0.22548424466E+00 -0.12003613554E+02 -0.23941838577E+01  0.12242127995E+02  0.00000000000E+00 0.  1.
</event>
<event>
 7    1  0.6316620E-012  0.5930196E+02  0.7816164E-02  0.1266605E+00
        -11   -1    0    0    0    0  0.00000000000E+00  0.00000000000E+00  0.45593999997E+02  0.45594000000E+02  0.51100000000E-03 0. -1.
         11   -1    0    0    0    0 -0.00000000000E+00 -0.00000000000E+00 -0.45593999997E+02  0.45594000000E+02  0.51100000000E-03 0.  1.
    9900012    2    1    2    0    0 -0.11680024248E+02 -0.11008230091E+02 -0.27552054151E+02  0.59301956280E+02  0.50000022345E+02 0.  0.
         12    1    1    2    0    0  0.11680024248E+02  0.11008230091E+02  0.27552054151E+02  0.31886043720E+02  0.00000000000E+00 0. -1.
         11    1    3    3    0    0  0.15350440541E+02 -0.92499398586E+01 -0.12667772721E+02  0.21946978794E+02  0.51100000000E-03 0. -1.
        -11    1    3    3    0    0 -0.66006443960E+01  0.30583860792E+01 -0.14657829567E+02  0.16363807617E+02  0.51100000000E-03 0.  1.
         12    1    3    3    0    0 -0.20429820394E+02 -0.48166763120E+01 -0.22645186270E+00  0.20991169869E+02  0.00000000000E+00 0. -1.
</event>
<event>
 7    1  0.6316620E-012  0.5930194E+02  0.7816164E-02  0.1266605E+00
        -11   -1    0    0    0    0  0.00000000000E+00  0.00000000000E+00  0.45593999997E+02  0.45594000000E+02  0.51100000000E-03 0. -1.
         11   -1    0    0    0    0 -0.00000000000E+00 -0.00000000000E+00 -0.45593999997E+02  0.45594000000E+02  0.51100000000E-03 0.  1.
    9900012    2    1    2    0    0 -0.11150047503E+02 -0.15145599878E+02 -0.25748944346E+02  0.59301938940E+02  0.49999990721E+02 0.  0.
         12    1    1    2    0    0  0.11150047503E+02  0.15145599878E+02  0.25748944346E+02  0.31886061060E+02  0.00000000000E+00 0. -1.
         11    1    3    3    0    0  0.12533655370E+01 -0.52380832587E+01 -0.46372449952E+01  0.71072134344E+01  0.51100000000E-03 0. -1.
        -11    1    3    3    0    0 -0.24183008911E+02 -0.60492098562E+01 -0.28421370696E+02  0.37804565496E+02  0.51100000000E-03 0.  1.
        -12    1    3    3    0    0  0.11779595870E+02 -0.38583067626E+01  0.73096713448E+01  0.14390160010E+02  0.00000000000E+00 0.  1.
</event>
<event>
 7    1  0.6316620E-012  0.5930192E+02  0.7816164E-02  0.1266605E+00
        -11   -1    0    0    0    0  0.00000000000E+00  0.00000000000E+00  0.45593999997E+02  0.45594000000E+02  0.51100000000E-03 0.  1.
         11   -1    0    0    0    0 -0.00000000000E+00 -0.00000000000E+00 -0.45593999997E+02  0.45594000000E+02  0.51100000000E-03 0. -1.
    9900012    2    1    2    0    0 -0.21698873524E+02 -0.10063927809E+01  0.23342407527E+02  0.59301922666E+02  0.49999961041E+02 0.  0.
         12    1    1    2    0    0  0.21698873524E+02  0.10063927809E+01 -0.23342407527E+02  0.31886077334E+02  0.00000000000E+00 0. -1.
         11    1    3    3    0    0  0.51542417028E+01 -0.82175155122E+01 -0.51515163248E+01  0.10983254956E+02  0.51100000000E-03 0. -1.
        -11    1    3    3    0    0 -0.18425486179E+02  0.11188204870E+02  0.37525689345E+01  0.21880499149E+02  0.51100000000E-03 0.  1.
        -12    1    3    3    0    0 -0.84276290479E+01 -0.39770821391E+01  0.24741354917E+02  0.26438168561E+02  0.00000000000E+00 0.  1.
</event>
<event>
 7    1  0.6316620E-012  0.5930194E+02  0.7816164E-02  0.1266605E+00
        -11   -1    0    0    0    0  0.00000000000E+00  0.00000000000E+00  0.45593999997E+02  0.45594000000E+02  0.51100000000E-03 0.  1.
         11   -1    0    0    0    0 -0.00000000000E+00 -0.00000000000E+00 -0.45593999997E+02  0.45594000000E+02  0.51100000000E-03 0. -1.
    9900012    2    1    2    0    0 -0.21423295858E+02  0.12830274690E+02  0.19827946840E+02  0.59301936745E+02  0.49999986717E+02 0.  0.
         12    1    1    2    0    0  0.21423295858E+02 -0.12830274690E+02 -0.19827946840E+02  0.31886063255E+02  0.00000000000E+00 0. -1.
         11    1    3    3    0    0 -0.24180462076E+02  0.34391001391E+01  0.23298959794E+02  0.33754461686E+02  0.51100000000E-03 0. -1.
        -11    1    3    3    0    0 -0.79238546200E+01 -0.31825646487E+01  0.58213031138E+00  0.85589173230E+01  0.51100000000E-03 0.  1.
        -12    1    3    3    0    0  0.10681020838E+02  0.12573739199E+02 -0.40531432652E+01  0.16988557735E+02  0.00000000000E+00 0.  1.
</event>
<event>
 7    1  0.6316620E-012  0.5930185E+02  0.7816164E-02  0.1266605E+00
        -11   -1    0    0    0    0  0.00000000000E+00  0.00000000000E+00  0.45593999997E+02  0.45594000000E+02  0.51100000000E-03 0. -1.
         11   -1    0    0    0    0 -0.00000000000E+00 -0.00000000000E+00 -0.45593999997E+02  0.45594000000E+02  0.51100000000E-03 0.  1.
    9900012    2    1    2    0    0 -0.18868270222E+02  0.19484747093E+02 -0.16764823951E+02  0.59301853909E+02  0.49999835645E+02 0.  0.
         12    1    1    2    0    0  0.18868270222E+02 -0.19484747093E+02  0.16764823951E+02  0.31886146091E+02  0.00000000000E+00 0. -1.
         11    1    3    3    0    0 -0.67014083328E+01  0.76202803062E+01 -0.11140087234E+02  0.15069143619E+02  0.51100000000E-03 0. -1.
        -11    1    3    3    0    0 -0.16933044505E+02  0.24502812958E+02 -0.71759224921E+01  0.30636737798E+02  0.51100000000E-03 0.  1.
         12    1    3    3    0    0  0.47661826163E+01 -0.12638346171E+02  0.15511857747E+01  0.13595972491E+02  0.00000000000E+00 0. -1.
</event>
<event>
 7    1  0.6316620E-012  0.5930194E+02  0.7816164E-02  0.1266605E+00
        -11   -1    0    0    0    0  0.00000000000E+00  0.00000000000E+00  0.45593999997E+02  0.45594000000E+02  0.51100000000E-03 0.  1.
         11   -1    0    0    0    0 -0.00000000000E+00 -0.00000000000E+00 -0.45593999997E+02  0.45594000000E+02  0.51100000000E-03 0. -1.
    9900012    2    1    2    0    0  0.24639564377E+01  0.25530633747E+01  0.31688032591E+02  0.59301943119E+02  0.49999998343E+02 0.  0.
         12    1    1    2    0    0 -0.24639564377E+01 -0.25530633747E+01 -0.31688032591E+02  0.31886056881E+02  0.00000000000E+00 0. -1.
         11    1    3    3    0    0  0.23345127726E+01  0.17190366519E+02  0.28881605179E+01  0.17586930443E+02  0.51100000000E-03 0. -1.
        -11    1    3    3    0    0 -0.49646749577E+01  0.19810953871E+00  0.25115779249E+02  0.25602531367E+02  0.51100000000E-03 0.  1.
         12    1    3    3    0    0  0.50941186229E+01 -0.14835412683E+02  0.36840928235E+01  0.16112481310E+02  0.00000000000E+00 0. -1.
</event>
<event>
 7    1  0.6316620E-012  0.5930193E+02  0.7816164E-02  0.1266605E+00
        -11   -1    0    0    0    0  0.00000000000E+00  0.00000000000E+00  0.45593999997E+02  0.45594000000E+02  0.51100000000E-03 0.  1.
         11   -1    0    0    0    0 -0.00000000000E+00 -0.00000000000E+00 -0.45593999997E+02  0.45594000000E+02  0.51100000000E-03 0. -1.
    9900012    2    1    2    0    0  0.80131940216E+00 -0.74087339345E+01  0.31003063763E+02  0.59301930722E+02  0.49999975734E+02 0.  0.
         12    1    1    2    0    0 -0.80131940216E+00  0.74087339345E+01 -0.31003063763E+02  0.31886069278E+02  0.00000000000E+00 0. -1.
         11    1    3    3    0    0 -0.12091320069E+02 -0.78459005831E+01  0.41807578756E+01  0.15007895044E+02  0.51100000000E-03 0.  1.
        -11    1    3    3    0    0  0.61524237017E+01 -0.23872593481E+01  0.33651054191E+02  0.34292051164E+02  0.51100000000E-03 0. -1.
        -12    1    3    3    0    0  0.67402157691E+01  0.28244259967E+01 -0.68287483040E+01  0.10001984514E+02  0.00000000000E+00 0.  1.
</event>
<event>
 7    1  0.6316620E-012  0.5930193E+02  0.7816164E-02  0.1266605E+00
        -11   -1    0    0    0    0  0.00000000000E+00  0.00000000000E+00  0.45593999997E+02  0.45594000000E+02  0.51100000000E-03 0. -1.
         11   -1    0    0    0    0 -0.00000000000E+00 -0.00000000000E+00 -0.45593999997E+02  0.45594000000E+02  0.51100000000E-03 0.  1.
    9900012    2    1    2    0    0 -0.19186092286E+02  0.17873838413E+02 -0.18142246793E+02  0.59301931639E+02  0.49999977407E+02 0.  0.
         12    1    1    2    0    0  0.19186092286E+02 -0.17873838413E+02  0.18142246793E+02  0.31886068361E+02  0.00000000000E+00 0. -1.
         11    1    3    3    0    0  0.77711587641E+01 -0.55264372569E+01  0.51976550739E+00  0.95500038605E+01  0.51100000000E-03 0. -1.
        -11    1    3    3    0    0 -0.20142872813E+02  0.11341741488E+01 -0.17043432872E+02  0.26410230603E+02  0.51100000000E-03 0.  1.
        -12    1    3    3    0    0 -0.68143782367E+01  0.22266101521E+02 -0.16185794279E+01  0.23341697176E+02  0.00000000000E+00 0.  1.
</event>
<event>
 7    1  0.6316620E-012  0.5930203E+02  0.7816164E-02  0.1266604E+00
        -11   -1    0    0    0    0  0.00000000000E+00  0.00000000000E+00  0.45593999997E+02  0.45594000000E+02  0.51100000000E-03 0.  1.
         11   -1    0    0    0    0 -0.00000000000E+00 -0.00000000000E+00 -0.45593999997E+02  0.45594000000E+02  0.51100000000E-03 0. -1.
    9900012    2    1    2    0    0  0.24298654656E+02 -0.16203148357E+02 -0.12796426022E+02  0.59302028889E+02  0.50000154767E+02 0.  0.
         12    1    1    2    0    0 -0.24298654656E+02  0.16203148357E+02  0.12796426022E+02  0.31885971111E+02  0.00000000000E+00 0. -1.
         11    1    3    3    0    0  0.15472732717E+01 -0.10758241035E+02 -0.75635851235E+01  0.13241662469E+02  0.51100000000E-03 0. -1.
        -11    1    3    3    0    0  0.18248229825E+02  0.14980955521E+01 -0.21238853531E+02  0.28041595561E+02  0.51100000000E-03 0.  1.
        -12    1    3    3    0    0  0.45031515592E+01 -0.69430028739E+01  0.16006012633E+02  0.18018770860E+02  0.00000000000E+00 0.  1.
</event>
<event>
 7    1  0.6316620E-012  0.5930180E+02  0.7816164E-02  0.1266605E+00
        -11   -1    0    0    0    0  0.00000000000E+00  0.00000000000E+00  0.45593999997E+02  0.45594000000E+02  0.51100000000E-03 0.  1.
         11   -1    0    0    0    0 -0.00000000000E+00 -0.00000000000E+00 -0.45593999997E+02  0.45594000000E+02  0.51100000000E-03 0. -1.
    9900012    2    1    2    0    0 -0.79766688620E+01  0.23602776415E+02  0.19900038775E+02  0.59301798535E+02  0.49999734656E+02 0.  0.
         12    1    1    2    0    0  0.79766688620E+01 -0.23602776415E+02 -0.19900038775E+02  0.31886201465E+02  0.00000000000E+00 0. -1.
         11    1    3    3    0    0  0.66505014050E+01  0.22473113259E+02  0.72985749990E+00  0.23447871560E+02  0.51100000000E-03 0. -1.
        -11    1    3    3    0    0 -0.16341980640E+02  0.38844278425E+01  0.39659527755E+00  0.16801976044E+02  0.51100000000E-03 0.  1.
        -12    1    3    3    0    0  0.17148103733E+01 -0.27547646862E+01  0.18773585997E+02  0.19051950931E+02  0.00000000000E+00 0.  1.
</event>
<event>
 7    1  0.6316620E-012  0.5930194E+02  0.7816164E-02  0.1266605E+00
        -11   -1    0    0    0    0  0.00000000000E+00  0.00000000000E+00  0.45593999997E+02  0.45594000000E+02  0.51100000000E-03 0.  1.
         11   -1    0    0    0    0 -0.00000000000E+00 -0.00000000000E+00 -0.45593999997E+02  0.45594000000E+02  0.51100000000E-03 0. -1.
    9900012    2    1    2    0    0  0.13744815630E+02  0.18395173048E+02  0.22122803829E+02  0.59301940390E+02  0.49999993367E+02 0.  0.
         12    1    1    2    0    0 -0.13744815630E+02 -0.18395173048E+02 -0.22122803829E+02  0.31886059610E+02  0.00000000000E+00 0. -1.
         11    1    3    3    0    0  0.13156100476E+02  0.15170569894E+02 -0.61276665655E+01  0.20994700961E+02  0.51100000000E-03 0. -1.
        -11    1    3    3    0    0  0.12620024250E+02 -0.53849076364E+00  0.18354056247E+02  0.22280627580E+02  0.51100000000E-03 0.  1.
         12    1    3    3    0    0 -0.12031309096E+02  0.37630939178E+01  0.98964141472E+01  0.16026611849E+02  0.00000000000E+00 0. -1.
</event>
<event>
 7    1  0.6316620E-012  0.5930193E+02  0.7816164E-02  0.1266605E+00
        -11   -1    0    0    0    0  0.00000000000E+00  0.00000000000E+00  0.45593999997E+02  0.45594000000E+02  0.51100000000E-03 0.  1.
         11   -1    0    0    0    0 -0.00000000000E+00 -0.00000000000E+00 -0.45593999997E+02  0.45594000000E+02  0.51100000000E-03 0. -1.
    9900012    2    1    2    0    0  0.97062927860E+01  0.57060672900E+01  0.29832030582E+02  0.59301931377E+02  0.49999976929E+02 0.  0.
         12    1    1    2    0    0 -0.97062927860E+01 -0.57060672900E+01 -0.29832030582E+02  0.31886068623E+02  0.00000000000E+00 0. -1.
         11    1    3    3    0    0 -0.85029650061E+01  0.71227688753E+01  0.43013349210E+01  0.11896879116E+02  0.51100000000E-03 0. -1.
        -11    1    3    3    0    0  0.10808848199E+02  0.15331094513E+02  0.21726793369E+02  0.28704132259E+02  0.51100000000E-03 0.  1.
         12    1    3    3    0    0  0.74004095928E+01 -0.16747796098E+02  0.38039022919E+01  0.18700920002E+02  0.00000000000E+00 0. -1.
</event>
<event>
 7    1  0.6316620E-012  0.5930194E+02  0.7816164E-02  0.1266605E+00
        -11   -1    0    0    0    0  0.00000000000E+00  0.00000000000E+00  0.45593999997E+02  0.45594000000E+02  0.51100000000E-03 0.  1.
         11   -1    0    0    0    0 -0.00000000000E+00 -0.00000000000E+00 -0.45593999997E+02  0.45594000000E+02  0.51100000000E-03 0. -1.
    9900012    2    1    2    0    0 -0.31027291683E+02 -0.68878279517E+01 -0.25662507306E+01  0.59301942767E+02  0.49999997701E+02 0.  0.
         12    1    1    2    0    0  0.31027291683E+02  0.68878279517E+01  0.25662507306E+01  0.31886057233E+02  0.00000000000E+00 0. -1.
         11    1    3    3    0    0 -0.98403151331E+01  0.15417299967E+02 -0.41266794906E+01  0.18749784640E+02  0.51100000000E-03 0. -1.
        -11    1    3    3    0    0 -0.14693647523E+02  0.23346340256E+01 -0.11775109068E+01  0.14924487454E+02  0.51100000000E-03 0.  1.
        -12    1    3    3    0    0 -0.64933290267E+01 -0.24639761944E+02  0.27379396668E+01  0.25627670673E+02  0.00000000000E+00 0.  1.
</event>
<event>
 7    1  0.6316620E-012  0.5930196E+02  0.7816164E-02  0.1266605E+00
        -11   -1    0    0    0    0  0.00000000000E+00  0.00000000000E+00  0.45593999997E+02  0.45594000000E+02  0.51100000000E-03 0.  1.
         11   -1    0    0    0    0 -0.00000000000E+00 -0.00000000000E+00 -0.45593999997E+02  0.45594000000E+02  0.51100000000E-03 0. -1.
    9900012    2    1    2    0    0  0.12854982153E+02 -0.21108906886E+02 -0.20146544376E+02  0.59301956558E+02  0.50000022853E+02 0.  0.
         12    1    1    2    0    0 -0.12854982153E+02  0.21108906886E+02  0.20146544376E+02  0.31886043442E+02  0.00000000000E+00 0. -1.
         11    1    3    3    0    0  0.14712689688E+02 -0.73857985079E+01 -0.16531087925E+02  0.23330026269E+02  0.51100000000E-03 0. -1.
        -11    1    3    3    0    0  0.12812174942E+01  0.10004100815E+02  0.40083032141E+01  0.10853112286E+02  0.51100000000E-03 0.  1.
        -12    1    3    3    0    0 -0.31389250287E+01 -0.23727209194E+02 -0.76237596643E+01  0.25118818003E+02  0.00000000000E+00 0.  1.
</event>
<event>
 7    1  0.6316620E-012  0.5930194E+02  0.7816164E-02  0.1266605E+00
        -11   -1    0    0    0    0  0.00000000000E+00  0.00000000000E+00  0.45593999997E+02  0.45594000000E+02  0.51100000000E-03 0.  1.
         11   -1    0    0    0    0 -0.00000000000E+00 -0.00000000000E+00 -0.45593999997E+02  0.45594000000E+02  0.51100000000E-03 0. -1.
    9900012    2    1    2    0    0 -0.23321352873E+02 -0.19484358368E+02  0.96537655327E+01  0.59301938628E+02  0.49999990153E+02 0.  0.
         12    1    1    2    0    0  0.23321352873E+02  0.19484358368E+02 -0.96537655327E+01  0.31886061372E+02  0.00000000000E+00 0. -1.
         11    1    3    3    0    0 -0.13350939273E+01 -0.20879437976E+01 -0.16071470750E+02  0.16261431592E+02  0.51100000000E-03 0. -1.
        -11    1    3    3    0    0 -0.31534588506E+01  0.38616752651E+01  0.42245093573E+00  0.50035291175E+01  0.51100000000E-03 0.  1.
        -12    1    3    3    0    0 -0.18832800095E+02 -0.21258089835E+02  0.25302785347E+02  0.38036977919E+02  0.00000000000E+00 0.  1.
</event>
<event>
 7    1  0.6316620E-012  0.5930199E+02  0.7816164E-02  0.1266605E+00
        -11   -1    0    0    0    0  0.00000000000E+00  0.00000000000E+00  0.45593999997E+02  0.45594000000E+02  0.51100000000E-03 0.  1.
         11   -1    0    0    0    0 -0.00000000000E+00 -0.00000000000E+00 -0.45593999997E+02  0.45594000000E+02  0.51100000000E-03 0. -1.
    9900012    2    1    2    0    0  0.21288598422E+02 -0.16369900266E+02  0.17191259067E+02  0.59301992946E+02  0.50000089216E+02 0.  0.
         12    1    1    2    0    0 -0.21288598422E+02  0.16369900266E+02 -0.17191259067E+02  0.31886007054E+02  0.00000000000E+00 0. -1.
         11    1    3    3    0    0 -0.49650587768E+01 -0.41651221682E+01  0.20127730613E+01  0.67861113305E+01  0.51100000000E-03 0. -1.
        -11    1    3    3    0    0  0.21347744699E+02 -0.26791002567E+02  0.14240440580E+02  0.37098169368E+02  0.51100000000E-03 0.  1.
        -12    1    3    3    0    0  0.49059125006E+01  0.14586224470E+02  0.93804542584E+00  0.15417712248E+02  0.00000000000E+00 0.  1.
</event>
<event>
 7    1  0.6316620E-012  0.5930195E+02  0.7816164E-02  0.1266605E+00
        -11   -1    0    0    0    0  0.00000000000E+00  0.00000000000E+00  0.45593999997E+02  0.45594000000E+02  0.51100000000E-03 0.  1.
         11   -1    0    0    0    0 -0.00000000000E+00 -0.00000000000E+00 -0.45593999997E+02  0.45594000000E+02  0.51100000000E-03 0. -1.
    9900012    2    1    2    0    0 -0.60328260511E+01 -0.31302091717E+02 -0.71014971838E+00  0.59301948996E+02  0.50000009060E+02 0.  0.
         12    1    1    2    0    0  0.60328260511E+01  0.31302091717E+02  0.71014971838E+00  0.31886051004E+02  0.00000000000E+00 0. -1.
         11    1    3    3    0    0 -0.10138874338E+02  0.52534845260E+01  0.11446655028E+02  0.16168543042E+02  0.51100000000E-03 0. -1.
        -11    1    3    3    0    0 -0.30927373905E+01 -0.14097357834E+02 -0.13155310283E+02  0.19528510219E+02  0.51100000000E-03 0.  1.
        -12    1    3    3    0    0  0.71987856774E+01 -0.22458218409E+02  0.99850553619E+00  0.23604895734E+02  0.00000000000E+00 0.  1.
</event>
<event>
 7    1  0.6316620E-012  0.5930195E+02  0.7816164E-02  0.1266605E+00
        -11   -1    0    0    0    0  0.00000000000E+00  0.00000000000E+00  0.45593999997E+02  0.45594000000E+02  0.51100000000E-03 0.  1.
         11   -1    0    0    0    0 -0.00000000000E+00 -0.00000000000E+00 -0.45593999997E+02  0.45594000000E+02  0.51100000000E-03 0. -1.
    9900012    2    1    2    0    0  0.30780416505E+01  0.31180365277E+02  0.59186465276E+01  0.59301954526E+02  0.50000019147E+02 0.  0.
         12    1    1    2    0    0 -0.30780416505E+01 -0.31180365277E+02 -0.59186465276E+01  0.31886045474E+02  0.00000000000E+00 0. -1.
         11    1    3    3    0    0 -0.13661705871E+02  0.10352485427E+02 -0.47217696706E+01  0.17779518298E+02  0.51100000000E-03 0. -1.
        -11    1    3    3    0    0 -0.10223510613E+01  0.79796263541E-01  0.13970093086E+02  0.14007678973E+02  0.51100000000E-03 0.  1.
        -12    1    3    3    0    0  0.17762098583E+02  0.20748083587E+02 -0.33296768876E+01  0.27514757255E+02  0.00000000000E+00 0.  1.
</event>
<event>
 7    1  0.6316620E-012  0.5930195E+02  0.7816164E-02  0.1266605E+00
        -11   -1    0    0    0    0  0.00000000000E+00  0.00000000000E+00  0.45593999997E+02  0.45594000000E+02  0.51100000000E-03 0. -1.
         11   -1    0    0    0    0 -0.00000000000E+00 -0.00000000000E+00 -0.45593999997E+02  0.45594000000E+02  0.51100000000E-03 0.  1.
    9900012    2    1    2    0    0 -0.24408655623E+02  0.15257579880E+02  0.13716554727E+02  0.59301951535E+02  0.50000013691E+02 0.  0.
         12    1    1    2    0    0  0.24408655623E+02 -0.15257579880E+02 -0.13716554727E+02  0.31886048465E+02  0.00000000000E+00 0. -1.
         11    1    3    3    0    0 -0.10969039166E+02  0.20232222096E+01  0.19779080659E+02  0.22707383828E+02  0.51100000000E-03 0. -1.
        -11    1    3    3    0    0 -0.18910905464E+02  0.72351824138E+01  0.68211646601E+01  0.21365825460E+02  0.51100000000E-03 0.  1.
        -12    1    3    3    0    0  0.54712890066E+01  0.59991752568E+01 -0.12883690592E+02  0.15228742247E+02  0.00000000000E+00 0.  1.
</event>
<event>
 7    1  0.6316620E-012  0.5930194E+02  0.7816164E-02  0.1266605E+00
        -11   -1    0    0    0    0  0.00000000000E+00  0.00000000000E+00  0.45593999997E+02  0.45594000000E+02  0.51100000000E-03 0. -1.
         11   -1    0    0    0    0 -0.00000000000E+00 -0.00000000000E+00 -0.45593999997E+02  0.45594000000E+02  0.51100000000E-03 0.  1.
    9900012    2    1    2    0    0  0.11914173071E+02  0.30034865022E+01 -0.29423667044E+02  0.59301942962E+02  0.49999998056E+02 0.  0.
         12    1    1    2    0    0 -0.11914173071E+02 -0.30034865022E+01  0.29423667044E+02  0.31886057038E+02  0.00000000000E+00 0. -1.
         11    1    3    3    0    0  0.12604685509E+01  0.25977785214E+01 -0.25384279547E+02  0.25547972181E+02  0.51100000000E-03 0. -1.
        -11    1    3    3    0    0 -0.10376785979E+02  0.14021348391E+01 -0.68506986552E+01  0.12513022884E+02  0.51100000000E-03 0.  1.
         12    1    3    3    0    0  0.21030490499E+02 -0.99642685836E+00  0.28113111578E+01  0.21240947896E+02  0.00000000000E+00 0. -1.
</event>
<event>
 7    1  0.6316620E-012  0.5930194E+02  0.7816164E-02  0.1266605E+00
        -11   -1    0    0    0    0  0.00000000000E+00  0.00000000000E+00  0.45593999997E+02  0.45594000000E+02  0.51100000000E-03 0.  1.
         11   -1    0    0    0    0 -0.00000000000E+00 -0.00000000000E+00 -0.45593999997E+02  0.45594000000E+02  0.51100000000E-03 0. -1.
    9900012    2    1    2    0    0  0.29289974166E+02 -0.12319725633E+02 -0.26537377058E+01  0.59301944268E+02  0.50000000439E+02 0.  0.
         12    1    1    2    0    0 -0.29289974166E+02  0.12319725633E+02  0.26537377058E+01  0.31886055732E+02  0.00000000000E+00 0. -1.
         11    1    3    3    0    0 -0.33211207634E+01 -0.13124405145E+02  0.26498543199E+01  0.13794983933E+02  0.51100000000E-03 0. -1.
        -11    1    3    3    0    0  0.39591065480E+01  0.17464598666E+00  0.11583572703E+02  0.12242719580E+02  0.51100000000E-03 0.  1.
        -12    1    3    3    0    0  0.28651988381E+02  0.63003352585E+00 -0.16887164729E+02  0.33264240755E+02  0.00000000000E+00 0.  1.
</event>
<event>
 7    1  0.6316620E-012  0.5930195E+02  0.7816164E-02  0.1266605E+00
        -11   -1    0    0    0    0  0.00000000000E+00  0.00000000000E+00  0.45593999997E+02  0.45594000000E+02  0.51100000000E-03 0. -1.
         11   -1    0    0    0    0 -0.00000000000E+00 -0.00000000000E+00 -0.45593999997E+02  0.45594000000E+02  0.51100000000E-03 0.  1.
    9900012    2    1    2    0    0 -0.35713918942E+01 -0.43744993988E+01 -0.31381982620E+02  0.59301954177E+02  0.50000018510E+02 0.  0.
         12    1    1    2    0    0  0.35713918942E+01  0.43744993988E+01  0.31381982620E+02  0.31886045823E+02  0.00000000000E+00 0. -1.
         11    1    3    3    0    0  0.66083913178E+01 -0.32787385240E+01 -0.16877542798E+02  0.18419348883E+02  0.51100000000E-03 0.  1.
        -11    1    3    3    0    0  0.51995034033E+01 -0.83663406179E+01  0.79876056095E+01  0.12681968878E+02  0.51100000000E-03 0. -1.
         12    1    3    3    0    0 -0.15379286615E+02  0.72705797432E+01 -0.22492045432E+02  0.28200636417E+02  0.00000000000E+00 0. -1.
</event>
<event>
 7    1  0.6316620E-012  0.5930192E+02  0.7816164E-02  0.1266605E+00
        -11   -1    0    0    0    0  0.00000000000E+00  0.00000000000E+00  0.45593999997E+02  0.45594000000E+02  0.51100000000E-03 0.  1.
         11   -1    0    0    0    0 -0.00000000000E+00 -0.00000000000E+00 -0.45593999997E+02  0.45594000000E+02  0.51100000000E-03 0. -1.
    9900012    2    1    2    0    0 -0.31647634828E+02 -0.37673387297E+01  0.97806588400E+00  0.59301917704E+02  0.49999951992E+02 0.  0.
         12    1    1    2    0    0  0.31647634828E+02  0.37673387297E+01 -0.97806588400E+00  0.31886082296E+02  0.00000000000E+00 0. -1.
         11    1    3    3    0    0 -0.28017837319E+02 -0.15237289649E+02 -0.72340301286E+01  0.32703293352E+02  0.51100000000E-03 0. -1.
        -11    1    3    3    0    0 -0.82228398296E-01 -0.63352076503E+01  0.51976197718E+01  0.81949294710E+01  0.51100000000E-03 0.  1.
         12    1    3    3    0    0 -0.35475691102E+01  0.17805158570E+02  0.30144762408E+01  0.18403694881E+02  0.00000000000E+00 0. -1.
</event>
<event>
 7    1  0.6316620E-012  0.5930195E+02  0.7816164E-02  0.1266605E+00
        -11   -1    0    0    0    0  0.00000000000E+00  0.00000000000E+00  0.45593999997E+02  0.45594000000E+02  0.51100000000E-03 0.  1.
         11   -1    0    0    0    0 -0.00000000000E+00 -0.00000000000E+00 -0.45593999997E+02  0.45594000000E+02  0.51100000000E-03 0. -1.
    9900012    2    1    2    0    0  0.30071981241E+02 -0.10601531171E+02 -0.60682126843E-01  0.59301949739E+02  0.50000010415E+02 0.  0.
         12    1    1    2    0    0 -0.30071981241E+02  0.10601531171E+02  0.60682126843E-01  0.31886050261E+02  0.00000000000E+00 0. -1.
         11    1    3    3    0    0  0.42312380366E+01 -0.13652379020E+02 -0.95543696560E+01  0.17192347368E+02  0.51100000000E-03 0. -1.
        -11    1    3    3    0    0  0.21776232137E+02 -0.12370766043E+02  0.66150298693E+01  0.25903643740E+02  0.51100000000E-03 0.  1.
        -12    1    3    3    0    0  0.40645110676E+01  0.15421613891E+02  0.28786576598E+01  0.16205958631E+02  0.00000000000E+00 0.  1.
</event>
<event>
 7    1  0.6316620E-012  0.5930194E+02  0.7816164E-02  0.1266605E+00
        -11   -1    0    0    0    0  0.00000000000E+00  0.00000000000E+00  0.45593999997E+02  0.45594000000E+02  0.51100000000E-03 0. -1.
         11   -1    0    0    0    0 -0.00000000000E+00 -0.00000000000E+00 -0.45593999997E+02  0.45594000000E+02  0.51100000000E-03 0.  1.
    9900012    2    1    2    0    0  0.12377443698E+02 -0.84564181099E+01 -0.28142648554E+02  0.59301940548E+02  0.49999993654E+02 0.  0.
         12    1    1    2    0    0 -0.12377443698E+02  0.84564181099E+01  0.28142648554E+02  0.31886059452E+02  0.00000000000E+00 0. -1.
         11    1    3    3    0    0  0.15137509631E+02  0.41937990475E+01  0.82221988523E+00  0.15729214669E+02  0.51100000000E-03 0. -1.
        -11    1    3    3    0    0  0.10038019697E+02 -0.57677830747E+01 -0.47011538286E+00  0.11586637553E+02  0.51100000000E-03 0.  1.
        -12    1    3    3    0    0 -0.12798085631E+02 -0.68824340827E+01 -0.28494753056E+02  0.31986088327E+02  0.00000000000E+00 0.  1.
</event>
<event>
 7    1  0.6316620E-012  0.5930193E+02  0.7816164E-02  0.1266605E+00
        -11   -1    0    0    0    0  0.00000000000E+00  0.00000000000E+00  0.45593999997E+02  0.45594000000E+02  0.51100000000E-03 0.  1.
         11   -1    0    0    0    0 -0.00000000000E+00 -0.00000000000E+00 -0.45593999997E+02  0.45594000000E+02  0.51100000000E-03 0. -1.
    9900012    2    1    2    0    0  0.19081630287E+02 -0.41673035214E-01  0.25546252660E+02  0.59301931317E+02  0.49999976819E+02 0.  0.
         12    1    1    2    0    0 -0.19081630287E+02  0.41673035214E-01 -0.25546252660E+02  0.31886068683E+02  0.00000000000E+00 0. -1.
         11    1    3    3    0    0 -0.19656475158E+01  0.16350939142E+02  0.82290085066E+01  0.18410148349E+02  0.51100000000E-03 0. -1.
        -11    1    3    3    0    0 -0.41741624312E+01 -0.29564422038E+01  0.10247450091E+02  0.11453140012E+02  0.51100000000E-03 0.  1.
         12    1    3    3    0    0  0.25221440234E+02 -0.13436169973E+02  0.70697940629E+01  0.29438642956E+02  0.00000000000E+00 0. -1.
</event>
<event>
 7    1  0.6316620E-012  0.5930194E+02  0.7816164E-02  0.1266605E+00
        -11   -1    0    0    0    0  0.00000000000E+00  0.00000000000E+00  0.45593999997E+02  0.45594000000E+02  0.51100000000E-03 0. -1.
         11   -1    0    0    0    0 -0.00000000000E+00 -0.00000000000E+00 -0.45593999997E+02  0.45594000000E+02  0.51100000000E-03 0.  1.
    9900012    2    1    2    0    0 -0.81611409422E+01 -0.72384159976E+01 -0.29962005903E+02  0.59301942148E+02  0.49999996571E+02 0.  0.
         12    1    1    2    0    0  0.81611409422E+01  0.72384159976E+01  0.29962005903E+02  0.31886057852E+02  0.00000000000E+00 0. -1.
         11    1    3    3    0    0 -0.11765792735E+02 -0.25688892523E+01  0.13567532978E+00  0.12043731927E+02  0.51100000000E-03 0. -1.
        -11    1    3    3    0    0 -0.42111890798E+01  0.14121011008E+02 -0.65241359687E+01  0.16115254133E+02  0.51100000000E-03 0.  1.
         12    1    3    3    0    0  0.78158408722E+01 -0.18790537754E+02 -0.23573545264E+02  0.31142956088E+02  0.00000000000E+00 0. -1.
</event>
<event>
 7    1  0.6316620E-012  0.5930194E+02  0.7816164E-02  0.1266605E+00
        -11   -1    0    0    0    0  0.00000000000E+00  0.00000000000E+00  0.45593999997E+02  0.45594000000E+02  0.51100000000E-03 0.  1.
         11   -1    0    0    0    0 -0.00000000000E+00 -0.00000000000E+00 -0.45593999997E+02  0.45594000000E+02  0.51100000000E-03 0. -1.
    9900012    2    1    2    0    0  0.62368173380E+01  0.16727709805E+02  0.26419817648E+02  0.59301938306E+02  0.49999989565E+02 0.  0.
         12    1    1    2    0    0 -0.62368173380E+01 -0.16727709805E+02 -0.26419817648E+02  0.31886061694E+02  0.00000000000E+00 0. -1.
         11    1    3    3    0    0  0.21948910452E+01 -0.93392444994E+00 -0.16083681706E+01  0.28769098025E+01  0.51100000000E-03 0. -1.
        -11    1    3    3    0    0  0.16009609293E+01 -0.12321770809E+02  0.22694381339E+02  0.25873230498E+02  0.51100000000E-03 0.  1.
         12    1    3    3    0    0  0.24409653635E+01  0.29983405064E+02  0.53338044787E+01  0.30551798005E+02  0.00000000000E+00 0. -1.
</event>
<event>
 7    1  0.6316620E-012  0.5930187E+02  0.7816164E-02  0.1266605E+00
        -11   -1    0    0    0    0  0.00000000000E+00  0.00000000000E+00  0.45593999997E+02  0.45594000000E+02  0.51100000000E-03 0.  1.
         11   -1    0    0    0    0 -0.00000000000E+00 -0.00000000000E+00 -0.45593999997E+02  0.45594000000E+02  0.51100000000E-03 0. -1.
    9900012    2    1    2    0    0 -0.31303180557E+02 -0.32452578693E+01 -0.51287927043E+01  0.59301869375E+02  0.49999863852E+02 0.  0.
         12    1    1    2    0    0  0.31303180557E+02  0.32452578693E+01  0.51287927043E+01  0.31886130625E+02  0.00000000000E+00 0. -1.
         11    1    3    3    0    0 -0.16447854244E+02 -0.27796952800E+01 -0.10028636698E+00  0.16681387014E+02  0.51100000000E-03 0. -1.
        -11    1    3    3    0    0 -0.15939929756E+02 -0.12240514558E+02  0.10836978280E+02  0.22833126281E+02  0.51100000000E-03 0.  1.
        -12    1    3    3    0    0  0.10846034432E+01  0.11774951969E+02 -0.15865484617E+02  0.19787356080E+02  0.00000000000E+00 0.  1.
</event>
<event>
 7    1  0.6316620E-012  0.5930196E+02  0.7816164E-02  0.1266605E+00
        -11   -1    0    0    0    0  0.00000000000E+00  0.00000000000E+00  0.45593999997E+02  0.45594000000E+02  0.51100000000E-03 0.  1.
         11   -1    0    0    0    0 -0.00000000000E+00 -0.00000000000E+00 -0.45593999997E+02  0.45594000000E+02  0.51100000000E-03 0. -1.
    9900012    2    1    2    0    0 -0.11109613568E+02 -0.29433976194E+02  0.51901242353E+01  0.59301955125E+02  0.50000020238E+02 0.  0.
         12    1    1    2    0    0  0.11109613568E+02  0.29433976194E+02 -0.51901242353E+01  0.31886044875E+02  0.00000000000E+00 0. -1.
         11    1    3    3    0    0 -0.12640351577E+01 -0.20679645973E+02  0.15642007348E+02  0.25959929441E+02  0.51100000000E-03 0. -1.
        -11    1    3    3    0    0  0.49414452903E+01 -0.14415773799E+02 -0.19307747682E+01  0.15360999553E+02  0.51100000000E-03 0.  1.
         12    1    3    3    0    0 -0.14787023701E+02  0.56614435779E+01 -0.85211083445E+01  0.17981026131E+02  0.00000000000E+00 0. -1.
</event>
<event>
 7    1  0.6316620E-012  0.5930196E+02  0.7816164E-02  0.1266605E+00
        -11   -1    0    0    0    0  0.00000000000E+00  0.00000000000E+00  0.45593999997E+02  0.45594000000E+02  0.51100000000E-03 0.  1.
         11   -1    0    0    0    0 -0.00000000000E+00 -0.00000000000E+00 -0.45593999997E+02  0.45594000000E+02  0.51100000000E-03 0. -1.
    9900012    2    1    2    0    0 -0.49461353571E+01  0.23807255950E+02  0.20626913061E+02  0.59301964917E+02  0.50000038097E+02 0.  0.
         12    1    1    2    0    0  0.49461353571E+01 -0.23807255950E+02 -0.20626913061E+02  0.31886035083E+02  0.00000000000E+00 0. -1.
         11    1    3    3    0    0 -0.10588736712E+01 -0.41196630626E+01  0.10092820234E+02  0.10952527459E+02  0.51100000000E-03 0.  1.
        -11    1    3    3    0    0 -0.11139469490E+02  0.36226617299E+01 -0.10244564522E+02  0.15561573219E+02  0.51100000000E-03 0. -1.
         12    1    3    3    0    0  0.72522078041E+01  0.24304257283E+02  0.20778657349E+02  0.32787864239E+02  0.00000000000E+00 0. -1.
</event>
<event>
 7    1  0.6316620E-012  0.5930194E+02  0.7816164E-02  0.1266605E+00
        -11   -1    0    0    0    0  0.00000000000E+00  0.00000000000E+00  0.45593999997E+02  0.45594000000E+02  0.51100000000E-03 0. -1.
         11   -1    0    0    0    0 -0.00000000000E+00 -0.00000000000E+00 -0.45593999997E+02  0.45594000000E+02  0.51100000000E-03 0.  1.
    9900012    2    1    2    0    0 -0.11022759940E+02  0.14731268082E+01 -0.29883932490E+02  0.59301940972E+02  0.49999994427E+02 0.  0.
         12    1    1    2    0    0  0.11022759940E+02 -0.14731268082E+01  0.29883932490E+02  0.31886059028E+02  0.00000000000E+00 0. -1.
         11    1    3    3    0    0 -0.10008176741E+02  0.33117013231E+01 -0.10730537986E+02  0.15042453692E+02  0.51100000000E-03 0.  1.
        -11    1    3    3    0    0  0.37505339349E+01  0.20165851740E+01 -0.30802936869E+02  0.31095884625E+02  0.51100000000E-03 0. -1.
         12    1    3    3    0    0 -0.47651171333E+01 -0.38551596890E+01  0.11649542366E+02  0.13163602655E+02  0.00000000000E+00 0. -1.
</event>
<event>
 7    1  0.6316620E-012  0.5930194E+02  0.7816164E-02  0.1266605E+00
        -11   -1    0    0    0    0  0.00000000000E+00  0.00000000000E+00  0.45593999997E+02  0.45594000000E+02  0.51100000000E-03 0. -1.
         11   -1    0    0    0    0 -0.00000000000E+00 -0.00000000000E+00 -0.45593999997E+02  0.45594000000E+02  0.51100000000E-03 0.  1.
    9900012    2    1    2    0    0  0.29836477258E+02  0.10935566688E+02 -0.26303723753E+01  0.59301939523E+02  0.49999991784E+02 0.  0.
         12    1    1    2    0    0 -0.29836477258E+02 -0.10935566688E+02  0.26303723753E+01  0.31886060477E+02  0.00000000000E+00 0. -1.
         11    1    3    3    0    0 -0.17706127158E+01  0.10914735759E+02  0.89126171990E+01  0.14202157290E+02  0.51100000000E-03 0. -1.
        -11    1    3    3    0    0  0.36082556134E+02  0.55206782842E+01 -0.99020455097E+01  0.37821677005E+02  0.51100000000E-03 0.  1.
        -12    1    3    3    0    0 -0.44754661606E+01 -0.54998473558E+01 -0.16409440645E+01  0.72781052283E+01  0.00000000000E+00 0.  1.
</event>
<event>
 7    1  0.6316620E-012  0.5930188E+02  0.7816164E-02  0.1266605E+00
        -11   -1    0    0    0    0  0.00000000000E+00  0.00000000000E+00  0.45593999997E+02  0.45594000000E+02  0.51100000000E-03 0. -1.
         11   -1    0    0    0    0 -0.00000000000E+00 -0.00000000000E+00 -0.45593999997E+02  0.45594000000E+02  0.51100000000E-03 0.  1.
    9900012    2    1    2    0    0  0.49851692902E+01 -0.28319251534E+02  0.13780158610E+02  0.59301879326E+02  0.49999881999E+02 0.  0.
         12    1    1    2    0    0 -0.49851692902E+01  0.28319251534E+02 -0.13780158610E+02  0.31886120674E+02  0.00000000000E+00 0. -1.
         11    1    3    3    0    0  0.90848827382E+01 -0.11153274478E+02 -0.87274969908E+01  0.16825570717E+02  0.51100000000E-03 0. -1.
        -11    1    3    3    0    0  0.25553472487E+01 -0.19633450249E+02  0.99615128618E+00  0.19824088526E+02  0.51100000000E-03 0.  1.
         12    1    3    3    0    0 -0.66550606967E+01  0.24674731927E+01  0.21511504314E+02  0.22652220083E+02  0.00000000000E+00 0. -1.
</event>
<event>
 7    1  0.6316620E-012  0.5930194E+02  0.7816164E-02  0.1266605E+00
        -11   -1    0    0    0    0  0.00000000000E+00  0.00000000000E+00  0.45593999997E+02  0.45594000000E+02  0.51100000000E-03 0. -1.
         11   -1    0    0    0    0 -0.00000000000E+00 -0.00000000000E+00 -0.45593999997E+02  0.45594000000E+02  0.51100000000E-03 0.  1.
    9900012    2    1    2    0    0 -0.26203232531E+02  0.18053510339E+02 -0.20450057416E+01  0.59301942245E+02  0.49999996749E+02 0.  0.
         12    1    1    2    0    0  0.26203232531E+02 -0.18053510339E+02  0.20450057416E+01  0.31886057755E+02  0.00000000000E+00 0. -1.
         11    1    3    3    0    0  0.12762465067E+00 -0.21595989927E+01  0.57081333650E+01  0.61043380177E+01  0.51100000000E-03 0. -1.
        -11    1    3    3    0    0 -0.34813467218E+01 -0.56838269794E+01  0.11769209083E+02  0.13525529447E+02  0.51100000000E-03 0.  1.
        -12    1    3    3    0    0 -0.22849510460E+02  0.25896936311E+02 -0.19522348189E+02  0.39672074781E+02  0.00000000000E+00 0.  1.
</event>
<event>
 7    1  0.6316620E-012  0.5930196E+02  0.7816164E-02  0.1266605E+00
        -11   -1    0    0    0    0  0.00000000000E+00  0.00000000000E+00  0.45593999997E+02  0.45594000000E+02  0.51100000000E-03 0. -1.
         11   -1    0    0    0    0 -0.00000000000E+00 -0.00000000000E+00 -0.45593999997E+02  0.45594000000E+02  0.51100000000E-03 0.  1.
    9900012    2    1    2    0    0 -0.21694971802E+02  0.22713340959E+02  0.54910599394E+01  0.59301962330E+02  0.50000033379E+02 0.  0.
         12    1    1    2    0    0  0.21694971802E+02 -0.22713340959E+02 -0.54910599394E+01  0.31886037670E+02  0.00000000000E+00 0. -1.
         11    1    3    3    0    0  0.49158660478E+01  0.10636286575E+00  0.11587786244E+02  0.12587845025E+02  0.51100000000E-03 0. -1.
        -11    1    3    3    0    0  0.51458764878E+01 -0.16651093678E+01 -0.39291255535E+01  0.66851074719E+01  0.51100000000E-03 0.  1.
        -12    1    3    3    0    0 -0.31756714338E+02  0.24272087461E+02 -0.21676007514E+01  0.40029009834E+02  0.00000000000E+00 0.  1.
</event>
<event>
 7    1  0.6316620E-012  0.5930199E+02  0.7816164E-02  0.1266605E+00
        -11   -1    0    0    0    0  0.00000000000E+00  0.00000000000E+00  0.45593999997E+02  0.45594000000E+02  0.51100000000E-03 0.  1.
         11   -1    0    0    0    0 -0.00000000000E+00 -0.00000000000E+00 -0.45593999997E+02  0.45594000000E+02  0.51100000000E-03 0. -1.
    9900012    2    1    2    0    0  0.22928050048E+02  0.11547989290E+02  0.18912062175E+02  0.59301990038E+02  0.50000083911E+02 0.  0.
         12    1    1    2    0    0 -0.22928050048E+02 -0.11547989290E+02 -0.18912062175E+02  0.31886009962E+02  0.00000000000E+00 0. -1.
         11    1    3    3    0    0  0.23220005730E+01  0.14121060690E+02  0.21253863316E+02  0.25622699854E+02  0.51100000000E-03 0. -1.
        -11    1    3    3    0    0  0.14922898173E+02  0.10700570299E+02 -0.49228762752E+01  0.19011307312E+02  0.51100000000E-03 0.  1.
        -12    1    3    3    0    0  0.56831513012E+01 -0.13273641699E+02  0.25810751336E+01  0.14667982872E+02  0.00000000000E+00 0.  1.
</event>
<event>
 7    1  0.6316620E-012  0.5930195E+02  0.7816164E-02  0.1266605E+00
        -11   -1    0    0    0    0  0.00000000000E+00  0.00000000000E+00  0.45593999997E+02  0.45594000000E+02  0.51100000000E-03 0. -1.
         11   -1    0    0    0    0 -0.00000000000E+00 -0.00000000000E+00 -0.45593999997E+02  0.45594000000E+02  0.51100000000E-03 0.  1.
    9900012    2    1    2    0    0 -0.24947507952E+02  0.35999937038E+01 -0.19529001320E+02  0.59301952891E+02  0.50000016165E+02 0.  0.
         12    1    1    2    0    0  0.24947507952E+02 -0.35999937038E+01  0.19529001320E+02  0.31886047109E+02  0.00000000000E+00 0. -1.
         11    1    3    3    0    0 -0.10809032805E+02 -0.30967931109E+01  0.23019269875E+01  0.11477115746E+02  0.51100000000E-03 0. -1.
        -11    1    3    3    0    0 -0.20082971111E+02  0.11262276014E+02  0.17399126116E+01  0.23090948136E+02  0.51100000000E-03 0.  1.
        -12    1    3    3    0    0  0.59444959631E+01 -0.45654891993E+01 -0.23570840919E+02  0.24733889009E+02  0.00000000000E+00 0.  1.
</event>
<event>
 7    1  0.6316620E-012  0.5930196E+02  0.7816164E-02  0.1266605E+00
        -11   -1    0    0    0    0  0.00000000000E+00  0.00000000000E+00  0.45593999997E+02  0.45594000000E+02  0.51100000000E-03 0. -1.
         11   -1    0    0    0    0 -0.00000000000E+00 -0.00000000000E+00 -0.45593999997E+02  0.45594000000E+02  0.51100000000E-03 0.  1.
    9900012    2    1    2    0    0 -0.10137750222E+02  0.91274189753E+01 -0.28820752482E+02  0.59301960260E+02  0.50000029603E+02 0.  0.
         12    1    1    2    0    0  0.10137750222E+02 -0.91274189753E+01  0.28820752482E+02  0.31886039740E+02  0.00000000000E+00 0. -1.
         11    1    3    3    0    0  0.37521751405E+01 -0.43676124526E+01 -0.16850534940E+02  0.17807172286E+02  0.51100000000E-03 0.  1.
        -11    1    3    3    0    0 -0.23536764185E+02  0.80646370856E+01  0.41459444043E+00  0.24883519213E+02  0.51100000000E-03 0. -1.
         12    1    3    3    0    0  0.96468388226E+01  0.54303943423E+01 -0.12384811982E+02  0.16611268760E+02  0.00000000000E+00 0. -1.
</event>
<event>
 7    1  0.6316620E-012  0.5930192E+02  0.7816164E-02  0.1266605E+00
        -11   -1    0    0    0    0  0.00000000000E+00  0.00000000000E+00  0.45593999997E+02  0.45594000000E+02  0.51100000000E-03 0.  1.
         11   -1    0    0    0    0 -0.00000000000E+00 -0.00000000000E+00 -0.45593999997E+02  0.45594000000E+02  0.51100000000E-03 0. -1.
    9900012    2    1    2    0    0 -0.20832392868E+02 -0.15036747767E+02  0.18884642891E+02  0.59301919759E+02  0.49999955740E+02 0.  0.
         12    1    1    2    0    0  0.20832392868E+02  0.15036747767E+02 -0.18884642891E+02  0.31886080241E+02  0.00000000000E+00 0. -1.
         11    1    3    3    0    0 -0.19853484182E+02  0.60227312431E+01  0.11866498249E+01  0.20780814803E+02  0.51100000000E-03 0. -1.
        -11    1    3    3    0    0  0.30719546352E+01  0.22526045330E+00  0.16538958006E+02  0.16823340327E+02  0.51100000000E-03 0.  1.
        -12    1    3    3    0    0 -0.40508633210E+01 -0.21284739463E+02  0.11590350594E+01  0.21697764630E+02  0.00000000000E+00 0.  1.
</event>
<event>
 7    1  0.6316620E-012  0.5930193E+02  0.7816164E-02  0.1266605E+00
        -11   -1    0    0    0    0  0.00000000000E+00  0.00000000000E+00  0.45593999997E+02  0.45594000000E+02  0.51100000000E-03 0.  1.
         11   -1    0    0    0    0 -0.00000000000E+00 -0.00000000000E+00 -0.45593999997E+02  0.45594000000E+02  0.51100000000E-03 0. -1.
    9900012    2    1    2    0    0 -0.55219322618E+01  0.31290179702E+02 -0.26747184411E+01  0.59301934071E+02  0.49999981842E+02 0.  0.
         12    1    1    2    0    0  0.55219322618E+01 -0.31290179702E+02  0.26747184411E+01  0.31886065929E+02  0.00000000000E+00 0. -1.
         11    1    3    3    0    0 -0.31912500513E+01  0.16190683057E+02 -0.10025371651E+02  0.19308815907E+02  0.51100000000E-03 0. -1.
        -11    1    3    3    0    0  0.16724851571E+02  0.65483343030E+01  0.64612568296E+01  0.19087932898E+02  0.51100000000E-03 0.  1.
         12    1    3    3    0    0 -0.19055533782E+02  0.85511623418E+01  0.88939638044E+00  0.20905185267E+02  0.00000000000E+00 0. -1.
</event>
<event>
 7    1  0.6316620E-012  0.5930200E+02  0.7816164E-02  0.1266605E+00
        -11   -1    0    0    0    0  0.00000000000E+00  0.00000000000E+00  0.45593999997E+02  0.45594000000E+02  0.51100000000E-03 0. -1.
         11   -1    0    0    0    0 -0.00000000000E+00 -0.00000000000E+00 -0.45593999997E+02  0.45594000000E+02  0.51100000000E-03 0.  1.
    9900012    2    1    2    0    0 -0.94090244427E+01  0.47157351399E+01 -0.30098993362E+02  0.59301995229E+02  0.50000093379E+02 0.  0.
         12    1    1    2    0    0  0.94090244427E+01 -0.47157351399E+01  0.30098993362E+02  0.31886004771E+02  0.00000000000E+00 0. -1.
         11    1    3    3    0    0 -0.73919889664E+00 -0.11537065196E+02 -0.28096380827E-01  0.11560755945E+02  0.51100000000E-03 0. -1.
        -11    1    3    3    0    0  0.88426743783E+00 -0.39684138820E+00  0.64288057617E+01  0.65014579728E+01  0.51100000000E-03 0.  1.
        -12    1    3    3    0    0 -0.95540929839E+01  0.16649641724E+02 -0.36499702743E+02  0.41239781311E+02  0.00000000000E+00 0.  1.
</event>
<event>
 7    1  0.6316620E-012  0.5930195E+02  0.7816164E-02  0.1266605E+00
        -11   -1    0    0    0    0  0.00000000000E+00  0.00000000000E+00  0.45593999997E+02  0.45594000000E+02  0.51100000000E-03 0.  1.
         11   -1    0    0    0    0 -0.00000000000E+00 -0.00000000000E+00 -0.45593999997E+02  0.45594000000E+02  0.51100000000E-03 0. -1.
    9900012    2    1    2    0    0  0.27703373182E+02 -0.99091119871E+01  0.12290352128E+02  0.59301950676E+02  0.50000012125E+02 0.  0.
         12    1    1    2    0    0 -0.27703373182E+02  0.99091119871E+01 -0.12290352128E+02  0.31886049324E+02  0.00000000000E+00 0. -1.
         11    1    3    3    0    0  0.45227463583E+01  0.42125673018E+01  0.80836897941E+01  0.10175804580E+02  0.51100000000E-03 0.  1.
        -11    1    3    3    0    0  0.37752504923E+01 -0.36909522343E-01 -0.16817615468E+02  0.17236184870E+02  0.51100000000E-03 0. -1.
         12    1    3    3    0    0  0.19405376332E+02 -0.14084769766E+02  0.21024277802E+02  0.31889961227E+02  0.00000000000E+00 0. -1.
</event>
<event>
 7    1  0.6316620E-012  0.5930197E+02  0.7816164E-02  0.1266605E+00
        -11   -1    0    0    0    0  0.00000000000E+00  0.00000000000E+00  0.45593999997E+02  0.45594000000E+02  0.51100000000E-03 0. -1.
         11   -1    0    0    0    0 -0.00000000000E+00 -0.00000000000E+00 -0.45593999997E+02  0.45594000000E+02  0.51100000000E-03 0.  1.
    9900012    2    1    2    0    0 -0.30732013763E+02 -0.83608895328E+01 -0.15355727517E+01  0.59301966578E+02  0.50000041126E+02 0.  0.
         12    1    1    2    0    0  0.30732013763E+02  0.83608895328E+01  0.15355727517E+01  0.31886033422E+02  0.00000000000E+00 0. -1.
         11    1    3    3    0    0 -0.19108777422E+02 -0.25138459769E+01  0.13744043609E+02  0.23671998883E+02  0.51100000000E-03 0. -1.
        -11    1    3    3    0    0 -0.17225282764E+02 -0.13866778646E+02 -0.12749715035E+02  0.25525539173E+02  0.51100000000E-03 0.  1.
         12    1    3    3    0    0  0.56020464224E+01  0.80197350905E+01 -0.25299013255E+01  0.10104428522E+02  0.00000000000E+00 0. -1.
</event>
<event>
 7    1  0.6316620E-012  0.5930193E+02  0.7816164E-02  0.1266605E+00
        -11   -1    0    0    0    0  0.00000000000E+00  0.00000000000E+00  0.45593999997E+02  0.45594000000E+02  0.51100000000E-03 0. -1.
         11   -1    0    0    0    0 -0.00000000000E+00 -0.00000000000E+00 -0.45593999997E+02  0.45594000000E+02  0.51100000000E-03 0.  1.
    9900012    2    1    2    0    0  0.49447735571E+01  0.29948992067E+01 -0.31357631644E+02  0.59301932994E+02  0.49999979876E+02 0.  0.
         12    1    1    2    0    0 -0.49447735571E+01 -0.29948992067E+01  0.31357631644E+02  0.31886067006E+02  0.00000000000E+00 0. -1.
         11    1    3    3    0    0 -0.12970087781E+01  0.15196773446E+02 -0.20096459469E+01  0.15383849715E+02  0.51100000000E-03 0. -1.
        -11    1    3    3    0    0  0.12546299993E+02 -0.22039717696E+01 -0.50635449534E+00  0.12748471682E+02  0.51100000000E-03 0.  1.
        -12    1    3    3    0    0 -0.63045176582E+01 -0.99979024701E+01 -0.28841631202E+02  0.31169611597E+02  0.00000000000E+00 0.  1.
</event>
<event>
 7    1  0.6316620E-012  0.5930201E+02  0.7816164E-02  0.1266605E+00
        -11   -1    0    0    0    0  0.00000000000E+00  0.00000000000E+00  0.45593999997E+02  0.45594000000E+02  0.51100000000E-03 0. -1.
         11   -1    0    0    0    0 -0.00000000000E+00 -0.00000000000E+00 -0.45593999997E+02  0.45594000000E+02  0.51100000000E-03 0.  1.
    9900012    2    1    2    0    0 -0.26239985515E+02 -0.18093609780E+02  0.89483206418E+00  0.59302011241E+02  0.50000122580E+02 0.  0.
         12    1    1    2    0    0  0.26239985515E+02  0.18093609780E+02 -0.89483206418E+00  0.31885988759E+02  0.00000000000E+00 0. -1.
         11    1    3    3    0    0 -0.14510388805E+02 -0.35176640595E+01  0.95947155963E+01  0.17747786097E+02  0.51100000000E-03 0. -1.
        -11    1    3    3    0    0 -0.24670842659E+02 -0.74408936443E+01 -0.68316867368E+01  0.26658756904E+02  0.51100000000E-03 0.  1.
         12    1    3    3    0    0  0.12941245948E+02 -0.71350520764E+01 -0.18681967953E+01  0.14895468240E+02  0.00000000000E+00 0. -1.
</event>
<event>
 7    1  0.6316620E-012  0.5930195E+02  0.7816164E-02  0.1266605E+00
        -11   -1    0    0    0    0  0.00000000000E+00  0.00000000000E+00  0.45593999997E+02  0.45594000000E+02  0.51100000000E-03 0.  1.
         11   -1    0    0    0    0 -0.00000000000E+00 -0.00000000000E+00 -0.45593999997E+02  0.45594000000E+02  0.51100000000E-03 0. -1.
    9900012    2    1    2    0    0  0.22629987727E+02 -0.99034446454E+01  0.20162477897E+02  0.59301951714E+02  0.50000014018E+02 0.  0.
         12    1    1    2    0    0 -0.22629987727E+02  0.99034446454E+01 -0.20162477897E+02  0.31886048286E+02  0.00000000000E+00 0. -1.
         11    1    3    3    0    0 -0.79133257335E+01  0.76244572217E+01  0.11649068743E+02  0.16014177311E+02  0.51100000000E-03 0. -1.
        -11    1    3    3    0    0  0.47121371663E+01  0.18536399423E+01 -0.60267024437E+01  0.78715538692E+01  0.51100000000E-03 0.  1.
        -12    1    3    3    0    0  0.25831176294E+02 -0.19381541809E+02  0.14540111598E+02  0.35416220534E+02  0.00000000000E+00 0.  1.
</event>
<event>
 7    1  0.6316620E-012  0.5930195E+02  0.7816164E-02  0.1266605E+00
        -11   -1    0    0    0    0  0.00000000000E+00  0.00000000000E+00  0.45593999997E+02  0.45594000000E+02  0.51100000000E-03 0.  1.
         11   -1    0    0    0    0 -0.00000000000E+00 -0.00000000000E+00 -0.45593999997E+02  0.45594000000E+02  0.51100000000E-03 0. -1.
    9900012    2    1    2    0    0  0.13002709409E+02 -0.68244609784E+01  0.28303296624E+02  0.59301947887E+02  0.50000007038E+02 0.  0.
         12    1    1    2    0    0 -0.13002709409E+02  0.68244609784E+01 -0.28303296624E+02  0.31886052113E+02  0.00000000000E+00 0. -1.
         11    1    3    3    0    0  0.10511299570E+02  0.30971616428E+01  0.31281399038E+02  0.33145222204E+02  0.51100000000E-03 0. -1.
        -11    1    3    3    0    0  0.63383354233E+01 -0.44505581582E+01  0.93440828758E+01  0.12136467728E+02  0.51100000000E-03 0.  1.
         12    1    3    3    0    0 -0.38469255851E+01 -0.54710644629E+01 -0.12322185290E+02  0.14020257955E+02  0.00000000000E+00 0. -1.
</event>
<event>
 7    1  0.6316620E-012  0.5930197E+02  0.7816164E-02  0.1266605E+00
        -11   -1    0    0    0    0  0.00000000000E+00  0.00000000000E+00  0.45593999997E+02  0.45594000000E+02  0.51100000000E-03 0.  1.
         11   -1    0    0    0    0 -0.00000000000E+00 -0.00000000000E+00 -0.45593999997E+02  0.45594000000E+02  0.51100000000E-03 0. -1.
    9900012    2    1    2    0    0 -0.11330337377E+02  0.11096684595E+02  0.27662359299E+02  0.59301967383E+02  0.50000042594E+02 0.  0.
         12    1    1    2    0    0  0.11330337377E+02 -0.11096684595E+02 -0.27662359299E+02  0.31886032617E+02  0.00000000000E+00 0. -1.
         11    1    3    3    0    0 -0.28734340888E+01 -0.58326944468E+00 -0.10910653112E+02  0.11297751028E+02  0.51100000000E-03 0. -1.
        -11    1    3    3    0    0 -0.89232023825E+01 -0.60526940049E+01  0.16028508350E+02  0.19317653213E+02  0.51100000000E-03 0.  1.
         12    1    3    3    0    0  0.46629909416E+00  0.17732648045E+02  0.22544504061E+02  0.28686563142E+02  0.00000000000E+00 0. -1.
</event>
<event>
 7    1  0.6316620E-012  0.5930194E+02  0.7816164E-02  0.1266605E+00
        -11   -1    0    0    0    0  0.00000000000E+00  0.00000000000E+00  0.45593999997E+02  0.45594000000E+02  0.51100000000E-03 0.  1.
         11   -1    0    0    0    0 -0.00000000000E+00 -0.00000000000E+00 -0.45593999997E+02  0.45594000000E+02  0.51100000000E-03 0. -1.
    9900012    2    1    2    0    0 -0.15693363716E+02 -0.22796865715E+02  0.15834828249E+02  0.59301944477E+02  0.50000000819E+02 0.  0.
         12    1    1    2    0    0  0.15693363716E+02  0.22796865715E+02 -0.15834828249E+02  0.31886055523E+02  0.00000000000E+00 0. -1.
         11    1    3    3    0    0  0.27000347922E+00 -0.78672862157E+01  0.12068762888E+02  0.14409098937E+02  0.51100000000E-03 0.  1.
        -11    1    3    3    0    0 -0.59971509444E+01  0.11836702868E+02 -0.61950198531E+01  0.14644166944E+02  0.51100000000E-03 0. -1.
         12    1    3    3    0    0 -0.99662162511E+01 -0.26766282368E+02  0.99610852145E+01  0.30248678596E+02  0.00000000000E+00 0. -1.
</event>
<event>
 7    1  0.6316620E-012  0.5930181E+02  0.7816164E-02  0.1266605E+00
        -11   -1    0    0    0    0  0.00000000000E+00  0.00000000000E+00  0.45593999997E+02  0.45594000000E+02  0.51100000000E-03 0. -1.
         11   -1    0    0    0    0 -0.00000000000E+00 -0.00000000000E+00 -0.45593999997E+02  0.45594000000E+02  0.51100000000E-03 0.  1.
    9900012    2    1    2    0    0  0.22374676231E+02  0.10590139620E+02 -0.20098548299E+02  0.59301814318E+02  0.49999763440E+02 0.  0.
         12    1    1    2    0    0 -0.22374676231E+02 -0.10590139620E+02  0.20098548299E+02  0.31886185682E+02  0.00000000000E+00 0. -1.
         11    1    3    3    0    0  0.39696019373E+01  0.28299659041E+01  0.52024671377E+01  0.71296641673E+01  0.51100000000E-03 0. -1.
        -11    1    3    3    0    0  0.16201160973E+02  0.19187316063E+02 -0.88904824162E+00  0.25128094270E+02  0.51100000000E-03 0.  1.
        -12    1    3    3    0    0  0.22039133204E+01 -0.11427142347E+02 -0.24411967195E+02  0.27044055881E+02  0.00000000000E+00 0.  1.
</event>
<event>
 7    1  0.6316620E-012  0.5930194E+02  0.7816164E-02  0.1266605E+00
        -11   -1    0    0    0    0  0.00000000000E+00  0.00000000000E+00  0.45593999997E+02  0.45594000000E+02  0.51100000000E-03 0.  1.
         11   -1    0    0    0    0 -0.00000000000E+00 -0.00000000000E+00 -0.45593999997E+02  0.45594000000E+02  0.51100000000E-03 0. -1.
    9900012    2    1    2    0    0  0.10854807198E+02  0.22127701504E+02  0.20230140724E+02  0.59301943379E+02  0.49999998816E+02 0.  0.
         12    1    1    2    0    0 -0.10854807198E+02 -0.22127701504E+02 -0.20230140724E+02  0.31886056621E+02  0.00000000000E+00 0. -1.
         11    1    3    3    0    0  0.17095855485E+02  0.93103695140E-01 -0.63153313236E+01  0.18225266885E+02  0.51100000000E-03 0. -1.
        -11    1    3    3    0    0 -0.11562155724E+02  0.94226034635E+01  0.53512115773E+01  0.15846272957E+02  0.51100000000E-03 0.  1.
        -12    1    3    3    0    0  0.53211074375E+01  0.12611994345E+02  0.21194260470E+02  0.25230403536E+02  0.00000000000E+00 0.  1.
</event>
<event>
 7    1  0.6316620E-012  0.5930195E+02  0.7816164E-02  0.1266605E+00
        -11   -1    0    0    0    0  0.00000000000E+00  0.00000000000E+00  0.45593999997E+02  0.45594000000E+02  0.51100000000E-03 0. -1.
         11   -1    0    0    0    0 -0.00000000000E+00 -0.00000000000E+00 -0.45593999997E+02  0.45594000000E+02  0.51100000000E-03 0.  1.
    9900012    2    1    2    0    0 -0.24796770541E+02  0.27660075011E+01 -0.19854208689E+02  0.59301949297E+02  0.50000009610E+02 0.  0.
         12    1    1    2    0    0  0.24796770541E+02 -0.27660075011E+01  0.19854208689E+02  0.31886050703E+02  0.00000000000E+00 0. -1.
         11    1    3    3    0    0 -0.60800760002E+01  0.41622018739E+00  0.62074485325E+00  0.61258377262E+01  0.51100000000E-03 0. -1.
        -11    1    3    3    0    0 -0.28141528939E+02 -0.10128541925E+02 -0.22473711692E+02  0.37411238017E+02  0.51100000000E-03 0.  1.
         12    1    3    3    0    0  0.94248343980E+01  0.12478329239E+02  0.19987581493E+01  0.15764873554E+02  0.00000000000E+00 0. -1.
</event>
<event>
 7    1  0.6316620E-012  0.5930195E+02  0.7816164E-02  0.1266605E+00
        -11   -1    0    0    0    0  0.00000000000E+00  0.00000000000E+00  0.45593999997E+02  0.45594000000E+02  0.51100000000E-03 0. -1.
         11   -1    0    0    0    0 -0.00000000000E+00 -0.00000000000E+00 -0.45593999997E+02  0.45594000000E+02  0.51100000000E-03 0.  1.
    9900012    2    1    2    0    0  0.30593924563E+02  0.83548165696E+01  0.33058858004E+01  0.59301951938E+02  0.50000014426E+02 0.  0.
         12    1    1    2    0    0 -0.30593924563E+02 -0.83548165696E+01 -0.33058858004E+01  0.31886048062E+02  0.00000000000E+00 0. -1.
         11    1    3    3    0    0 -0.18815284528E+01  0.44825989112E+01  0.11683550109E+02  0.12654611243E+02  0.51100000000E-03 0. -1.
        -11    1    3    3    0    0  0.36047479235E+02 -0.28303552201E+01 -0.11709864086E+01  0.36177380769E+02  0.51100000000E-03 0.  1.
         12    1    3    3    0    0 -0.35720262189E+01  0.67025728785E+01 -0.72066778995E+01  0.10469959926E+02  0.00000000000E+00 0. -1.
</event>
<event>
 7    1  0.6316620E-012  0.5930191E+02  0.7816164E-02  0.1266605E+00
        -11   -1    0    0    0    0  0.00000000000E+00  0.00000000000E+00  0.45593999997E+02  0.45594000000E+02  0.51100000000E-03 0.  1.
         11   -1    0    0    0    0 -0.00000000000E+00 -0.00000000000E+00 -0.45593999997E+02  0.45594000000E+02  0.51100000000E-03 0. -1.
    9900012    2    1    2    0    0  0.12829547869E+02  0.27979273604E+02  0.83238020360E+01  0.59301910082E+02  0.49999938092E+02 0.  0.
         12    1    1    2    0    0 -0.12829547869E+02 -0.27979273604E+02 -0.83238020360E+01  0.31886089918E+02  0.00000000000E+00 0. -1.
         11    1    3    3    0    0  0.24311060079E+01 -0.15797599969E+01  0.12623955323E+02  0.12952612336E+02  0.51100000000E-03 0. -1.
        -11    1    3    3    0    0  0.65612400879E+01  0.94768083518E+01  0.14534789014E+02  0.18550467918E+02  0.51100000000E-03 0.  1.
         12    1    3    3    0    0  0.38372017729E+01  0.20082225249E+02 -0.18834942301E+02  0.27798829829E+02  0.00000000000E+00 0. -1.
</event>
<event>
 7    1  0.6316620E-012  0.5930186E+02  0.7816164E-02  0.1266605E+00
        -11   -1    0    0    0    0  0.00000000000E+00  0.00000000000E+00  0.45593999997E+02  0.45594000000E+02  0.51100000000E-03 0. -1.
         11   -1    0    0    0    0 -0.00000000000E+00 -0.00000000000E+00 -0.45593999997E+02  0.45594000000E+02  0.51100000000E-03 0.  1.
    9900012    2    1    2    0    0 -0.22365326181E+02  0.76632373881E+01 -0.21396089904E+02  0.59301863740E+02  0.49999853573E+02 0.  0.
         12    1    1    2    0    0  0.22365326181E+02 -0.76632373881E+01  0.21396089904E+02  0.31886136260E+02  0.00000000000E+00 0. -1.
         11    1    3    3    0    0  0.29827045729E+01 -0.72251742390E+01 -0.77881390013E+01  0.11034254788E+02  0.51100000000E-03 0. -1.
        -11    1    3    3    0    0 -0.13768455879E+02 -0.11194934842E+02 -0.60078924124E+01  0.18734772881E+02  0.51100000000E-03 0.  1.
        -12    1    3    3    0    0 -0.11579574875E+02  0.26083346469E+02 -0.76000584900E+01  0.29532836071E+02  0.00000000000E+00 0.  1.
</event>
<event>
 7    1  0.6316620E-012  0.5930194E+02  0.7816164E-02  0.1266605E+00
        -11   -1    0    0    0    0  0.00000000000E+00  0.00000000000E+00  0.45593999997E+02  0.45594000000E+02  0.51100000000E-03 0.  1.
         11   -1    0    0    0    0 -0.00000000000E+00 -0.00000000000E+00 -0.45593999997E+02  0.45594000000E+02  0.51100000000E-03 0. -1.
    9900012    2    1    2    0    0 -0.21842837586E+02  0.12963328990E+02  0.19275978490E+02  0.59301940365E+02  0.49999993320E+02 0.  0.
         12    1    1    2    0    0  0.21842837586E+02 -0.12963328990E+02 -0.19275978490E+02  0.31886059635E+02  0.00000000000E+00 0. -1.
         11    1    3    3    0    0  0.16072163315E+01 -0.11303530092E+02 -0.40793410913E+01  0.12124106601E+02  0.51100000000E-03 0. -1.
        -11    1    3    3    0    0 -0.20393859865E+02  0.43702545581E+01  0.12228865669E+02  0.24177547455E+02  0.51100000000E-03 0.  1.
        -12    1    3    3    0    0 -0.30561940525E+01  0.19896604523E+02  0.11126453912E+02  0.23000286309E+02  0.00000000000E+00 0.  1.
</event>
<event>
 7    1  0.6316620E-012  0.5930163E+02  0.7816164E-02  0.1266606E+00
        -11   -1    0    0    0    0  0.00000000000E+00  0.00000000000E+00  0.45593999997E+02  0.45594000000E+02  0.51100000000E-03 0.  1.
         11   -1    0    0    0    0 -0.00000000000E+00 -0.00000000000E+00 -0.45593999997E+02  0.45594000000E+02  0.51100000000E-03 0. -1.
    9900012    2    1    2    0    0 -0.27548619041E+02 -0.16043133805E+02 -0.65744770822E+00  0.59301626878E+02  0.49999421592E+02 0.  0.
         12    1    1    2    0    0  0.27548619041E+02  0.16043133805E+02  0.65744770822E+00  0.31886373122E+02  0.00000000000E+00 0. -1.
         11    1    3    3    0    0 -0.22959181626E+02  0.82591030964E+01 -0.10753790623E+02  0.26664223557E+02  0.51100000000E-03 0. -1.
        -11    1    3    3    0    0 -0.45856765070E+01 -0.75237641467E+01 -0.49450060100E+01  0.10103887403E+02  0.51100000000E-03 0.  1.
        -12    1    3    3    0    0 -0.37609082041E-02 -0.16778472755E+02  0.15041348925E+02  0.22533515918E+02  0.00000000000E+00 0.  1.
</event>
<event>
 7    1  0.6316620E-012  0.5930194E+02  0.7816164E-02  0.1266605E+00
        -11   -1    0    0    0    0  0.00000000000E+00  0.00000000000E+00  0.45593999997E+02  0.45594000000E+02  0.51100000000E-03 0.  1.
         11   -1    0    0    0    0 -0.00000000000E+00 -0.00000000000E+00 -0.45593999997E+02  0.45594000000E+02  0.51100000000E-03 0. -1.
    9900012    2    1    2    0    0  0.19634196302E+02  0.25041188155E+02  0.20390875656E+01  0.59301942753E+02  0.49999997675E+02 0.  0.
         12    1    1    2    0    0 -0.19634196302E+02 -0.25041188155E+02 -0.20390875656E+01  0.31886057247E+02  0.00000000000E+00 0. -1.
         11    1    3    3    0    0 -0.53213174644E+01  0.62581365434E+00 -0.14245977479E+01  0.55441447755E+01  0.51100000000E-03 0. -1.
        -11    1    3    3    0    0  0.12370757145E+02 -0.95474604987E+01  0.74648056902E+01  0.17317995224E+02  0.51100000000E-03 0.  1.
        -12    1    3    3    0    0  0.12584756622E+02  0.33962835000E+02 -0.40011203767E+01  0.36439802754E+02  0.00000000000E+00 0.  1.
</event>
<event>
 7    1  0.6316620E-012  0.5930176E+02  0.7816164E-02  0.1266605E+00
        -11   -1    0    0    0    0  0.00000000000E+00  0.00000000000E+00  0.45593999997E+02  0.45594000000E+02  0.51100000000E-03 0.  1.
         11   -1    0    0    0    0 -0.00000000000E+00 -0.00000000000E+00 -0.45593999997E+02  0.45594000000E+02  0.51100000000E-03 0. -1.
    9900012    2    1    2    0    0 -0.15069719959E+02  0.15313890941E+02 -0.23561002607E+02  0.59301755956E+02  0.49999657001E+02 0.  0.
         12    1    1    2    0    0  0.15069719959E+02 -0.15313890941E+02  0.23561002607E+02  0.31886244044E+02  0.00000000000E+00 0. -1.
         11    1    3    3    0    0 -0.87264271002E+01 -0.62642502706E+01  0.54641220765E+01  0.12051887475E+02  0.51100000000E-03 0. -1.
        -11    1    3    3    0    0 -0.16529929086E+02  0.40724758712E+01 -0.13676022472E+02  0.21837060385E+02  0.51100000000E-03 0.  1.
        -12    1    3    3    0    0  0.10186636227E+02  0.17505665340E+02 -0.15349102211E+02  0.25412808096E+02  0.00000000000E+00 0.  1.
</event>
<event>
 7    1  0.6316620E-012  0.5930194E+02  0.7816164E-02  0.1266605E+00
        -11   -1    0    0    0    0  0.00000000000E+00  0.00000000000E+00  0.45593999997E+02  0.45594000000E+02  0.51100000000E-03 0.  1.
         11   -1    0    0    0    0 -0.00000000000E+00 -0.00000000000E+00 -0.45593999997E+02  0.45594000000E+02  0.51100000000E-03 0. -1.
    9900012    2    1    2    0    0 -0.21996079171E+02 -0.20600933474E+02  0.10416089955E+02  0.59301938957E+02  0.49999990752E+02 0.  0.
         12    1    1    2    0    0  0.21996079171E+02  0.20600933474E+02 -0.10416089955E+02  0.31886061043E+02  0.00000000000E+00 0. -1.
         11    1    3    3    0    0 -0.13542342282E+02 -0.96620469575E+01 -0.12054768205E+02  0.20544284427E+02  0.51100000000E-03 0. -1.
        -11    1    3    3    0    0 -0.43273708222E+01 -0.20545199439E+02  0.13329516908E+02  0.24869808593E+02  0.51100000000E-03 0.  1.
         12    1    3    3    0    0 -0.41263660662E+01  0.96063129222E+01  0.91413412517E+01  0.13887845936E+02  0.00000000000E+00 0. -1.
</event>
<event>
 7    1  0.6316620E-012  0.5930194E+02  0.7816164E-02  0.1266605E+00
        -11   -1    0    0    0    0  0.00000000000E+00  0.00000000000E+00  0.45593999997E+02  0.45594000000E+02  0.51100000000E-03 0.  1.
         11   -1    0    0    0    0 -0.00000000000E+00 -0.00000000000E+00 -0.45593999997E+02  0.45594000000E+02  0.51100000000E-03 0. -1.
    9900012    2    1    2    0    0  0.22062477135E+02  0.82226302400E+01  0.21502471961E+02  0.59301939631E+02  0.49999991982E+02 0.  0.
         12    1    1    2    0    0 -0.22062477135E+02 -0.82226302400E+01 -0.21502471961E+02  0.31886060369E+02  0.00000000000E+00 0. -1.
         11    1    3    3    0    0 -0.50396230818E+01 -0.21933181891E+01  0.90384470798E+01  0.10578372812E+02  0.51100000000E-03 0. -1.
        -11    1    3    3    0    0  0.13330953355E+02 -0.12850305487E+02 -0.95411731604E+00  0.18540631289E+02  0.51100000000E-03 0.  1.
         12    1    3    3    0    0  0.13771146862E+02  0.23266253916E+02  0.13418142197E+02  0.30182935530E+02  0.00000000000E+00 0. -1.
</event>
<event>
 7    1  0.6316620E-012  0.5930194E+02  0.7816164E-02  0.1266605E+00
        -11   -1    0    0    0    0  0.00000000000E+00  0.00000000000E+00  0.45593999997E+02  0.45594000000E+02  0.51100000000E-03 0. -1.
         11   -1    0    0    0    0 -0.00000000000E+00 -0.00000000000E+00 -0.45593999997E+02  0.45594000000E+02  0.51100000000E-03 0.  1.
    9900012    2    1    2    0    0  0.62655601295E+01 -0.27362874357E+02 -0.15124042628E+02  0.59301940315E+02  0.49999993229E+02 0.  0.
         12    1    1    2    0    0 -0.62655601295E+01  0.27362874357E+02  0.15124042628E+02  0.31886059685E+02  0.00000000000E+00 0. -1.
         11    1    3    3    0    0  0.35963705803E+01 -0.39634083146E+01 -0.65183483230E+01  0.84339404753E+01  0.51100000000E-03 0. -1.
        -11    1    3    3    0    0  0.79604287014E+01 -0.34465716184E+02  0.84528127108E+00  0.35383167154E+02  0.51100000000E-03 0.  1.
         12    1    3    3    0    0 -0.52912391522E+01  0.11066250141E+02 -0.94509755760E+01  0.15484832685E+02  0.00000000000E+00 0. -1.
</event>
<event>
 7    1  0.6316620E-012  0.5930194E+02  0.7816164E-02  0.1266605E+00
        -11   -1    0    0    0    0  0.00000000000E+00  0.00000000000E+00  0.45593999997E+02  0.45594000000E+02  0.51100000000E-03 0. -1.
         11   -1    0    0    0    0 -0.00000000000E+00 -0.00000000000E+00 -0.45593999997E+02  0.45594000000E+02  0.51100000000E-03 0.  1.
    9900012    2    1    2    0    0  0.13913790097E+02  0.25843173835E+02 -0.12460242296E+02  0.59301939930E+02  0.49999992526E+02 0.  0.
         12    1    1    2    0    0 -0.13913790097E+02 -0.25843173835E+02  0.12460242296E+02  0.31886060070E+02  0.00000000000E+00 0. -1.
         11    1    3    3    0    0 -0.12574671783E+01 -0.34194997280E+01  0.34439786474E+01  0.50135009004E+01  0.51100000000E-03 0. -1.
        -11    1    3    3    0    0 -0.12384353179E+02  0.54294498464E+01 -0.11190516145E+02  0.17552173117E+02  0.51100000000E-03 0.  1.
        -12    1    3    3    0    0  0.27555610455E+02  0.23833223716E+02 -0.47137047992E+01  0.36736265912E+02  0.00000000000E+00 0.  1.
</event>
<event>
 7    1  0.6316620E-012  0.5930194E+02  0.7816164E-02  0.1266605E+00
        -11   -1    0    0    0    0  0.00000000000E+00  0.00000000000E+00  0.45593999997E+02  0.45594000000E+02  0.51100000000E-03 0. -1.
         11   -1    0    0    0    0 -0.00000000000E+00 -0.00000000000E+00 -0.45593999997E+02  0.45594000000E+02  0.51100000000E-03 0.  1.
    9900012    2    1    2    0    0 -0.10204513487E+02  0.18682429565E+02 -0.23739328371E+02  0.59301937504E+02  0.49999988102E+02 0.  0.
         12    1    1    2    0    0  0.10204513487E+02 -0.18682429565E+02  0.23739328371E+02  0.31886062496E+02  0.00000000000E+00 0. -1.
         11    1    3    3    0    0  0.77664285237E+01  0.76294251431E+01 -0.39306861710E+01  0.11574793046E+02  0.51100000000E-03 0. -1.
        -11    1    3    3    0    0  0.42178779722E+01  0.11571252520E+02  0.59897067462E+01  0.13695289943E+02  0.51100000000E-03 0.  1.
        -12    1    3    3    0    0 -0.22188819983E+02 -0.51824809747E+00 -0.25798348946E+02  0.34031854515E+02  0.00000000000E+00 0.  1.
</event>
<event>
 7    1  0.6316620E-012  0.5930196E+02  0.7816164E-02  0.1266605E+00
        -11   -1    0    0    0    0  0.00000000000E+00  0.00000000000E+00  0.45593999997E+02  0.45594000000E+02  0.51100000000E-03 0. -1.
         11   -1    0    0    0    0 -0.00000000000E+00 -0.00000000000E+00 -0.45593999997E+02  0.45594000000E+02  0.51100000000E-03 0.  1.
    9900012    2    1    2    0    0  0.22968210837E+02 -0.22083011593E+02  0.12334824785E+01  0.59301959338E+02  0.50000027922E+02 0.  0.
         12    1    1    2    0    0 -0.22968210837E+02  0.22083011593E+02 -0.12334824785E+01  0.31886040662E+02  0.00000000000E+00 0. -1.
         11    1    3    3    0    0  0.11023313709E+01  0.52743341374E+01 -0.48906805208E-01  0.53885180877E+01  0.51100000000E-03 0. -1.
        -11    1    3    3    0    0  0.24491818146E+02  0.96551880337E+00  0.56023106609E+01  0.25142936735E+02  0.51100000000E-03 0.  1.
        -12    1    3    3    0    0 -0.26259386801E+01 -0.28322864534E+02 -0.43199213771E+01  0.28770504515E+02  0.00000000000E+00 0.  1.
</event>
<event>
 7    1  0.6316620E-012  0.5930197E+02  0.7816164E-02  0.1266605E+00
        -11   -1    0    0    0    0  0.00000000000E+00  0.00000000000E+00  0.45593999997E+02  0.45594000000E+02  0.51100000000E-03 0.  1.
         11   -1    0    0    0    0 -0.00000000000E+00 -0.00000000000E+00 -0.45593999997E+02  0.45594000000E+02  0.51100000000E-03 0. -1.
    9900012    2    1    2    0    0  0.15335129805E+02 -0.18272095647E+02  0.21158524357E+02  0.59301971109E+02  0.50000049389E+02 0.  0.
         12    1    1    2    0    0 -0.15335129805E+02  0.18272095647E+02 -0.21158524357E+02  0.31886028891E+02  0.00000000000E+00 0. -1.
         11    1    3    3    0    0 -0.83789788276E+00 -0.10426802514E+02 -0.56268956371E+01  0.11877804439E+02  0.51100000000E-03 0. -1.
        -11    1    3    3    0    0  0.15388890826E+02  0.11424045918E+01 -0.35002959723E+01  0.15823246230E+02  0.51100000000E-03 0.  1.
        -12    1    3    3    0    0  0.78413686238E+00 -0.89876977251E+01  0.30285715967E+02  0.31600920440E+02  0.00000000000E+00 0.  1.
</event>
<event>
 7    1  0.6316620E-012  0.5930196E+02  0.7816164E-02  0.1266605E+00
        -11   -1    0    0    0    0  0.00000000000E+00  0.00000000000E+00  0.45593999997E+02  0.45594000000E+02  0.51100000000E-03 0. -1.
         11   -1    0    0    0    0 -0.00000000000E+00 -0.00000000000E+00 -0.45593999997E+02  0.45594000000E+02  0.51100000000E-03 0.  1.
    9900012    2    1    2    0    0 -0.25647054504E+02  0.16485114621E+02 -0.93375028385E+01  0.59301962805E+02  0.50000034244E+02 0.  0.
         12    1    1    2    0    0  0.25647054504E+02 -0.16485114621E+02  0.93375028385E+01  0.31886037195E+02  0.00000000000E+00 0. -1.
         11    1    3    3    0    0 -0.18205023824E+02  0.17222957716E+02 -0.18486648661E+02  0.31141762055E+02  0.51100000000E-03 0. -1.
        -11    1    3    3    0    0 -0.10250986527E+02  0.62896732016E+00 -0.65316269145E+01  0.12171297181E+02  0.51100000000E-03 0.  1.
         12    1    3    3    0    0  0.28089558471E+01 -0.13668104157E+01  0.15680772737E+02  0.15988903568E+02  0.00000000000E+00 0. -1.
</event>
<event>
 7    1  0.6316620E-012  0.5930193E+02  0.7816164E-02  0.1266605E+00
        -11   -1    0    0    0    0  0.00000000000E+00  0.00000000000E+00  0.45593999997E+02  0.45594000000E+02  0.51100000000E-03 0.  1.
         11   -1    0    0    0    0 -0.00000000000E+00 -0.00000000000E+00 -0.45593999997E+02  0.45594000000E+02  0.51100000000E-03 0. -1.
    9900012    2    1    2    0    0  0.18292164463E+00 -0.17816023445E+02  0.26443848103E+02  0.59301933227E+02  0.49999980303E+02 0.  0.
         12    1    1    2    0    0 -0.18292164463E+00  0.17816023445E+02 -0.26443848103E+02  0.31886066773E+02  0.00000000000E+00 0. -1.
         11    1    3    3    0    0  0.11645006620E+02 -0.16723997805E+02 -0.19770169973E+01  0.20474542198E+02  0.51100000000E-03 0. -1.
        -11    1    3    3    0    0  0.61586154523E+01 -0.27989611468E+01  0.15495589497E+02  0.16907868639E+02  0.51100000000E-03 0.  1.
        -12    1    3    3    0    0 -0.17620700428E+02  0.17069355060E+01  0.12925275604E+02  0.21919522391E+02  0.00000000000E+00 0.  1.
</event>
<event>
 7    1  0.6316620E-012  0.5930192E+02  0.7816164E-02  0.1266605E+00
        -11   -1    0    0    0    0  0.00000000000E+00  0.00000000000E+00  0.45593999997E+02  0.45594000000E+02  0.51100000000E-03 0. -1.
         11   -1    0    0    0    0 -0.00000000000E+00 -0.00000000000E+00 -0.45593999997E+02  0.45594000000E+02  0.51100000000E-03 0.  1.
    9900012    2    1    2    0    0  0.21312874881E+02  0.18192276360E+02 -0.15215922912E+02  0.59301923652E+02  0.49999962839E+02 0.  0.
         12    1    1    2    0    0 -0.21312874881E+02 -0.18192276360E+02  0.15215922912E+02  0.31886076348E+02  0.00000000000E+00 0. -1.
         11    1    3    3    0    0  0.54290778849E+01  0.18633946605E+01  0.78034998616E+01  0.96871944697E+01  0.51100000000E-03 0. -1.
        -11    1    3    3    0    0  0.68619558820E+01 -0.11315064456E+02 -0.13775615785E+02  0.19101955729E+02  0.51100000000E-03 0.  1.
         12    1    3    3    0    0  0.90218411140E+01  0.27643946155E+02 -0.92438069886E+01  0.30512773453E+02  0.00000000000E+00 0. -1.
</event>
<event>
 7    1  0.6316620E-012  0.5930195E+02  0.7816164E-02  0.1266605E+00
        -11   -1    0    0    0    0  0.00000000000E+00  0.00000000000E+00  0.45593999997E+02  0.45594000000E+02  0.51100000000E-03 0.  1.
         11   -1    0    0    0    0 -0.00000000000E+00 -0.00000000000E+00 -0.45593999997E+02  0.45594000000E+02  0.51100000000E-03 0. -1.
    9900012    2    1    2    0    0 -0.14147248004E+02 -0.15841617801E+01  0.28531836530E+02  0.59301954614E+02  0.50000019306E+02 0.  0.
         12    1    1    2    0    0  0.14147248004E+02  0.15841617801E+01 -0.28531836530E+02  0.31886045386E+02  0.00000000000E+00 0. -1.
         11    1    3    3    0    0 -0.38066907035E+01 -0.39055060027E+01 -0.79988937086E+01  0.96812278184E+01  0.51100000000E-03 0. -1.
        -11    1    3    3    0    0  0.93833945317E+01  0.38284477607E+01  0.27943224640E+01  0.10512532687E+02  0.51100000000E-03 0.  1.
         12    1    3    3    0    0 -0.19723951832E+02 -0.15071035381E+01  0.33736407774E+02  0.39108194109E+02  0.00000000000E+00 0. -1.
</event>
<event>
 7    1  0.6316620E-012  0.5930190E+02  0.7816164E-02  0.1266605E+00
        -11   -1    0    0    0    0  0.00000000000E+00  0.00000000000E+00  0.45593999997E+02  0.45594000000E+02  0.51100000000E-03 0. -1.
         11   -1    0    0    0    0 -0.00000000000E+00 -0.00000000000E+00 -0.45593999997E+02  0.45594000000E+02  0.51100000000E-03 0.  1.
    9900012    2    1    2    0    0  0.10953833130E+02 -0.29917361751E+02  0.12994861026E+01  0.59301895527E+02  0.49999911545E+02 0.  0.
         12    1    1    2    0    0 -0.10953833130E+02  0.29917361751E+02 -0.12994861026E+01  0.31886104473E+02  0.00000000000E+00 0. -1.
         11    1    3    3    0    0 -0.82515767376E+01 -0.12894156087E+02  0.32745488979E+01  0.15654726142E+02  0.51100000000E-03 0. -1.
        -11    1    3    3    0    0 -0.39495890520E+01 -0.14184388404E+02 -0.11263001564E+02  0.18537835164E+02  0.51100000000E-03 0.  1.
         12    1    3    3    0    0  0.23154998920E+02 -0.28388172594E+01  0.92879387684E+01  0.25109334220E+02  0.00000000000E+00 0. -1.
</event>
<event>
 7    1  0.6316620E-012  0.5930189E+02  0.7816164E-02  0.1266605E+00
        -11   -1    0    0    0    0  0.00000000000E+00  0.00000000000E+00  0.45593999997E+02  0.45594000000E+02  0.51100000000E-03 0.  1.
         11   -1    0    0    0    0 -0.00000000000E+00 -0.00000000000E+00 -0.45593999997E+02  0.45594000000E+02  0.51100000000E-03 0. -1.
    9900012    2    1    2    0    0  0.58727388044E+01 -0.17984038128E+02  0.25667280196E+02  0.59301890781E+02  0.49999902890E+02 0.  0.
         12    1    1    2    0    0 -0.58727388044E+01  0.17984038128E+02 -0.25667280196E+02  0.31886109219E+02  0.00000000000E+00 0. -1.
         11    1    3    3    0    0  0.22223603812E+01  0.35771124288E+01  0.16303108150E+01  0.45158091863E+01  0.51100000000E-03 0. -1.
        -11    1    3    3    0    0  0.11936141796E+02 -0.17248307041E+02 -0.72042431408E+01  0.22178293357E+02  0.51100000000E-03 0.  1.
        -12    1    3    3    0    0 -0.82857633727E+01 -0.43128435162E+01  0.31241212522E+02  0.32607788237E+02  0.00000000000E+00 0.  1.
</event>
<event>
 7    1  0.6316620E-012  0.5930190E+02  0.7816164E-02  0.1266605E+00
        -11   -1    0    0    0    0  0.00000000000E+00  0.00000000000E+00  0.45593999997E+02  0.45594000000E+02  0.51100000000E-03 0.  1.
         11   -1    0    0    0    0 -0.00000000000E+00 -0.00000000000E+00 -0.45593999997E+02  0.45594000000E+02  0.51100000000E-03 0. -1.
    9900012    2    1    2    0    0 -0.15068398795E+02  0.27227908773E+02  0.69503585851E+01  0.59301903612E+02  0.49999926292E+02 0.  0.
         12    1    1    2    0    0  0.15068398795E+02 -0.27227908773E+02 -0.69503585851E+01  0.31886096388E+02  0.00000000000E+00 0. -1.
         11    1    3    3    0    0  0.10009983077E+02 -0.37994640973E+01 -0.16054514762E+01  0.10826502821E+02  0.51100000000E-03 0. -1.
        -11    1    3    3    0    0 -0.60504506433E+01  0.62308896693E+01  0.14266404928E+02  0.16702163001E+02  0.51100000000E-03 0.  1.
         12    1    3    3    0    0 -0.19027931229E+02  0.24796483201E+02 -0.57105948672E+01  0.31773237791E+02  0.00000000000E+00 0. -1.
</event>
<event>
 7    1  0.6316620E-012  0.5930195E+02  0.7816164E-02  0.1266605E+00
        -11   -1    0    0    0    0  0.00000000000E+00  0.00000000000E+00  0.45593999997E+02  0.45594000000E+02  0.51100000000E-03 0. -1.
         11   -1    0    0    0    0 -0.00000000000E+00 -0.00000000000E+00 -0.45593999997E+02  0.45594000000E+02  0.51100000000E-03 0.  1.
    9900012    2    1    2    0    0  0.18425289698E+02  0.11772797073E+02 -0.23208407774E+02  0.59301949088E+02  0.50000009228E+02 0.  0.
         12    1    1    2    0    0 -0.18425289698E+02 -0.11772797073E+02  0.23208407774E+02  0.31886050912E+02  0.00000000000E+00 0. -1.
         11    1    3    3    0    0  0.58133235821E+01  0.10979471120E+02 -0.68645555151E+01  0.14193859230E+02  0.51100000000E-03 0. -1.
        -11    1    3    3    0    0  0.20102405433E+02  0.12090584003E+02  0.52986470805E+00  0.23464221330E+02  0.51100000000E-03 0.  1.
        -12    1    3    3    0    0 -0.74904393171E+01 -0.11297258050E+02 -0.16873716967E+02  0.21643868529E+02  0.00000000000E+00 0.  1.
</event>
<event>
 7    1  0.6316620E-012  0.5930190E+02  0.7816164E-02  0.1266605E+00
        -11   -1    0    0    0    0  0.00000000000E+00  0.00000000000E+00  0.45593999997E+02  0.45594000000E+02  0.51100000000E-03 0. -1.
         11   -1    0    0    0    0 -0.00000000000E+00 -0.00000000000E+00 -0.45593999997E+02  0.45594000000E+02  0.51100000000E-03 0.  1.
    9900012    2    1    2    0    0  0.59355024594E+01  0.21691486336E+02 -0.22604706038E+02  0.59301897949E+02  0.49999915964E+02 0.  0.
         12    1    1    2    0    0 -0.59355024594E+01 -0.21691486336E+02  0.22604706038E+02  0.31886102051E+02  0.00000000000E+00 0. -1.
         11    1    3    3    0    0  0.60882218454E+01  0.47695037029E+01  0.63422335153E+01  0.10001926666E+02  0.51100000000E-03 0. -1.
        -11    1    3    3    0    0  0.10008893898E+02  0.16817400800E+02 -0.10374164380E+01  0.19597937643E+02  0.51100000000E-03 0.  1.
        -12    1    3    3    0    0 -0.10161613284E+02  0.10458183353E+00 -0.27909523115E+02  0.29702033641E+02  0.00000000000E+00 0.  1.
</event>
<event>
 7    1  0.6316620E-012  0.5930192E+02  0.7816164E-02  0.1266605E+00
        -11   -1    0    0    0    0  0.00000000000E+00  0.00000000000E+00  0.45593999997E+02  0.45594000000E+02  0.51100000000E-03 0. -1.
         11   -1    0    0    0    0 -0.00000000000E+00 -0.00000000000E+00 -0.45593999997E+02  0.45594000000E+02  0.51100000000E-03 0.  1.
    9900012    2    1    2    0    0 -0.28325841581E+02 -0.84975073622E+01 -0.11923124497E+02  0.59301924192E+02  0.49999963825E+02 0.  0.
         12    1    1    2    0    0  0.28325841581E+02  0.84975073622E+01  0.11923124497E+02  0.31886075808E+02  0.00000000000E+00 0. -1.
         11    1    3    3    0    0 -0.58682548935E+01 -0.72728990067E+01  0.81237706312E+01  0.12382533060E+02  0.51100000000E-03 0. -1.
        -11    1    3    3    0    0  0.12634059300E+01 -0.37149183246E+01 -0.22594202734E+02  0.22932396520E+02  0.51100000000E-03 0.  1.
         12    1    3    3    0    0 -0.23720992617E+02  0.24903099691E+01  0.25473076056E+01  0.23986994612E+02  0.00000000000E+00 0. -1.
</event>
<event>
 7    1  0.6316620E-012  0.5930194E+02  0.7816164E-02  0.1266605E+00
        -11   -1    0    0    0    0  0.00000000000E+00  0.00000000000E+00  0.45593999997E+02  0.45594000000E+02  0.51100000000E-03 0. -1.
         11   -1    0    0    0    0 -0.00000000000E+00 -0.00000000000E+00 -0.45593999997E+02  0.45594000000E+02  0.51100000000E-03 0.  1.
    9900012    2    1    2    0    0 -0.15500576285E+02 -0.27656254794E+02 -0.34036063986E+01  0.59301939865E+02  0.49999992409E+02 0.  0.
         12    1    1    2    0    0  0.15500576285E+02  0.27656254794E+02  0.34036063986E+01  0.31886060135E+02  0.00000000000E+00 0. -1.
         11    1    3    3    0    0 -0.22301611709E+02  0.10264254433E+01  0.45460839234E+01  0.22783378004E+02  0.51100000000E-03 0. -1.
        -11    1    3    3    0    0 -0.50865881956E+01 -0.11359659141E+02  0.30342060820E+01  0.12810996920E+02  0.51100000000E-03 0.  1.
         12    1    3    3    0    0  0.11887623620E+02 -0.17323021096E+02 -0.10983896404E+02  0.23707564941E+02  0.00000000000E+00 0. -1.
</event>
<event>
 7    1  0.6316620E-012  0.5930196E+02  0.7816164E-02  0.1266605E+00
        -11   -1    0    0    0    0  0.00000000000E+00  0.00000000000E+00  0.45593999997E+02  0.45594000000E+02  0.51100000000E-03 0. -1.
         11   -1    0    0    0    0 -0.00000000000E+00 -0.00000000000E+00 -0.45593999997E+02  0.45594000000E+02  0.51100000000E-03 0.  1.
    9900012    2    1    2    0    0 -0.18344802405E+02 -0.10925169898E+02 -0.23681817105E+02  0.59301959575E+02  0.50000028355E+02 0.  0.
         12    1    1    2    0    0  0.18344802405E+02  0.10925169898E+02  0.23681817105E+02  0.31886040425E+02  0.00000000000E+00 0. -1.
         11    1    3    3    0    0 -0.16447606268E+02 -0.11538690514E+01 -0.11359948782E+02  0.20022577315E+02  0.51100000000E-03 0. -1.
        -11    1    3    3    0    0 -0.79234011378E+00 -0.23395802381E+02 -0.98082692587E+01  0.25380967633E+02  0.51100000000E-03 0.  1.
         12    1    3    3    0    0 -0.11048560224E+01  0.13624501534E+02 -0.25135990640E+01  0.13898414627E+02  0.00000000000E+00 0. -1.
</event>
<event>
 7    1  0.6316620E-012  0.5930194E+02  0.7816164E-02  0.1266605E+00
        -11   -1    0    0    0    0  0.00000000000E+00  0.00000000000E+00  0.45593999997E+02  0.45594000000E+02  0.51100000000E-03 0.  1.
         11   -1    0    0    0    0 -0.00000000000E+00 -0.00000000000E+00 -0.45593999997E+02  0.45594000000E+02  0.51100000000E-03 0. -1.
    9900012    2    1    2    0    0 -0.16351489915E+02  0.15524323426E+02  0.22546500638E+02  0.59301944563E+02  0.50000000977E+02 0.  0.
         12    1    1    2    0    0  0.16351489915E+02 -0.15524323426E+02 -0.22546500638E+02  0.31886055437E+02  0.00000000000E+00 0. -1.
         11    1    3    3    0    0 -0.26705975255E+02 -0.97969918525E-01  0.84852605448E+01  0.28021747968E+02  0.51100000000E-03 0. -1.
        -11    1    3    3    0    0  0.16017175226E+01 -0.34754322096E+01  0.88405754357E+01  0.96332705952E+01  0.51100000000E-03 0.  1.
        -12    1    3    3    0    0  0.87527678167E+01  0.19097725554E+02  0.52206646573E+01  0.21646926000E+02  0.00000000000E+00 0.  1.
</event>
<event>
 7    1  0.6316620E-012  0.5930191E+02  0.7816164E-02  0.1266605E+00
        -11   -1    0    0    0    0  0.00000000000E+00  0.00000000000E+00  0.45593999997E+02  0.45594000000E+02  0.51100000000E-03 0.  1.
         11   -1    0    0    0    0 -0.00000000000E+00 -0.00000000000E+00 -0.45593999997E+02  0.45594000000E+02  0.51100000000E-03 0. -1.
    9900012    2    1    2    0    0 -0.87015192031E+01 -0.25615808968E+02  0.16877111589E+02  0.59301905835E+02  0.49999930346E+02 0.  0.
         12    1    1    2    0    0  0.87015192031E+01  0.25615808968E+02 -0.16877111589E+02  0.31886094165E+02  0.00000000000E+00 0. -1.
         11    1    3    3    0    0 -0.14242813335E+02 -0.11469497244E+02  0.16601816681E+02  0.24698733087E+02  0.51100000000E-03 0. -1.
        -11    1    3    3    0    0 -0.11478673802E+02 -0.20331289289E+01  0.57629334515E+01  0.13004036593E+02  0.51100000000E-03 0.  1.
        -12    1    3    3    0    0  0.17019967934E+02 -0.12113182795E+02 -0.54876385431E+01  0.21599136155E+02  0.00000000000E+00 0.  1.
</event>
<event>
 7    1  0.6316620E-012  0.5930195E+02  0.7816164E-02  0.1266605E+00
        -11   -1    0    0    0    0  0.00000000000E+00  0.00000000000E+00  0.45593999997E+02  0.45594000000E+02  0.51100000000E-03 0. -1.
         11   -1    0    0    0    0 -0.00000000000E+00 -0.00000000000E+00 -0.45593999997E+02  0.45594000000E+02  0.51100000000E-03 0.  1.
    9900012    2    1    2    0    0 -0.14073006899E+02  0.28489288939E+02  0.26515811907E+01  0.59301953048E+02  0.50000016451E+02 0.  0.
         12    1    1    2    0    0  0.14073006899E+02 -0.28489288939E+02 -0.26515811907E+01  0.31886046952E+02  0.00000000000E+00 0. -1.
         11    1    3    3    0    0 -0.10415343787E+02  0.30493595427E+02 -0.11614830562E+02  0.34252635483E+02  0.51100000000E-03 0. -1.
        -11    1    3    3    0    0 -0.16887506401E+01 -0.31598775033E+01 -0.47201919230E+01  0.59259528020E+01  0.51100000000E-03 0.  1.
         12    1    3    3    0    0 -0.19689124711E+01  0.11555710148E+01  0.18986603676E+02  0.19123364763E+02  0.00000000000E+00 0. -1.
</event>
<event>
 7    1  0.6316620E-012  0.5930210E+02  0.7816164E-02  0.1266604E+00
        -11   -1    0    0    0    0  0.00000000000E+00  0.00000000000E+00  0.45593999997E+02  0.45594000000E+02  0.51100000000E-03 0. -1.
         11   -1    0    0    0    0 -0.00000000000E+00 -0.00000000000E+00 -0.45593999997E+02  0.45594000000E+02  0.51100000000E-03 0.  1.
    9900012    2    1    2    0    0 -0.18240242011E+02  0.58312551275E+00 -0.26146972946E+02  0.59302099382E+02  0.50000283327E+02 0.  0.
         12    1    1    2    0    0  0.18240242011E+02 -0.58312551275E+00  0.26146972946E+02  0.31885900618E+02  0.00000000000E+00 0. -1.
         11    1    3    3    0    0  0.52433032286E+01 -0.84974771700E+01 -0.58392186329E+00  0.10002015397E+02  0.51100000000E-03 0. -1.
        -11    1    3    3    0    0  0.32616223258E+01 -0.73961961830E+01 -0.13329118410E+02  0.15588691287E+02  0.51100000000E-03 0.  1.
        -12    1    3    3    0    0 -0.26745167566E+02  0.16476798866E+02 -0.12233932673E+02  0.33711392698E+02  0.00000000000E+00 0.  1.
</event>
<event>
 7    1  0.6316620E-012  0.5930195E+02  0.7816164E-02  0.1266605E+00
        -11   -1    0    0    0    0  0.00000000000E+00  0.00000000000E+00  0.45593999997E+02  0.45594000000E+02  0.51100000000E-03 0.  1.
         11   -1    0    0    0    0 -0.00000000000E+00 -0.00000000000E+00 -0.45593999997E+02  0.45594000000E+02  0.51100000000E-03 0. -1.
    9900012    2    1    2    0    0  0.12073774772E+02 -0.22535100755E+02  0.19055533676E+02  0.59301950277E+02  0.50000011396E+02 0.  0.
         12    1    1    2    0    0 -0.12073774772E+02  0.22535100755E+02 -0.19055533676E+02  0.31886049723E+02  0.00000000000E+00 0. -1.
         11    1    3    3    0    0  0.21586673987E+01 -0.21966049504E+02  0.18327409109E+02  0.28689041473E+02  0.51100000000E-03 0. -1.
        -11    1    3    3    0    0  0.40285344444E+01  0.26981507128E+01  0.14496920605E+02  0.15286262274E+02  0.51100000000E-03 0.  1.
         12    1    3    3    0    0  0.58865729285E+01 -0.32672019642E+01 -0.13768796037E+02  0.15326646529E+02  0.00000000000E+00 0. -1.
</event>
<event>
 7    1  0.6316620E-012  0.5930197E+02  0.7816164E-02  0.1266605E+00
        -11   -1    0    0    0    0  0.00000000000E+00  0.00000000000E+00  0.45593999997E+02  0.45594000000E+02  0.51100000000E-03 0. -1.
         11   -1    0    0    0    0 -0.00000000000E+00 -0.00000000000E+00 -0.45593999997E+02  0.45594000000E+02  0.51100000000E-03 0.  1.
    9900012    2    1    2    0    0  0.40286434973E+01 -0.14377971154E+02 -0.28173802671E+02  0.59301965755E+02  0.50000039625E+02 0.  0.
         12    1    1    2    0    0 -0.40286434973E+01  0.14377971154E+02  0.28173802671E+02  0.31886034245E+02  0.00000000000E+00 0. -1.
         11    1    3    3    0    0  0.10705579687E+02 -0.78542752840E+01  0.48916013901E+01  0.14150153395E+02  0.51100000000E-03 0. -1.
        -11    1    3    3    0    0  0.60561790935E+01  0.75079798353E+01 -0.19791533356E+02  0.22017081080E+02  0.51100000000E-03 0.  1.
        -12    1    3    3    0    0 -0.12733115283E+02 -0.14031675706E+02 -0.13273870705E+02  0.23134731280E+02  0.00000000000E+00 0.  1.
</event>
<event>
 7    1  0.6316620E-012  0.5930194E+02  0.7816164E-02  0.1266605E+00
        -11   -1    0    0    0    0  0.00000000000E+00  0.00000000000E+00  0.45593999997E+02  0.45594000000E+02  0.51100000000E-03 0.  1.
         11   -1    0    0    0    0 -0.00000000000E+00 -0.00000000000E+00 -0.45593999997E+02  0.45594000000E+02  0.51100000000E-03 0. -1.
    9900012    2    1    2    0    0 -0.65135354366E+01  0.26339671326E+02  0.16748616193E+02  0.59301943897E+02  0.49999999761E+02 0.  0.
         12    1    1    2    0    0  0.65135354366E+01 -0.26339671326E+02 -0.16748616193E+02  0.31886056103E+02  0.00000000000E+00 0. -1.
         11    1    3    3    0    0  0.65291208047E+01  0.10748954289E+02  0.18226878371E+02  0.22144717930E+02  0.51100000000E-03 0. -1.
        -11    1    3    3    0    0 -0.14546199061E+02  0.25587488480E+01  0.11488718386E+02  0.18711754413E+02  0.51100000000E-03 0.  1.
         12    1    3    3    0    0  0.15035428196E+01  0.13031968189E+02 -0.12966980564E+02  0.18445471554E+02  0.00000000000E+00 0. -1.
</event>
<event>
 7    1  0.6316620E-012  0.5930195E+02  0.7816164E-02  0.1266605E+00
        -11   -1    0    0    0    0  0.00000000000E+00  0.00000000000E+00  0.45593999997E+02  0.45594000000E+02  0.51100000000E-03 0. -1.
         11   -1    0    0    0    0 -0.00000000000E+00 -0.00000000000E+00 -0.45593999997E+02  0.45594000000E+02  0.51100000000E-03 0.  1.
    9900012    2    1    2    0    0  0.58303583622E+01 -0.43416991960E+01 -0.31046366455E+02  0.59301948181E+02  0.50000007574E+02 0.  0.
         12    1    1    2    0    0 -0.58303583622E+01  0.43416991960E+01  0.31046366455E+02  0.31886051819E+02  0.00000000000E+00 0. -1.
         11    1    3    3    0    0  0.72073861652E+01  0.31803455310E+01  0.55696480563E+01  0.96479009511E+01  0.51100000000E-03 0. -1.
        -11    1    3    3    0    0 -0.14097538133E+02 -0.77564687598E+01 -0.72459146928E+01  0.17646718365E+02  0.51100000000E-03 0.  1.
         12    1    3    3    0    0  0.12720510330E+02  0.23442403282E+00 -0.29370099819E+02  0.32007328865E+02  0.00000000000E+00 0. -1.
</event>
<event>
 7    1  0.6316620E-012  0.5930203E+02  0.7816164E-02  0.1266604E+00
        -11   -1    0    0    0    0  0.00000000000E+00  0.00000000000E+00  0.45593999997E+02  0.45594000000E+02  0.51100000000E-03 0. -1.
         11   -1    0    0    0    0 -0.00000000000E+00 -0.00000000000E+00 -0.45593999997E+02  0.45594000000E+02  0.51100000000E-03 0.  1.
    9900012    2    1    2    0    0  0.24375650124E+02  0.15687915764E+01 -0.20495898329E+02  0.59302026998E+02  0.50000151318E+02 0.  0.
         12    1    1    2    0    0 -0.24375650124E+02 -0.15687915764E+01  0.20495898329E+02  0.31885973002E+02  0.00000000000E+00 0. -1.
         11    1    3    3    0    0 -0.69794470587E+00 -0.93884073533E+01 -0.63796962769E+01  0.11372328007E+02  0.51100000000E-03 0. -1.
        -11    1    3    3    0    0  0.12276288519E+02 -0.12418973354E+02 -0.12015913912E+02  0.21197177792E+02  0.51100000000E-03 0.  1.
         12    1    3    3    0    0  0.12797306311E+02  0.23376172283E+02 -0.21002881401E+01  0.26732521200E+02  0.00000000000E+00 0. -1.
</event>
<event>
 7    1  0.6316620E-012  0.5930194E+02  0.7816164E-02  0.1266605E+00
        -11   -1    0    0    0    0  0.00000000000E+00  0.00000000000E+00  0.45593999997E+02  0.45594000000E+02  0.51100000000E-03 0.  1.
         11   -1    0    0    0    0 -0.00000000000E+00 -0.00000000000E+00 -0.45593999997E+02  0.45594000000E+02  0.51100000000E-03 0. -1.
    9900012    2    1    2    0    0 -0.13845021479E+02 -0.13372776998E+02  0.25420562104E+02  0.59301940945E+02  0.49999994378E+02 0.  0.
         12    1    1    2    0    0  0.13845021479E+02  0.13372776998E+02 -0.25420562104E+02  0.31886059055E+02  0.00000000000E+00 0. -1.
         11    1    3    3    0    0  0.44506633705E+01 -0.98406488258E+01 -0.20547107024E+00  0.10802267927E+02  0.51100000000E-03 0. -1.
        -11    1    3    3    0    0 -0.10243478930E+02  0.39865278605E+00 -0.84376959079E+01  0.13277141903E+02  0.51100000000E-03 0.  1.
        -12    1    3    3    0    0 -0.80522059196E+01 -0.39307809578E+01  0.34063729082E+02  0.35222531114E+02  0.00000000000E+00 0.  1.
</event>
<event>
 7    1  0.6316620E-012  0.5930195E+02  0.7816164E-02  0.1266605E+00
        -11   -1    0    0    0    0  0.00000000000E+00  0.00000000000E+00  0.45593999997E+02  0.45594000000E+02  0.51100000000E-03 0.  1.
         11   -1    0    0    0    0 -0.00000000000E+00 -0.00000000000E+00 -0.45593999997E+02  0.45594000000E+02  0.51100000000E-03 0. -1.
    9900012    2    1    2    0    0 -0.83751732975E+00  0.26920524235E+02 -0.17067639609E+02  0.59301946902E+02  0.50000005242E+02 0.  0.
         12    1    1    2    0    0  0.83751732975E+00 -0.26920524235E+02  0.17067639609E+02  0.31886053098E+02  0.00000000000E+00 0. -1.
         11    1    3    3    0    0 -0.64053678765E+01 -0.66125957627E+01 -0.11064130320E+02  0.14393406141E+02  0.51100000000E-03 0. -1.
        -11    1    3    3    0    0  0.85832389037E+01  0.20609678610E+02 -0.16686409912E+02  0.27872336079E+02  0.51100000000E-03 0.  1.
         12    1    3    3    0    0 -0.30153883570E+01  0.12923441387E+02  0.10682900623E+02  0.17036204681E+02  0.00000000000E+00 0. -1.
</event>
<event>
 7    1  0.6316620E-012  0.5930192E+02  0.7816164E-02  0.1266605E+00
        -11   -1    0    0    0    0  0.00000000000E+00  0.00000000000E+00  0.45593999997E+02  0.45594000000E+02  0.51100000000E-03 0.  1.
         11   -1    0    0    0    0 -0.00000000000E+00 -0.00000000000E+00 -0.45593999997E+02  0.45594000000E+02  0.51100000000E-03 0. -1.
    9900012    2    1    2    0    0  0.25490879113E+02  0.18007538345E+02  0.65318871638E+01  0.59301923021E+02  0.49999961689E+02 0.  0.
         12    1    1    2    0    0 -0.25490879113E+02 -0.18007538345E+02 -0.65318871638E+01  0.31886076979E+02  0.00000000000E+00 0. -1.
         11    1    3    3    0    0 -0.29818596094E+01  0.43441948073E+01 -0.95339153719E+01  0.10893073847E+02  0.51100000000E-03 0. -1.
        -11    1    3    3    0    0 -0.62814373711E+01  0.32138314939E+01 -0.26977823384E+01  0.75540186738E+01  0.51100000000E-03 0.  1.
        -12    1    3    3    0    0  0.34754176093E+02  0.10449512044E+02  0.18763584874E+02  0.40854830500E+02  0.00000000000E+00 0.  1.
</event>
<event>
 7    1  0.6316620E-012  0.5930195E+02  0.7816164E-02  0.1266605E+00
        -11   -1    0    0    0    0  0.00000000000E+00  0.00000000000E+00  0.45593999997E+02  0.45594000000E+02  0.51100000000E-03 0.  1.
         11   -1    0    0    0    0 -0.00000000000E+00 -0.00000000000E+00 -0.45593999997E+02  0.45594000000E+02  0.51100000000E-03 0. -1.
    9900012    2    1    2    0    0 -0.25587124330E+02 -0.14591414150E+02  0.12211050381E+02  0.59301952114E+02  0.50000014748E+02 0.  0.
         12    1    1    2    0    0  0.25587124330E+02  0.14591414150E+02 -0.12211050381E+02  0.31886047886E+02  0.00000000000E+00 0. -1.
         11    1    3    3    0    0  0.24078191570E+01  0.30445940122E+01 -0.29450827027E+01  0.48724386275E+01  0.51100000000E-03 0. -1.
        -11    1    3    3    0    0 -0.87261806516E+00 -0.25948597437E+01 -0.12548352217E+02  0.12843515990E+02  0.51100000000E-03 0.  1.
        -12    1    3    3    0    0 -0.27122325422E+02 -0.15041148419E+02  0.27704485300E+02  0.41585997496E+02  0.00000000000E+00 0.  1.
</event>
<event>
 7    1  0.6316620E-012  0.5930197E+02  0.7816164E-02  0.1266605E+00
        -11   -1    0    0    0    0  0.00000000000E+00  0.00000000000E+00  0.45593999997E+02  0.45594000000E+02  0.51100000000E-03 0.  1.
         11   -1    0    0    0    0 -0.00000000000E+00 -0.00000000000E+00 -0.45593999997E+02  0.45594000000E+02  0.51100000000E-03 0. -1.
    9900012    2    1    2    0    0 -0.19210253509E+02  0.25242487594E+02  0.32407018246E+01  0.59301965939E+02  0.50000039961E+02 0.  0.
         12    1    1    2    0    0  0.19210253509E+02 -0.25242487594E+02 -0.32407018246E+01  0.31886034061E+02  0.00000000000E+00 0. -1.
         11    1    3    3    0    0 -0.51933839409E+01  0.99844187460E+01 -0.10538942279E+02  0.15418468117E+02  0.51100000000E-03 0. -1.
        -11    1    3    3    0    0 -0.18869035444E+02 -0.25969702063E+01 -0.25357147534E+01  0.19214957778E+02  0.51100000000E-03 0.  1.
        -12    1    3    3    0    0  0.48521658753E+01  0.17855039054E+02  0.16315358857E+02  0.24668540045E+02  0.00000000000E+00 0.  1.
</event>
<event>
 7    1  0.6316620E-012  0.5930194E+02  0.7816164E-02  0.1266605E+00
        -11   -1    0    0    0    0  0.00000000000E+00  0.00000000000E+00  0.45593999997E+02  0.45594000000E+02  0.51100000000E-03 0. -1.
         11   -1    0    0    0    0 -0.00000000000E+00 -0.00000000000E+00 -0.45593999997E+02  0.45594000000E+02  0.51100000000E-03 0.  1.
    9900012    2    1    2    0    0 -0.24127785902E+02  0.26025817885E+01 -0.20683269859E+02  0.59301935072E+02  0.49999983667E+02 0.  0.
         12    1    1    2    0    0  0.24127785902E+02 -0.26025817885E+01  0.20683269859E+02  0.31886064928E+02  0.00000000000E+00 0. -1.
         11    1    3    3    0    0 -0.20025985671E+02  0.44524648870E+01 -0.10386631439E+02  0.22994491919E+02  0.51100000000E-03 0. -1.
        -11    1    3    3    0    0 -0.16609746639E+02 -0.64659005888E+01  0.22922430750E+01  0.17970696492E+02  0.51100000000E-03 0.  1.
         12    1    3    3    0    0  0.12507946408E+02  0.46160174903E+01 -0.12588881495E+02  0.18336746661E+02  0.00000000000E+00 0. -1.
</event>
<event>
 7    1  0.6316620E-012  0.5930193E+02  0.7816164E-02  0.1266605E+00
        -11   -1    0    0    0    0  0.00000000000E+00  0.00000000000E+00  0.45593999997E+02  0.45594000000E+02  0.51100000000E-03 0.  1.
         11   -1    0    0    0    0 -0.00000000000E+00 -0.00000000000E+00 -0.45593999997E+02  0.45594000000E+02  0.51100000000E-03 0. -1.
    9900012    2    1    2    0    0 -0.19555340965E+02  0.41774229330E+01  0.24836646381E+02  0.59301933669E+02  0.49999981107E+02 0.  0.
         12    1    1    2    0    0  0.19555340965E+02 -0.41774229330E+01 -0.24836646381E+02  0.31886066331E+02  0.00000000000E+00 0. -1.
         11    1    3    3    0    0 -0.96690322414E+01  0.22769446217E+01  0.11303998221E+01  0.99976229832E+01  0.51100000000E-03 0. -1.
        -11    1    3    3    0    0 -0.21341978715E+02  0.13873490787E+02  0.19878881323E+02  0.32297425981E+02  0.51100000000E-03 0.  1.
        -12    1    3    3    0    0  0.11455669992E+02 -0.11973012475E+02  0.38273652362E+01  0.17006884704E+02  0.00000000000E+00 0.  1.
</event>
<event>
 7    1  0.6316620E-012  0.5930201E+02  0.7816164E-02  0.1266605E+00
        -11   -1    0    0    0    0  0.00000000000E+00  0.00000000000E+00  0.45593999997E+02  0.45594000000E+02  0.51100000000E-03 0. -1.
         11   -1    0    0    0    0 -0.00000000000E+00 -0.00000000000E+00 -0.45593999997E+02  0.45594000000E+02  0.51100000000E-03 0.  1.
    9900012    2    1    2    0    0 -0.31627556201E+02 -0.39236266145E+01 -0.10097042853E+01  0.59302005272E+02  0.50000111695E+02 0.  0.
         12    1    1    2    0    0  0.31627556201E+02  0.39236266145E+01  0.10097042853E+01  0.31885994728E+02  0.00000000000E+00 0. -1.
         11    1    3    3    0    0 -0.17004141251E+02 -0.70461227310E+01  0.50532113025E+01  0.19087263030E+02  0.51100000000E-03 0. -1.
        -11    1    3    3    0    0 -0.17867983246E+02  0.10665346117E+02  0.93019727032E+01  0.22793444881E+02  0.51100000000E-03 0.  1.
        -12    1    3    3    0    0  0.32445682965E+01 -0.75428500010E+01 -0.15364888291E+02  0.17421297362E+02  0.00000000000E+00 0.  1.
</event>
<event>
 7    1  0.6316620E-012  0.5930194E+02  0.7816164E-02  0.1266605E+00
        -11   -1    0    0    0    0  0.00000000000E+00  0.00000000000E+00  0.45593999997E+02  0.45594000000E+02  0.51100000000E-03 0.  1.
         11   -1    0    0    0    0 -0.00000000000E+00 -0.00000000000E+00 -0.45593999997E+02  0.45594000000E+02  0.51100000000E-03 0. -1.
    9900012    2    1    2    0    0 -0.26124790389E+02  0.17844380146E+02 -0.39742082824E+01  0.59301938670E+02  0.49999990229E+02 0.  0.
         12    1    1    2    0    0  0.26124790389E+02 -0.17844380146E+02  0.39742082824E+01  0.31886061330E+02  0.00000000000E+00 0. -1.
         11    1    3    3    0    0 -0.58401185415E+01  0.20401899857E+00 -0.17777522008E+01  0.61081103034E+01  0.51100000000E-03 0. -1.
        -11    1    3    3    0    0 -0.65338059378E+01 -0.68002525867E+01  0.16839207436E+02  0.19300076752E+02  0.51100000000E-03 0.  1.
         12    1    3    3    0    0 -0.13750865910E+02  0.24440613734E+02 -0.19035663518E+02  0.33893751615E+02  0.00000000000E+00 0. -1.
</event>
<event>
 7    1  0.6316620E-012  0.5930200E+02  0.7816164E-02  0.1266605E+00
        -11   -1    0    0    0    0  0.00000000000E+00  0.00000000000E+00  0.45593999997E+02  0.45594000000E+02  0.51100000000E-03 0. -1.
         11   -1    0    0    0    0 -0.00000000000E+00 -0.00000000000E+00 -0.45593999997E+02  0.45594000000E+02  0.51100000000E-03 0.  1.
    9900012    2    1    2    0    0  0.77716778098E+01 -0.27619355802E+02  0.13910041121E+02  0.59301999391E+02  0.50000100968E+02 0.  0.
         12    1    1    2    0    0 -0.77716778098E+01  0.27619355802E+02 -0.13910041121E+02  0.31886000609E+02  0.00000000000E+00 0. -1.
         11    1    3    3    0    0 -0.16024055797E+02 -0.65894084067E+01  0.55502680083E+00  0.17334898971E+02  0.51100000000E-03 0.  1.
        -11    1    3    3    0    0  0.79311277248E+01  0.30146424063E+01 -0.28060258902E+01  0.89367017060E+01  0.51100000000E-03 0. -1.
        -12    1    3    3    0    0  0.15864605882E+02 -0.24044589801E+02  0.16161040210E+02  0.33030398713E+02  0.00000000000E+00 0.  1.
</event>
<event>
 7    1  0.6316620E-012  0.5930198E+02  0.7816164E-02  0.1266605E+00
        -11   -1    0    0    0    0  0.00000000000E+00  0.00000000000E+00  0.45593999997E+02  0.45594000000E+02  0.51100000000E-03 0. -1.
         11   -1    0    0    0    0 -0.00000000000E+00 -0.00000000000E+00 -0.45593999997E+02  0.45594000000E+02  0.51100000000E-03 0.  1.
    9900012    2    1    2    0    0  0.31145816628E+02 -0.14161208216E+01  0.66821308624E+01  0.59301981677E+02  0.50000068664E+02 0.  0.
         12    1    1    2    0    0 -0.31145816628E+02  0.14161208216E+01 -0.66821308624E+01  0.31886018323E+02  0.00000000000E+00 0. -1.
         11    1    3    3    0    0  0.50272481383E+01  0.18657031681E+02  0.19960094814E+01  0.19425295599E+02  0.51100000000E-03 0. -1.
        -11    1    3    3    0    0 -0.31803713076E+01 -0.45289022419E-01 -0.20070809755E+01  0.37610087813E+01  0.51100000000E-03 0.  1.
         12    1    3    3    0    0  0.29298939797E+02 -0.20027863481E+02  0.66932023565E+01  0.36115677297E+02  0.00000000000E+00 0. -1.
</event>
<event>
 7    1  0.6316620E-012  0.5930194E+02  0.7816164E-02  0.1266605E+00
        -11   -1    0    0    0    0  0.00000000000E+00  0.00000000000E+00  0.45593999997E+02  0.45594000000E+02  0.51100000000E-03 0.  1.
         11   -1    0    0    0    0 -0.00000000000E+00 -0.00000000000E+00 -0.45593999997E+02  0.45594000000E+02  0.51100000000E-03 0. -1.
    9900012    2    1    2    0    0  0.13951144642E+02  0.26196419236E+02  0.11654790795E+02  0.59301937746E+02  0.49999988544E+02 0.  0.
         12    1    1    2    0    0 -0.13951144642E+02 -0.26196419236E+02 -0.11654790795E+02  0.31886062254E+02  0.00000000000E+00 0. -1.
         11    1    3    3    0    0  0.74120556628E+01  0.21203280146E+02  0.30807331047E+01  0.22671757207E+02  0.51100000000E-03 0. -1.
        -11    1    3    3    0    0  0.79019781841E+01  0.89570098970E+01  0.20645474941E+02  0.23851727848E+02  0.51100000000E-03 0.  1.
        -12    1    3    3    0    0 -0.13628892048E+01 -0.39638708076E+01 -0.12071417251E+02  0.12778452692E+02  0.00000000000E+00 0.  1.
</event>
<event>
 7    1  0.6316620E-012  0.5930211E+02  0.7816164E-02  0.1266604E+00
        -11   -1    0    0    0    0  0.00000000000E+00  0.00000000000E+00  0.45593999997E+02  0.45594000000E+02  0.51100000000E-03 0. -1.
         11   -1    0    0    0    0 -0.00000000000E+00 -0.00000000000E+00 -0.45593999997E+02  0.45594000000E+02  0.51100000000E-03 0.  1.
    9900012    2    1    2    0    0  0.17786481469E+02  0.26457666948E+02 -0.58577713991E+00  0.59302106595E+02  0.50000296483E+02 0.  0.
         12    1    1    2    0    0 -0.17786481469E+02 -0.26457666948E+02  0.58577713991E+00  0.31885893405E+02  0.00000000000E+00 0. -1.
         11    1    3    3    0    0  0.24265229889E+02  0.29808551138E+02  0.34042138736E+01  0.38586782386E+02  0.51100000000E-03 0. -1.
        -11    1    3    3    0    0  0.43824009308E-01  0.37095694985E+01 -0.91015219191E+01  0.98285567563E+01  0.51100000000E-03 0.  1.
        -12    1    3    3    0    0 -0.65225724294E+01 -0.70604536883E+01  0.51115309055E+01  0.10886767453E+02  0.00000000000E+00 0.  1.
</event>
<event>
 7    1  0.6316620E-012  0.5930194E+02  0.7816164E-02  0.1266605E+00
        -11   -1    0    0    0    0  0.00000000000E+00  0.00000000000E+00  0.45593999997E+02  0.45594000000E+02  0.51100000000E-03 0.  1.
         11   -1    0    0    0    0 -0.00000000000E+00 -0.00000000000E+00 -0.45593999997E+02  0.45594000000E+02  0.51100000000E-03 0. -1.
    9900012    2    1    2    0    0 -0.31258015077E+02 -0.55549400024E+01  0.29664983127E+01  0.59301937571E+02  0.49999988224E+02 0.  0.
         12    1    1    2    0    0  0.31258015077E+02  0.55549400024E+01 -0.29664983127E+01  0.31886062429E+02  0.00000000000E+00 0. -1.
         11    1    3    3    0    0 -0.16915724951E+02  0.33302563209E+01 -0.19261171561E+02  0.25850050057E+02  0.51100000000E-03 0. -1.
        -11    1    3    3    0    0  0.18218198086E+01  0.27339990250E+01  0.89220199638E+01  0.95076926001E+01  0.51100000000E-03 0.  1.
        -12    1    3    3    0    0 -0.16164109935E+02 -0.11619195348E+02  0.13305649910E+02  0.23944194914E+02  0.00000000000E+00 0.  1.
</event>
<event>
 7    1  0.6316620E-012  0.5930195E+02  0.7816164E-02  0.1266605E+00
        -11   -1    0    0    0    0  0.00000000000E+00  0.00000000000E+00  0.45593999997E+02  0.45594000000E+02  0.51100000000E-03 0. -1.
         11   -1    0    0    0    0 -0.00000000000E+00 -0.00000000000E+00 -0.45593999997E+02  0.45594000000E+02  0.51100000000E-03 0.  1.
    9900012    2    1    2    0    0 -0.28292293430E+02 -0.26356454754E+01 -0.14467879401E+02  0.59301952441E+02  0.50000015343E+02 0.  0.
         12    1    1    2    0    0  0.28292293430E+02  0.26356454754E+01  0.14467879401E+02  0.31886047559E+02  0.00000000000E+00 0. -1.
         11    1    3    3    0    0 -0.13948525083E+02 -0.12024848455E+02 -0.12098319852E+02  0.22034692553E+02  0.51100000000E-03 0. -1.
        -11    1    3    3    0    0 -0.16263222502E+02 -0.90585480796E+01 -0.45549974299E+00  0.18621417232E+02  0.51100000000E-03 0.  1.
         12    1    3    3    0    0  0.19194541556E+01  0.18447751059E+02 -0.19140598059E+01  0.18645842656E+02  0.00000000000E+00 0. -1.
</event>
<event>
 7    1  0.6316620E-012  0.5930193E+02  0.7816164E-02  0.1266605E+00
        -11   -1    0    0    0    0  0.00000000000E+00  0.00000000000E+00  0.45593999997E+02  0.45594000000E+02  0.51100000000E-03 0.  1.
         11   -1    0    0    0    0 -0.00000000000E+00 -0.00000000000E+00 -0.45593999997E+02  0.45594000000E+02  0.51100000000E-03 0. -1.
    9900012    2    1    2    0    0 -0.31690159711E+02 -0.34431049513E+01 -0.77475640448E+00  0.59301930288E+02  0.49999974942E+02 0.  0.
         12    1    1    2    0    0  0.31690159711E+02  0.34431049513E+01  0.77475640448E+00  0.31886069712E+02  0.00000000000E+00 0. -1.
         11    1    3    3    0    0 -0.91021033540E+01  0.18533936150E+02 -0.93975562542E-01  0.20648581219E+02  0.51100000000E-03 0. -1.
        -11    1    3    3    0    0 -0.12831386899E+02 -0.21411608589E+01  0.75784109934E+01  0.15055277248E+02  0.51100000000E-03 0.  1.
        -12    1    3    3    0    0 -0.97566694582E+01 -0.19835880242E+02 -0.82591918353E+01  0.23598071821E+02  0.00000000000E+00 0.  1.
</event>
<event>
 7    1  0.6316620E-012  0.5930196E+02  0.7816164E-02  0.1266605E+00
        -11   -1    0    0    0    0  0.00000000000E+00  0.00000000000E+00  0.45593999997E+02  0.45594000000E+02  0.51100000000E-03 0. -1.
         11   -1    0    0    0    0 -0.00000000000E+00 -0.00000000000E+00 -0.45593999997E+02  0.45594000000E+02  0.51100000000E-03 0.  1.
    9900012    2    1    2    0    0 -0.51047176032E+00 -0.22558652533E+02 -0.22529230709E+02  0.59301958824E+02  0.50000026986E+02 0.  0.
         12    1    1    2    0    0  0.51047176032E+00  0.22558652533E+02  0.22529230709E+02  0.31886041176E+02  0.00000000000E+00 0. -1.
         11    1    3    3    0    0 -0.64015761926E+01 -0.69770263450E+01 -0.14367565897E+02  0.17207150387E+02  0.51100000000E-03 0. -1.
        -11    1    3    3    0    0  0.11785586251E+02 -0.42518541697E+01 -0.20700586177E+02  0.24196953848E+02  0.51100000000E-03 0.  1.
         12    1    3    3    0    0 -0.58944818187E+01 -0.11329772018E+02  0.12538921366E+02  0.17897854590E+02  0.00000000000E+00 0. -1.
</event>
<event>
 7    1  0.6316620E-012  0.5930195E+02  0.7816164E-02  0.1266605E+00
        -11   -1    0    0    0    0  0.00000000000E+00  0.00000000000E+00  0.45593999997E+02  0.45594000000E+02  0.51100000000E-03 0. -1.
         11   -1    0    0    0    0 -0.00000000000E+00 -0.00000000000E+00 -0.45593999997E+02  0.45594000000E+02  0.51100000000E-03 0.  1.
    9900012    2    1    2    0    0 -0.28343224631E+02  0.13229671602E+02 -0.61933735509E+01  0.59301945538E+02  0.50000002755E+02 0.  0.
         12    1    1    2    0    0  0.28343224631E+02 -0.13229671602E+02  0.61933735509E+01  0.31886054462E+02  0.00000000000E+00 0. -1.
         11    1    3    3    0    0 -0.33265895020E+02 -0.83875583696E+01 -0.51854025259E+01  0.34696675727E+02  0.51100000000E-03 0. -1.
        -11    1    3    3    0    0  0.72847835562E+00 -0.10503545525E+01 -0.88122990620E+00  0.15525758626E+01  0.51100000000E-03 0.  1.
         12    1    3    3    0    0  0.41941920332E+01  0.22667584524E+02 -0.12674111878E+00  0.23052693948E+02  0.00000000000E+00 0. -1.
</event>
<event>
 7    1  0.6316620E-012  0.5930194E+02  0.7816164E-02  0.1266605E+00
        -11   -1    0    0    0    0  0.00000000000E+00  0.00000000000E+00  0.45593999997E+02  0.45594000000E+02  0.51100000000E-03 0. -1.
         11   -1    0    0    0    0 -0.00000000000E+00 -0.00000000000E+00 -0.45593999997E+02  0.45594000000E+02  0.51100000000E-03 0.  1.
    9900012    2    1    2    0    0  0.31609695250E+02 -0.37711609755E+01  0.18238858581E+01  0.59301936453E+02  0.49999986186E+02 0.  0.
         12    1    1    2    0    0 -0.31609695250E+02  0.37711609755E+01 -0.18238858581E+01  0.31886063547E+02  0.00000000000E+00 0. -1.
         11    1    3    3    0    0  0.61217429368E+00 -0.99678564996E+01  0.11136068598E+02  0.14958106319E+02  0.51100000000E-03 0. -1.
        -11    1    3    3    0    0  0.26836250929E-01 -0.30932811390E+01 -0.11526240305E+02  0.11934124359E+02  0.51100000000E-03 0.  1.
         12    1    3    3    0    0  0.30970684705E+02  0.92899766630E+01  0.22140575652E+01  0.32409705775E+02  0.00000000000E+00 0. -1.
</event>
<event>
 7    1  0.6316620E-012  0.5930196E+02  0.7816164E-02  0.1266605E+00
        -11   -1    0    0    0    0  0.00000000000E+00  0.00000000000E+00  0.45593999997E+02  0.45594000000E+02  0.51100000000E-03 0.  1.
         11   -1    0    0    0    0 -0.00000000000E+00 -0.00000000000E+00 -0.45593999997E+02  0.45594000000E+02  0.51100000000E-03 0. -1.
    9900012    2    1    2    0    0 -0.10951835469E+02 -0.86078707973E+00  0.29933860330E+02  0.59301958402E+02  0.50000026215E+02 0.  0.
         12    1    1    2    0    0  0.10951835469E+02  0.86078707973E+00 -0.29933860330E+02  0.31886041598E+02  0.00000000000E+00 0. -1.
         11    1    3    3    0    0 -0.87638743283E+01 -0.17723472057E+01  0.44046993437E+00  0.89521350461E+01  0.51100000000E-03 0. -1.
        -11    1    3    3    0    0 -0.47323530759E+01 -0.18452391748E+02  0.63793223695E+01  0.20089342473E+02  0.51100000000E-03 0.  1.
        -12    1    3    3    0    0  0.25443919351E+01  0.19363951874E+02  0.23114068026E+02  0.30260480882E+02  0.00000000000E+00 0.  1.
</event>
<event>
 7    1  0.6316620E-012  0.5930195E+02  0.7816164E-02  0.1266605E+00
        -11   -1    0    0    0    0  0.00000000000E+00  0.00000000000E+00  0.45593999997E+02  0.45594000000E+02  0.51100000000E-03 0. -1.
         11   -1    0    0    0    0 -0.00000000000E+00 -0.00000000000E+00 -0.45593999997E+02  0.45594000000E+02  0.51100000000E-03 0.  1.
    9900012    2    1    2    0    0  0.14293743113E+01  0.82100153403E+01 -0.30777793999E+02  0.59301951855E+02  0.50000014276E+02 0.  0.
         12    1    1    2    0    0 -0.14293743113E+01 -0.82100153403E+01  0.30777793999E+02  0.31886048145E+02  0.00000000000E+00 0. -1.
         11    1    3    3    0    0 -0.68759022604E+00  0.16682576963E+02 -0.22351266913E+02  0.27899109077E+02  0.51100000000E-03 0. -1.
        -11    1    3    3    0    0 -0.39748725573E+01 -0.92916840780E+01 -0.17638423639E+02  0.20328526597E+02  0.51100000000E-03 0.  1.
         12    1    3    3    0    0  0.60918370947E+01  0.81912245581E+00  0.92118965530E+01  0.11074316182E+02  0.00000000000E+00 0. -1.
</event>
<event>
 7    1  0.6316620E-012  0.5930195E+02  0.7816164E-02  0.1266605E+00
        -11   -1    0    0    0    0  0.00000000000E+00  0.00000000000E+00  0.45593999997E+02  0.45594000000E+02  0.51100000000E-03 0.  1.
         11   -1    0    0    0    0 -0.00000000000E+00 -0.00000000000E+00 -0.45593999997E+02  0.45594000000E+02  0.51100000000E-03 0. -1.
    9900012    2    1    2    0    0 -0.25836426526E+02  0.57394793859E+01  0.17783640077E+02  0.59301946408E+02  0.50000004342E+02 0.  0.
         12    1    1    2    0    0  0.25836426526E+02 -0.57394793859E+01 -0.17783640077E+02  0.31886053592E+02  0.00000000000E+00 0. -1.
         11    1    3    3    0    0 -0.78788863093E+01 -0.29191917127E+01  0.20236200148E+02  0.21911237446E+02  0.51100000000E-03 0. -1.
        -11    1    3    3    0    0 -0.13310116714E+01 -0.85410462204E+01  0.75350712356E+01  0.11467273494E+02  0.51100000000E-03 0.  1.
         12    1    3    3    0    0 -0.16626528545E+02  0.17199717319E+02 -0.99876313066E+01  0.25923435467E+02  0.00000000000E+00 0. -1.
</event>
<event>
 7    1  0.6316620E-012  0.5930193E+02  0.7816164E-02  0.1266605E+00
        -11   -1    0    0    0    0  0.00000000000E+00  0.00000000000E+00  0.45593999997E+02  0.45594000000E+02  0.51100000000E-03 0. -1.
         11   -1    0    0    0    0 -0.00000000000E+00 -0.00000000000E+00 -0.45593999997E+02  0.45594000000E+02  0.51100000000E-03 0.  1.
    9900012    2    1    2    0    0  0.15610304969E+02 -0.27410159984E+02  0.46607994284E+01  0.59301928701E+02  0.49999972048E+02 0.  0.
         12    1    1    2    0    0 -0.15610304969E+02  0.27410159984E+02 -0.46607994284E+01  0.31886071299E+02  0.00000000000E+00 0. -1.
         11    1    3    3    0    0 -0.19965965140E+01 -0.80225543091E+01 -0.92821387393E+01  0.12430039224E+02  0.51100000000E-03 0. -1.
        -11    1    3    3    0    0 -0.59801523811E+01 -0.20097982415E+02  0.44470453580E+01  0.21435189113E+02  0.51100000000E-03 0.  1.
         12    1    3    3    0    0  0.23587053865E+02  0.71037674010E+00  0.94958928097E+01  0.25436700363E+02  0.00000000000E+00 0. -1.
</event>
<event>
 7    1  0.6316620E-012  0.5930195E+02  0.7816164E-02  0.1266605E+00
        -11   -1    0    0    0    0  0.00000000000E+00  0.00000000000E+00  0.45593999997E+02  0.45594000000E+02  0.51100000000E-03 0.  1.
         11   -1    0    0    0    0 -0.00000000000E+00 -0.00000000000E+00 -0.45593999997E+02  0.45594000000E+02  0.51100000000E-03 0. -1.
    9900012    2    1    2    0    0 -0.76318277834E+01 -0.24722676874E+02 -0.18635040089E+02  0.59301948719E+02  0.50000008557E+02 0.  0.
         12    1    1    2    0    0  0.76318277834E+01  0.24722676874E+02  0.18635040089E+02  0.31886051281E+02  0.00000000000E+00 0. -1.
         11    1    3    3    0    0 -0.54318693067E+00 -0.86508319081E+00 -0.98395365306E+01  0.98924163058E+01  0.51100000000E-03 0. -1.
        -11    1    3    3    0    0 -0.19610839921E+02 -0.46050102830E+01 -0.15575010012E+02  0.25463151793E+02  0.51100000000E-03 0.  1.
        -12    1    3    3    0    0  0.12522199068E+02 -0.19252583400E+02  0.67795064530E+01  0.23946380621E+02  0.00000000000E+00 0.  1.
</event>
<event>
 7    1  0.6316620E-012  0.5930194E+02  0.7816164E-02  0.1266605E+00
        -11   -1    0    0    0    0  0.00000000000E+00  0.00000000000E+00  0.45593999997E+02  0.45594000000E+02  0.51100000000E-03 0. -1.
         11   -1    0    0    0    0 -0.00000000000E+00 -0.00000000000E+00 -0.45593999997E+02  0.45594000000E+02  0.51100000000E-03 0.  1.
    9900012    2    1    2    0    0 -0.15128759364E+02 -0.91806528740E+00 -0.28053490025E+02  0.59301944955E+02  0.50000001690E+02 0.  0.
         12    1    1    2    0    0  0.15128759364E+02  0.91806528740E+00  0.28053490025E+02  0.31886055045E+02  0.00000000000E+00 0. -1.
         11    1    3    3    0    0  0.49435657450E+01 -0.63905770116E+01 -0.65318498577E+00  0.81058600841E+01  0.51100000000E-03 0. -1.
        -11    1    3    3    0    0 -0.23084469825E+02  0.16512569943E+02 -0.94612016305E+01  0.29917754758E+02  0.51100000000E-03 0.  1.
         12    1    3    3    0    0  0.30121447162E+01 -0.11040058218E+02 -0.17939103409E+02  0.21278330113E+02  0.00000000000E+00 0. -1.
</event>
<event>
 7    1  0.6316620E-012  0.5930196E+02  0.7816164E-02  0.1266605E+00
        -11   -1    0    0    0    0  0.00000000000E+00  0.00000000000E+00  0.45593999997E+02  0.45594000000E+02  0.51100000000E-03 0.  1.
         11   -1    0    0    0    0 -0.00000000000E+00 -0.00000000000E+00 -0.45593999997E+02  0.45594000000E+02  0.51100000000E-03 0. -1.
    9900012    2    1    2    0    0 -0.98475423558E+01  0.78049679381E+01  0.29305765470E+02  0.59301960660E+02  0.50000030334E+02 0.  0.
         12    1    1    2    0    0  0.98475423558E+01 -0.78049679381E+01 -0.29305765470E+02  0.31886039340E+02  0.00000000000E+00 0. -1.
         11    1    3    3    0    0 -0.30513596349E+01  0.86334188022E+01 -0.17716508769E+01  0.93265997516E+01  0.51100000000E-03 0. -1.
        -11    1    3    3    0    0  0.50124976094E+01  0.13394292543E+02  0.27713146177E+02  0.31185744761E+02  0.51100000000E-03 0.  1.
         12    1    3    3    0    0 -0.11808680330E+02 -0.14222743408E+02  0.33642701700E+01  0.18789616147E+02  0.00000000000E+00 0. -1.
</event>
<event>
 7    1  0.6316620E-012  0.5930194E+02  0.7816164E-02  0.1266605E+00
        -11   -1    0    0    0    0  0.00000000000E+00  0.00000000000E+00  0.45593999997E+02  0.45594000000E+02  0.51100000000E-03 0.  1.
         11   -1    0    0    0    0 -0.00000000000E+00 -0.00000000000E+00 -0.45593999997E+02  0.45594000000E+02  0.51100000000E-03 0. -1.
    9900012    2    1    2    0    0  0.11717301283E+02  0.20075500787E+02  0.21826588971E+02  0.59301939294E+02  0.49999991367E+02 0.  0.
         12    1    1    2    0    0 -0.11717301283E+02 -0.20075500787E+02 -0.21826588971E+02  0.31886060706E+02  0.00000000000E+00 0. -1.
         11    1    3    3    0    0  0.37264461976E+01 -0.14578305657E+01 -0.46316287620E+01  0.61207562010E+01  0.51100000000E-03 0. -1.
        -11    1    3    3    0    0 -0.14845137209E+02  0.42496873214E+01  0.20987003451E+01  0.15583404136E+02  0.51100000000E-03 0.  1.
        -12    1    3    3    0    0  0.22835992295E+02  0.17283644031E+02  0.24359517388E+02  0.37597778957E+02  0.00000000000E+00 0.  1.
</event>
<event>
 7    1  0.6316620E-012  0.5930194E+02  0.7816164E-02  0.1266605E+00
        -11   -1    0    0    0    0  0.00000000000E+00  0.00000000000E+00  0.45593999997E+02  0.45594000000E+02  0.51100000000E-03 0.  1.
         11   -1    0    0    0    0 -0.00000000000E+00 -0.00000000000E+00 -0.45593999997E+02  0.45594000000E+02  0.51100000000E-03 0. -1.
    9900012    2    1    2    0    0  0.21163052177E+02  0.15422624841E+02  0.18193093472E+02  0.59301940593E+02  0.49999993736E+02 0.  0.
         12    1    1    2    0    0 -0.21163052177E+02 -0.15422624841E+02 -0.18193093472E+02  0.31886059407E+02  0.00000000000E+00 0. -1.
         11    1    3    3    0    0  0.35947804024E+01 -0.10383813516E+02  0.34923969953E+01  0.11530085269E+02  0.51100000000E-03 0. -1.
        -11    1    3    3    0    0 -0.42088602589E+01  0.15000679261E+02 -0.51258382219E+01  0.16401496904E+02  0.51100000000E-03 0.  1.
        -12    1    3    3    0    0  0.21777132033E+02  0.10805759096E+02  0.19826534699E+02  0.31370358420E+02  0.00000000000E+00 0.  1.
</event>
<event>
 7    1  0.6316620E-012  0.5930193E+02  0.7816164E-02  0.1266605E+00
        -11   -1    0    0    0    0  0.00000000000E+00  0.00000000000E+00  0.45593999997E+02  0.45594000000E+02  0.51100000000E-03 0.  1.
         11   -1    0    0    0    0 -0.00000000000E+00 -0.00000000000E+00 -0.45593999997E+02  0.45594000000E+02  0.51100000000E-03 0. -1.
    9900012    2    1    2    0    0  0.18165582593E+02 -0.25597865956E+02  0.56109051451E+01  0.59301931115E+02  0.49999976450E+02 0.  0.
         12    1    1    2    0    0 -0.18165582593E+02  0.25597865956E+02 -0.56109051451E+01  0.31886068885E+02  0.00000000000E+00 0. -1.
         11    1    3    3    0    0  0.82449190630E+01  0.86168279345E+01 -0.36793105592E+01  0.12480614587E+02  0.51100000000E-03 0. -1.
        -11    1    3    3    0    0  0.49309227583E+01 -0.12218060094E+01 -0.78176488752E+01  0.93232206544E+01  0.51100000000E-03 0.  1.
        -12    1    3    3    0    0  0.49897407717E+01 -0.32992887881E+02  0.17107864580E+02  0.37498095874E+02  0.00000000000E+00 0.  1.
</event>
<event>
 7    1  0.6316620E-012  0.5930195E+02  0.7816164E-02  0.1266605E+00
        -11   -1    0    0    0    0  0.00000000000E+00  0.00000000000E+00  0.45593999997E+02  0.45594000000E+02  0.51100000000E-03 0.  1.
         11   -1    0    0    0    0 -0.00000000000E+00 -0.00000000000E+00 -0.45593999997E+02  0.45594000000E+02  0.51100000000E-03 0. -1.
    9900012    2    1    2    0    0  0.31299490580E+02  0.45410555519E+01 -0.40547247096E+01  0.59301951506E+02  0.50000013639E+02 0.  0.
         12    1    1    2    0    0 -0.31299490580E+02 -0.45410555519E+01  0.40547247096E+01  0.31886048494E+02  0.00000000000E+00 0. -1.
         11    1    3    3    0    0  0.16845780962E+01 -0.24066947091E+01  0.10022316872E+02  0.10443984802E+02  0.51100000000E-03 0. -1.
        -11    1    3    3    0    0 -0.65368043103E+00 -0.99437540560E+01 -0.97230698012E+01  0.13922773770E+02  0.51100000000E-03 0.  1.
        -12    1    3    3    0    0  0.30268592914E+02  0.16891504317E+02 -0.43539717807E+01  0.34935192935E+02  0.00000000000E+00 0.  1.
</event>
<event>
 7    1  0.6316620E-012  0.5930195E+02  0.7816164E-02  0.1266605E+00
        -11   -1    0    0    0    0  0.00000000000E+00  0.00000000000E+00  0.45593999997E+02  0.45594000000E+02  0.51100000000E-03 0. -1.
         11   -1    0    0    0    0 -0.00000000000E+00 -0.00000000000E+00 -0.45593999997E+02  0.45594000000E+02  0.51100000000E-03 0.  1.
    9900012    2    1    2    0    0  0.26549286776E+02 -0.41964489074E+00 -0.17654452888E+02  0.59301946044E+02  0.50000003677E+02 0.  0.
         12    1    1    2    0    0 -0.26549286776E+02  0.41964489074E+00  0.17654452888E+02  0.31886053956E+02  0.00000000000E+00 0. -1.
         11    1    3    3    0    0  0.11190862555E+02  0.26884568935E+01 -0.92600790001E+01  0.14772009631E+02  0.51100000000E-03 0. -1.
        -11    1    3    3    0    0 -0.10175149016E+02  0.77317405747E+01 -0.10738012282E+02  0.16691865619E+02  0.51100000000E-03 0.  1.
         12    1    3    3    0    0  0.25533573237E+02 -0.10839842359E+02  0.23436383934E+01  0.27838070794E+02  0.00000000000E+00 0. -1.
</event>
<event>
 7    1  0.6316620E-012  0.5930190E+02  0.7816164E-02  0.1266605E+00
        -11   -1    0    0    0    0  0.00000000000E+00  0.00000000000E+00  0.45593999997E+02  0.45594000000E+02  0.51100000000E-03 0. -1.
         11   -1    0    0    0    0 -0.00000000000E+00 -0.00000000000E+00 -0.45593999997E+02  0.45594000000E+02  0.51100000000E-03 0.  1.
    9900012    2    1    2    0    0 -0.27090867134E+02  0.15494317850E+02 -0.65371328601E+01  0.59301904696E+02  0.49999928269E+02 0.  0.
         12    1    1    2    0    0  0.27090867134E+02 -0.15494317850E+02  0.65371328601E+01  0.31886095304E+02  0.00000000000E+00 0. -1.
         11    1    3    3    0    0 -0.25342210115E+01 -0.27594216126E+01 -0.19214754800E+01  0.42105524641E+01  0.51100000000E-03 0. -1.
        -11    1    3    3    0    0  0.81991411504E+01 -0.76428191253E+00 -0.13843014999E+02  0.16107113552E+02  0.51100000000E-03 0.  1.
         12    1    3    3    0    0 -0.32755787272E+02  0.19018021375E+02  0.92273576192E+01  0.38984238680E+02  0.00000000000E+00 0. -1.
</event>
<event>
 7    1  0.6316620E-012  0.5930194E+02  0.7816164E-02  0.1266605E+00
        -11   -1    0    0    0    0  0.00000000000E+00  0.00000000000E+00  0.45593999997E+02  0.45594000000E+02  0.51100000000E-03 0. -1.
         11   -1    0    0    0    0 -0.00000000000E+00 -0.00000000000E+00 -0.45593999997E+02  0.45594000000E+02  0.51100000000E-03 0.  1.
    9900012    2    1    2    0    0 -0.21198823047E+02  0.62238142319E+00 -0.23810573683E+02  0.59301939153E+02  0.49999991110E+02 0.  0.
         12    1    1    2    0    0  0.21198823047E+02 -0.62238142319E+00  0.23810573683E+02  0.31886060847E+02  0.00000000000E+00 0. -1.
         11    1    3    3    0    0 -0.13845342990E+02 -0.26525324922E+01 -0.20142614713E+02  0.24585653925E+02  0.51100000000E-03 0. -1.
        -11    1    3    3    0    0  0.11975979630E+02 -0.70794973491E+00 -0.81178128252E+01  0.14485308635E+02  0.51100000000E-03 0.  1.
         12    1    3    3    0    0 -0.19329459686E+02  0.39828636503E+01  0.44498538558E+01  0.20230976594E+02  0.00000000000E+00 0. -1.
</event>
<event>
 7    1  0.6316620E-012  0.5930195E+02  0.7816164E-02  0.1266605E+00
        -11   -1    0    0    0    0  0.00000000000E+00  0.00000000000E+00  0.45593999997E+02  0.45594000000E+02  0.51100000000E-03 0.  1.
         11   -1    0    0    0    0 -0.00000000000E+00 -0.00000000000E+00 -0.45593999997E+02  0.45594000000E+02  0.51100000000E-03 0. -1.
    9900012    2    1    2    0    0  0.14001926658E+02 -0.35166107528E+01  0.28430613260E+02  0.59301948635E+02  0.50000008403E+02 0.  0.
         12    1    1    2    0    0 -0.14001926658E+02  0.35166107528E+01 -0.28430613260E+02  0.31886051365E+02  0.00000000000E+00 0. -1.
         11    1    3    3    0    0  0.60655502836E+00  0.83446867523E+01  0.83740755642E+01  0.11837518651E+02  0.51100000000E-03 0. -1.
        -11    1    3    3    0    0  0.13859345049E+01  0.23150672221E+00  0.28437536824E+02  0.28472230519E+02  0.51100000000E-03 0.  1.
        -12    1    3    3    0    0  0.12009437125E+02 -0.12092804227E+02 -0.83809991288E+01  0.18992199465E+02  0.00000000000E+00 0.  1.
</event>
<event>
 7    1  0.6316620E-012  0.5930195E+02  0.7816164E-02  0.1266605E+00
        -11   -1    0    0    0    0  0.00000000000E+00  0.00000000000E+00  0.45593999997E+02  0.45594000000E+02  0.51100000000E-03 0. -1.
         11   -1    0    0    0    0 -0.00000000000E+00 -0.00000000000E+00 -0.45593999997E+02  0.45594000000E+02  0.51100000000E-03 0.  1.
    9900012    2    1    2    0    0 -0.24832196125E+02  0.33045144117E+01  0.19727194145E+02  0.59301953385E+02  0.50000017065E+02 0.  0.
         12    1    1    2    0    0  0.24832196125E+02 -0.33045144117E+01 -0.19727194145E+02  0.31886046615E+02  0.00000000000E+00 0. -1.
         11    1    3    3    0    0  0.34164838177E+00 -0.32255135776E+00  0.30727780275E+01  0.31084928925E+01  0.51100000000E-03 0. -1.
        -11    1    3    3    0    0 -0.10806825454E+02  0.23872449660E+02 -0.16854827068E+00  0.26205147166E+02  0.51100000000E-03 0.  1.
         12    1    3    3    0    0 -0.14367019053E+02 -0.20245383891E+02  0.16822964388E+02  0.29988313327E+02  0.00000000000E+00 0. -1.
</event>
<event>
 7    1  0.6316620E-012  0.5930195E+02  0.7816164E-02  0.1266605E+00
        -11   -1    0    0    0    0  0.00000000000E+00  0.00000000000E+00  0.45593999997E+02  0.45594000000E+02  0.51100000000E-03 0.  1.
         11   -1    0    0    0    0 -0.00000000000E+00 -0.00000000000E+00 -0.45593999997E+02  0.45594000000E+02  0.51100000000E-03 0. -1.
    9900012    2    1    2    0    0  0.18574044373E+02  0.18059292637E+02  0.18589964728E+02  0.59301953467E+02  0.50000017215E+02 0.  0.
         12    1    1    2    0    0 -0.18574044373E+02 -0.18059292637E+02 -0.18589964728E+02  0.31886046533E+02  0.00000000000E+00 0. -1.
         11    1    3    3    0    0 -0.19203776593E+01 -0.46942018434E+01 -0.10522170107E+02  0.11680729657E+02  0.51100000000E-03 0. -1.
        -11    1    3    3    0    0  0.14114867272E+02  0.87397729003E+01  0.23794228136E+01  0.16771248064E+02  0.51100000000E-03 0.  1.
        -12    1    3    3    0    0  0.63795547606E+01  0.14013721580E+02  0.26732712022E+02  0.30849975746E+02  0.00000000000E+00 0.  1.
</event>
<event>
 7    1  0.6316620E-012  0.5930185E+02  0.7816164E-02  0.1266605E+00
        -11   -1    0    0    0    0  0.00000000000E+00  0.00000000000E+00  0.45593999997E+02  0.45594000000E+02  0.51100000000E-03 0. -1.
         11   -1    0    0    0    0 -0.00000000000E+00 -0.00000000000E+00 -0.45593999997E+02  0.45594000000E+02  0.51100000000E-03 0.  1.
    9900012    2    1    2    0    0 -0.17024815699E+02  0.22201745391E+02 -0.15295904446E+02  0.59301850329E+02  0.49999829116E+02 0.  0.
         12    1    1    2    0    0  0.17024815699E+02 -0.22201745391E+02  0.15295904446E+02  0.31886149671E+02  0.00000000000E+00 0. -1.
         11    1    3    3    0    0 -0.22885637327E+02  0.90620467970E+01  0.64883420060E+01  0.25455287668E+02  0.51100000000E-03 0. -1.
        -11    1    3    3    0    0 -0.66583648951E+01  0.11486073321E+02 -0.11149476660E+02  0.17337085495E+02  0.51100000000E-03 0.  1.
        -12    1    3    3    0    0  0.12519186524E+02  0.16536252732E+01 -0.10634769792E+02  0.16509477166E+02  0.00000000000E+00 0.  1.
</event>
<event>
 7    1  0.6316620E-012  0.5930196E+02  0.7816164E-02  0.1266605E+00
        -11   -1    0    0    0    0  0.00000000000E+00  0.00000000000E+00  0.45593999997E+02  0.45594000000E+02  0.51100000000E-03 0. -1.
         11   -1    0    0    0    0 -0.00000000000E+00 -0.00000000000E+00 -0.45593999997E+02  0.45594000000E+02  0.51100000000E-03 0.  1.
    9900012    2    1    2    0    0  0.19221073011E+02 -0.21540279209E+02  0.13538335065E+02  0.59301956149E+02  0.50000022106E+02 0.  0.
         12    1    1    2    0    0 -0.19221073011E+02  0.21540279209E+02 -0.13538335065E+02  0.31886043851E+02  0.00000000000E+00 0. -1.
         11    1    3    3    0    0  0.10258827438E+02  0.12119914165E+02 -0.36816576254E+01  0.16300014200E+02  0.51100000000E-03 0. -1.
        -11    1    3    3    0    0 -0.56408433208E+01 -0.74425299122E+01  0.31358488471E+01  0.98510869003E+01  0.51100000000E-03 0.  1.
        -12    1    3    3    0    0  0.14603088894E+02 -0.26217663462E+02  0.14084143844E+02  0.33150855049E+02  0.00000000000E+00 0.  1.
</event>
<event>
 7    1  0.6316620E-012  0.5930174E+02  0.7816164E-02  0.1266605E+00
        -11   -1    0    0    0    0  0.00000000000E+00  0.00000000000E+00  0.45593999997E+02  0.45594000000E+02  0.51100000000E-03 0. -1.
         11   -1    0    0    0    0 -0.00000000000E+00 -0.00000000000E+00 -0.45593999997E+02  0.45594000000E+02  0.51100000000E-03 0.  1.
    9900012    2    1    2    0    0 -0.42666111800E+01  0.22407462805E+02 -0.22280830635E+02  0.59301736906E+02  0.49999622258E+02 0.  0.
         12    1    1    2    0    0  0.42666111800E+01 -0.22407462805E+02  0.22280830635E+02  0.31886263094E+02  0.00000000000E+00 0. -1.
         11    1    3    3    0    0  0.72604968036E+01 -0.74183707315E+01 -0.24818585448E+02  0.26901844213E+02  0.51100000000E-03 0. -1.
        -11    1    3    3    0    0 -0.34937801505E+00  0.45147410855E+01 -0.53811378190E+00  0.45601007412E+01  0.51100000000E-03 0.  1.
        -12    1    3    3    0    0 -0.11177729968E+02  0.25311092451E+02  0.30758685954E+01  0.27839791952E+02  0.00000000000E+00 0.  1.
</event>
<event>
 7    1  0.6316620E-012  0.5930200E+02  0.7816164E-02  0.1266605E+00
        -11   -1    0    0    0    0  0.00000000000E+00  0.00000000000E+00  0.45593999997E+02  0.45594000000E+02  0.51100000000E-03 0.  1.
         11   -1    0    0    0    0 -0.00000000000E+00 -0.00000000000E+00 -0.45593999997E+02  0.45594000000E+02  0.51100000000E-03 0. -1.
    9900012    2    1    2    0    0  0.38444084611E+01 -0.29825075486E+02  0.10602000507E+02  0.59301999641E+02  0.50000101425E+02 0.  0.
         12    1    1    2    0    0 -0.38444084611E+01  0.29825075486E+02 -0.10602000507E+02  0.31886000359E+02  0.00000000000E+00 0. -1.
         11    1    3    3    0    0 -0.10506059373E+02  0.18036124111E+01  0.78088707458E+01  0.13213960946E+02  0.51100000000E-03 0. -1.
        -11    1    3    3    0    0 -0.27563852507E+01 -0.22930092233E+02  0.10546926355E+02  0.25389455395E+02  0.51100000000E-03 0.  1.
         12    1    3    3    0    0  0.17106853085E+02 -0.86985956639E+01 -0.77537965935E+01  0.20698583300E+02  0.00000000000E+00 0. -1.
</event>
<event>
 7    1  0.6316620E-012  0.5930192E+02  0.7816164E-02  0.1266605E+00
        -11   -1    0    0    0    0  0.00000000000E+00  0.00000000000E+00  0.45593999997E+02  0.45594000000E+02  0.51100000000E-03 0. -1.
         11   -1    0    0    0    0 -0.00000000000E+00 -0.00000000000E+00 -0.45593999997E+02  0.45594000000E+02  0.51100000000E-03 0.  1.
    9900012    2    1    2    0    0 -0.29602818327E+02  0.11806537216E+02 -0.10005678229E+01  0.59301916673E+02  0.49999950112E+02 0.  0.
         12    1    1    2    0    0  0.29602818327E+02 -0.11806537216E+02  0.10005678229E+01  0.31886083327E+02  0.00000000000E+00 0. -1.
         11    1    3    3    0    0 -0.29770088185E+01  0.99168426650E+01 -0.12249365770E+01  0.10426256271E+02  0.51100000000E-03 0. -1.
        -11    1    3    3    0    0 -0.33183270332E+02  0.97415080393E+01  0.86199916011E+01  0.35641698392E+02  0.51100000000E-03 0.  1.
         12    1    3    3    0    0  0.65574608231E+01 -0.78518134884E+01 -0.83956228470E+01  0.13233962010E+02  0.00000000000E+00 0. -1.
</event>
<event>
 7    1  0.6316620E-012  0.5930194E+02  0.7816164E-02  0.1266605E+00
        -11   -1    0    0    0    0  0.00000000000E+00  0.00000000000E+00  0.45593999997E+02  0.45594000000E+02  0.51100000000E-03 0.  1.
         11   -1    0    0    0    0 -0.00000000000E+00 -0.00000000000E+00 -0.45593999997E+02  0.45594000000E+02  0.51100000000E-03 0. -1.
    9900012    2    1    2    0    0  0.20019358918E+01  0.61332200990E+01  0.31226543135E+02  0.59301935140E+02  0.49999983791E+02 0.  0.
         12    1    1    2    0    0 -0.20019358918E+01 -0.61332200990E+01 -0.31226543135E+02  0.31886064860E+02  0.00000000000E+00 0. -1.
         11    1    3    3    0    0 -0.75992863173E+01 -0.81419317970E+01 -0.54545437119E+01  0.12401300468E+02  0.51100000000E-03 0. -1.
        -11    1    3    3    0    0  0.11398262816E+02  0.74577130650E+01  0.51040641306E+01  0.14546111174E+02  0.51100000000E-03 0.  1.
        -12    1    3    3    0    0 -0.17970406071E+01  0.68174388310E+01  0.31577022716E+02  0.32354523498E+02  0.00000000000E+00 0.  1.
</event>
<event>
 7    1  0.6316620E-012  0.5930195E+02  0.7816164E-02  0.1266605E+00
        -11   -1    0    0    0    0  0.00000000000E+00  0.00000000000E+00  0.45593999997E+02  0.45594000000E+02  0.51100000000E-03 0.  1.
         11   -1    0    0    0    0 -0.00000000000E+00 -0.00000000000E+00 -0.45593999997E+02  0.45594000000E+02  0.51100000000E-03 0. -1.
    9900012    2    1    2    0    0  0.15663945172E+02 -0.11682421645E+02  0.25196862319E+02  0.59301952510E+02  0.50000015469E+02 0.  0.
         12    1    1    2    0    0 -0.15663945172E+02  0.11682421645E+02 -0.25196862319E+02  0.31886047490E+02  0.00000000000E+00 0. -1.
         11    1    3    3    0    0  0.95459509657E+01 -0.24364105426E+02  0.25815139269E+02  0.36758077055E+02  0.51100000000E-03 0. -1.
        -11    1    3    3    0    0  0.69399919824E+00  0.15422057289E+01  0.75281677996E+01  0.77157853831E+01  0.51100000000E-03 0.  1.
         12    1    3    3    0    0  0.54239950082E+01  0.11139478051E+02 -0.81464447503E+01  0.14828090072E+02  0.00000000000E+00 0. -1.
</event>
<event>
 7    1  0.6316620E-012  0.5930195E+02  0.7816164E-02  0.1266605E+00
        -11   -1    0    0    0    0  0.00000000000E+00  0.00000000000E+00  0.45593999997E+02  0.45594000000E+02  0.51100000000E-03 0.  1.
         11   -1    0    0    0    0 -0.00000000000E+00 -0.00000000000E+00 -0.45593999997E+02  0.45594000000E+02  0.51100000000E-03 0. -1.
    9900012    2    1    2    0    0  0.19671495191E+02 -0.18583902536E+02 -0.16863894718E+02  0.59301951301E+02  0.50000013266E+02 0.  0.
         12    1    1    2    0    0 -0.19671495191E+02  0.18583902536E+02  0.16863894718E+02  0.31886048699E+02  0.00000000000E+00 0. -1.
         11    1    3    3    0    0  0.14884200465E+01 -0.33527158203E+01 -0.11204480109E+02  0.11789676517E+02  0.51100000000E-03 0. -1.
        -11    1    3    3    0    0  0.11127955700E+02  0.59157972664E+01 -0.18044730992E+02  0.22010006183E+02  0.51100000000E-03 0.  1.
        -12    1    3    3    0    0  0.70551194452E+01 -0.21146983982E+02  0.12385316382E+02  0.25502268601E+02  0.00000000000E+00 0.  1.
</event>
<event>
 7    1  0.6316620E-012  0.5930192E+02  0.7816164E-02  0.1266605E+00
        -11   -1    0    0    0    0  0.00000000000E+00  0.00000000000E+00  0.45593999997E+02  0.45594000000E+02  0.51100000000E-03 0.  1.
         11   -1    0    0    0    0 -0.00000000000E+00 -0.00000000000E+00 -0.45593999997E+02  0.45594000000E+02  0.51100000000E-03 0. -1.
    9900012    2    1    2    0    0  0.14596138527E+02 -0.18991927239E+02  0.21047125865E+02  0.59301920478E+02  0.49999957050E+02 0.  0.
         12    1    1    2    0    0 -0.14596138527E+02  0.18991927239E+02 -0.21047125865E+02  0.31886079522E+02  0.00000000000E+00 0. -1.
         11    1    3    3    0    0 -0.11862180723E+02 -0.53122276440E+01 -0.87446447090E+01  0.15665245143E+02  0.51100000000E-03 0. -1.
        -11    1    3    3    0    0  0.75063695242E+01 -0.55160405353E+00  0.25459931830E+01  0.79455605224E+01  0.51100000000E-03 0.  1.
        -12    1    3    3    0    0  0.18951949725E+02 -0.13128095542E+02  0.27245777391E+02  0.35691114812E+02  0.00000000000E+00 0.  1.
</event>
<event>
 7    1  0.6316620E-012  0.5930194E+02  0.7816164E-02  0.1266605E+00
        -11   -1    0    0    0    0  0.00000000000E+00  0.00000000000E+00  0.45593999997E+02  0.45594000000E+02  0.51100000000E-03 0.  1.
         11   -1    0    0    0    0 -0.00000000000E+00 -0.00000000000E+00 -0.45593999997E+02  0.45594000000E+02  0.51100000000E-03 0. -1.
    9900012    2    1    2    0    0  0.26039395602E+02  0.12885001591E+02  0.13139537515E+02  0.59301939795E+02  0.49999992280E+02 0.  0.
         12    1    1    2    0    0 -0.26039395602E+02 -0.12885001591E+02 -0.13139537515E+02  0.31886060205E+02  0.00000000000E+00 0. -1.
         11    1    3    3    0    0  0.14706494371E+02  0.30743149363E+01 -0.37634552622E+01  0.15488575945E+02  0.51100000000E-03 0. -1.
        -11    1    3    3    0    0  0.25269224568E+02  0.63901357635E+01  0.10513404725E+02  0.28105145872E+02  0.51100000000E-03 0.  1.
         12    1    3    3    0    0 -0.13936323337E+02  0.34205508912E+01  0.63895880526E+01  0.15708217978E+02  0.00000000000E+00 0. -1.
</event>
<event>
 7    1  0.6316620E-012  0.5930195E+02  0.7816164E-02  0.1266605E+00
        -11   -1    0    0    0    0  0.00000000000E+00  0.00000000000E+00  0.45593999997E+02  0.45594000000E+02  0.51100000000E-03 0. -1.
         11   -1    0    0    0    0 -0.00000000000E+00 -0.00000000000E+00 -0.45593999997E+02  0.45594000000E+02  0.51100000000E-03 0.  1.
    9900012    2    1    2    0    0  0.29486057916E+02  0.24884253624E+01 -0.11878555151E+02  0.59301953762E+02  0.50000017752E+02 0.  0.
         12    1    1    2    0    0 -0.29486057916E+02 -0.24884253624E+01  0.11878555151E+02  0.31886046238E+02  0.00000000000E+00 0. -1.
         11    1    3    3    0    0  0.38445377004E+01  0.11979189629E+02 -0.77442151011E+01  0.14773432983E+02  0.51100000000E-03 0. -1.
        -11    1    3    3    0    0  0.30019535998E+02  0.37015317848E+01 -0.47376057356E+01  0.30615662453E+02  0.51100000000E-03 0.  1.
        -12    1    3    3    0    0 -0.43780157820E+01 -0.13192296052E+02  0.60326568562E+00  0.13912858326E+02  0.00000000000E+00 0.  1.
</event>
<event>
 7    1  0.6316620E-012  0.5930196E+02  0.7816164E-02  0.1266605E+00
        -11   -1    0    0    0    0  0.00000000000E+00  0.00000000000E+00  0.45593999997E+02  0.45594000000E+02  0.51100000000E-03 0.  1.
         11   -1    0    0    0    0 -0.00000000000E+00 -0.00000000000E+00 -0.45593999997E+02  0.45594000000E+02  0.51100000000E-03 0. -1.
    9900012    2    1    2    0    0  0.14842605708E+02 -0.27391777753E+02 -0.67902034522E+01  0.59301963940E+02  0.50000036316E+02 0.  0.
         12    1    1    2    0    0 -0.14842605708E+02  0.27391777753E+02  0.67902034522E+01  0.31886036060E+02  0.00000000000E+00 0. -1.
         11    1    3    3    0    0 -0.61480382305E+01 -0.19191016051E+01  0.68480626106E+00  0.64769039619E+01  0.51100000000E-03 0. -1.
        -11    1    3    3    0    0  0.20181941811E+02  0.41183907140E+01 -0.10407827773E+02  0.23078015438E+02  0.51100000000E-03 0.  1.
         12    1    3    3    0    0  0.80870212754E+00 -0.29591066862E+02  0.29328180597E+01  0.29747044541E+02  0.00000000000E+00 0. -1.
</event>
<event>
 7    1  0.6316620E-012  0.5930195E+02  0.7816164E-02  0.1266605E+00
        -11   -1    0    0    0    0  0.00000000000E+00  0.00000000000E+00  0.45593999997E+02  0.45594000000E+02  0.51100000000E-03 0.  1.
         11   -1    0    0    0    0 -0.00000000000E+00 -0.00000000000E+00 -0.45593999997E+02  0.45594000000E+02  0.51100000000E-03 0. -1.
    9900012    2    1    2    0    0  0.27206203376E+02  0.15865280070E+02  0.49835549525E+01  0.59301946092E+02  0.50000003765E+02 0.  0.
         12    1    1    2    0    0 -0.27206203376E+02 -0.15865280070E+02 -0.49835549525E+01  0.31886053908E+02  0.00000000000E+00 0. -1.
         11    1    3    3    0    0  0.46363781913E+00 -0.44006195990E+01  0.34811584181E+01  0.56301755812E+01  0.51100000000E-03 0. -1.
        -11    1    3    3    0    0  0.27261874192E+02  0.24167987692E+02  0.15158314586E+02  0.39459801252E+02  0.51100000000E-03 0.  1.
         12    1    3    3    0    0 -0.51930863509E+00 -0.39020880223E+01 -0.13655918051E+02  0.14211969259E+02  0.00000000000E+00 0. -1.
</event>
<event>
 7    1  0.6316620E-012  0.5930193E+02  0.7816164E-02  0.1266605E+00
        -11   -1    0    0    0    0  0.00000000000E+00  0.00000000000E+00  0.45593999997E+02  0.45594000000E+02  0.51100000000E-03 0.  1.
         11   -1    0    0    0    0 -0.00000000000E+00 -0.00000000000E+00 -0.45593999997E+02  0.45594000000E+02  0.51100000000E-03 0. -1.
    9900012    2    1    2    0    0  0.66046372923E+01  0.14791643181E+02  0.27464659639E+02  0.59301929831E+02  0.49999974108E+02 0.  0.
         12    1    1    2    0    0 -0.66046372923E+01 -0.14791643181E+02 -0.27464659639E+02  0.31886070169E+02  0.00000000000E+00 0. -1.
         11    1    3    3    0    0  0.13857251752E+02 -0.63951852463E+01  0.36505583823E+01  0.15692303758E+02  0.51100000000E-03 0. -1.
        -11    1    3    3    0    0 -0.27587446709E+01 -0.71009088208E+01  0.72815686113E+01  0.10538255071E+02  0.51100000000E-03 0.  1.
        -12    1    3    3    0    0 -0.44938697890E+01  0.28287737248E+02  0.16532532645E+02  0.33071371002E+02  0.00000000000E+00 0.  1.
</event>
<event>
 7    1  0.6316620E-012  0.5930215E+02  0.7816164E-02  0.1266604E+00
        -11   -1    0    0    0    0  0.00000000000E+00  0.00000000000E+00  0.45593999997E+02  0.45594000000E+02  0.51100000000E-03 0. -1.
         11   -1    0    0    0    0 -0.00000000000E+00 -0.00000000000E+00 -0.45593999997E+02  0.45594000000E+02  0.51100000000E-03 0.  1.
    9900012    2    1    2    0    0  0.24214011397E+02  0.90039341598E+01 -0.18690049958E+02  0.59302154461E+02  0.50000383779E+02 0.  0.
         12    1    1    2    0    0 -0.24214011397E+02 -0.90039341598E+01  0.18690049958E+02  0.31885845539E+02  0.00000000000E+00 0. -1.
         11    1    3    3    0    0 -0.13737804510E+01  0.16988133784E+02 -0.20841893268E+02  0.26923381612E+02  0.51100000000E-03 0. -1.
        -11    1    3    3    0    0  0.60627632388E-01 -0.16003982490E+00 -0.47889710134E+01  0.47920279720E+01  0.51100000000E-03 0.  1.
         12    1    3    3    0    0  0.25527164216E+02 -0.78241597992E+01  0.69408143232E+01  0.27586744877E+02  0.00000000000E+00 0. -1.
</event>
<event>
 7    1  0.6316620E-012  0.5930197E+02  0.7816164E-02  0.1266605E+00
        -11   -1    0    0    0    0  0.00000000000E+00  0.00000000000E+00  0.45593999997E+02  0.45594000000E+02  0.51100000000E-03 0.  1.
         11   -1    0    0    0    0 -0.00000000000E+00 -0.00000000000E+00 -0.45593999997E+02  0.45594000000E+02  0.51100000000E-03 0. -1.
    9900012    2    1    2    0    0  0.12586201568E+02  0.23232736896E+02  0.17847873529E+02  0.59301966645E+02  0.50000041248E+02 0.  0.
         12    1    1    2    0    0 -0.12586201568E+02 -0.23232736896E+02 -0.17847873529E+02  0.31886033355E+02  0.00000000000E+00 0. -1.
         11    1    3    3    0    0 -0.74320369801E+01  0.22353752751E+02 -0.26724228588E+01  0.23707958156E+02  0.51100000000E-03 0. -1.
        -11    1    3    3    0    0  0.11964155383E+00 -0.63805812554E+01  0.42343848605E+00  0.63957354285E+01  0.51100000000E-03 0.  1.
        -12    1    3    3    0    0  0.19898596995E+02  0.72595654003E+01  0.20096857902E+02  0.29198273060E+02  0.00000000000E+00 0.  1.
</event>
<event>
 7    1  0.6316620E-012  0.5930218E+02  0.7816164E-02  0.1266604E+00
        -11   -1    0    0    0    0  0.00000000000E+00  0.00000000000E+00  0.45593999997E+02  0.45594000000E+02  0.51100000000E-03 0. -1.
         11   -1    0    0    0    0 -0.00000000000E+00 -0.00000000000E+00 -0.45593999997E+02  0.45594000000E+02  0.51100000000E-03 0.  1.
    9900012    2    1    2    0    0 -0.85542237190E+01  0.30694939673E+02 -0.11624099865E+01  0.59302184000E+02  0.50000437651E+02 0.  0.
         12    1    1    2    0    0  0.85542237190E+01 -0.30694939673E+02  0.11624099865E+01  0.31885816000E+02  0.00000000000E+00 0. -1.
         11    1    3    3    0    0 -0.20467752806E+02  0.11398521085E+02  0.67555814588E+00  0.23437396761E+02  0.51100000000E-03 0. -1.
        -11    1    3    3    0    0 -0.19553789106E+01 -0.63562862666E+01 -0.58929072020E+00  0.66763122755E+01  0.51100000000E-03 0.  1.
        -12    1    3    3    0    0  0.13868907998E+02  0.25652704855E+02 -0.12486774121E+01  0.29188474964E+02  0.00000000000E+00 0.  1.
</event>
<event>
 7    1  0.6316620E-012  0.5930193E+02  0.7816164E-02  0.1266605E+00
        -11   -1    0    0    0    0  0.00000000000E+00  0.00000000000E+00  0.45593999997E+02  0.45594000000E+02  0.51100000000E-03 0.  1.
         11   -1    0    0    0    0 -0.00000000000E+00 -0.00000000000E+00 -0.45593999997E+02  0.45594000000E+02  0.51100000000E-03 0. -1.
    9900012    2    1    2    0    0  0.11874796738E+02 -0.79148827379E+00  0.29581818037E+02  0.59301933926E+02  0.49999981578E+02 0.  0.
         12    1    1    2    0    0 -0.11874796738E+02  0.79148827379E+00 -0.29581818037E+02  0.31886066074E+02  0.00000000000E+00 0. -1.
         11    1    3    3    0    0 -0.11181144631E+02  0.59816244297E+01  0.75272518494E+01  0.14746435052E+02  0.51100000000E-03 0. -1.
        -11    1    3    3    0    0 -0.31095075764E+01  0.18009421241E+01  0.15953557923E+02  0.16353239451E+02  0.51100000000E-03 0.  1.
         12    1    3    3    0    0  0.26165448946E+02 -0.85740548275E+01  0.61010082652E+01  0.28202259423E+02  0.00000000000E+00 0. -1.
</event>
<event>
 7    1  0.6316620E-012  0.5930194E+02  0.7816164E-02  0.1266605E+00
        -11   -1    0    0    0    0  0.00000000000E+00  0.00000000000E+00  0.45593999997E+02  0.45594000000E+02  0.51100000000E-03 0.  1.
         11   -1    0    0    0    0 -0.00000000000E+00 -0.00000000000E+00 -0.45593999997E+02  0.45594000000E+02  0.51100000000E-03 0. -1.
    9900012    2    1    2    0    0 -0.28569547509E+02  0.14159455447E+02  0.10910808930E+00  0.59301935207E+02  0.49999983913E+02 0.  0.
         12    1    1    2    0    0  0.28569547509E+02 -0.14159455447E+02 -0.10910808930E+00  0.31886064793E+02  0.00000000000E+00 0. -1.
         11    1    3    3    0    0 -0.28158626223E+02  0.13648140320E+02 -0.96416135248E+01  0.32743559315E+02  0.51100000000E-03 0. -1.
        -11    1    3    3    0    0 -0.33982181182E+01  0.12119054308E+02  0.63596620250E+01  0.14101938343E+02  0.51100000000E-03 0.  1.
         12    1    3    3    0    0  0.29872968324E+01 -0.11607739182E+02  0.33910595890E+01  0.12456437549E+02  0.00000000000E+00 0. -1.
</event>
<event>
 7    1  0.6316620E-012  0.5930201E+02  0.7816164E-02  0.1266605E+00
        -11   -1    0    0    0    0  0.00000000000E+00  0.00000000000E+00  0.45593999997E+02  0.45594000000E+02  0.51100000000E-03 0. -1.
         11   -1    0    0    0    0 -0.00000000000E+00 -0.00000000000E+00 -0.45593999997E+02  0.45594000000E+02  0.51100000000E-03 0.  1.
    9900012    2    1    2    0    0 -0.21869985653E+02 -0.12114189294E+02 -0.19790564907E+02  0.59302010693E+02  0.50000121582E+02 0.  0.
         12    1    1    2    0    0  0.21869985653E+02  0.12114189294E+02  0.19790564907E+02  0.31885989307E+02  0.00000000000E+00 0. -1.
         11    1    3    3    0    0 -0.99298336689E+01 -0.21479810508E+01 -0.12464069085E+01  0.10235670458E+02  0.51100000000E-03 0. -1.
        -11    1    3    3    0    0 -0.23286641490E+02 -0.14347971934E+01 -0.24355294528E+02  0.33726943038E+02  0.51100000000E-03 0.  1.
         12    1    3    3    0    0  0.11346489506E+02 -0.85314110499E+01  0.58111365296E+01  0.15339397197E+02  0.00000000000E+00 0. -1.
</event>
<event>
 7    1  0.6316620E-012  0.5930207E+02  0.7816164E-02  0.1266604E+00
        -11   -1    0    0    0    0  0.00000000000E+00  0.00000000000E+00  0.45593999997E+02  0.45594000000E+02  0.51100000000E-03 0.  1.
         11   -1    0    0    0    0 -0.00000000000E+00 -0.00000000000E+00 -0.45593999997E+02  0.45594000000E+02  0.51100000000E-03 0. -1.
    9900012    2    1    2    0    0 -0.22373711928E+02 -0.12419796046E+02 -0.19023097208E+02  0.59302069770E+02  0.50000229323E+02 0.  0.
         12    1    1    2    0    0  0.22373711928E+02  0.12419796046E+02  0.19023097208E+02  0.31885930230E+02  0.00000000000E+00 0. -1.
         11    1    3    3    0    0  0.73511730277E+01 -0.91191217481E+01 -0.17648203728E+02  0.21181530196E+02  0.51100000000E-03 0. -1.
        -11    1    3    3    0    0 -0.16054373919E+02  0.19681421641E+01 -0.11900514671E+02  0.20080805641E+02  0.51100000000E-03 0.  1.
        -12    1    3    3    0    0 -0.13670511036E+02 -0.52688164620E+01  0.10525621191E+02  0.18039733933E+02  0.00000000000E+00 0.  1.
</event>
<event>
 7    1  0.6316620E-012  0.5930194E+02  0.7816164E-02  0.1266605E+00
        -11   -1    0    0    0    0  0.00000000000E+00  0.00000000000E+00  0.45593999997E+02  0.45594000000E+02  0.51100000000E-03 0. -1.
         11   -1    0    0    0    0 -0.00000000000E+00 -0.00000000000E+00 -0.45593999997E+02  0.45594000000E+02  0.51100000000E-03 0.  1.
    9900012    2    1    2    0    0 -0.28175122595E+02 -0.57052520900E+01 -0.13796132692E+02  0.59301941731E+02  0.49999995812E+02 0.  0.
         12    1    1    2    0    0  0.28175122595E+02  0.57052520900E+01  0.13796132692E+02  0.31886058269E+02  0.00000000000E+00 0. -1.
         11    1    3    3    0    0 -0.24715971560E+02 -0.49779244313E+01 -0.12970509687E+02  0.28353008722E+02  0.51100000000E-03 0.  1.
        -11    1    3    3    0    0 -0.73623712656E+01  0.13702326335E+02 -0.30051265175E+01  0.15842633723E+02  0.51100000000E-03 0. -1.
         12    1    3    3    0    0  0.39032202305E+01 -0.14429653994E+02  0.21795035121E+01  0.15106299286E+02  0.00000000000E+00 0. -1.
</event>
<event>
 7    1  0.6316620E-012  0.5930195E+02  0.7816164E-02  0.1266605E+00
        -11   -1    0    0    0    0  0.00000000000E+00  0.00000000000E+00  0.45593999997E+02  0.45594000000E+02  0.51100000000E-03 0.  1.
         11   -1    0    0    0    0 -0.00000000000E+00 -0.00000000000E+00 -0.45593999997E+02  0.45594000000E+02  0.51100000000E-03 0. -1.
    9900012    2    1    2    0    0  0.31142246620E+02 -0.68463469270E+01  0.88759708699E-01  0.59301954948E+02  0.50000019916E+02 0.  0.
         12    1    1    2    0    0 -0.31142246620E+02  0.68463469270E+01 -0.88759708699E-01  0.31886045052E+02  0.00000000000E+00 0. -1.
         11    1    3    3    0    0 -0.78369488847E+01  0.17201196840E+01 -0.49382219070E+01  0.94213913735E+01  0.51100000000E-03 0. -1.
        -11    1    3    3    0    0  0.10592145104E+02 -0.16624696459E+02  0.51412334893E+01  0.20371704698E+02  0.51100000000E-03 0.  1.
         12    1    3    3    0    0  0.28387050400E+02  0.80582298476E+01 -0.11425187362E+00  0.29508858876E+02  0.00000000000E+00 0. -1.
</event>
<event>
 7    1  0.6316620E-012  0.5930192E+02  0.7816164E-02  0.1266605E+00
        -11   -1    0    0    0    0  0.00000000000E+00  0.00000000000E+00  0.45593999997E+02  0.45594000000E+02  0.51100000000E-03 0.  1.
         11   -1    0    0    0    0 -0.00000000000E+00 -0.00000000000E+00 -0.45593999997E+02  0.45594000000E+02  0.51100000000E-03 0. -1.
    9900012    2    1    2    0    0  0.12227485205E+02 -0.21419404046E+02  0.20209402262E+02  0.59301918336E+02  0.49999953144E+02 0.  0.
         12    1    1    2    0    0 -0.12227485205E+02  0.21419404046E+02 -0.20209402262E+02  0.31886081664E+02  0.00000000000E+00 0. -1.
         11    1    3    3    0    0 -0.12347417972E+02 -0.46709074949E+01  0.26722771992E+01  0.13469119240E+02  0.51100000000E-03 0. -1.
        -11    1    3    3    0    0  0.45762700899E+00 -0.18106438663E+02  0.88889028868E+01  0.20175855331E+02  0.51100000000E-03 0.  1.
        -12    1    3    3    0    0  0.24117276168E+02  0.13579421114E+01  0.86482221754E+01  0.25656943765E+02  0.00000000000E+00 0.  1.
</event>
<event>
 7    1  0.6316620E-012  0.5930196E+02  0.7816164E-02  0.1266605E+00
        -11   -1    0    0    0    0  0.00000000000E+00  0.00000000000E+00  0.45593999997E+02  0.45594000000E+02  0.51100000000E-03 0.  1.
         11   -1    0    0    0    0 -0.00000000000E+00 -0.00000000000E+00 -0.45593999997E+02  0.45594000000E+02  0.51100000000E-03 0. -1.
    9900012    2    1    2    0    0  0.21742250422E+02 -0.95207597379E+01  0.21292006212E+02  0.59301955279E+02  0.50000020520E+02 0.  0.
         12    1    1    2    0    0 -0.21742250422E+02  0.95207597379E+01 -0.21292006212E+02  0.31886044721E+02  0.00000000000E+00 0. -1.
         11    1    3    3    0    0  0.70796330090E+01  0.52117448784E+01  0.11069899578E+02  0.14135988298E+02  0.51100000000E-03 0. -1.
        -11    1    3    3    0    0  0.25261774634E+01  0.86817721948E+01  0.15805171102E+02  0.18208738969E+02  0.51100000000E-03 0.  1.
         12    1    3    3    0    0  0.12136439949E+02 -0.23414276811E+02 -0.55830644684E+01  0.26957228012E+02  0.00000000000E+00 0. -1.
</event>
<event>
 7    1  0.6316620E-012  0.5930196E+02  0.7816164E-02  0.1266605E+00
        -11   -1    0    0    0    0  0.00000000000E+00  0.00000000000E+00  0.45593999997E+02  0.45594000000E+02  0.51100000000E-03 0.  1.
         11   -1    0    0    0    0 -0.00000000000E+00 -0.00000000000E+00 -0.45593999997E+02  0.45594000000E+02  0.51100000000E-03 0. -1.
    9900012    2    1    2    0    0  0.55969580708E+01  0.23764821338E+02  0.20509195350E+02  0.59301956552E+02  0.50000022841E+02 0.  0.
         12    1    1    2    0    0 -0.55969580708E+01 -0.23764821338E+02 -0.20509195350E+02  0.31886043448E+02  0.00000000000E+00 0. -1.
         11    1    3    3    0    0 -0.99304015113E+01  0.71417585473E+01  0.15403083689E+02  0.19669076661E+02  0.51100000000E-03 0. -1.
        -11    1    3    3    0    0 -0.89464757211E+00  0.21958037693E+02  0.39403739901E+01  0.22326718546E+02  0.51100000000E-03 0.  1.
        -12    1    3    3    0    0  0.16422007154E+02 -0.53349749016E+01  0.11657376711E+01  0.17306161345E+02  0.00000000000E+00 0.  1.
</event>
<event>
 7    1  0.6316620E-012  0.5930194E+02  0.7816164E-02  0.1266605E+00
        -11   -1    0    0    0    0  0.00000000000E+00  0.00000000000E+00  0.45593999997E+02  0.45594000000E+02  0.51100000000E-03 0.  1.
         11   -1    0    0    0    0 -0.00000000000E+00 -0.00000000000E+00 -0.45593999997E+02  0.45594000000E+02  0.51100000000E-03 0. -1.
    9900012    2    1    2    0    0 -0.12208357619E+01  0.26258565474E+02  0.18047667535E+02  0.59301937148E+02  0.49999987454E+02 0.  0.
         12    1    1    2    0    0  0.12208357619E+01 -0.26258565474E+02 -0.18047667535E+02  0.31886062852E+02  0.00000000000E+00 0. -1.
         11    1    3    3    0    0 -0.15454328302E+01  0.30981289805E+02  0.17751224958E+02  0.35739819087E+02  0.51100000000E-03 0. -1.
        -11    1    3    3    0    0  0.27401144972E+01  0.17449481145E+01  0.10640686097E+02  0.11125523460E+02  0.51100000000E-03 0.  1.
         12    1    3    3    0    0 -0.24155174289E+01 -0.64676724452E+01 -0.10344243519E+02  0.12436594602E+02  0.00000000000E+00 0. -1.
</event>
<event>
 7    1  0.6316620E-012  0.5930195E+02  0.7816164E-02  0.1266605E+00
        -11   -1    0    0    0    0  0.00000000000E+00  0.00000000000E+00  0.45593999997E+02  0.45594000000E+02  0.51100000000E-03 0.  1.
         11   -1    0    0    0    0 -0.00000000000E+00 -0.00000000000E+00 -0.45593999997E+02  0.45594000000E+02  0.51100000000E-03 0. -1.
    9900012    2    1    2    0    0  0.10067542922E+02 -0.11132237750E+02  0.28132504437E+02  0.59301953777E+02  0.50000017781E+02 0.  0.
         12    1    1    2    0    0 -0.10067542922E+02  0.11132237750E+02 -0.28132504437E+02  0.31886046223E+02  0.00000000000E+00 0. -1.
         11    1    3    3    0    0  0.43140542783E+00 -0.12091860633E+02  0.74094441637E+01  0.14187990248E+02  0.51100000000E-03 0. -1.
        -11    1    3    3    0    0 -0.12899367985E+02 -0.86448910091E+01  0.69740864972E+01  0.17022506211E+02  0.51100000000E-03 0.  1.
         12    1    3    3    0    0  0.22535505480E+02  0.96045138922E+01  0.13748973776E+02  0.28091457318E+02  0.00000000000E+00 0. -1.
</event>
<event>
 7    1  0.6316620E-012  0.5930194E+02  0.7816164E-02  0.1266605E+00
        -11   -1    0    0    0    0  0.00000000000E+00  0.00000000000E+00  0.45593999997E+02  0.45594000000E+02  0.51100000000E-03 0. -1.
         11   -1    0    0    0    0 -0.00000000000E+00 -0.00000000000E+00 -0.45593999997E+02  0.45594000000E+02  0.51100000000E-03 0.  1.
    9900012    2    1    2    0    0  0.28140021633E+02  0.66726427600E+01 -0.13428921164E+02  0.59301938742E+02  0.49999990361E+02 0.  0.
         12    1    1    2    0    0 -0.28140021633E+02 -0.66726427600E+01  0.13428921164E+02  0.31886061258E+02  0.00000000000E+00 0. -1.
         11    1    3    3    0    0  0.57452897174E+01 -0.98590693714E+01 -0.15555514457E+02  0.19292061401E+02  0.51100000000E-03 0. -1.
        -11    1    3    3    0    0 -0.33478314714E+01  0.12788721740E+02 -0.28537094262E+01  0.13524164930E+02  0.51100000000E-03 0.  1.
         12    1    3    3    0    0  0.25742563387E+02  0.37429903915E+01  0.49803027186E+01  0.26485712412E+02  0.00000000000E+00 0. -1.
</event>
<event>
 7    1  0.6316620E-012  0.5930195E+02  0.7816164E-02  0.1266605E+00
        -11   -1    0    0    0    0  0.00000000000E+00  0.00000000000E+00  0.45593999997E+02  0.45594000000E+02  0.51100000000E-03 0.  1.
         11   -1    0    0    0    0 -0.00000000000E+00 -0.00000000000E+00 -0.45593999997E+02  0.45594000000E+02  0.51100000000E-03 0. -1.
    9900012    2    1    2    0    0  0.29666697969E+02 -0.64674388323E+01  0.97354809701E+01  0.59301947827E+02  0.50000006929E+02 0.  0.
         12    1    1    2    0    0 -0.29666697969E+02  0.64674388323E+01 -0.97354809701E+01  0.31886052173E+02  0.00000000000E+00 0. -1.
         11    1    3    3    0    0  0.12628937756E+02  0.77032032257E-01 -0.17142843202E+01  0.12744990144E+02  0.51100000000E-03 0. -1.
        -11    1    3    3    0    0  0.22453124924E+02 -0.14713552877E+02  0.20059455904E+02  0.33511389534E+02  0.51100000000E-03 0.  1.
         12    1    3    3    0    0 -0.54153647103E+01  0.81690820121E+01 -0.86096906136E+01  0.13045568149E+02  0.00000000000E+00 0. -1.
</event>
<event>
 7    1  0.6316620E-012  0.5930197E+02  0.7816164E-02  0.1266605E+00
        -11   -1    0    0    0    0  0.00000000000E+00  0.00000000000E+00  0.45593999997E+02  0.45594000000E+02  0.51100000000E-03 0.  1.
         11   -1    0    0    0    0 -0.00000000000E+00 -0.00000000000E+00 -0.45593999997E+02  0.45594000000E+02  0.51100000000E-03 0. -1.
    9900012    2    1    2    0    0 -0.31652683616E+02  0.25316482196E+01  0.29013072004E+01  0.59301965341E+02  0.50000038871E+02 0.  0.
         12    1    1    2    0    0  0.31652683616E+02 -0.25316482196E+01 -0.29013072004E+01  0.31886034659E+02  0.00000000000E+00 0. -1.
         11    1    3    3    0    0 -0.24649226801E+02  0.24248122056E+00 -0.11363719910E+02  0.27143642156E+02  0.51100000000E-03 0. -1.
        -11    1    3    3    0    0  0.34966537351E+01  0.10463147875E+02 -0.19281518892E+01  0.11199188398E+02  0.51100000000E-03 0.  1.
        -12    1    3    3    0    0 -0.10500110550E+02 -0.81739808763E+01  0.16193179000E+02  0.20959134788E+02  0.00000000000E+00 0.  1.
</event>
<event>
 7    1  0.6316620E-012  0.5930194E+02  0.7816164E-02  0.1266605E+00
        -11   -1    0    0    0    0  0.00000000000E+00  0.00000000000E+00  0.45593999997E+02  0.45594000000E+02  0.51100000000E-03 0. -1.
         11   -1    0    0    0    0 -0.00000000000E+00 -0.00000000000E+00 -0.45593999997E+02  0.45594000000E+02  0.51100000000E-03 0.  1.
    9900012    2    1    2    0    0 -0.41019422429E+01 -0.25945319858E+02 -0.18075820687E+02  0.59301939626E+02  0.49999991972E+02 0.  0.
         12    1    1    2    0    0  0.41019422429E+01  0.25945319858E+02  0.18075820687E+02  0.31886060374E+02  0.00000000000E+00 0. -1.
         11    1    3    3    0    0  0.39854004286E+01 -0.44504064666E+01 -0.10807619682E+02  0.12348853297E+02  0.51100000000E-03 0. -1.
        -11    1    3    3    0    0 -0.16940332971E+02  0.43385752138E+01 -0.88499870046E+01  0.19598989420E+02  0.51100000000E-03 0.  1.
         12    1    3    3    0    0  0.88529902995E+01 -0.25833488605E+02  0.15817859993E+01  0.27354096909E+02  0.00000000000E+00 0. -1.
</event>
<event>
 7    1  0.6316620E-012  0.5930196E+02  0.7816164E-02  0.1266605E+00
        -11   -1    0    0    0    0  0.00000000000E+00  0.00000000000E+00  0.45593999997E+02  0.45594000000E+02  0.51100000000E-03 0.  1.
         11   -1    0    0    0    0 -0.00000000000E+00 -0.00000000000E+00 -0.45593999997E+02  0.45594000000E+02  0.51100000000E-03 0. -1.
    9900012    2    1    2    0    0 -0.12488022898E+02 -0.14976091497E+02  0.25228666161E+02  0.59301958717E+02  0.50000026790E+02 0.  0.
         12    1    1    2    0    0  0.12488022898E+02  0.14976091497E+02 -0.25228666161E+02  0.31886041283E+02  0.00000000000E+00 0. -1.
         11    1    3    3    0    0  0.13526429340E+01 -0.10469034971E+02  0.30232328554E+01  0.10980449594E+02  0.51100000000E-03 0. -1.
        -11    1    3    3    0    0 -0.21599315524E+02 -0.15321702583E+02  0.22876714153E+02  0.34994700339E+02  0.51100000000E-03 0.  1.
         12    1    3    3    0    0  0.77586496913E+01  0.10814646057E+02 -0.67128084778E+00  0.13326808784E+02  0.00000000000E+00 0. -1.
</event>
<event>
 7    1  0.6316620E-012  0.5930195E+02  0.7816164E-02  0.1266605E+00
        -11   -1    0    0    0    0  0.00000000000E+00  0.00000000000E+00  0.45593999997E+02  0.45594000000E+02  0.51100000000E-03 0. -1.
         11   -1    0    0    0    0 -0.00000000000E+00 -0.00000000000E+00 -0.45593999997E+02  0.45594000000E+02  0.51100000000E-03 0.  1.
    9900012    2    1    2    0    0  0.18416673171E+02 -0.24353947955E+02 -0.91886658883E+01  0.59301949563E+02  0.50000010094E+02 0.  0.
         12    1    1    2    0    0 -0.18416673171E+02  0.24353947955E+02  0.91886658883E+01  0.31886050437E+02  0.00000000000E+00 0. -1.
         11    1    3    3    0    0 -0.14430149014E+02 -0.17078273507E+01  0.60346663876E+00  0.14543384993E+02  0.51100000000E-03 0. -1.
        -11    1    3    3    0    0  0.16237331042E-01 -0.20503900405E+01 -0.53735213547E+01  0.57514428606E+01  0.51100000000E-03 0.  1.
         12    1    3    3    0    0  0.32830584854E+02 -0.20595730564E+02 -0.44186111724E+01  0.39007121709E+02  0.00000000000E+00 0. -1.
</event>
<event>
 7    1  0.6316620E-012  0.5930196E+02  0.7816164E-02  0.1266605E+00
        -11   -1    0    0    0    0  0.00000000000E+00  0.00000000000E+00  0.45593999997E+02  0.45594000000E+02  0.51100000000E-03 0.  1.
         11   -1    0    0    0    0 -0.00000000000E+00 -0.00000000000E+00 -0.45593999997E+02  0.45594000000E+02  0.51100000000E-03 0. -1.
    9900012    2    1    2    0    0  0.14962620680E+02  0.48113416912E+01  0.27743297690E+02  0.59301959274E+02  0.50000027805E+02 0.  0.
         12    1    1    2    0    0 -0.14962620680E+02 -0.48113416912E+01 -0.27743297690E+02  0.31886040726E+02  0.00000000000E+00 0. -1.
         11    1    3    3    0    0  0.21098194195E+02  0.11111228831E+01  0.21947177988E+02  0.30463864073E+02  0.51100000000E-03 0. -1.
        -11    1    3    3    0    0  0.32703409764E+01  0.11463496352E+02  0.10382510794E+02  0.15808333542E+02  0.51100000000E-03 0.  1.
        -12    1    3    3    0    0 -0.94059144915E+01 -0.77632775439E+01 -0.45863910918E+01  0.13029761659E+02  0.00000000000E+00 0.  1.
</event>
<event>
 7    1  0.6316620E-012  0.5930193E+02  0.7816164E-02  0.1266605E+00
        -11   -1    0    0    0    0  0.00000000000E+00  0.00000000000E+00  0.45593999997E+02  0.45594000000E+02  0.51100000000E-03 0.  1.
         11   -1    0    0    0    0 -0.00000000000E+00 -0.00000000000E+00 -0.45593999997E+02  0.45594000000E+02  0.51100000000E-03 0. -1.
    9900012    2    1    2    0    0 -0.22974270893E+02  0.13340112277E+02  0.17633662551E+02  0.59301925083E+02  0.49999965450E+02 0.  0.
         12    1    1    2    0    0  0.22974270893E+02 -0.13340112277E+02 -0.17633662551E+02  0.31886074917E+02  0.00000000000E+00 0. -1.
         11    1    3    3    0    0  0.78481885040E+01  0.10894977101E+02 -0.14389201027E+01  0.13504261555E+02  0.51100000000E-03 0. -1.
        -11    1    3    3    0    0 -0.12871552419E+02  0.85434586643E+01 -0.39773691091E+01  0.15952649088E+02  0.51100000000E-03 0.  1.
        -12    1    3    3    0    0 -0.17950906978E+02 -0.60983234878E+01  0.23049951762E+02  0.29845014440E+02  0.00000000000E+00 0.  1.
</event>
<event>
 7    1  0.6316620E-012  0.5930190E+02  0.7816164E-02  0.1266605E+00
        -11   -1    0    0    0    0  0.00000000000E+00  0.00000000000E+00  0.45593999997E+02  0.45594000000E+02  0.51100000000E-03 0. -1.
         11   -1    0    0    0    0 -0.00000000000E+00 -0.00000000000E+00 -0.45593999997E+02  0.45594000000E+02  0.51100000000E-03 0.  1.
    9900012    2    1    2    0    0  0.62024821543E+01 -0.18175996035E+02 -0.25453595395E+02  0.59301903732E+02  0.49999926509E+02 0.  0.
         12    1    1    2    0    0 -0.62024821543E+01  0.18175996035E+02  0.25453595395E+02  0.31886096268E+02  0.00000000000E+00 0. -1.
         11    1    3    3    0    0  0.12434851145E+02 -0.18766497557E+02 -0.69104459308E+01  0.23549123482E+02  0.51100000000E-03 0. -1.
        -11    1    3    3    0    0  0.33026993805E+01 -0.57510457585E+01  0.58257972798E+01  0.88273588757E+01  0.51100000000E-03 0.  1.
        -12    1    3    3    0    0 -0.95350683714E+01  0.63415472806E+01 -0.24368946744E+02  0.26925421374E+02  0.00000000000E+00 0.  1.
</event>
<event>
 7    1  0.6316620E-012  0.5930190E+02  0.7816164E-02  0.1266605E+00
        -11   -1    0    0    0    0  0.00000000000E+00  0.00000000000E+00  0.45593999997E+02  0.45594000000E+02  0.51100000000E-03 0.  1.
         11   -1    0    0    0    0 -0.00000000000E+00 -0.00000000000E+00 -0.45593999997E+02  0.45594000000E+02  0.51100000000E-03 0. -1.
    9900012    2    1    2    0    0 -0.15419192071E+02  0.24479619849E+02  0.13405983448E+02  0.59301895436E+02  0.49999911380E+02 0.  0.
         12    1    1    2    0    0  0.15419192071E+02 -0.24479619849E+02 -0.13405983448E+02  0.31886104564E+02  0.00000000000E+00 0. -1.
         11    1    3    3    0    0 -0.60935691364E+01  0.10719042856E+01 -0.10182351524E+02  0.11914732327E+02  0.51100000000E-03 0. -1.
        -11    1    3    3    0    0 -0.19488923532E+02  0.10834802864E+02  0.51887272050E+01  0.22893972652E+02  0.51100000000E-03 0.  1.
        -12    1    3    3    0    0  0.10163300597E+02  0.12572912699E+02  0.18399607767E+02  0.24493190457E+02  0.00000000000E+00 0.  1.
</event>
<event>
 7    1  0.6316620E-012  0.5930198E+02  0.7816164E-02  0.1266605E+00
        -11   -1    0    0    0    0  0.00000000000E+00  0.00000000000E+00  0.45593999997E+02  0.45594000000E+02  0.51100000000E-03 0. -1.
         11   -1    0    0    0    0 -0.00000000000E+00 -0.00000000000E+00 -0.45593999997E+02  0.45594000000E+02  0.51100000000E-03 0.  1.
    9900012    2    1    2    0    0 -0.26151762510E+02  0.11630914776E+02 -0.14054375057E+02  0.59301979252E+02  0.50000064240E+02 0.  0.
         12    1    1    2    0    0  0.26151762510E+02 -0.11630914776E+02  0.14054375057E+02  0.31886020748E+02  0.00000000000E+00 0. -1.
         11    1    3    3    0    0 -0.32678936213E+02  0.52069670305E+01 -0.35267986314E+01  0.33278576991E+02  0.51100000000E-03 0. -1.
        -11    1    3    3    0    0  0.12500881489E+01 -0.81194064680E+01 -0.48708712333E+01  0.95505428435E+01  0.51100000000E-03 0.  1.
        -12    1    3    3    0    0  0.52770855549E+01  0.14543354214E+02 -0.56567051927E+01  0.16472859417E+02  0.00000000000E+00 0.  1.
</event>
<event>
 7    1  0.6316620E-012  0.5930193E+02  0.7816164E-02  0.1266605E+00
        -11   -1    0    0    0    0  0.00000000000E+00  0.00000000000E+00  0.45593999997E+02  0.45594000000E+02  0.51100000000E-03 0. -1.
         11   -1    0    0    0    0 -0.00000000000E+00 -0.00000000000E+00 -0.45593999997E+02  0.45594000000E+02  0.51100000000E-03 0.  1.
    9900012    2    1    2    0    0 -0.11526190462E+02  0.26351270947E+02 -0.13765129346E+02  0.59301931992E+02  0.49999978050E+02 0.  0.
         12    1    1    2    0    0  0.11526190462E+02 -0.26351270947E+02  0.13765129346E+02  0.31886068008E+02  0.00000000000E+00 0. -1.
         11    1    3    3    0    0 -0.17847224354E+02 -0.50537616749E+01 -0.10571587707E+02  0.21349997450E+02  0.51100000000E-03 0. -1.
        -11    1    3    3    0    0  0.46369535395E+01  0.40008586361E+01  0.64095160463E+01  0.88651059871E+01  0.51100000000E-03 0.  1.
        -12    1    3    3    0    0  0.16840803527E+01  0.27404173986E+02 -0.96030576851E+01  0.29086828555E+02  0.00000000000E+00 0.  1.
</event>
<event>
 7    1  0.6316620E-012  0.5930210E+02  0.7816164E-02  0.1266604E+00
        -11   -1    0    0    0    0  0.00000000000E+00  0.00000000000E+00  0.45593999997E+02  0.45594000000E+02  0.51100000000E-03 0.  1.
         11   -1    0    0    0    0 -0.00000000000E+00 -0.00000000000E+00 -0.45593999997E+02  0.45594000000E+02  0.51100000000E-03 0. -1.
    9900012    2    1    2    0    0  0.74035760737E+01 -0.30699292766E+02  0.44103331749E+01  0.59302101021E+02  0.50000286317E+02 0.  0.
         12    1    1    2    0    0 -0.74035760737E+01  0.30699292766E+02 -0.44103331749E+01  0.31885898979E+02  0.00000000000E+00 0. -1.
         11    1    3    3    0    0 -0.98508128471E+01 -0.17410445211E+02 -0.53246843747E+01  0.20700588884E+02  0.51100000000E-03 0. -1.
        -11    1    3    3    0    0  0.82295770385E+01 -0.20731232712E+02 -0.15354936890E+01  0.22357721018E+02  0.51100000000E-03 0.  1.
         12    1    3    3    0    0  0.90248118824E+01  0.74423851572E+01  0.11270511239E+02  0.16243791119E+02  0.00000000000E+00 0. -1.
</event>
<event>
 7    1  0.6316620E-012  0.5930186E+02  0.7816164E-02  0.1266605E+00
        -11   -1    0    0    0    0  0.00000000000E+00  0.00000000000E+00  0.45593999997E+02  0.45594000000E+02  0.51100000000E-03 0.  1.
         11   -1    0    0    0    0 -0.00000000000E+00 -0.00000000000E+00 -0.45593999997E+02  0.45594000000E+02  0.51100000000E-03 0. -1.
    9900012    2    1    2    0    0 -0.27162227643E+02  0.77250120889E+01  0.14807540619E+02  0.59301863805E+02  0.49999853692E+02 0.  0.
         12    1    1    2    0    0  0.27162227643E+02 -0.77250120889E+01 -0.14807540619E+02  0.31886136195E+02  0.00000000000E+00 0. -1.
         11    1    3    3    0    0 -0.28037565330E+02  0.85085260137E+01 -0.93607305649E+00  0.29315120972E+02  0.51100000000E-03 0. -1.
        -11    1    3    3    0    0 -0.12316542255E+02 -0.27356557556E+00  0.75543262119E+01  0.14451293922E+02  0.51100000000E-03 0.  1.
        -12    1    3    3    0    0  0.13191879942E+02 -0.50994834918E+00  0.81892874633E+01  0.15535448911E+02  0.00000000000E+00 0.  1.
</event>
<event>
 7    1  0.6316620E-012  0.5930217E+02  0.7816164E-02  0.1266604E+00
        -11   -1    0    0    0    0  0.00000000000E+00  0.00000000000E+00  0.45593999997E+02  0.45594000000E+02  0.51100000000E-03 0. -1.
         11   -1    0    0    0    0 -0.00000000000E+00 -0.00000000000E+00 -0.45593999997E+02  0.45594000000E+02  0.51100000000E-03 0.  1.
    9900012    2    1    2    0    0 -0.24947416660E+02  0.17594766124E+02 -0.92063393459E+01  0.59302171219E+02  0.50000414340E+02 0.  0.
         12    1    1    2    0    0  0.24947416660E+02 -0.17594766124E+02  0.92063393459E+01  0.31885828781E+02  0.00000000000E+00 0. -1.
         11    1    3    3    0    0 -0.14946975215E+02  0.69685526705E+01 -0.12387474924E+02  0.20625768583E+02  0.51100000000E-03 0.  1.
        -11    1    3    3    0    0  0.82790891319E+01 -0.82466265575E+01 -0.21111878827E+01  0.11874648667E+02  0.51100000000E-03 0. -1.
         12    1    3    3    0    0 -0.18279530576E+02  0.18872840011E+02  0.52923234602E+01  0.26801753968E+02  0.00000000000E+00 0. -1.
</event>
<event>
 7    1  0.6316620E-012  0.5930216E+02  0.7816164E-02  0.1266604E+00
        -11   -1    0    0    0    0  0.00000000000E+00  0.00000000000E+00  0.45593999997E+02  0.45594000000E+02  0.51100000000E-03 0. -1.
         11   -1    0    0    0    0 -0.00000000000E+00 -0.00000000000E+00 -0.45593999997E+02  0.45594000000E+02  0.51100000000E-03 0.  1.
    9900012    2    1    2    0    0 -0.29839688363E+02 -0.11229440273E+02 -0.44673578027E+00  0.59302158262E+02  0.50000390711E+02 0.  0.
         12    1    1    2    0    0  0.29839688363E+02  0.11229440273E+02  0.44673578027E+00  0.31885841738E+02  0.00000000000E+00 0. -1.
         11    1    3    3    0    0 -0.13934878140E+02 -0.13220212214E+01  0.18287460142E+02  0.23029541193E+02  0.51100000000E-03 0. -1.
        -11    1    3    3    0    0 -0.53754085826E+01 -0.14370706418E+02 -0.12680428831E+01  0.15395458856E+02  0.51100000000E-03 0.  1.
         12    1    3    3    0    0 -0.10529401641E+02  0.44632873664E+01 -0.17466153039E+02  0.20877158212E+02  0.00000000000E+00 0. -1.
</event>
<event>
 7    1  0.6316620E-012  0.5930193E+02  0.7816164E-02  0.1266605E+00
        -11   -1    0    0    0    0  0.00000000000E+00  0.00000000000E+00  0.45593999997E+02  0.45594000000E+02  0.51100000000E-03 0.  1.
         11   -1    0    0    0    0 -0.00000000000E+00 -0.00000000000E+00 -0.45593999997E+02  0.45594000000E+02  0.51100000000E-03 0. -1.
    9900012    2    1    2    0    0  0.15315210271E+02  0.20845824787E+02  0.18644505439E+02  0.59301926869E+02  0.49999968706E+02 0.  0.
         12    1    1    2    0    0 -0.15315210271E+02 -0.20845824787E+02 -0.18644505439E+02  0.31886073131E+02  0.00000000000E+00 0. -1.
         11    1    3    3    0    0 -0.12610597742E+01  0.20312427292E+02  0.15966152053E+02  0.25867025068E+02  0.51100000000E-03 0. -1.
        -11    1    3    3    0    0  0.11490271352E+01  0.12092985569E+02  0.65075295536E+01  0.13780729461E+02  0.51100000000E-03 0.  1.
        -12    1    3    3    0    0  0.15427242910E+02 -0.11559588074E+02 -0.38291761679E+01  0.19654172340E+02  0.00000000000E+00 0.  1.
</event>
<event>
 7    1  0.6316620E-012  0.5930193E+02  0.7816164E-02  0.1266605E+00
        -11   -1    0    0    0    0  0.00000000000E+00  0.00000000000E+00  0.45593999997E+02  0.45594000000E+02  0.51100000000E-03 0.  1.
         11   -1    0    0    0    0 -0.00000000000E+00 -0.00000000000E+00 -0.45593999997E+02  0.45594000000E+02  0.51100000000E-03 0. -1.
    9900012    2    1    2    0    0  0.31211996619E+02  0.18278832463E+01  0.62602958292E+01  0.59301934172E+02  0.49999982026E+02 0.  0.
         12    1    1    2    0    0 -0.31211996619E+02 -0.18278832463E+01 -0.62602958292E+01  0.31886065828E+02  0.00000000000E+00 0. -1.
         11    1    3    3    0    0  0.21504057225E+02  0.14235943243E+02 -0.38128139709E+01  0.26069601221E+02  0.51100000000E-03 0.  1.
        -11    1    3    3    0    0  0.13340006765E+02 -0.19419563859E+02  0.58408485569E+01  0.24273251803E+02  0.51100000000E-03 0. -1.
        -12    1    3    3    0    0 -0.36320673708E+01  0.70115038623E+01  0.42322612432E+01  0.89590811486E+01  0.00000000000E+00 0.  1.
</event>
<event>
 7    1  0.6316620E-012  0.5930194E+02  0.7816164E-02  0.1266605E+00
        -11   -1    0    0    0    0  0.00000000000E+00  0.00000000000E+00  0.45593999997E+02  0.45594000000E+02  0.51100000000E-03 0.  1.
         11   -1    0    0    0    0 -0.00000000000E+00 -0.00000000000E+00 -0.45593999997E+02  0.45594000000E+02  0.51100000000E-03 0. -1.
    9900012    2    1    2    0    0 -0.28918671010E+02  0.13344599288E+02  0.15339654805E+01  0.59301938574E+02  0.49999990054E+02 0.  0.
         12    1    1    2    0    0  0.28918671010E+02 -0.13344599288E+02 -0.15339654805E+01  0.31886061426E+02  0.00000000000E+00 0. -1.
         11    1    3    3    0    0  0.39975439710E+01  0.79755696535E+01 -0.73726770664E+00  0.89517391065E+01  0.51100000000E-03 0. -1.
        -11    1    3    3    0    0 -0.11123691715E+02 -0.58651604633E+01 -0.15580281750E+02  0.20022032971E+02  0.51100000000E-03 0.  1.
        -12    1    3    3    0    0 -0.21792523266E+02  0.11234190098E+02  0.17851514937E+02  0.30328166496E+02  0.00000000000E+00 0.  1.
</event>
<event>
 7    1  0.6316620E-012  0.5930176E+02  0.7816164E-02  0.1266605E+00
        -11   -1    0    0    0    0  0.00000000000E+00  0.00000000000E+00  0.45593999997E+02  0.45594000000E+02  0.51100000000E-03 0.  1.
         11   -1    0    0    0    0 -0.00000000000E+00 -0.00000000000E+00 -0.45593999997E+02  0.45594000000E+02  0.51100000000E-03 0. -1.
    9900012    2    1    2    0    0  0.71452694343E+01 -0.25151970458E+02  0.18249810401E+02  0.59301763582E+02  0.49999670910E+02 0.  0.
         12    1    1    2    0    0 -0.71452694343E+01  0.25151970458E+02 -0.18249810401E+02  0.31886236418E+02  0.00000000000E+00 0. -1.
         11    1    3    3    0    0  0.14616298196E+01 -0.61073645114E+00 -0.16906012013E+01  0.23167851487E+01  0.51100000000E-03 0. -1.
        -11    1    3    3    0    0  0.14966575002E+02  0.81674497621E+01  0.14840607181E+02  0.22604185999E+02  0.51100000000E-03 0.  1.
        -12    1    3    3    0    0 -0.92829353876E+01 -0.32708683769E+02  0.50998044211E+01  0.34380792435E+02  0.00000000000E+00 0.  1.
</event>
<event>
 7    1  0.6316620E-012  0.5930195E+02  0.7816164E-02  0.1266605E+00
        -11   -1    0    0    0    0  0.00000000000E+00  0.00000000000E+00  0.45593999997E+02  0.45594000000E+02  0.51100000000E-03 0.  1.
         11   -1    0    0    0    0 -0.00000000000E+00 -0.00000000000E+00 -0.45593999997E+02  0.45594000000E+02  0.51100000000E-03 0. -1.
    9900012    2    1    2    0    0  0.21046249415E+02  0.35248339923E+01  0.23692845055E+02  0.59301953273E+02  0.50000016860E+02 0.  0.
         12    1    1    2    0    0 -0.21046249415E+02 -0.35248339923E+01 -0.23692845055E+02  0.31886046727E+02  0.00000000000E+00 0. -1.
         11    1    3    3    0    0 -0.56875758698E+00 -0.97698372157E+00 -0.73511521822E+00  0.13484721095E+01  0.51100000000E-03 0. -1.
        -11    1    3    3    0    0  0.10906636349E+02 -0.16663237622E+02  0.27586821278E+02  0.34024269470E+02  0.51100000000E-03 0.  1.
         12    1    3    3    0    0  0.10708370653E+02  0.21165055335E+02 -0.31588610053E+01  0.23929211693E+02  0.00000000000E+00 0. -1.
</event>
<event>
 7    1  0.6316620E-012  0.5930195E+02  0.7816164E-02  0.1266605E+00
        -11   -1    0    0    0    0  0.00000000000E+00  0.00000000000E+00  0.45593999997E+02  0.45594000000E+02  0.51100000000E-03 0.  1.
         11   -1    0    0    0    0 -0.00000000000E+00 -0.00000000000E+00 -0.45593999997E+02  0.45594000000E+02  0.51100000000E-03 0. -1.
    9900012    2    1    2    0    0 -0.13019297930E+00  0.75665486779E+01  0.30975004193E+02  0.59301945151E+02  0.50000002048E+02 0.  0.
         12    1    1    2    0    0  0.13019297930E+00 -0.75665486779E+01 -0.30975004193E+02  0.31886054849E+02  0.00000000000E+00 0. -1.
         11    1    3    3    0    0  0.61248002183E+01  0.10887620539E+01 -0.94813245725E+01  0.11339933705E+02  0.51100000000E-03 0. -1.
        -11    1    3    3    0    0  0.68344929796E+01 -0.87395201248E+00  0.28253730911E+01  0.74469335819E+01  0.51100000000E-03 0.  1.
         12    1    3    3    0    0 -0.13089486177E+02  0.73517386364E+01  0.37630955674E+02  0.40515077864E+02  0.00000000000E+00 0. -1.
</event>
<event>
 7    1  0.6316620E-012  0.5930186E+02  0.7816164E-02  0.1266605E+00
        -11   -1    0    0    0    0  0.00000000000E+00  0.00000000000E+00  0.45593999997E+02  0.45594000000E+02  0.51100000000E-03 0.  1.
         11   -1    0    0    0    0 -0.00000000000E+00 -0.00000000000E+00 -0.45593999997E+02  0.45594000000E+02  0.51100000000E-03 0. -1.
    9900012    2    1    2    0    0  0.11545600964E+02 -0.16775046587E+02  0.24536147677E+02  0.59301864573E+02  0.49999855094E+02 0.  0.
         12    1    1    2    0    0 -0.11545600964E+02  0.16775046587E+02 -0.24536147677E+02  0.31886135427E+02  0.00000000000E+00 0. -1.
         11    1    3    3    0    0  0.15004137199E+02  0.63393829408E+01  0.17871433340E+02  0.24180571520E+02  0.51100000000E-03 0. -1.
        -11    1    3    3    0    0  0.46104339865E+01 -0.14090419265E+02  0.14470897529E+02  0.20717212462E+02  0.51100000000E-03 0.  1.
         12    1    3    3    0    0 -0.80689702223E+01 -0.90240102628E+01 -0.78061831916E+01  0.14404080592E+02  0.00000000000E+00 0. -1.
</event>
<event>
 7    1  0.6316620E-012  0.5930189E+02  0.7816164E-02  0.1266605E+00
        -11   -1    0    0    0    0  0.00000000000E+00  0.00000000000E+00  0.45593999997E+02  0.45594000000E+02  0.51100000000E-03 0. -1.
         11   -1    0    0    0    0 -0.00000000000E+00 -0.00000000000E+00 -0.45593999997E+02  0.45594000000E+02  0.51100000000E-03 0.  1.
    9900012    2    1    2    0    0  0.12774027856E+02 -0.27551475755E+02 -0.97192715775E+01  0.59301892619E+02  0.49999906242E+02 0.  0.
         12    1    1    2    0    0 -0.12774027856E+02  0.27551475755E+02  0.97192715775E+01  0.31886107381E+02  0.00000000000E+00 0. -1.
         11    1    3    3    0    0  0.18155024991E+02 -0.35657155472E+02  0.23033671409E+01  0.40079211185E+02  0.51100000000E-03 0. -1.
        -11    1    3    3    0    0  0.16830178441E+01  0.61615449465E+01 -0.17823680373E+01  0.66312910714E+01  0.51100000000E-03 0.  1.
        -12    1    3    3    0    0 -0.70640149791E+01  0.19441347708E+01 -0.10240270681E+02  0.12591390362E+02  0.00000000000E+00 0.  1.
</event>
<event>
 7    1  0.6316620E-012  0.5930193E+02  0.7816164E-02  0.1266605E+00
        -11   -1    0    0    0    0  0.00000000000E+00  0.00000000000E+00  0.45593999997E+02  0.45594000000E+02  0.51100000000E-03 0.  1.
         11   -1    0    0    0    0 -0.00000000000E+00 -0.00000000000E+00 -0.45593999997E+02  0.45594000000E+02  0.51100000000E-03 0. -1.
    9900012    2    1    2    0    0 -0.22228239068E+02 -0.17990087743E+02  0.14106165530E+02  0.59301925061E+02  0.49999965409E+02 0.  0.
         12    1    1    2    0    0  0.22228239068E+02  0.17990087743E+02 -0.14106165530E+02  0.31886074939E+02  0.00000000000E+00 0. -1.
         11    1    3    3    0    0 -0.86696130633E+01 -0.40464117772E+01 -0.56795557805E+01  0.11126229957E+02  0.51100000000E-03 0. -1.
        -11    1    3    3    0    0 -0.57308112398E+00 -0.18241474711E+02  0.27093954254E+02  0.32667448308E+02  0.51100000000E-03 0.  1.
         12    1    3    3    0    0 -0.12985544881E+02  0.42977987457E+01 -0.73082329433E+01  0.15508246795E+02  0.00000000000E+00 0. -1.
</event>
<event>
 7    1  0.6316620E-012  0.5930196E+02  0.7816164E-02  0.1266605E+00
        -11   -1    0    0    0    0  0.00000000000E+00  0.00000000000E+00  0.45593999997E+02  0.45594000000E+02  0.51100000000E-03 0.  1.
         11   -1    0    0    0    0 -0.00000000000E+00 -0.00000000000E+00 -0.45593999997E+02  0.45594000000E+02  0.51100000000E-03 0. -1.
    9900012    2    1    2    0    0  0.18760183648E+02 -0.14593474506E+02  0.21255724062E+02  0.59301956124E+02  0.50000022061E+02 0.  0.
         12    1    1    2    0    0 -0.18760183648E+02  0.14593474506E+02 -0.21255724062E+02  0.31886043876E+02  0.00000000000E+00 0. -1.
         11    1    3    3    0    0 -0.94591214330E+01 -0.10286486075E+02  0.54353035102E+01  0.14994308872E+02  0.51100000000E-03 0. -1.
        -11    1    3    3    0    0  0.26453979800E+02 -0.12487164267E+02  0.35676976523E+01  0.29469828393E+02  0.51100000000E-03 0.  1.
         12    1    3    3    0    0  0.17653252813E+01  0.81801758360E+01  0.12252722899E+02  0.14837818859E+02  0.00000000000E+00 0. -1.
</event>
<event>
 7    1  0.6316620E-012  0.5930195E+02  0.7816164E-02  0.1266605E+00
        -11   -1    0    0    0    0  0.00000000000E+00  0.00000000000E+00  0.45593999997E+02  0.45594000000E+02  0.51100000000E-03 0.  1.
         11   -1    0    0    0    0 -0.00000000000E+00 -0.00000000000E+00 -0.45593999997E+02  0.45594000000E+02  0.51100000000E-03 0. -1.
    9900012    2    1    2    0    0  0.70154390917E+01  0.23663262026E+02  0.20187964821E+02  0.59301948520E+02  0.50000008192E+02 0.  0.
         12    1    1    2    0    0 -0.70154390917E+01 -0.23663262026E+02 -0.20187964821E+02  0.31886051480E+02  0.00000000000E+00 0. -1.
         11    1    3    3    0    0 -0.57835078215E+01  0.46791373898E+01  0.69698159506E+01  0.10194195607E+02  0.51100000000E-03 0. -1.
        -11    1    3    3    0    0  0.23690652275E+02  0.54200177967E+01  0.18922306572E+02  0.30800605261E+02  0.51100000000E-03 0.  1.
         12    1    3    3    0    0 -0.10891705362E+02  0.13564106840E+02 -0.57041577019E+01  0.18307147652E+02  0.00000000000E+00 0. -1.
</event>
<event>
 7    1  0.6316620E-012  0.5930212E+02  0.7816164E-02  0.1266604E+00
        -11   -1    0    0    0    0  0.00000000000E+00  0.00000000000E+00  0.45593999997E+02  0.45594000000E+02  0.51100000000E-03 0. -1.
         11   -1    0    0    0    0 -0.00000000000E+00 -0.00000000000E+00 -0.45593999997E+02  0.45594000000E+02  0.51100000000E-03 0.  1.
    9900012    2    1    2    0    0  0.12393940682E+02  0.53849898790E+01 -0.28880819750E+02  0.59302115489E+02  0.50000312703E+02 0.  0.
         12    1    1    2    0    0 -0.12393940682E+02 -0.53849898790E+01  0.28880819750E+02  0.31885884511E+02  0.00000000000E+00 0. -1.
         11    1    3    3    0    0 -0.23942733293E+01  0.36612728511E+01  0.22909515717E+01  0.49382105089E+01  0.51100000000E-03 0. -1.
        -11    1    3    3    0    0  0.22495799574E+01  0.18972899731E+02 -0.26269826809E+02  0.32482846782E+02  0.51100000000E-03 0.  1.
        -12    1    3    3    0    0  0.12538634053E+02 -0.17249182703E+02 -0.49019445129E+01  0.21881058198E+02  0.00000000000E+00 0.  1.
</event>
<event>
 7    1  0.6316620E-012  0.5930193E+02  0.7816164E-02  0.1266605E+00
        -11   -1    0    0    0    0  0.00000000000E+00  0.00000000000E+00  0.45593999997E+02  0.45594000000E+02  0.51100000000E-03 0.  1.
         11   -1    0    0    0    0 -0.00000000000E+00 -0.00000000000E+00 -0.45593999997E+02  0.45594000000E+02  0.51100000000E-03 0. -1.
    9900012    2    1    2    0    0  0.13777295612E+02 -0.20852331888E+02  0.19801201802E+02  0.59301933884E+02  0.49999981501E+02 0.  0.
         12    1    1    2    0    0 -0.13777295612E+02  0.20852331888E+02 -0.19801201802E+02  0.31886066116E+02  0.00000000000E+00 0. -1.
         11    1    3    3    0    0  0.14321145100E+02 -0.14909238066E+02  0.39826558722E+01  0.21053316241E+02  0.51100000000E-03 0.  1.
        -11    1    3    3    0    0 -0.12293319191E+02 -0.36267376057E+01 -0.53806196432E+01  0.13900719060E+02  0.51100000000E-03 0. -1.
         12    1    3    3    0    0  0.11749469703E+02 -0.23163562161E+01  0.21199165573E+02  0.24347898583E+02  0.00000000000E+00 0. -1.
</event>
<event>
 7    1  0.6316620E-012  0.5930193E+02  0.7816164E-02  0.1266605E+00
        -11   -1    0    0    0    0  0.00000000000E+00  0.00000000000E+00  0.45593999997E+02  0.45594000000E+02  0.51100000000E-03 0.  1.
         11   -1    0    0    0    0 -0.00000000000E+00 -0.00000000000E+00 -0.45593999997E+02  0.45594000000E+02  0.51100000000E-03 0. -1.
    9900012    2    1    2    0    0  0.40406854596E+01  0.31449329559E+02 -0.33666181327E+01  0.59301928019E+02  0.49999970805E+02 0.  0.
         12    1    1    2    0    0 -0.40406854596E+01 -0.31449329559E+02  0.33666181327E+01  0.31886071981E+02  0.00000000000E+00 0. -1.
         11    1    3    3    0    0 -0.72671389840E-01  0.20120474863E+02  0.10108263980E+02  0.22517011143E+02  0.51100000000E-03 0. -1.
        -11    1    3    3    0    0 -0.94040303736E+01  0.17006162386E+02 -0.60648672818E+01  0.20357503820E+02  0.51100000000E-03 0.  1.
         12    1    3    3    0    0  0.13517387223E+02 -0.56773076904E+01 -0.74100148304E+01  0.16427413057E+02  0.00000000000E+00 0. -1.
</event>
<event>
 7    1  0.6316620E-012  0.5930194E+02  0.7816164E-02  0.1266605E+00
        -11   -1    0    0    0    0  0.00000000000E+00  0.00000000000E+00  0.45593999997E+02  0.45594000000E+02  0.51100000000E-03 0.  1.
         11   -1    0    0    0    0 -0.00000000000E+00 -0.00000000000E+00 -0.45593999997E+02  0.45594000000E+02  0.51100000000E-03 0. -1.
    9900012    2    1    2    0    0 -0.20398369311E+02 -0.21580097110E+02  0.11615790670E+02  0.59301942628E+02  0.49999997448E+02 0.  0.
         12    1    1    2    0    0  0.20398369311E+02  0.21580097110E+02 -0.11615790670E+02  0.31886057372E+02  0.00000000000E+00 0. -1.
         11    1    3    3    0    0  0.10849922998E+01  0.61895469683E+01  0.23578287875E+01  0.67117104240E+01  0.51100000000E-03 0. -1.
        -11    1    3    3    0    0 -0.28590964640E+02 -0.17620590146E+02  0.17340088932E+02  0.37796919723E+02  0.51100000000E-03 0.  1.
        -12    1    3    3    0    0  0.71076030291E+01 -0.10149053932E+02 -0.80821270486E+01  0.14793312481E+02  0.00000000000E+00 0.  1.
</event>
<event>
 7    1  0.6316620E-012  0.5930189E+02  0.7816164E-02  0.1266605E+00
        -11   -1    0    0    0    0  0.00000000000E+00  0.00000000000E+00  0.45593999997E+02  0.45594000000E+02  0.51100000000E-03 0. -1.
         11   -1    0    0    0    0 -0.00000000000E+00 -0.00000000000E+00 -0.45593999997E+02  0.45594000000E+02  0.51100000000E-03 0.  1.
    9900012    2    1    2    0    0  0.20119280807E+02  0.20048608342E+02  0.14491100272E+02  0.59301887917E+02  0.49999897667E+02 0.  0.
         12    1    1    2    0    0 -0.20119280807E+02 -0.20048608342E+02 -0.14491100272E+02  0.31886112083E+02  0.00000000000E+00 0. -1.
         11    1    3    3    0    0 -0.39747959873E+01  0.48702812405E+00 -0.94607802867E+01  0.10273391038E+02  0.51100000000E-03 0. -1.
        -11    1    3    3    0    0  0.16207407456E+02  0.18593322428E+02  0.94011256491E+00  0.24683506786E+02  0.51100000000E-03 0.  1.
        -12    1    3    3    0    0  0.78866693388E+01  0.96825779034E+00  0.23011767994E+02  0.24344990093E+02  0.00000000000E+00 0.  1.
</event>
<event>
 7    1  0.6316620E-012  0.5930195E+02  0.7816164E-02  0.1266605E+00
        -11   -1    0    0    0    0  0.00000000000E+00  0.00000000000E+00  0.45593999997E+02  0.45594000000E+02  0.51100000000E-03 0.  1.
         11   -1    0    0    0    0 -0.00000000000E+00 -0.00000000000E+00 -0.45593999997E+02  0.45594000000E+02  0.51100000000E-03 0. -1.
    9900012    2    1    2    0    0  0.23433816365E+02 -0.15596568077E+02  0.14977429145E+02  0.59301951813E+02  0.50000014198E+02 0.  0.
         12    1    1    2    0    0 -0.23433816365E+02  0.15596568077E+02 -0.14977429145E+02  0.31886048187E+02  0.00000000000E+00 0. -1.
         11    1    3    3    0    0  0.73884178593E+01  0.52484771665E+01 -0.74406954835E+01  0.11726004459E+02  0.51100000000E-03 0. -1.
        -11    1    3    3    0    0 -0.38183729628E+01 -0.15744911590E+02 -0.12612737679E+01  0.16250323838E+02  0.51100000000E-03 0.  1.
        -12    1    3    3    0    0  0.19863771468E+02 -0.51001336535E+01  0.23679398397E+02  0.31325623516E+02  0.00000000000E+00 0.  1.
</event>
<event>
 7    1  0.6316620E-012  0.5930210E+02  0.7816164E-02  0.1266604E+00
        -11   -1    0    0    0    0  0.00000000000E+00  0.00000000000E+00  0.45593999997E+02  0.45594000000E+02  0.51100000000E-03 0.  1.
         11   -1    0    0    0    0 -0.00000000000E+00 -0.00000000000E+00 -0.45593999997E+02  0.45594000000E+02  0.51100000000E-03 0. -1.
    9900012    2    1    2    0    0  0.24672311577E+01 -0.26675304576E+02 -0.17293107416E+02  0.59302099230E+02  0.50000283051E+02 0.  0.
         12    1    1    2    0    0 -0.24672311577E+01  0.26675304576E+02  0.17293107416E+02  0.31885900770E+02  0.00000000000E+00 0. -1.
         11    1    3    3    0    0 -0.11353419335E+01  0.31435832316E+01 -0.77583583163E+01  0.84476766549E+01  0.51100000000E-03 0. -1.
        -11    1    3    3    0    0 -0.15992953920E+02 -0.12792827789E+02 -0.13592422808E+02  0.24580174450E+02  0.51100000000E-03 0.  1.
        -12    1    3    3    0    0  0.19595527011E+02 -0.17026060019E+02  0.40576737088E+01  0.26274248125E+02  0.00000000000E+00 0.  1.
</event>
<event>
 7    1  0.6316620E-012  0.5930191E+02  0.7816164E-02  0.1266605E+00
        -11   -1    0    0    0    0  0.00000000000E+00  0.00000000000E+00  0.45593999997E+02  0.45594000000E+02  0.51100000000E-03 0.  1.
         11   -1    0    0    0    0 -0.00000000000E+00 -0.00000000000E+00 -0.45593999997E+02  0.45594000000E+02  0.51100000000E-03 0. -1.
    9900012    2    1    2    0    0  0.29742619663E+01 -0.11324890090E+01  0.31726864667E+02  0.59301910444E+02  0.49999938751E+02 0.  0.
         12    1    1    2    0    0 -0.29742619663E+01  0.11324890090E+01 -0.31726864667E+02  0.31886089556E+02  0.00000000000E+00 0. -1.
         11    1    3    3    0    0 -0.12925630712E+00  0.27918615235E+00 -0.18280012790E+01  0.18537100738E+01  0.51100000000E-03 0. -1.
        -11    1    3    3    0    0  0.15438726124E+02  0.16941470392E+02  0.24507575569E+02  0.33555758729E+02  0.51100000000E-03 0.  1.
         12    1    3    3    0    0 -0.12335207851E+02 -0.18353145553E+02  0.90472903768E+01  0.23892441641E+02  0.00000000000E+00 0. -1.
</event>
<event>
 7    1  0.6316620E-012  0.5930194E+02  0.7816164E-02  0.1266605E+00
        -11   -1    0    0    0    0  0.00000000000E+00  0.00000000000E+00  0.45593999997E+02  0.45594000000E+02  0.51100000000E-03 0.  1.
         11   -1    0    0    0    0 -0.00000000000E+00 -0.00000000000E+00 -0.45593999997E+02  0.45594000000E+02  0.51100000000E-03 0. -1.
    9900012    2    1    2    0    0  0.30813873695E+02  0.80568463761E+01  0.15208874024E+01  0.59301942167E+02  0.49999996607E+02 0.  0.
         12    1    1    2    0    0 -0.30813873695E+02 -0.80568463761E+01 -0.15208874024E+01  0.31886057833E+02  0.00000000000E+00 0. -1.
         11    1    3    3    0    0  0.35922859092E+01 -0.45204161331E+01 -0.43476554015E+01  0.72277788996E+01  0.51100000000E-03 0. -1.
        -11    1    3    3    0    0  0.14234033206E+02 -0.15143159520E+02  0.53387284808E+01  0.21457516249E+02  0.51100000000E-03 0.  1.
         12    1    3    3    0    0  0.12987554580E+02  0.27720422029E+02  0.52981432312E+00  0.30616647018E+02  0.00000000000E+00 0. -1.
</event>
<event>
 7    1  0.6316620E-012  0.5930194E+02  0.7816164E-02  0.1266605E+00
        -11   -1    0    0    0    0  0.00000000000E+00  0.00000000000E+00  0.45593999997E+02  0.45594000000E+02  0.51100000000E-03 0. -1.
         11   -1    0    0    0    0 -0.00000000000E+00 -0.00000000000E+00 -0.45593999997E+02  0.45594000000E+02  0.51100000000E-03 0.  1.
    9900012    2    1    2    0    0  0.79294084415E+01  0.27990987405E+02 -0.13051809969E+02  0.59301942896E+02  0.49999997936E+02 0.  0.
         12    1    1    2    0    0 -0.79294084415E+01 -0.27990987405E+02  0.13051809969E+02  0.31886057104E+02  0.00000000000E+00 0. -1.
         11    1    3    3    0    0  0.73478265360E+01  0.26990267521E+00  0.65978202560E+01  0.98789996786E+01  0.51100000000E-03 0. -1.
        -11    1    3    3    0    0  0.13051812248E+02  0.16140485893E+02 -0.24125394643E+02  0.31826086073E+02  0.51100000000E-03 0.  1.
        -12    1    3    3    0    0 -0.12470230342E+02  0.11580598838E+02  0.44757644181E+01  0.17596857144E+02  0.00000000000E+00 0.  1.
</event>
<event>
 7    1  0.6316620E-012  0.5930197E+02  0.7816164E-02  0.1266605E+00
        -11   -1    0    0    0    0  0.00000000000E+00  0.00000000000E+00  0.45593999997E+02  0.45594000000E+02  0.51100000000E-03 0.  1.
         11   -1    0    0    0    0 -0.00000000000E+00 -0.00000000000E+00 -0.45593999997E+02  0.45594000000E+02  0.51100000000E-03 0. -1.
    9900012    2    1    2    0    0  0.25673220995E+02  0.16168822583E+02  0.98068187467E+01  0.59301971807E+02  0.50000050663E+02 0.  0.
         12    1    1    2    0    0 -0.25673220995E+02 -0.16168822583E+02 -0.98068187467E+01  0.31886028193E+02  0.00000000000E+00 0. -1.
         11    1    3    3    0    0  0.82638924874E+01 -0.13659934573E+02  0.45741624137E+01  0.16607489083E+02  0.51100000000E-03 0. -1.
        -11    1    3    3    0    0  0.15124041025E+02  0.32745550620E+01  0.41447353496E+01  0.16019930061E+02  0.51100000000E-03 0.  1.
        -12    1    3    3    0    0  0.22852874827E+01  0.26554202094E+02  0.10879209833E+01  0.26674552664E+02  0.00000000000E+00 0.  1.
</event>
<event>
 7    1  0.6316620E-012  0.5930198E+02  0.7816164E-02  0.1266605E+00
        -11   -1    0    0    0    0  0.00000000000E+00  0.00000000000E+00  0.45593999997E+02  0.45594000000E+02  0.51100000000E-03 0.  1.
         11   -1    0    0    0    0 -0.00000000000E+00 -0.00000000000E+00 -0.45593999997E+02  0.45594000000E+02  0.51100000000E-03 0. -1.
    9900012    2    1    2    0    0  0.15382599958E+02  0.21200256850E+02  0.18183598306E+02  0.59301976113E+02  0.50000058515E+02 0.  0.
         12    1    1    2    0    0 -0.15382599958E+02 -0.21200256850E+02 -0.18183598306E+02  0.31886023887E+02  0.00000000000E+00 0. -1.
         11    1    3    3    0    0  0.36935564033E+01  0.16532880243E+02  0.28377026473E+02  0.33048965487E+02  0.51100000000E-03 0.  1.
        -11    1    3    3    0    0  0.88283130319E+01 -0.32733316444E+00  0.48978910864E+01  0.10101267017E+02  0.51100000000E-03 0. -1.
         12    1    3    3    0    0  0.28607305225E+01  0.49947097720E+01 -0.15091319253E+02  0.16151743610E+02  0.00000000000E+00 0. -1.
</event>
<event>
 7    1  0.6316620E-012  0.5930193E+02  0.7816164E-02  0.1266605E+00
        -11   -1    0    0    0    0  0.00000000000E+00  0.00000000000E+00  0.45593999997E+02  0.45594000000E+02  0.51100000000E-03 0. -1.
         11   -1    0    0    0    0 -0.00000000000E+00 -0.00000000000E+00 -0.45593999997E+02  0.45594000000E+02  0.51100000000E-03 0.  1.
    9900012    2    1    2    0    0 -0.29257220076E+02  0.51342416164E+01  0.11592078519E+02  0.59301927053E+02  0.49999969043E+02 0.  0.
         12    1    1    2    0    0  0.29257220076E+02 -0.51342416164E+01 -0.11592078519E+02  0.31886072947E+02  0.00000000000E+00 0. -1.
         11    1    3    3    0    0 -0.25217701482E+02 -0.30327111857E+01  0.16091948077E+02  0.30067933057E+02  0.51100000000E-03 0. -1.
        -11    1    3    3    0    0 -0.15229490454E+02  0.39776634860E+01  0.15947355307E+01  0.15820947126E+02  0.51100000000E-03 0.  1.
         12    1    3    3    0    0  0.11189971859E+02  0.41892893161E+01 -0.60946050879E+01  0.13413046871E+02  0.00000000000E+00 0. -1.
</event>
<event>
 7    1  0.6316620E-012  0.5930194E+02  0.7816164E-02  0.1266605E+00
        -11   -1    0    0    0    0  0.00000000000E+00  0.00000000000E+00  0.45593999997E+02  0.45594000000E+02  0.51100000000E-03 0.  1.
         11   -1    0    0    0    0 -0.00000000000E+00 -0.00000000000E+00 -0.45593999997E+02  0.45594000000E+02  0.51100000000E-03 0. -1.
    9900012    2    1    2    0    0  0.11405549720E+02 -0.12958057071E+02  0.26809014917E+02  0.59301935830E+02  0.49999985049E+02 0.  0.
         12    1    1    2    0    0 -0.11405549720E+02  0.12958057071E+02 -0.26809014917E+02  0.31886064170E+02  0.00000000000E+00 0. -1.
         11    1    3    3    0    0  0.44737278601E-01  0.10821161526E+02  0.13014257441E+02  0.16925437519E+02  0.51100000000E-03 0. -1.
        -11    1    3    3    0    0  0.17428468490E+02 -0.40456069983E+01  0.12229053473E+02  0.21671829618E+02  0.51100000000E-03 0.  1.
        -12    1    3    3    0    0 -0.60676560492E+01 -0.19733611598E+02  0.15657040030E+01  0.20704668693E+02  0.00000000000E+00 0.  1.
</event>
<event>
 7    1  0.6316620E-012  0.5930196E+02  0.7816164E-02  0.1266605E+00
        -11   -1    0    0    0    0  0.00000000000E+00  0.00000000000E+00  0.45593999997E+02  0.45594000000E+02  0.51100000000E-03 0.  1.
         11   -1    0    0    0    0 -0.00000000000E+00 -0.00000000000E+00 -0.45593999997E+02  0.45594000000E+02  0.51100000000E-03 0. -1.
    9900012    2    1    2    0    0 -0.10819332640E+02  0.25627152696E+01  0.29884683307E+02  0.59301956584E+02  0.50000022900E+02 0.  0.
         12    1    1    2    0    0  0.10819332640E+02 -0.25627152696E+01 -0.29884683307E+02  0.31886043416E+02  0.00000000000E+00 0. -1.
         11    1    3    3    0    0  0.87420363749E+01 -0.85455279688E+01  0.49475585963E+00  0.12234951241E+02  0.51100000000E-03 0. -1.
        -11    1    3    3    0    0  0.36000858951E+01  0.37641848138E+01 -0.34262900489E+01  0.62345143776E+01  0.51100000000E-03 0.  1.
        -12    1    3    3    0    0 -0.23161454910E+02  0.73440584246E+01  0.32816217497E+02  0.40832490966E+02  0.00000000000E+00 0.  1.
</event>
<event>
 7    1  0.6316620E-012  0.5930193E+02  0.7816164E-02  0.1266605E+00
        -11   -1    0    0    0    0  0.00000000000E+00  0.00000000000E+00  0.45593999997E+02  0.45594000000E+02  0.51100000000E-03 0.  1.
         11   -1    0    0    0    0 -0.00000000000E+00 -0.00000000000E+00 -0.45593999997E+02  0.45594000000E+02  0.51100000000E-03 0. -1.
    9900012    2    1    2    0    0 -0.25659930006E+02  0.18368893356E+02  0.45687035046E+01  0.59301932466E+02  0.49999978915E+02 0.  0.
         12    1    1    2    0    0  0.25659930006E+02 -0.18368893356E+02 -0.45687035046E+01  0.31886067534E+02  0.00000000000E+00 0. -1.
         11    1    3    3    0    0 -0.11274555545E+02  0.65894507500E+01  0.13498415750E+02  0.18781472039E+02  0.51100000000E-03 0. -1.
        -11    1    3    3    0    0 -0.28961370747E+01 -0.12407029613E+02 -0.25212480114E+01  0.12987635873E+02  0.51100000000E-03 0.  1.
         12    1    3    3    0    0 -0.11489237386E+02  0.24186472219E+02 -0.64084642340E+01  0.27532824555E+02  0.00000000000E+00 0. -1.
</event>
<event>
 7    1  0.6316620E-012  0.5930195E+02  0.7816164E-02  0.1266605E+00
        -11   -1    0    0    0    0  0.00000000000E+00  0.00000000000E+00  0.45593999997E+02  0.45594000000E+02  0.51100000000E-03 0. -1.
         11   -1    0    0    0    0 -0.00000000000E+00 -0.00000000000E+00 -0.45593999997E+02  0.45594000000E+02  0.51100000000E-03 0.  1.
    9900012    2    1    2    0    0  0.30770840344E+02 -0.78411385242E+01 -0.28969164456E+01  0.59301949857E+02  0.50000010631E+02 0.  0.
         12    1    1    2    0    0 -0.30770840344E+02  0.78411385242E+01  0.28969164456E+01  0.31886050143E+02  0.00000000000E+00 0. -1.
         11    1    3    3    0    0  0.39248541940E+00 -0.67418904570E+01  0.14448215480E+00  0.67548506344E+01  0.51100000000E-03 0. -1.
        -11    1    3    3    0    0 -0.13058808042E+01  0.15675787556E+02 -0.53677534952E+01  0.16620722548E+02  0.51100000000E-03 0.  1.
         12    1    3    3    0    0  0.31684235729E+02 -0.16775035623E+02  0.23263548948E+01  0.35926376675E+02  0.00000000000E+00 0. -1.
</event>
<event>
 7    1  0.6316620E-012  0.5930195E+02  0.7816164E-02  0.1266605E+00
        -11   -1    0    0    0    0  0.00000000000E+00  0.00000000000E+00  0.45593999997E+02  0.45594000000E+02  0.51100000000E-03 0.  1.
         11   -1    0    0    0    0 -0.00000000000E+00 -0.00000000000E+00 -0.45593999997E+02  0.45594000000E+02  0.51100000000E-03 0. -1.
    9900012    2    1    2    0    0 -0.13039696874E+02  0.26968323898E+02 -0.10926855124E+02  0.59301947386E+02  0.50000006125E+02 0.  0.
         12    1    1    2    0    0  0.13039696874E+02 -0.26968323898E+02  0.10926855124E+02  0.31886052614E+02  0.00000000000E+00 0. -1.
         11    1    3    3    0    0 -0.13251783191E+01 -0.40514056463E+01 -0.20152984118E+01  0.47150199616E+01  0.51100000000E-03 0. -1.
        -11    1    3    3    0    0 -0.27038525275E+02  0.21138967038E+02 -0.11443556453E+02  0.36178622984E+02  0.51100000000E-03 0.  1.
        -12    1    3    3    0    0  0.15324006721E+02  0.98807625063E+01  0.25319997411E+01  0.18408304440E+02  0.00000000000E+00 0.  1.
</event>
<event>
 7    1  0.6316620E-012  0.5930191E+02  0.7816164E-02  0.1266605E+00
        -11   -1    0    0    0    0  0.00000000000E+00  0.00000000000E+00  0.45593999997E+02  0.45594000000E+02  0.51100000000E-03 0. -1.
         11   -1    0    0    0    0 -0.00000000000E+00 -0.00000000000E+00 -0.45593999997E+02  0.45594000000E+02  0.51100000000E-03 0.  1.
    9900012    2    1    2    0    0 -0.51595433639E+01  0.44816938896E+01 -0.31145081565E+02  0.59301912540E+02  0.49999942574E+02 0.  0.
         12    1    1    2    0    0  0.51595433639E+01 -0.44816938896E+01  0.31145081565E+02  0.31886087460E+02  0.00000000000E+00 0. -1.
         11    1    3    3    0    0  0.19599368952E+01 -0.21235955869E+01  0.74355071802E+01  0.79773290102E+01  0.51100000000E-03 0. -1.
        -11    1    3    3    0    0  0.11838791048E+02 -0.26126687644E+01 -0.94756843584E+01  0.15387384634E+02  0.51100000000E-03 0.  1.
        -12    1    3    3    0    0 -0.18958271307E+02  0.92179582409E+01 -0.29104904387E+02  0.35937198895E+02  0.00000000000E+00 0.  1.
</event>
<event>
 7    1  0.6316620E-012  0.5930182E+02  0.7816164E-02  0.1266605E+00
        -11   -1    0    0    0    0  0.00000000000E+00  0.00000000000E+00  0.45593999997E+02  0.45594000000E+02  0.51100000000E-03 0.  1.
         11   -1    0    0    0    0 -0.00000000000E+00 -0.00000000000E+00 -0.45593999997E+02  0.45594000000E+02  0.51100000000E-03 0. -1.
    9900012    2    1    2    0    0 -0.18144298235E+02  0.24112059732E+02  0.10301524407E+02  0.59301821363E+02  0.49999776288E+02 0.  0.
         12    1    1    2    0    0  0.18144298235E+02 -0.24112059732E+02 -0.10301524407E+02  0.31886178637E+02  0.00000000000E+00 0. -1.
         11    1    3    3    0    0  0.12213068452E+02  0.18685581192E+01 -0.25124497284E+01  0.12608051173E+02  0.51100000000E-03 0. -1.
        -11    1    3    3    0    0 -0.12558108506E+02  0.11171644552E+01 -0.52821004271E+01  0.13669481734E+02  0.51100000000E-03 0.  1.
        -12    1    3    3    0    0 -0.17799258181E+02  0.21126337158E+02  0.18096074563E+02  0.33024288457E+02  0.00000000000E+00 0.  1.
</event>
<event>
 7    1  0.6316620E-012  0.5930193E+02  0.7816164E-02  0.1266605E+00
        -11   -1    0    0    0    0  0.00000000000E+00  0.00000000000E+00  0.45593999997E+02  0.45594000000E+02  0.51100000000E-03 0.  1.
         11   -1    0    0    0    0 -0.00000000000E+00 -0.00000000000E+00 -0.45593999997E+02  0.45594000000E+02  0.51100000000E-03 0. -1.
    9900012    2    1    2    0    0 -0.11334348033E+02 -0.18341384030E+02  0.23491439411E+02  0.59301928761E+02  0.49999972156E+02 0.  0.
         12    1    1    2    0    0  0.11334348033E+02  0.18341384030E+02 -0.23491439411E+02  0.31886071239E+02  0.00000000000E+00 0. -1.
         11    1    3    3    0    0  0.11175996409E+01 -0.18465733636E+02  0.12259471506E+02  0.22192949095E+02  0.51100000000E-03 0. -1.
        -11    1    3    3    0    0 -0.14373893791E+01 -0.12765489818E+02 -0.48586581656E+01  0.13734277482E+02  0.51100000000E-03 0.  1.
        -12    1    3    3    0    0 -0.11014558295E+02  0.12889839424E+02  0.16090626071E+02  0.23374702184E+02  0.00000000000E+00 0.  1.
</event>
<event>
 7    1  0.6316620E-012  0.5930184E+02  0.7816164E-02  0.1266605E+00
        -11   -1    0    0    0    0  0.00000000000E+00  0.00000000000E+00  0.45593999997E+02  0.45594000000E+02  0.51100000000E-03 0.  1.
         11   -1    0    0    0    0 -0.00000000000E+00 -0.00000000000E+00 -0.45593999997E+02  0.45594000000E+02  0.51100000000E-03 0. -1.
    9900012    2    1    2    0    0  0.14553831514E+02  0.24909134512E+01  0.28261428576E+02  0.59301843024E+02  0.49999815793E+02 0.  0.
         12    1    1    2    0    0 -0.14553831514E+02 -0.24909134512E+01 -0.28261428576E+02  0.31886156976E+02  0.00000000000E+00 0. -1.
         11    1    3    3    0    0 -0.29790327919E+01  0.87247106120E+00 -0.62523708143E+01  0.69805431872E+01  0.51100000000E-03 0. -1.
        -11    1    3    3    0    0  0.94863524783E+01 -0.16612620719E+02  0.19941014904E+02  0.27633568828E+02  0.51100000000E-03 0.  1.
        -12    1    3    3    0    0  0.80465118277E+01  0.18231063109E+02  0.14572784486E+02  0.24687731009E+02  0.00000000000E+00 0.  1.
</event>
<event>
 7    1  0.6316620E-012  0.5930199E+02  0.7816164E-02  0.1266605E+00
        -11   -1    0    0    0    0  0.00000000000E+00  0.00000000000E+00  0.45593999997E+02  0.45594000000E+02  0.51100000000E-03 0.  1.
         11   -1    0    0    0    0 -0.00000000000E+00 -0.00000000000E+00 -0.45593999997E+02  0.45594000000E+02  0.51100000000E-03 0. -1.
    9900012    2    1    2    0    0  0.29813652047E+02 -0.49547344734E+01  0.10164364229E+02  0.59301991434E+02  0.50000086458E+02 0.  0.
         12    1    1    2    0    0 -0.29813652047E+02  0.49547344734E+01 -0.10164364229E+02  0.31886008566E+02  0.00000000000E+00 0. -1.
         11    1    3    3    0    0  0.95638606461E+01 -0.39796749632E+01  0.13702204943E+02  0.17177184397E+02  0.51100000000E-03 0. -1.
        -11    1    3    3    0    0  0.22826017990E+02 -0.98333469905E+01  0.91091005653E+01  0.26470691787E+02  0.51100000000E-03 0.  1.
         12    1    3    3    0    0 -0.25762265894E+01  0.88582874804E+01 -0.12646941279E+02  0.15654115249E+02  0.00000000000E+00 0. -1.
</event>
<event>
 7    1  0.6316620E-012  0.5930195E+02  0.7816164E-02  0.1266605E+00
        -11   -1    0    0    0    0  0.00000000000E+00  0.00000000000E+00  0.45593999997E+02  0.45594000000E+02  0.51100000000E-03 0. -1.
         11   -1    0    0    0    0 -0.00000000000E+00 -0.00000000000E+00 -0.45593999997E+02  0.45594000000E+02  0.51100000000E-03 0.  1.
    9900012    2    1    2    0    0  0.28618857348E+02 -0.50274077088E+01 -0.13130349986E+02  0.59301954228E+02  0.50000018603E+02 0.  0.
         12    1    1    2    0    0 -0.28618857348E+02  0.50274077088E+01  0.13130349986E+02  0.31886045772E+02  0.00000000000E+00 0. -1.
         11    1    3    3    0    0 -0.13732878783E+02 -0.26659130356E+01 -0.72373895762E+01  0.15750519360E+02  0.51100000000E-03 0. -1.
        -11    1    3    3    0    0  0.12047232273E+02 -0.41454817461E+01 -0.27338466283E+01  0.13030531148E+02  0.51100000000E-03 0.  1.
        -12    1    3    3    0    0  0.30304503859E+02  0.17839870729E+01 -0.31591137816E+01  0.30520903720E+02  0.00000000000E+00 0.  1.
</event>
<event>
 7    1  0.6316620E-012  0.5930191E+02  0.7816164E-02  0.1266605E+00
        -11   -1    0    0    0    0  0.00000000000E+00  0.00000000000E+00  0.45593999997E+02  0.45594000000E+02  0.51100000000E-03 0.  1.
         11   -1    0    0    0    0 -0.00000000000E+00 -0.00000000000E+00 -0.45593999997E+02  0.45594000000E+02  0.51100000000E-03 0. -1.
    9900012    2    1    2    0    0 -0.18651966997E+02  0.23467581586E+02  0.10867349177E+02  0.59301913120E+02  0.49999943632E+02 0.  0.
         12    1    1    2    0    0  0.18651966997E+02 -0.23467581586E+02 -0.10867349177E+02  0.31886086880E+02  0.00000000000E+00 0. -1.
         11    1    3    3    0    0  0.10875035076E+02  0.10637387679E+02  0.26214430962E+01  0.15436721436E+02  0.51100000000E-03 0. -1.
        -11    1    3    3    0    0 -0.10242484142E+02  0.15088481522E+02  0.14679622010E+02  0.23410725291E+02  0.51100000000E-03 0.  1.
         12    1    3    3    0    0 -0.19284517931E+02 -0.22582876142E+01 -0.64337159288E+01  0.20454466394E+02  0.00000000000E+00 0. -1.
</event>
<event>
 7    1  0.6316620E-012  0.5930194E+02  0.7816164E-02  0.1266605E+00
        -11   -1    0    0    0    0  0.00000000000E+00  0.00000000000E+00  0.45593999997E+02  0.45594000000E+02  0.51100000000E-03 0.  1.
         11   -1    0    0    0    0 -0.00000000000E+00 -0.00000000000E+00 -0.45593999997E+02  0.45594000000E+02  0.51100000000E-03 0. -1.
    9900012    2    1    2    0    0  0.20407566167E+02 -0.24425128151E+02  0.19144969193E+01  0.59301938147E+02  0.49999989274E+02 0.  0.
         12    1    1    2    0    0 -0.20407566167E+02  0.24425128151E+02 -0.19144969193E+01  0.31886061853E+02  0.00000000000E+00 0. -1.
         11    1    3    3    0    0 -0.46332508902E+01 -0.82175167832E+01  0.12517719655E+01  0.95163821492E+01  0.51100000000E-03 0. -1.
        -11    1    3    3    0    0 -0.90880266010E+01  0.32603792403E+01  0.37853609405E+01  0.10370692262E+02  0.51100000000E-03 0.  1.
        -12    1    3    3    0    0  0.34128843658E+02 -0.19467990608E+02 -0.31226359867E+01  0.39414863735E+02  0.00000000000E+00 0.  1.
</event>
<event>
 7    1  0.6316620E-012  0.5930190E+02  0.7816164E-02  0.1266605E+00
        -11   -1    0    0    0    0  0.00000000000E+00  0.00000000000E+00  0.45593999997E+02  0.45594000000E+02  0.51100000000E-03 0.  1.
         11   -1    0    0    0    0 -0.00000000000E+00 -0.00000000000E+00 -0.45593999997E+02  0.45594000000E+02  0.51100000000E-03 0. -1.
    9900012    2    1    2    0    0 -0.13289822973E+02  0.28531790706E+02  0.51030243026E+01  0.59301900637E+02  0.49999920865E+02 0.  0.
         12    1    1    2    0    0  0.13289822973E+02 -0.28531790706E+02 -0.51030243026E+01  0.31886099363E+02  0.00000000000E+00 0. -1.
         11    1    3    3    0    0 -0.18376683406E+02  0.83475932182E+01 -0.86567428614E+01  0.21961876122E+02  0.51100000000E-03 0. -1.
        -11    1    3    3    0    0  0.63418476984E+01  0.12395758031E+02 -0.66707471100E+01  0.15439323711E+02  0.51100000000E-03 0.  1.
        -12    1    3    3    0    0 -0.12549872656E+01  0.77884394576E+01  0.20430514274E+02  0.21900700804E+02  0.00000000000E+00 0.  1.
</event>
<event>
 7    1  0.6316620E-012  0.5930197E+02  0.7816164E-02  0.1266605E+00
        -11   -1    0    0    0    0  0.00000000000E+00  0.00000000000E+00  0.45593999997E+02  0.45594000000E+02  0.51100000000E-03 0.  1.
         11   -1    0    0    0    0 -0.00000000000E+00 -0.00000000000E+00 -0.45593999997E+02  0.45594000000E+02  0.51100000000E-03 0. -1.
    9900012    2    1    2    0    0  0.22585188410E+02 -0.11251457096E+00  0.22508123380E+02  0.59301968370E+02  0.50000044394E+02 0.  0.
         12    1    1    2    0    0 -0.22585188410E+02  0.11251457096E+00 -0.22508123380E+02  0.31886031630E+02  0.00000000000E+00 0. -1.
         11    1    3    3    0    0  0.13496147210E+01 -0.50153542201E+01 -0.26307918791E+01  0.58220532478E+01  0.51100000000E-03 0. -1.
        -11    1    3    3    0    0 -0.10013692913E+02 -0.80623967740E+01  0.35158690720E+01  0.13328076496E+02  0.51100000000E-03 0.  1.
         12    1    3    3    0    0  0.31249266601E+02  0.12965236423E+02  0.21623046187E+02  0.40151838626E+02  0.00000000000E+00 0. -1.
</event>
<event>
 7    1  0.6316620E-012  0.5930192E+02  0.7816164E-02  0.1266605E+00
        -11   -1    0    0    0    0  0.00000000000E+00  0.00000000000E+00  0.45593999997E+02  0.45594000000E+02  0.51100000000E-03 0.  1.
         11   -1    0    0    0    0 -0.00000000000E+00 -0.00000000000E+00 -0.45593999997E+02  0.45594000000E+02  0.51100000000E-03 0. -1.
    9900012    2    1    2    0    0 -0.11546271968E+02 -0.61810425504E+01  0.29072325893E+02  0.59301924415E+02  0.49999964231E+02 0.  0.
         12    1    1    2    0    0  0.11546271968E+02  0.61810425504E+01 -0.29072325893E+02  0.31886075585E+02  0.00000000000E+00 0. -1.
         11    1    3    3    0    0 -0.79045050452E+00 -0.69313401688E+01  0.17645307630E+01  0.71959612013E+01  0.51100000000E-03 0. -1.
        -11    1    3    3    0    0 -0.34555761381E+01 -0.14559369034E+02  0.31289673389E+02  0.34683712232E+02  0.51100000000E-03 0.  1.
         12    1    3    3    0    0 -0.73002453254E+01  0.15309666652E+02 -0.39818782587E+01  0.17422250982E+02  0.00000000000E+00 0. -1.
</event>
<event>
 7    1  0.6316620E-012  0.5930191E+02  0.7816164E-02  0.1266605E+00
        -11   -1    0    0    0    0  0.00000000000E+00  0.00000000000E+00  0.45593999997E+02  0.45594000000E+02  0.51100000000E-03 0.  1.
         11   -1    0    0    0    0 -0.00000000000E+00 -0.00000000000E+00 -0.45593999997E+02  0.45594000000E+02  0.51100000000E-03 0. -1.
    9900012    2    1    2    0    0  0.11834807741E+02  0.67892215281E+01  0.28819547351E+02  0.59301913493E+02  0.49999944312E+02 0.  0.
         12    1    1    2    0    0 -0.11834807741E+02 -0.67892215281E+01 -0.28819547351E+02  0.31886086507E+02  0.00000000000E+00 0. -1.
         11    1    3    3    0    0  0.95432021924E+01  0.11772106490E+01 -0.66972257531E+01  0.11717993260E+02  0.51100000000E-03 0. -1.
        -11    1    3    3    0    0  0.15479358904E+02  0.24947659610E+01  0.97286523444E+01  0.18452129578E+02  0.51100000000E-03 0.  1.
         12    1    3    3    0    0 -0.13187753355E+02  0.31172449182E+01  0.25788120760E+02  0.29131790655E+02  0.00000000000E+00 0. -1.
</event>
<event>
 7    1  0.6316620E-012  0.5930193E+02  0.7816164E-02  0.1266605E+00
        -11   -1    0    0    0    0  0.00000000000E+00  0.00000000000E+00  0.45593999997E+02  0.45594000000E+02  0.51100000000E-03 0. -1.
         11   -1    0    0    0    0 -0.00000000000E+00 -0.00000000000E+00 -0.45593999997E+02  0.45594000000E+02  0.51100000000E-03 0.  1.
    9900012    2    1    2    0    0  0.18202902772E+02 -0.24443603814E+02 -0.93747442585E+01  0.59301933032E+02  0.49999979947E+02 0.  0.
         12    1    1    2    0    0 -0.18202902772E+02  0.24443603814E+02  0.93747442585E+01  0.31886066968E+02  0.00000000000E+00 0. -1.
         11    1    3    3    0    0 -0.85996678822E+01 -0.28310012765E+01  0.21659713749E+01  0.93091507760E+01  0.51100000000E-03 0. -1.
        -11    1    3    3    0    0  0.10504063200E+02 -0.19719328380E+02  0.86650822699E+01  0.23963950143E+02  0.51100000000E-03 0.  1.
        -12    1    3    3    0    0  0.16298507454E+02 -0.18932741579E+01 -0.20205797903E+02  0.26028832113E+02  0.00000000000E+00 0.  1.
</event>
<event>
 7    1  0.6316620E-012  0.5930183E+02  0.7816164E-02  0.1266605E+00
        -11   -1    0    0    0    0  0.00000000000E+00  0.00000000000E+00  0.45593999997E+02  0.45594000000E+02  0.51100000000E-03 0.  1.
         11   -1    0    0    0    0 -0.00000000000E+00 -0.00000000000E+00 -0.45593999997E+02  0.45594000000E+02  0.51100000000E-03 0. -1.
    9900012    2    1    2    0    0 -0.27105627208E+02  0.19013413361E+01  0.16685251257E+02  0.59301831608E+02  0.49999794973E+02 0.  0.
         12    1    1    2    0    0  0.27105627208E+02 -0.19013413361E+01 -0.16685251257E+02  0.31886168392E+02  0.00000000000E+00 0. -1.
         11    1    3    3    0    0 -0.20486748098E+01 -0.74278386471E+01 -0.63064589995E+01  0.99569714681E+01  0.51100000000E-03 0. -1.
        -11    1    3    3    0    0 -0.43389679645E+01  0.85057000132E+00  0.26341374534E+02  0.26709888149E+02  0.51100000000E-03 0.  1.
         12    1    3    3    0    0 -0.20717984434E+02  0.84786099818E+01 -0.33496642779E+01  0.22634971990E+02  0.00000000000E+00 0. -1.
</event>
<event>
 7    1  0.6316620E-012  0.5930195E+02  0.7816164E-02  0.1266605E+00
        -11   -1    0    0    0    0  0.00000000000E+00  0.00000000000E+00  0.45593999997E+02  0.45594000000E+02  0.51100000000E-03 0.  1.
         11   -1    0    0    0    0 -0.00000000000E+00 -0.00000000000E+00 -0.45593999997E+02  0.45594000000E+02  0.51100000000E-03 0. -1.
    9900012    2    1    2    0    0  0.26350214122E+02  0.75830068235E+01  0.16275274096E+02  0.59301947819E+02  0.50000006915E+02 0.  0.
         12    1    1    2    0    0 -0.26350214122E+02 -0.75830068235E+01 -0.16275274096E+02  0.31886052181E+02  0.00000000000E+00 0. -1.
         11    1    3    3    0    0  0.15717887101E+02 -0.24963508768E+01 -0.12964224988E+02  0.20526930419E+02  0.51100000000E-03 0. -1.
        -11    1    3    3    0    0  0.39763587735E+01  0.90741280261E+00 -0.26955376749E+01  0.48888394029E+01  0.51100000000E-03 0.  1.
        -12    1    3    3    0    0  0.66559682477E+01  0.91719448977E+01  0.31935036759E+02  0.33886177998E+02  0.00000000000E+00 0.  1.
</event>
<event>
 7    1  0.6316620E-012  0.5930194E+02  0.7816164E-02  0.1266605E+00
        -11   -1    0    0    0    0  0.00000000000E+00  0.00000000000E+00  0.45593999997E+02  0.45594000000E+02  0.51100000000E-03 0.  1.
         11   -1    0    0    0    0 -0.00000000000E+00 -0.00000000000E+00 -0.45593999997E+02  0.45594000000E+02  0.51100000000E-03 0. -1.
    9900012    2    1    2    0    0 -0.85963646635E+01 -0.12885224120E+02  0.27871025461E+02  0.59301944328E+02  0.50000000549E+02 0.  0.
         12    1    1    2    0    0  0.85963646635E+01  0.12885224120E+02 -0.27871025461E+02  0.31886055672E+02  0.00000000000E+00 0. -1.
         11    1    3    3    0    0  0.13122291113E+02 -0.17389645517E+02  0.23626079572E+02  0.32136986969E+02  0.51100000000E-03 0. -1.
        -11    1    3    3    0    0 -0.14594574866E+02 -0.27303769448E+01  0.73225114510E+01  0.16555233251E+02  0.51100000000E-03 0.  1.
        -12    1    3    3    0    0 -0.71240809107E+01  0.72347983417E+01 -0.30775655625E+01  0.10609724109E+02  0.00000000000E+00 0.  1.
</event>
<event>
 7    1  0.6316620E-012  0.5930183E+02  0.7816164E-02  0.1266605E+00
        -11   -1    0    0    0    0  0.00000000000E+00  0.00000000000E+00  0.45593999997E+02  0.45594000000E+02  0.51100000000E-03 0. -1.
         11   -1    0    0    0    0 -0.00000000000E+00 -0.00000000000E+00 -0.45593999997E+02  0.45594000000E+02  0.51100000000E-03 0.  1.
    9900012    2    1    2    0    0 -0.14504952080E+02 -0.12340929706E+02 -0.25574121882E+02  0.59301829160E+02  0.49999790508E+02 0.  0.
         12    1    1    2    0    0  0.14504952080E+02  0.12340929706E+02  0.25574121882E+02  0.31886170840E+02  0.00000000000E+00 0. -1.
         11    1    3    3    0    0  0.32664482766E+01 -0.56179420015E+01  0.58315047268E+01  0.87314033418E+01  0.51100000000E-03 0. -1.
        -11    1    3    3    0    0  0.66927649579E+00 -0.16781753932E+02 -0.21674951116E+02  0.27420406675E+02  0.51100000000E-03 0.  1.
         12    1    3    3    0    0 -0.18440676852E+02  0.10058766228E+02 -0.97306754926E+01  0.23150019143E+02  0.00000000000E+00 0. -1.
</event>
<event>
 7    1  0.6316620E-012  0.5930195E+02  0.7816164E-02  0.1266605E+00
        -11   -1    0    0    0    0  0.00000000000E+00  0.00000000000E+00  0.45593999997E+02  0.45594000000E+02  0.51100000000E-03 0.  1.
         11   -1    0    0    0    0 -0.00000000000E+00 -0.00000000000E+00 -0.45593999997E+02  0.45594000000E+02  0.51100000000E-03 0. -1.
    9900012    2    1    2    0    0 -0.24780196225E+02 -0.18548476844E+02  0.76561236161E+01  0.59301947453E+02  0.50000006247E+02 0.  0.
         12    1    1    2    0    0  0.24780196225E+02  0.18548476844E+02 -0.76561236161E+01  0.31886052547E+02  0.00000000000E+00 0. -1.
         11    1    3    3    0    0 -0.16035297569E+02 -0.16867341128E+02 -0.49051797661E+01  0.23784422500E+02  0.51100000000E-03 0. -1.
        -11    1    3    3    0    0 -0.61521504119E+01 -0.15730004565E+02  0.12859196901E+02  0.21228305243E+02  0.51100000000E-03 0.  1.
        -12    1    3    3    0    0 -0.25927482450E+01  0.14048868848E+02 -0.29789351840E+00  0.14289219710E+02  0.00000000000E+00 0.  1.
</event>
<event>
 7    1  0.6316620E-012  0.5930194E+02  0.7816164E-02  0.1266605E+00
        -11   -1    0    0    0    0  0.00000000000E+00  0.00000000000E+00  0.45593999997E+02  0.45594000000E+02  0.51100000000E-03 0. -1.
         11   -1    0    0    0    0 -0.00000000000E+00 -0.00000000000E+00 -0.45593999997E+02  0.45594000000E+02  0.51100000000E-03 0.  1.
    9900012    2    1    2    0    0 -0.26078294255E+02 -0.35700792848E+01 -0.17997166366E+02  0.59301938867E+02  0.49999990588E+02 0.  0.
         12    1    1    2    0    0  0.26078294255E+02  0.35700792848E+01  0.17997166366E+02  0.31886061133E+02  0.00000000000E+00 0. -1.
         11    1    3    3    0    0 -0.12000040353E+01  0.10643590286E+02  0.38616998890E+01  0.11385901376E+02  0.51100000000E-03 0. -1.
        -11    1    3    3    0    0  0.21279714270E+01  0.74056485715E+01 -0.64374130154E+01  0.10040526866E+02  0.51100000000E-03 0.  1.
        -12    1    3    3    0    0 -0.27006261647E+02 -0.21619318142E+02 -0.15421453240E+02  0.37875510625E+02  0.00000000000E+00 0.  1.
</event>
<event>
 7    1  0.6316620E-012  0.5930193E+02  0.7816164E-02  0.1266605E+00
        -11   -1    0    0    0    0  0.00000000000E+00  0.00000000000E+00  0.45593999997E+02  0.45594000000E+02  0.51100000000E-03 0.  1.
         11   -1    0    0    0    0 -0.00000000000E+00 -0.00000000000E+00 -0.45593999997E+02  0.45594000000E+02  0.51100000000E-03 0. -1.
    9900012    2    1    2    0    0 -0.31628430460E+02  0.39651594193E+01  0.80096805249E+00  0.59301926983E+02  0.49999968915E+02 0.  0.
         12    1    1    2    0    0  0.31628430460E+02 -0.39651594193E+01 -0.80096805249E+00  0.31886073017E+02  0.00000000000E+00 0. -1.
         11    1    3    3    0    0 -0.13342905733E+02  0.48354173904E+01 -0.78420738449E+00  0.14213703818E+02  0.51100000000E-03 0. -1.
        -11    1    3    3    0    0 -0.46351777516E+01  0.16042623437E+02 -0.10978047171E+02  0.19984197744E+02  0.51100000000E-03 0.  1.
        -12    1    3    3    0    0 -0.13650346976E+02 -0.16912881408E+02  0.12563222608E+02  0.25104025422E+02  0.00000000000E+00 0.  1.
</event>
<event>
 7    1  0.6316620E-012  0.5930213E+02  0.7816164E-02  0.1266604E+00
        -11   -1    0    0    0    0  0.00000000000E+00  0.00000000000E+00  0.45593999997E+02  0.45594000000E+02  0.51100000000E-03 0.  1.
         11   -1    0    0    0    0 -0.00000000000E+00 -0.00000000000E+00 -0.45593999997E+02  0.45594000000E+02  0.51100000000E-03 0. -1.
    9900012    2    1    2    0    0 -0.26887073548E+02 -0.11145207123E+02  0.13022230504E+02  0.59302127688E+02  0.50000334952E+02 0.  0.
         12    1    1    2    0    0  0.26887073548E+02  0.11145207123E+02 -0.13022230504E+02  0.31885872312E+02  0.00000000000E+00 0. -1.
         11    1    3    3    0    0  0.23469573578E+01 -0.75643938437E+01  0.98396842687E+01  0.12631217274E+02  0.51100000000E-03 0. -1.
        -11    1    3    3    0    0 -0.13654647820E+02 -0.19780634135E+02  0.27340365891E+01  0.24190862949E+02  0.51100000000E-03 0.  1.
         12    1    3    3    0    0 -0.15579383086E+02  0.16199820856E+02  0.44850964576E+00  0.22480047465E+02  0.00000000000E+00 0. -1.
</event>
<event>
 7    1  0.6316620E-012  0.5930195E+02  0.7816164E-02  0.1266605E+00
        -11   -1    0    0    0    0  0.00000000000E+00  0.00000000000E+00  0.45593999997E+02  0.45594000000E+02  0.51100000000E-03 0.  1.
         11   -1    0    0    0    0 -0.00000000000E+00 -0.00000000000E+00 -0.45593999997E+02  0.45594000000E+02  0.51100000000E-03 0. -1.
    9900012    2    1    2    0    0 -0.13381436945E+02  0.28921333936E+02 -0.11018168364E+01  0.59301946439E+02  0.50000004398E+02 0.  0.
         12    1    1    2    0    0  0.13381436945E+02 -0.28921333936E+02  0.11018168364E+01  0.31886053561E+02  0.00000000000E+00 0. -1.
         11    1    3    3    0    0  0.92094441201E+01  0.10263193864E+02 -0.11385412458E+02  0.17882243327E+02  0.51100000000E-03 0. -1.
        -11    1    3    3    0    0  0.24979384702E+01  0.14182859792E+02  0.58891273367E+01  0.15558760540E+02  0.51100000000E-03 0.  1.
        -12    1    3    3    0    0 -0.25088819535E+02  0.44752802794E+01  0.43944682852E+01  0.25860942572E+02  0.00000000000E+00 0.  1.
</event>
<event>
 7    1  0.6316620E-012  0.5930193E+02  0.7816164E-02  0.1266605E+00
        -11   -1    0    0    0    0  0.00000000000E+00  0.00000000000E+00  0.45593999997E+02  0.45594000000E+02  0.51100000000E-03 0.  1.
         11   -1    0    0    0    0 -0.00000000000E+00 -0.00000000000E+00 -0.45593999997E+02  0.45594000000E+02  0.51100000000E-03 0. -1.
    9900012    2    1    2    0    0  0.24324236177E+02 -0.20356460733E+02  0.32660864955E+01  0.59301932820E+02  0.49999979561E+02 0.  0.
         12    1    1    2    0    0 -0.24324236177E+02  0.20356460733E+02 -0.32660864955E+01  0.31886067180E+02  0.00000000000E+00 0. -1.
         11    1    3    3    0    0 -0.35226311013E+01 -0.11965348848E+01  0.97562604080E+00  0.38460982877E+01  0.51100000000E-03 0. -1.
        -11    1    3    3    0    0  0.10780686358E+02  0.12360541559E+02  0.94135781857E+01  0.18910886825E+02  0.51100000000E-03 0.  1.
         12    1    3    3    0    0  0.17066180921E+02 -0.31520467407E+02 -0.71231177310E+01  0.36544947708E+02  0.00000000000E+00 0. -1.
</event>
<event>
 7    1  0.6316620E-012  0.5930190E+02  0.7816164E-02  0.1266605E+00
        -11   -1    0    0    0    0  0.00000000000E+00  0.00000000000E+00  0.45593999997E+02  0.45594000000E+02  0.51100000000E-03 0.  1.
         11   -1    0    0    0    0 -0.00000000000E+00 -0.00000000000E+00 -0.45593999997E+02  0.45594000000E+02  0.51100000000E-03 0. -1.
    9900012    2    1    2    0    0 -0.14451683808E+02 -0.25479280358E+02  0.12596760179E+02  0.59301901784E+02  0.49999922958E+02 0.  0.
         12    1    1    2    0    0  0.14451683808E+02  0.25479280358E+02 -0.12596760179E+02  0.31886098216E+02  0.00000000000E+00 0. -1.
         11    1    3    3    0    0 -0.73572944674E+01 -0.18795208845E+02 -0.79873788978E+01  0.21706862494E+02  0.51100000000E-03 0. -1.
        -11    1    3    3    0    0  0.88146813382E+01 -0.11549444888E+02  0.70513766437E+01  0.16149619103E+02  0.51100000000E-03 0.  1.
        -12    1    3    3    0    0 -0.15909070679E+02  0.48653733757E+01  0.13532762433E+02  0.21445420188E+02  0.00000000000E+00 0.  1.
</event>
<event>
 7    1  0.6316620E-012  0.5930194E+02  0.7816164E-02  0.1266605E+00
        -11   -1    0    0    0    0  0.00000000000E+00  0.00000000000E+00  0.45593999997E+02  0.45594000000E+02  0.51100000000E-03 0. -1.
         11   -1    0    0    0    0 -0.00000000000E+00 -0.00000000000E+00 -0.45593999997E+02  0.45594000000E+02  0.51100000000E-03 0.  1.
    9900012    2    1    2    0    0 -0.21208990727E+02  0.23805579207E+02 -0.44061915678E+00  0.59301936676E+02  0.49999986592E+02 0.  0.
         12    1    1    2    0    0  0.21208990727E+02 -0.23805579207E+02  0.44061915678E+00  0.31886063324E+02  0.00000000000E+00 0. -1.
         11    1    3    3    0    0 -0.20214258006E+02  0.13267312049E+02 -0.10014792113E+02  0.26171241031E+02  0.51100000000E-03 0. -1.
        -11    1    3    3    0    0 -0.34949374669E+01  0.18139353656E+02 -0.25045400844E+01  0.18641981125E+02  0.51100000000E-03 0.  1.
         12    1    3    3    0    0  0.25002047462E+01 -0.76010864983E+01  0.12078713041E+02  0.14488714520E+02  0.00000000000E+00 0. -1.
</event>
<event>
 7    1  0.6316620E-012  0.5930194E+02  0.7816164E-02  0.1266605E+00
        -11   -1    0    0    0    0  0.00000000000E+00  0.00000000000E+00  0.45593999997E+02  0.45594000000E+02  0.51100000000E-03 0. -1.
         11   -1    0    0    0    0 -0.00000000000E+00 -0.00000000000E+00 -0.45593999997E+02  0.45594000000E+02  0.51100000000E-03 0.  1.
    9900012    2    1    2    0    0 -0.84839895236E+01  0.17452124801E+02 -0.25301499644E+02  0.59301943133E+02  0.49999998369E+02 0.  0.
         12    1    1    2    0    0  0.84839895236E+01 -0.17452124801E+02  0.25301499644E+02  0.31886056867E+02  0.00000000000E+00 0. -1.
         11    1    3    3    0    0 -0.62802962120E+01  0.15960559746E+02  0.38749973341E-01  0.17151766373E+02  0.51100000000E-03 0. -1.
        -11    1    3    3    0    0 -0.14532671683E+02  0.10578155737E+02 -0.10463095661E+02  0.20798372439E+02  0.51100000000E-03 0.  1.
         12    1    3    3    0    0  0.12328978371E+02 -0.90865906826E+01 -0.14877153956E+02  0.21351804321E+02  0.00000000000E+00 0. -1.
</event>
<event>
 7    1  0.6316620E-012  0.5930194E+02  0.7816164E-02  0.1266605E+00
        -11   -1    0    0    0    0  0.00000000000E+00  0.00000000000E+00  0.45593999997E+02  0.45594000000E+02  0.51100000000E-03 0.  1.
         11   -1    0    0    0    0 -0.00000000000E+00 -0.00000000000E+00 -0.45593999997E+02  0.45594000000E+02  0.51100000000E-03 0. -1.
    9900012    2    1    2    0    0 -0.29805198083E+02 -0.57872222743E+01  0.97406027612E+01  0.59301935386E+02  0.49999984240E+02 0.  0.
         12    1    1    2    0    0  0.29805198083E+02  0.57872222743E+01 -0.97406027612E+01  0.31886064614E+02  0.00000000000E+00 0. -1.
         11    1    3    3    0    0 -0.54692116504E+01  0.14236914797E+02 -0.41434870644E+01  0.15804129344E+02  0.51100000000E-03 0. -1.
        -11    1    3    3    0    0 -0.18645520198E+02 -0.22030983880E+01 -0.20991689143E+01  0.18892209409E+02  0.51100000000E-03 0.  1.
         12    1    3    3    0    0 -0.56904662345E+01 -0.17821038683E+02  0.15983258740E+02  0.24605596633E+02  0.00000000000E+00 0. -1.
</event>
<event>
 7    1  0.6316620E-012  0.5930195E+02  0.7816164E-02  0.1266605E+00
        -11   -1    0    0    0    0  0.00000000000E+00  0.00000000000E+00  0.45593999997E+02  0.45594000000E+02  0.51100000000E-03 0.  1.
         11   -1    0    0    0    0 -0.00000000000E+00 -0.00000000000E+00 -0.45593999997E+02  0.45594000000E+02  0.51100000000E-03 0. -1.
    9900012    2    1    2    0    0  0.15296525219E+02  0.22650220108E+02  0.16422658686E+02  0.59301954886E+02  0.50000019802E+02 0.  0.
         12    1    1    2    0    0 -0.15296525219E+02 -0.22650220108E+02 -0.16422658686E+02  0.31886045114E+02  0.00000000000E+00 0. -1.
         11    1    3    3    0    0 -0.13461922763E+02  0.69305891806E+01  0.16217555531E+02  0.22187057906E+02  0.51100000000E-03 0. -1.
        -11    1    3    3    0    0  0.31036309019E+01  0.89286400391E+01  0.40790433787E+01  0.10295228646E+02  0.51100000000E-03 0.  1.
         12    1    3    3    0    0  0.25654817081E+02  0.67909908881E+01 -0.38739402235E+01  0.26819668334E+02  0.00000000000E+00 0. -1.
</event>
<event>
 7    1  0.6316620E-012  0.5930193E+02  0.7816164E-02  0.1266605E+00
        -11   -1    0    0    0    0  0.00000000000E+00  0.00000000000E+00  0.45593999997E+02  0.45594000000E+02  0.51100000000E-03 0.  1.
         11   -1    0    0    0    0 -0.00000000000E+00 -0.00000000000E+00 -0.45593999997E+02  0.45594000000E+02  0.51100000000E-03 0. -1.
    9900012    2    1    2    0    0  0.25734696496E+01  0.31374581938E+02 -0.50728881817E+01  0.59301932003E+02  0.49999978069E+02 0.  0.
         12    1    1    2    0    0 -0.25734696496E+01 -0.31374581938E+02  0.50728881817E+01  0.31886067997E+02  0.00000000000E+00 0. -1.
         11    1    3    3    0    0  0.41498749980E+01  0.25708226145E+02  0.11324693202E+02  0.28396884167E+02  0.51100000000E-03 0. -1.
        -11    1    3    3    0    0 -0.50255144736E+01  0.14439904421E+02 -0.49400072002E+01  0.16067678949E+02  0.51100000000E-03 0.  1.
         12    1    3    3    0    0  0.34491091252E+01 -0.87735486280E+01 -0.11457574184E+02  0.14837368886E+02  0.00000000000E+00 0. -1.
</event>
<event>
 7    1  0.6316620E-012  0.5930198E+02  0.7816164E-02  0.1266605E+00
        -11   -1    0    0    0    0  0.00000000000E+00  0.00000000000E+00  0.45593999997E+02  0.45594000000E+02  0.51100000000E-03 0. -1.
         11   -1    0    0    0    0 -0.00000000000E+00 -0.00000000000E+00 -0.45593999997E+02  0.45594000000E+02  0.51100000000E-03 0.  1.
    9900012    2    1    2    0    0 -0.22117359463E+01 -0.30871116232E+02 -0.76681563845E+01  0.59301980875E+02  0.50000067201E+02 0.  0.
         12    1    1    2    0    0  0.22117359463E+01  0.30871116232E+02  0.76681563845E+01  0.31886019125E+02  0.00000000000E+00 0. -1.
         11    1    3    3    0    0 -0.43086715677E+01  0.51052979053E+01  0.79727216675E+01  0.10401586823E+02  0.51100000000E-03 0. -1.
        -11    1    3    3    0    0 -0.98826326295E+00 -0.93703840272E+01  0.86136391014E+01  0.12766187368E+02  0.51100000000E-03 0.  1.
         12    1    3    3    0    0  0.30851988843E+01 -0.26606030110E+02 -0.24254517153E+02  0.36134206684E+02  0.00000000000E+00 0. -1.
</event>
<event>
 7    1  0.6316620E-012  0.5930189E+02  0.7816164E-02  0.1266605E+00
        -11   -1    0    0    0    0  0.00000000000E+00  0.00000000000E+00  0.45593999997E+02  0.45594000000E+02  0.51100000000E-03 0. -1.
         11   -1    0    0    0    0 -0.00000000000E+00 -0.00000000000E+00 -0.45593999997E+02  0.45594000000E+02  0.51100000000E-03 0.  1.
    9900012    2    1    2    0    0 -0.20439292937E+02 -0.24389442693E+02  0.20284352137E+01  0.59301887661E+02  0.49999897201E+02 0.  0.
         12    1    1    2    0    0  0.20439292937E+02  0.24389442693E+02 -0.20284352137E+01  0.31886112339E+02  0.00000000000E+00 0. -1.
         11    1    3    3    0    0  0.46227599798E+01 -0.10166467430E+01 -0.11945072146E+02  0.12848666439E+02  0.51100000000E-03 0. -1.
        -11    1    3    3    0    0 -0.19827917938E+02 -0.37517829896E+01 -0.24606966093E+01  0.20329221171E+02  0.51100000000E-03 0.  1.
         12    1    3    3    0    0 -0.52341349791E+01 -0.19621012960E+02  0.16434203969E+02  0.26124000051E+02  0.00000000000E+00 0. -1.
</event>
<event>
 7    1  0.6316620E-012  0.5930196E+02  0.7816164E-02  0.1266605E+00
        -11   -1    0    0    0    0  0.00000000000E+00  0.00000000000E+00  0.45593999997E+02  0.45594000000E+02  0.51100000000E-03 0.  1.
         11   -1    0    0    0    0 -0.00000000000E+00 -0.00000000000E+00 -0.45593999997E+02  0.45594000000E+02  0.51100000000E-03 0. -1.
    9900012    2    1    2    0    0  0.21368718265E+02  0.23600303045E+02  0.17673224240E+01  0.59301955205E+02  0.50000020385E+02 0.  0.
         12    1    1    2    0    0 -0.21368718265E+02 -0.23600303045E+02 -0.17673224240E+01  0.31886044795E+02  0.00000000000E+00 0. -1.
         11    1    3    3    0    0 -0.31197311749E+01  0.14496106714E+02  0.23113248135E+01  0.15007066839E+02  0.51100000000E-03 0. -1.
        -11    1    3    3    0    0  0.15303464226E+02  0.22689892201E+02 -0.36292696744E+01  0.27607948567E+02  0.51100000000E-03 0.  1.
         12    1    3    3    0    0  0.91849852143E+01 -0.13585695870E+02  0.30852672849E+01  0.16686939800E+02  0.00000000000E+00 0. -1.
</event>
<event>
 7    1  0.6316620E-012  0.5930193E+02  0.7816164E-02  0.1266605E+00
        -11   -1    0    0    0    0  0.00000000000E+00  0.00000000000E+00  0.45593999997E+02  0.45594000000E+02  0.51100000000E-03 0. -1.
         11   -1    0    0    0    0 -0.00000000000E+00 -0.00000000000E+00 -0.45593999997E+02  0.45594000000E+02  0.51100000000E-03 0.  1.
    9900012    2    1    2    0    0 -0.85033872693E+01  0.31100609474E+01 -0.30573537911E+02  0.59301932595E+02  0.49999979150E+02 0.  0.
         12    1    1    2    0    0  0.85033872693E+01 -0.31100609474E+01  0.30573537911E+02  0.31886067405E+02  0.00000000000E+00 0. -1.
         11    1    3    3    0    0  0.90400395824E+01  0.76742562277E+01  0.58497624277E+01  0.13222565750E+02  0.51100000000E-03 0. -1.
        -11    1    3    3    0    0 -0.15141767480E+01  0.59467036801E+01 -0.16199918723E+01  0.63466833709E+01  0.51100000000E-03 0.  1.
        -12    1    3    3    0    0 -0.16029250104E+02 -0.10510898960E+02 -0.34803308466E+02  0.39732683474E+02  0.00000000000E+00 0.  1.
</event>
<event>
 7    1  0.6316620E-012  0.5930193E+02  0.7816164E-02  0.1266605E+00
        -11   -1    0    0    0    0  0.00000000000E+00  0.00000000000E+00  0.45593999997E+02  0.45594000000E+02  0.51100000000E-03 0.  1.
         11   -1    0    0    0    0 -0.00000000000E+00 -0.00000000000E+00 -0.45593999997E+02  0.45594000000E+02  0.51100000000E-03 0. -1.
    9900012    2    1    2    0    0  0.16628344013E+02 -0.14897999373E+02  0.22765525574E+02  0.59301931497E+02  0.49999977146E+02 0.  0.
         12    1    1    2    0    0 -0.16628344013E+02  0.14897999373E+02 -0.22765525574E+02  0.31886068503E+02  0.00000000000E+00 0. -1.
         11    1    3    3    0    0 -0.91846192018E+01 -0.81575300692E+00  0.78147131137E+01  0.12086869908E+02  0.51100000000E-03 0. -1.
        -11    1    3    3    0    0  0.55499169855E+01  0.78181934131E+01  0.14490099542E+02  0.17374944944E+02  0.51100000000E-03 0.  1.
         12    1    3    3    0    0  0.20263046229E+02 -0.21900439780E+02  0.46071291805E+00  0.29840116645E+02  0.00000000000E+00 0. -1.
</event>
<event>
 7    1  0.6316620E-012  0.5930192E+02  0.7816164E-02  0.1266605E+00
        -11   -1    0    0    0    0  0.00000000000E+00  0.00000000000E+00  0.45593999997E+02  0.45594000000E+02  0.51100000000E-03 0.  1.
         11   -1    0    0    0    0 -0.00000000000E+00 -0.00000000000E+00 -0.45593999997E+02  0.45594000000E+02  0.51100000000E-03 0. -1.
    9900012    2    1    2    0    0 -0.20432717732E+02  0.24291992883E+02 -0.30208387544E+01  0.59301916219E+02  0.49999949283E+02 0.  0.
         12    1    1    2    0    0  0.20432717732E+02 -0.24291992883E+02  0.30208387544E+01  0.31886083781E+02  0.00000000000E+00 0. -1.
         11    1    3    3    0    0 -0.24504548034E+02 -0.39830742006E+01 -0.41827650364E+01  0.25176045719E+02  0.51100000000E-03 0. -1.
        -11    1    3    3    0    0 -0.70267331096E+01  0.12006642978E+02 -0.23871260742E+01  0.14114985829E+02  0.51100000000E-03 0.  1.
        -12    1    3    3    0    0  0.11098563412E+02  0.16268424106E+02  0.35490523563E+01  0.20010884671E+02  0.00000000000E+00 0.  1.
</event>
<event>
 7    1  0.6316620E-012  0.5930192E+02  0.7816164E-02  0.1266605E+00
        -11   -1    0    0    0    0  0.00000000000E+00  0.00000000000E+00  0.45593999997E+02  0.45594000000E+02  0.51100000000E-03 0.  1.
         11   -1    0    0    0    0 -0.00000000000E+00 -0.00000000000E+00 -0.45593999997E+02  0.45594000000E+02  0.51100000000E-03 0. -1.
    9900012    2    1    2    0    0 -0.90615143147E+01  0.30499875251E+02 -0.20901675657E+01  0.59301917888E+02  0.49999952327E+02 0.  0.
         12    1    1    2    0    0  0.90615143147E+01 -0.30499875251E+02  0.20901675657E+01  0.31886082112E+02  0.00000000000E+00 0. -1.
         11    1    3    3    0    0 -0.88048134712E+01  0.10147568466E+02 -0.68115221888E+00  0.13452206311E+02  0.51100000000E-03 0.  1.
        -11    1    3    3    0    0 -0.41034715410E+01  0.28461714849E+02 -0.12691811266E+02  0.31432304470E+02  0.51100000000E-03 0. -1.
        -12    1    3    3    0    0  0.38467706975E+01 -0.81094080635E+01  0.11282795919E+02  0.14417407107E+02  0.00000000000E+00 0.  1.
</event>
<event>
 7    1  0.6316620E-012  0.5930192E+02  0.7816164E-02  0.1266605E+00
        -11   -1    0    0    0    0  0.00000000000E+00  0.00000000000E+00  0.45593999997E+02  0.45594000000E+02  0.51100000000E-03 0.  1.
         11   -1    0    0    0    0 -0.00000000000E+00 -0.00000000000E+00 -0.45593999997E+02  0.45594000000E+02  0.51100000000E-03 0. -1.
    9900012    2    1    2    0    0 -0.15402448503E+02 -0.18274758386E+02  0.21107344217E+02  0.59301918493E+02  0.49999953432E+02 0.  0.
         12    1    1    2    0    0  0.15402448503E+02  0.18274758386E+02 -0.21107344217E+02  0.31886081507E+02  0.00000000000E+00 0. -1.
         11    1    3    3    0    0 -0.22275460991E+02  0.31623553558E+01  0.81451731716E+01  0.23927818538E+02  0.51100000000E-03 0. -1.
        -11    1    3    3    0    0 -0.82958639674E+01 -0.12450395963E+02  0.35025657813E+01  0.15365600734E+02  0.51100000000E-03 0.  1.
        -12    1    3    3    0    0  0.15168876455E+02 -0.89867177790E+01  0.94596052640E+01  0.20008499222E+02  0.00000000000E+00 0.  1.
</event>
<event>
 7    1  0.6316620E-012  0.5930195E+02  0.7816164E-02  0.1266605E+00
        -11   -1    0    0    0    0  0.00000000000E+00  0.00000000000E+00  0.45593999997E+02  0.45594000000E+02  0.51100000000E-03 0.  1.
         11   -1    0    0    0    0 -0.00000000000E+00 -0.00000000000E+00 -0.45593999997E+02  0.45594000000E+02  0.51100000000E-03 0. -1.
    9900012    2    1    2    0    0 -0.26461522495E+02  0.15183822895E+01  0.17725757510E+02  0.59301950749E+02  0.50000012259E+02 0.  0.
         12    1    1    2    0    0  0.26461522495E+02 -0.15183822895E+01 -0.17725757510E+02  0.31886049251E+02  0.00000000000E+00 0. -1.
         11    1    3    3    0    0 -0.13095191584E+02  0.20010590719E+02  0.33493292740E+01  0.24147997648E+02  0.51100000000E-03 0. -1.
        -11    1    3    3    0    0 -0.19624694486E+01  0.47809900121E+00  0.12805830679E+02  0.12964149206E+02  0.51100000000E-03 0.  1.
         12    1    3    3    0    0 -0.11403861462E+02 -0.18970307431E+02  0.15705975574E+01  0.22189803896E+02  0.00000000000E+00 0. -1.
</event>
<event>
 7    1  0.6316620E-012  0.5930199E+02  0.7816164E-02  0.1266605E+00
        -11   -1    0    0    0    0  0.00000000000E+00  0.00000000000E+00  0.45593999997E+02  0.45594000000E+02  0.51100000000E-03 0.  1.
         11   -1    0    0    0    0 -0.00000000000E+00 -0.00000000000E+00 -0.45593999997E+02  0.45594000000E+02  0.51100000000E-03 0. -1.
    9900012    2    1    2    0    0 -0.20110696208E+02 -0.51743998637E+01  0.24197169171E+02  0.59301991911E+02  0.50000087328E+02 0.  0.
         12    1    1    2    0    0  0.20110696208E+02  0.51743998637E+01 -0.24197169171E+02  0.31886008089E+02  0.00000000000E+00 0. -1.
         11    1    3    3    0    0 -0.43880819573E+01  0.58066417204E+01  0.18331198594E+02  0.19723214583E+02  0.51100000000E-03 0. -1.
        -11    1    3    3    0    0  0.55144882357E+01  0.86194842189E+01  0.19151629599E+01  0.10410232376E+02  0.51100000000E-03 0.  1.
         12    1    3    3    0    0 -0.21237102487E+02 -0.19600525803E+02  0.39508076178E+01  0.29168544952E+02  0.00000000000E+00 0. -1.
</event>
<event>
 7    1  0.6316620E-012  0.5930194E+02  0.7816164E-02  0.1266605E+00
        -11   -1    0    0    0    0  0.00000000000E+00  0.00000000000E+00  0.45593999997E+02  0.45594000000E+02  0.51100000000E-03 0.  1.
         11   -1    0    0    0    0 -0.00000000000E+00 -0.00000000000E+00 -0.45593999997E+02  0.45594000000E+02  0.51100000000E-03 0. -1.
    9900012    2    1    2    0    0 -0.23233220703E+02  0.49959921191E+01  0.21259785027E+02  0.59301938141E+02  0.49999989263E+02 0.  0.
         12    1    1    2    0    0  0.23233220703E+02 -0.49959921191E+01 -0.21259785027E+02  0.31886061859E+02  0.00000000000E+00 0. -1.
         11    1    3    3    0    0 -0.63174237430E+01 -0.21582123617E+01  0.49219685022E+01  0.82941845617E+01  0.51100000000E-03 0. -1.
        -11    1    3    3    0    0 -0.29330313696E+02  0.11633863627E+01 -0.35968168396E+00  0.29355581079E+02  0.51100000000E-03 0.  1.
         12    1    3    3    0    0  0.12414516736E+02  0.59908181181E+01  0.16697498209E+02  0.21652172500E+02  0.00000000000E+00 0. -1.
</event>
<event>
 7    1  0.6316620E-012  0.5930193E+02  0.7816164E-02  0.1266605E+00
        -11   -1    0    0    0    0  0.00000000000E+00  0.00000000000E+00  0.45593999997E+02  0.45594000000E+02  0.51100000000E-03 0.  1.
         11   -1    0    0    0    0 -0.00000000000E+00 -0.00000000000E+00 -0.45593999997E+02  0.45594000000E+02  0.51100000000E-03 0. -1.
    9900012    2    1    2    0    0  0.92342592711E+01  0.30508437969E+02 -0.82789414059E+00  0.59301925606E+02  0.49999966402E+02 0.  0.
         12    1    1    2    0    0 -0.92342592711E+01 -0.30508437969E+02  0.82789414059E+00  0.31886074394E+02  0.00000000000E+00 0. -1.
         11    1    3    3    0    0  0.15985757423E+02  0.14901565176E+02 -0.12722808665E+01  0.21891089144E+02  0.51100000000E-03 0. -1.
        -11    1    3    3    0    0 -0.31162710455E+01 -0.94676043871E+00 -0.14471718982E+02  0.14833682992E+02  0.51100000000E-03 0.  1.
        -12    1    3    3    0    0 -0.36352271060E+01  0.16553633232E+02  0.14916105708E+02  0.22577153469E+02  0.00000000000E+00 0.  1.
</event>
<event>
 7    1  0.6316620E-012  0.5930193E+02  0.7816164E-02  0.1266605E+00
        -11   -1    0    0    0    0  0.00000000000E+00  0.00000000000E+00  0.45593999997E+02  0.45594000000E+02  0.51100000000E-03 0.  1.
         11   -1    0    0    0    0 -0.00000000000E+00 -0.00000000000E+00 -0.45593999997E+02  0.45594000000E+02  0.51100000000E-03 0. -1.
    9900012    2    1    2    0    0  0.15487790615E+02  0.27714761418E+02  0.29566572765E+01  0.59301929673E+02  0.49999973821E+02 0.  0.
         12    1    1    2    0    0 -0.15487790615E+02 -0.27714761418E+02 -0.29566572765E+01  0.31886070327E+02  0.00000000000E+00 0. -1.
         11    1    3    3    0    0  0.25966201174E+01  0.29045945432E+02 -0.61763091717E+01  0.29808659435E+02  0.51100000000E-03 0. -1.
        -11    1    3    3    0    0 -0.57066145684E+01  0.30728034671E+01  0.80715775963E+01  0.10351711749E+02  0.51100000000E-03 0.  1.
        -12    1    3    3    0    0  0.18597785066E+02 -0.44039874806E+01  0.10613888519E+01  0.19141558489E+02  0.00000000000E+00 0.  1.
</event>
<event>
 7    1  0.6316620E-012  0.5930192E+02  0.7816164E-02  0.1266605E+00
        -11   -1    0    0    0    0  0.00000000000E+00  0.00000000000E+00  0.45593999997E+02  0.45594000000E+02  0.51100000000E-03 0. -1.
         11   -1    0    0    0    0 -0.00000000000E+00 -0.00000000000E+00 -0.45593999997E+02  0.45594000000E+02  0.51100000000E-03 0.  1.
    9900012    2    1    2    0    0 -0.22896628786E+02 -0.22088644279E+02 -0.21349670235E+01  0.59301923100E+02  0.49999961833E+02 0.  0.
         12    1    1    2    0    0  0.22896628786E+02  0.22088644279E+02  0.21349670235E+01  0.31886076900E+02  0.00000000000E+00 0. -1.
         11    1    3    3    0    0 -0.27339004996E+01  0.10091057282E+02  0.52696863382E+01  0.11707828294E+02  0.51100000000E-03 0. -1.
        -11    1    3    3    0    0 -0.18750606160E+02 -0.97256432847E+01  0.52711188856E+01  0.21770577926E+02  0.51100000000E-03 0.  1.
        -12    1    3    3    0    0 -0.14121221267E+01 -0.22454058277E+02 -0.12675772247E+02  0.25823516880E+02  0.00000000000E+00 0.  1.
</event>
<event>
 7    1  0.6316620E-012  0.5930191E+02  0.7816164E-02  0.1266605E+00
        -11   -1    0    0    0    0  0.00000000000E+00  0.00000000000E+00  0.45593999997E+02  0.45594000000E+02  0.51100000000E-03 0.  1.
         11   -1    0    0    0    0 -0.00000000000E+00 -0.00000000000E+00 -0.45593999997E+02  0.45594000000E+02  0.51100000000E-03 0. -1.
    9900012    2    1    2    0    0  0.86072340431E+01  0.99787417688E+01  0.29035549608E+02  0.59301907323E+02  0.49999933059E+02 0.  0.
         12    1    1    2    0    0 -0.86072340431E+01 -0.99787417688E+01 -0.29035549608E+02  0.31886092677E+02  0.00000000000E+00 0. -1.
         11    1    3    3    0    0  0.87524885134E+01  0.48041163116E+01  0.48852726804E+01  0.11115371255E+02  0.51100000000E-03 0.  1.
        -11    1    3    3    0    0 -0.71013725193E+01  0.20975134224E+02  0.21230031711E+02  0.30677353114E+02  0.51100000000E-03 0. -1.
         12    1    3    3    0    0  0.69561180489E+01 -0.15800508767E+02  0.29202452166E+01  0.17509182954E+02  0.00000000000E+00 0. -1.
</event>
<event>
 7    1  0.6316620E-012  0.5930194E+02  0.7816164E-02  0.1266605E+00
        -11   -1    0    0    0    0  0.00000000000E+00  0.00000000000E+00  0.45593999997E+02  0.45594000000E+02  0.51100000000E-03 0.  1.
         11   -1    0    0    0    0 -0.00000000000E+00 -0.00000000000E+00 -0.45593999997E+02  0.45594000000E+02  0.51100000000E-03 0. -1.
    9900012    2    1    2    0    0  0.11331456404E+02  0.26561371700E+02  0.13520810289E+02  0.59301942205E+02  0.49999996676E+02 0.  0.
         12    1    1    2    0    0 -0.11331456404E+02 -0.26561371700E+02 -0.13520810289E+02  0.31886057795E+02  0.00000000000E+00 0. -1.
         11    1    3    3    0    0  0.54203158343E+01  0.76860141540E+01  0.38517728339E+01  0.10163207739E+02  0.51100000000E-03 0. -1.
        -11    1    3    3    0    0  0.39321541265E+01  0.12684474391E+02  0.27294166103E+02  0.30353405578E+02  0.51100000000E-03 0.  1.
         12    1    3    3    0    0  0.19789864435E+01  0.61908831548E+01 -0.17625128648E+02  0.18785328888E+02  0.00000000000E+00 0. -1.
</event>
<event>
 7    1  0.6316620E-012  0.5930189E+02  0.7816164E-02  0.1266605E+00
        -11   -1    0    0    0    0  0.00000000000E+00  0.00000000000E+00  0.45593999997E+02  0.45594000000E+02  0.51100000000E-03 0.  1.
         11   -1    0    0    0    0 -0.00000000000E+00 -0.00000000000E+00 -0.45593999997E+02  0.45594000000E+02  0.51100000000E-03 0. -1.
    9900012    2    1    2    0    0  0.84934329726E+01 -0.13346459231E+02  0.27684968081E+02  0.59301892753E+02  0.49999906488E+02 0.  0.
         12    1    1    2    0    0 -0.84934329726E+01  0.13346459231E+02 -0.27684968081E+02  0.31886107247E+02  0.00000000000E+00 0. -1.
         11    1    3    3    0    0  0.66530771239E+01 -0.10626776439E+01 -0.27158471956E+01  0.72641961181E+01  0.51100000000E-03 0. -1.
        -11    1    3    3    0    0 -0.15563876851E+02  0.53834898958E+01  0.68478404233E+01  0.17835614506E+02  0.51100000000E-03 0.  1.
        -12    1    3    3    0    0  0.17404232699E+02 -0.17667271483E+02  0.23552974854E+02  0.34202082129E+02  0.00000000000E+00 0.  1.
</event>
<event>
 7    1  0.6316620E-012  0.5930197E+02  0.7816164E-02  0.1266605E+00
        -11   -1    0    0    0    0  0.00000000000E+00  0.00000000000E+00  0.45593999997E+02  0.45594000000E+02  0.51100000000E-03 0.  1.
         11   -1    0    0    0    0 -0.00000000000E+00 -0.00000000000E+00 -0.45593999997E+02  0.45594000000E+02  0.51100000000E-03 0. -1.
    9900012    2    1    2    0    0 -0.14142495386E+02  0.26866860049E+02  0.97406587395E+01  0.59301972067E+02  0.50000051137E+02 0.  0.
         12    1    1    2    0    0  0.14142495386E+02 -0.26866860049E+02 -0.97406587395E+01  0.31886027933E+02  0.00000000000E+00 0. -1.
         11    1    3    3    0    0  0.21049581643E+01 -0.84326222194E+01 -0.52561714567E+01  0.10157130747E+02  0.51100000000E-03 0. -1.
        -11    1    3    3    0    0 -0.12814380325E+02  0.10071757003E+02 -0.46910960615E+01  0.16960395478E+02  0.51100000000E-03 0.  1.
        -12    1    3    3    0    0 -0.34330732252E+01  0.25227725266E+02  0.19687926258E+02  0.32184445842E+02  0.00000000000E+00 0.  1.
</event>
<event>
 7    1  0.6316620E-012  0.5930199E+02  0.7816164E-02  0.1266605E+00
        -11   -1    0    0    0    0  0.00000000000E+00  0.00000000000E+00  0.45593999997E+02  0.45594000000E+02  0.51100000000E-03 0.  1.
         11   -1    0    0    0    0 -0.00000000000E+00 -0.00000000000E+00 -0.45593999997E+02  0.45594000000E+02  0.51100000000E-03 0. -1.
    9900012    2    1    2    0    0  0.18006118077E+01  0.11527795075E+02  0.29674659806E+02  0.59301989011E+02  0.50000082039E+02 0.  0.
         12    1    1    2    0    0 -0.18006118077E+01 -0.11527795075E+02 -0.29674659806E+02  0.31886010989E+02  0.00000000000E+00 0. -1.
         11    1    3    3    0    0  0.34104451755E+00 -0.36054542970E+01  0.21556959146E+02  0.21859050755E+02  0.51100000000E-03 0. -1.
        -11    1    3    3    0    0  0.14914611771E+02  0.11926005274E+02  0.12628004150E+02  0.22894141940E+02  0.51100000000E-03 0.  1.
         12    1    3    3    0    0 -0.13455044481E+02  0.32072440985E+01 -0.45103034904E+01  0.14548796317E+02  0.00000000000E+00 0. -1.
</event>
<event>
 7    1  0.6316620E-012  0.5930193E+02  0.7816164E-02  0.1266605E+00
        -11   -1    0    0    0    0  0.00000000000E+00  0.00000000000E+00  0.45593999997E+02  0.45594000000E+02  0.51100000000E-03 0.  1.
         11   -1    0    0    0    0 -0.00000000000E+00 -0.00000000000E+00 -0.45593999997E+02  0.45594000000E+02  0.51100000000E-03 0. -1.
    9900012    2    1    2    0    0 -0.25118171928E+02 -0.24952771098E+01  0.19482616810E+02  0.59301932092E+02  0.49999978232E+02 0.  0.
         12    1    1    2    0    0  0.25118171928E+02  0.24952771098E+01 -0.19482616810E+02  0.31886067908E+02  0.00000000000E+00 0. -1.
         11    1    3    3    0    0 -0.95655505912E+01  0.82489534433E+00 -0.53699928001E+01  0.11000774217E+02  0.51100000000E-03 0. -1.
        -11    1    3    3    0    0  0.10177500145E+02 -0.82534036737E+01  0.15925217150E+02  0.20623111379E+02  0.51100000000E-03 0.  1.
         12    1    3    3    0    0 -0.25730121481E+02  0.49332312196E+01  0.89273924604E+01  0.27678046496E+02  0.00000000000E+00 0. -1.
</event>
<event>
 7    1  0.6316620E-012  0.5930194E+02  0.7816164E-02  0.1266605E+00
        -11   -1    0    0    0    0  0.00000000000E+00  0.00000000000E+00  0.45593999997E+02  0.45594000000E+02  0.51100000000E-03 0. -1.
         11   -1    0    0    0    0 -0.00000000000E+00 -0.00000000000E+00 -0.45593999997E+02  0.45594000000E+02  0.51100000000E-03 0.  1.
    9900012    2    1    2    0    0  0.51125516806E+01  0.31310996168E+02 -0.31943614895E+01  0.59301943313E+02  0.49999998696E+02 0.  0.
         12    1    1    2    0    0 -0.51125516806E+01 -0.31310996168E+02  0.31943614895E+01  0.31886056687E+02  0.00000000000E+00 0. -1.
         11    1    3    3    0    0  0.21691714940E+01 -0.92073702240E+00 -0.14283030314E+02  0.14476118846E+02  0.51100000000E-03 0.  1.
        -11    1    3    3    0    0 -0.42124123154E+00 -0.41757525800E+01  0.68294296730E+01  0.80159505802E+01  0.51100000000E-03 0. -1.
        -12    1    3    3    0    0  0.33646214181E+01  0.36407485771E+02  0.42592391512E+01  0.36809873887E+02  0.00000000000E+00 0.  1.
</event>
<event>
 7    1  0.6316620E-012  0.5930195E+02  0.7816164E-02  0.1266605E+00
        -11   -1    0    0    0    0  0.00000000000E+00  0.00000000000E+00  0.45593999997E+02  0.45594000000E+02  0.51100000000E-03 0.  1.
         11   -1    0    0    0    0 -0.00000000000E+00 -0.00000000000E+00 -0.45593999997E+02  0.45594000000E+02  0.51100000000E-03 0. -1.
    9900012    2    1    2    0    0  0.29829529608E+02  0.42252015980E+01  0.10443514339E+02  0.59301950434E+02  0.50000011684E+02 0.  0.
         12    1    1    2    0    0 -0.29829529608E+02 -0.42252015980E+01 -0.10443514339E+02  0.31886049566E+02  0.00000000000E+00 0. -1.
         11    1    3    3    0    0  0.20126875461E+02  0.21426269852E+02 -0.42926560949E+01  0.29708635987E+02  0.51100000000E-03 0. -1.
        -11    1    3    3    0    0  0.76804956820E+01  0.53744526878E+00  0.57262455846E+01  0.95952462238E+01  0.51100000000E-03 0.  1.
         12    1    3    3    0    0  0.20221584645E+01 -0.17738513523E+02  0.90099248494E+01  0.19998068223E+02  0.00000000000E+00 0. -1.
</event>
<event>
 7    1  0.6316620E-012  0.5930181E+02  0.7816164E-02  0.1266605E+00
        -11   -1    0    0    0    0  0.00000000000E+00  0.00000000000E+00  0.45593999997E+02  0.45594000000E+02  0.51100000000E-03 0. -1.
         11   -1    0    0    0    0 -0.00000000000E+00 -0.00000000000E+00 -0.45593999997E+02  0.45594000000E+02  0.51100000000E-03 0.  1.
    9900012    2    1    2    0    0  0.24335163343E+02  0.11994319689E+02  0.16753063011E+02  0.59301811768E+02  0.49999758789E+02 0.  0.
         12    1    1    2    0    0 -0.24335163343E+02 -0.11994319689E+02 -0.16753063011E+02  0.31886188232E+02  0.00000000000E+00 0. -1.
         11    1    3    3    0    0  0.13649168646E+02 -0.11139315544E+01  0.63088788071E+01  0.15077884477E+02  0.51100000000E-03 0. -1.
        -11    1    3    3    0    0  0.23118607244E+02  0.56690516754E+01 -0.35665237440E+01  0.24069238453E+02  0.51100000000E-03 0.  1.
         12    1    3    3    0    0 -0.12432612547E+02  0.74391995676E+01  0.14010707948E+02  0.20154688838E+02  0.00000000000E+00 0. -1.
</event>
<event>
 7    1  0.6316620E-012  0.5930196E+02  0.7816164E-02  0.1266605E+00
        -11   -1    0    0    0    0  0.00000000000E+00  0.00000000000E+00  0.45593999997E+02  0.45594000000E+02  0.51100000000E-03 0.  1.
         11   -1    0    0    0    0 -0.00000000000E+00 -0.00000000000E+00 -0.45593999997E+02  0.45594000000E+02  0.51100000000E-03 0. -1.
    9900012    2    1    2    0    0  0.15541153644E+02 -0.13515908434E+01  0.27809441893E+02  0.59301963671E+02  0.50000035825E+02 0.  0.
         12    1    1    2    0    0 -0.15541153644E+02  0.13515908434E+01 -0.27809441893E+02  0.31886036329E+02  0.00000000000E+00 0. -1.
         11    1    3    3    0    0  0.45485984759E+01 -0.18326599545E+01  0.29856211814E+02  0.30256268355E+02  0.51100000000E-03 0. -1.
        -11    1    3    3    0    0 -0.21762375570E+01 -0.36706806556E+01  0.99041205083E+01  0.10784317766E+02  0.51100000000E-03 0.  1.
        -12    1    3    3    0    0  0.13168792725E+02  0.41517497666E+01 -0.11950890430E+02  0.18261377550E+02  0.00000000000E+00 0.  1.
</event>
<event>
 7    1  0.6316620E-012  0.5930194E+02  0.7816164E-02  0.1266605E+00
        -11   -1    0    0    0    0  0.00000000000E+00  0.00000000000E+00  0.45593999997E+02  0.45594000000E+02  0.51100000000E-03 0.  1.
         11   -1    0    0    0    0 -0.00000000000E+00 -0.00000000000E+00 -0.45593999997E+02  0.45594000000E+02  0.51100000000E-03 0. -1.
    9900012    2    1    2    0    0 -0.20166016706E+02 -0.20707316692E+02 -0.13463272977E+02  0.59301938568E+02  0.49999990043E+02 0.  0.
         12    1    1    2    0    0  0.20166016706E+02  0.20707316692E+02  0.13463272977E+02  0.31886061432E+02  0.00000000000E+00 0. -1.
         11    1    3    3    0    0 -0.18638362476E+02 -0.16628206127E+02 -0.49715415061E+01  0.25467666168E+02  0.51100000000E-03 0. -1.
        -11    1    3    3    0    0 -0.28623196974E+01 -0.16090077020E+02  0.36046795244E+01  0.16735506186E+02  0.51100000000E-03 0.  1.
         12    1    3    3    0    0  0.13346654676E+01  0.12010966455E+02 -0.12096410996E+02  0.17098766215E+02  0.00000000000E+00 0. -1.
</event>
<event>
 7    1  0.6316620E-012  0.5930193E+02  0.7816164E-02  0.1266605E+00
        -11   -1    0    0    0    0  0.00000000000E+00  0.00000000000E+00  0.45593999997E+02  0.45594000000E+02  0.51100000000E-03 0. -1.
         11   -1    0    0    0    0 -0.00000000000E+00 -0.00000000000E+00 -0.45593999997E+02  0.45594000000E+02  0.51100000000E-03 0.  1.
    9900012    2    1    2    0    0  0.23452794350E+02 -0.21119640382E+01 -0.21499482456E+02  0.59301926225E+02  0.49999967532E+02 0.  0.
         12    1    1    2    0    0 -0.23452794350E+02  0.21119640382E+01  0.21499482456E+02  0.31886073775E+02  0.00000000000E+00 0. -1.
         11    1    3    3    0    0 -0.36334272821E+01  0.52875192079E+01  0.16719641077E+01  0.66298655663E+01  0.51100000000E-03 0. -1.
        -11    1    3    3    0    0  0.61071144933E+01 -0.18749772610E+02 -0.44249484471E+00  0.19724264811E+02  0.51100000000E-03 0.  1.
        -12    1    3    3    0    0  0.20979107139E+02  0.11350289364E+02 -0.22728951719E+02  0.32947795848E+02  0.00000000000E+00 0.  1.
</event>
<event>
 7    1  0.6316620E-012  0.5930195E+02  0.7816164E-02  0.1266605E+00
        -11   -1    0    0    0    0  0.00000000000E+00  0.00000000000E+00  0.45593999997E+02  0.45594000000E+02  0.51100000000E-03 0. -1.
         11   -1    0    0    0    0 -0.00000000000E+00 -0.00000000000E+00 -0.45593999997E+02  0.45594000000E+02  0.51100000000E-03 0.  1.
    9900012    2    1    2    0    0 -0.57884273258E+01 -0.30769416074E+02 -0.60379924384E+01  0.59301949616E+02  0.50000010191E+02 0.  0.
         12    1    1    2    0    0  0.57884273258E+01  0.30769416074E+02  0.60379924384E+01  0.31886050384E+02  0.00000000000E+00 0. -1.
         11    1    3    3    0    0  0.12415749024E+02 -0.20542317593E+02 -0.14145435876E+00  0.24003284057E+02  0.51100000000E-03 0. -1.
        -11    1    3    3    0    0 -0.38070246938E+01 -0.16426702481E+02 -0.93021725975E+01  0.19257736282E+02  0.51100000000E-03 0.  1.
         12    1    3    3    0    0 -0.14397151656E+02  0.61996040004E+01  0.34056345179E+01  0.16040929276E+02  0.00000000000E+00 0. -1.
</event>
<event>
 7    1  0.6316620E-012  0.5930195E+02  0.7816164E-02  0.1266605E+00
        -11   -1    0    0    0    0  0.00000000000E+00  0.00000000000E+00  0.45593999997E+02  0.45594000000E+02  0.51100000000E-03 0. -1.
         11   -1    0    0    0    0 -0.00000000000E+00 -0.00000000000E+00 -0.45593999997E+02  0.45594000000E+02  0.51100000000E-03 0.  1.
    9900012    2    1    2    0    0  0.23138511984E+02  0.21180285423E+02 -0.57205655363E+01  0.59301951366E+02  0.50000013383E+02 0.  0.
         12    1    1    2    0    0 -0.23138511984E+02 -0.21180285423E+02  0.57205655363E+01  0.31886048634E+02  0.00000000000E+00 0. -1.
         11    1    3    3    0    0 -0.13630964938E+01  0.13354515790E+02 -0.55732197039E+01  0.14534851295E+02  0.51100000000E-03 0.  1.
        -11    1    3    3    0    0  0.45846835582E+01  0.19388976921E+02  0.62215315967E+01  0.20872450864E+02  0.51100000000E-03 0. -1.
        -12    1    3    3    0    0  0.19916924920E+02 -0.11563207288E+02 -0.63688774291E+01  0.23894649208E+02  0.00000000000E+00 0.  1.
</event>
<event>
 7    1  0.6316620E-012  0.5930196E+02  0.7816164E-02  0.1266605E+00
        -11   -1    0    0    0    0  0.00000000000E+00  0.00000000000E+00  0.45593999997E+02  0.45594000000E+02  0.51100000000E-03 0.  1.
         11   -1    0    0    0    0 -0.00000000000E+00 -0.00000000000E+00 -0.45593999997E+02  0.45594000000E+02  0.51100000000E-03 0. -1.
    9900012    2    1    2    0    0 -0.65058743354E+00  0.71369506265E+01  0.31070250394E+02  0.59301956223E+02  0.50000022240E+02 0.  0.
         12    1    1    2    0    0  0.65058743354E+00 -0.71369506265E+01 -0.31070250394E+02  0.31886043777E+02  0.00000000000E+00 0. -1.
         11    1    3    3    0    0  0.32769063365E+01 -0.11050264535E+02  0.16559226351E+02  0.20175590178E+02  0.51100000000E-03 0. -1.
        -11    1    3    3    0    0 -0.26852002466E+01 -0.83741151700E+01 -0.82657612355E-01  0.87944833723E+01  0.51100000000E-03 0.  1.
         12    1    3    3    0    0 -0.12422935235E+01  0.26561330332E+02  0.14593681655E+02  0.30331882672E+02  0.00000000000E+00 0. -1.
</event>
<event>
 7    1  0.6316620E-012  0.5930195E+02  0.7816164E-02  0.1266605E+00
        -11   -1    0    0    0    0  0.00000000000E+00  0.00000000000E+00  0.45593999997E+02  0.45594000000E+02  0.51100000000E-03 0.  1.
         11   -1    0    0    0    0 -0.00000000000E+00 -0.00000000000E+00 -0.45593999997E+02  0.45594000000E+02  0.51100000000E-03 0. -1.
    9900012    2    1    2    0    0 -0.51392679740E+01  0.30326181799E+02  0.84042233855E+01  0.59301947429E+02  0.50000006204E+02 0.  0.
         12    1    1    2    0    0  0.51392679740E+01 -0.30326181799E+02 -0.84042233855E+01  0.31886052571E+02  0.00000000000E+00 0. -1.
         11    1    3    3    0    0 -0.53722038543E+01  0.66037842761E+01 -0.17800210200E+02  0.19731143516E+02  0.51100000000E-03 0. -1.
        -11    1    3    3    0    0 -0.35729923228E+01  0.66066991968E+01 -0.60662401437E+00  0.75354323945E+01  0.51100000000E-03 0.  1.
         12    1    3    3    0    0  0.38059282031E+01  0.17115698326E+02  0.26811057600E+02  0.32035371519E+02  0.00000000000E+00 0. -1.
</event>
<event>
 7    1  0.6316620E-012  0.5930223E+02  0.7816164E-02  0.1266604E+00
        -11   -1    0    0    0    0  0.00000000000E+00  0.00000000000E+00  0.45593999997E+02  0.45594000000E+02  0.51100000000E-03 0.  1.
         11   -1    0    0    0    0 -0.00000000000E+00 -0.00000000000E+00 -0.45593999997E+02  0.45594000000E+02  0.51100000000E-03 0. -1.
    9900012    2    1    2    0    0 -0.24940354748E+02 -0.19670877723E+02 -0.27816123734E+01  0.59302233697E+02  0.50000528284E+02 0.  0.
         12    1    1    2    0    0  0.24940354748E+02  0.19670877723E+02  0.27816123734E+01  0.31885766303E+02  0.00000000000E+00 0. -1.
         11    1    3    3    0    0  0.23860573018E+01  0.79557921530E+01  0.35210269676E+00  0.83133552071E+01  0.51100000000E-03 0. -1.
        -11    1    3    3    0    0 -0.97274696677E+01  0.46234406708E+00  0.11229355440E+02  0.14863911061E+02  0.51100000000E-03 0.  1.
        -12    1    3    3    0    0 -0.17598942382E+02 -0.28089013943E+02 -0.14363070510E+02  0.36124967429E+02  0.00000000000E+00 0.  1.
</event>
<event>
 7    1  0.6316620E-012  0.5930194E+02  0.7816164E-02  0.1266605E+00
        -11   -1    0    0    0    0  0.00000000000E+00  0.00000000000E+00  0.45593999997E+02  0.45594000000E+02  0.51100000000E-03 0.  1.
         11   -1    0    0    0    0 -0.00000000000E+00 -0.00000000000E+00 -0.45593999997E+02  0.45594000000E+02  0.51100000000E-03 0. -1.
    9900012    2    1    2    0    0  0.23961642304E+02  0.14435644107E+02  0.15302692966E+02  0.59301944510E+02  0.50000000880E+02 0.  0.
         12    1    1    2    0    0 -0.23961642304E+02 -0.14435644107E+02 -0.15302692966E+02  0.31886055490E+02  0.00000000000E+00 0. -1.
         11    1    3    3    0    0 -0.29927470209E+01 -0.79673931373E+01 -0.18069985706E+01  0.87006397599E+01  0.51100000000E-03 0. -1.
        -11    1    3    3    0    0  0.20744686338E+02 -0.19196925334E+01  0.14458199742E+02  0.25358761222E+02  0.51100000000E-03 0.  1.
         12    1    3    3    0    0  0.62097029865E+01  0.24322729778E+02  0.26514917945E+01  0.25242543528E+02  0.00000000000E+00 0. -1.
</event>
<event>
 7    1  0.6316620E-012  0.5930213E+02  0.7816164E-02  0.1266604E+00
        -11   -1    0    0    0    0  0.00000000000E+00  0.00000000000E+00  0.45593999997E+02  0.45594000000E+02  0.51100000000E-03 0. -1.
         11   -1    0    0    0    0 -0.00000000000E+00 -0.00000000000E+00 -0.45593999997E+02  0.45594000000E+02  0.51100000000E-03 0.  1.
    9900012    2    1    2    0    0  0.70487144567E+00  0.22707218468E+02 -0.22373958525E+02  0.59302131118E+02  0.50000341206E+02 0.  0.
         12    1    1    2    0    0 -0.70487144567E+00 -0.22707218468E+02  0.22373958525E+02  0.31885868882E+02  0.00000000000E+00 0. -1.
         11    1    3    3    0    0  0.22068210178E+01 -0.13575041621E+02 -0.37711416783E+01  0.14260901929E+02  0.51100000000E-03 0. -1.
        -11    1    3    3    0    0  0.70787287751E+01  0.70828936124E+01 -0.14845101551E+01  0.10123218542E+02  0.51100000000E-03 0.  1.
         12    1    3    3    0    0 -0.85806783473E+01  0.29199366476E+02 -0.17118306691E+02  0.34918010646E+02  0.00000000000E+00 0. -1.
</event>
<event>
 7    1  0.6316620E-012  0.5930196E+02  0.7816164E-02  0.1266605E+00
        -11   -1    0    0    0    0  0.00000000000E+00  0.00000000000E+00  0.45593999997E+02  0.45594000000E+02  0.51100000000E-03 0.  1.
         11   -1    0    0    0    0 -0.00000000000E+00 -0.00000000000E+00 -0.45593999997E+02  0.45594000000E+02  0.51100000000E-03 0. -1.
    9900012    2    1    2    0    0  0.17172860555E+02 -0.20542391055E+02  0.17315387593E+02  0.59301958894E+02  0.50000027113E+02 0.  0.
         12    1    1    2    0    0 -0.17172860555E+02  0.20542391055E+02 -0.17315387593E+02  0.31886041106E+02  0.00000000000E+00 0. -1.
         11    1    3    3    0    0  0.99544385087E+00 -0.12398774187E+02  0.25195317599E+02  0.28098479300E+02  0.51100000000E-03 0.  1.
        -11    1    3    3    0    0 -0.11274518270E+01  0.65103403776E+01  0.13104576188E+01  0.67359467698E+01  0.51100000000E-03 0. -1.
         12    1    3    3    0    0  0.17304868531E+02 -0.14653957246E+02 -0.91903876241E+01  0.24467532824E+02  0.00000000000E+00 0. -1.
</event>
<event>
 7    1  0.6316620E-012  0.5930195E+02  0.7816164E-02  0.1266605E+00
        -11   -1    0    0    0    0  0.00000000000E+00  0.00000000000E+00  0.45593999997E+02  0.45594000000E+02  0.51100000000E-03 0.  1.
         11   -1    0    0    0    0 -0.00000000000E+00 -0.00000000000E+00 -0.45593999997E+02  0.45594000000E+02  0.51100000000E-03 0. -1.
    9900012    2    1    2    0    0  0.27024796591E+02  0.20817942089E+01  0.16794247014E+02  0.59301949278E+02  0.50000009575E+02 0.  0.
         12    1    1    2    0    0 -0.27024796591E+02 -0.20817942089E+01 -0.16794247014E+02  0.31886050722E+02  0.00000000000E+00 0. -1.
         11    1    3    3    0    0 -0.34056306944E+01  0.28463939215E+01  0.32982249618E+01  0.55297890505E+01  0.51100000000E-03 0. -1.
        -11    1    3    3    0    0  0.12227714030E+02 -0.19229583863E+02 -0.30838869492E+01  0.22995744061E+02  0.51100000000E-03 0.  1.
        -12    1    3    3    0    0  0.18202713255E+02  0.18464984151E+02  0.16579909001E+02  0.30776416166E+02  0.00000000000E+00 0.  1.
</event>
<event>
 7    1  0.6316620E-012  0.5930192E+02  0.7816164E-02  0.1266605E+00
        -11   -1    0    0    0    0  0.00000000000E+00  0.00000000000E+00  0.45593999997E+02  0.45594000000E+02  0.51100000000E-03 0.  1.
         11   -1    0    0    0    0 -0.00000000000E+00 -0.00000000000E+00 -0.45593999997E+02  0.45594000000E+02  0.51100000000E-03 0. -1.
    9900012    2    1    2    0    0  0.25155746206E+02 -0.19527598162E+01  0.19496075068E+02  0.59301924965E+02  0.49999965235E+02 0.  0.
         12    1    1    2    0    0 -0.25155746206E+02  0.19527598162E+01 -0.19496075068E+02  0.31886075035E+02  0.00000000000E+00 0. -1.
         11    1    3    3    0    0  0.41830861915E+01  0.42760300225E+01 -0.18972065375E+01  0.62755107957E+01  0.51100000000E-03 0. -1.
        -11    1    3    3    0    0  0.30041751477E+02 -0.57111806589E+01  0.28260681431E+02  0.41638810401E+02  0.51100000000E-03 0.  1.
         12    1    3    3    0    0 -0.90690914634E+01 -0.51760917983E+00 -0.68673998257E+01  0.11387603769E+02  0.00000000000E+00 0. -1.
</event>
<event>
 7    1  0.6316620E-012  0.5930196E+02  0.7816164E-02  0.1266605E+00
        -11   -1    0    0    0    0  0.00000000000E+00  0.00000000000E+00  0.45593999997E+02  0.45594000000E+02  0.51100000000E-03 0.  1.
         11   -1    0    0    0    0 -0.00000000000E+00 -0.00000000000E+00 -0.45593999997E+02  0.45594000000E+02  0.51100000000E-03 0. -1.
    9900012    2    1    2    0    0 -0.37018711462E+01 -0.12587700771E+02  0.29061412280E+02  0.59301956903E+02  0.50000023481E+02 0.  0.
         12    1    1    2    0    0  0.37018711462E+01  0.12587700771E+02 -0.29061412280E+02  0.31886043097E+02  0.00000000000E+00 0. -1.
         11    1    3    3    0    0 -0.17400353357E+02  0.28981661691E+01  0.77018281513E+01  0.19248112147E+02  0.51100000000E-03 0. -1.
        -11    1    3    3    0    0 -0.50288894566E+01 -0.26940304007E+01  0.15663741861E+02  0.16670343077E+02  0.51100000000E-03 0.  1.
        -12    1    3    3    0    0  0.18727371667E+02 -0.12791836539E+02  0.56958422676E+01  0.23383501678E+02  0.00000000000E+00 0.  1.
</event>
<event>
 7    1  0.6316620E-012  0.5930200E+02  0.7816164E-02  0.1266605E+00
        -11   -1    0    0    0    0  0.00000000000E+00  0.00000000000E+00  0.45593999997E+02  0.45594000000E+02  0.51100000000E-03 0.  1.
         11   -1    0    0    0    0 -0.00000000000E+00 -0.00000000000E+00 -0.45593999997E+02  0.45594000000E+02  0.51100000000E-03 0. -1.
    9900012    2    1    2    0    0  0.10725393796E+02 -0.74584753124E+01  0.29087011287E+02  0.59301997559E+02  0.50000097628E+02 0.  0.
         12    1    1    2    0    0 -0.10725393796E+02  0.74584753124E+01 -0.29087011287E+02  0.31886002441E+02  0.00000000000E+00 0. -1.
         11    1    3    3    0    0  0.77334465149E+01  0.96894698047E+01  0.21689892481E+01  0.12585568510E+02  0.51100000000E-03 0. -1.
        -11    1    3    3    0    0 -0.38491166658E+01  0.70532973639E+01 -0.21114062197E+01  0.83079924949E+01  0.51100000000E-03 0.  1.
         12    1    3    3    0    0  0.68410639464E+01 -0.24201242481E+02  0.29029428259E+02  0.38408436554E+02  0.00000000000E+00 0. -1.
</event>
<event>
 7    1  0.6316620E-012  0.5930195E+02  0.7816164E-02  0.1266605E+00
        -11   -1    0    0    0    0  0.00000000000E+00  0.00000000000E+00  0.45593999997E+02  0.45594000000E+02  0.51100000000E-03 0.  1.
         11   -1    0    0    0    0 -0.00000000000E+00 -0.00000000000E+00 -0.45593999997E+02  0.45594000000E+02  0.51100000000E-03 0. -1.
    9900012    2    1    2    0    0 -0.62949820373E+01  0.11909239039E+02  0.28900922295E+02  0.59301951596E+02  0.50000013803E+02 0.  0.
         12    1    1    2    0    0  0.62949820373E+01 -0.11909239039E+02 -0.28900922295E+02  0.31886048404E+02  0.00000000000E+00 0. -1.
         11    1    3    3    0    0  0.13674453450E+02  0.98478717930E+01  0.12038018630E+02  0.20709542458E+02  0.51100000000E-03 0.  1.
        -11    1    3    3    0    0 -0.22010096052E+01 -0.10117144250E+01 -0.77278975936E+01  0.80986672260E+01  0.51100000000E-03 0. -1.
        -12    1    3    3    0    0 -0.17768425882E+02  0.30730816710E+01  0.24590801258E+02  0.30493741912E+02  0.00000000000E+00 0.  1.
</event>
<event>
 7    1  0.6316620E-012  0.5930195E+02  0.7816164E-02  0.1266605E+00
        -11   -1    0    0    0    0  0.00000000000E+00  0.00000000000E+00  0.45593999997E+02  0.45594000000E+02  0.51100000000E-03 0. -1.
         11   -1    0    0    0    0 -0.00000000000E+00 -0.00000000000E+00 -0.45593999997E+02  0.45594000000E+02  0.51100000000E-03 0.  1.
    9900012    2    1    2    0    0  0.29990187046E+02  0.52163022971E+01 -0.94920406399E+01  0.59301953456E+02  0.50000017195E+02 0.  0.
         12    1    1    2    0    0 -0.29990187046E+02 -0.52163022971E+01  0.94920406399E+01  0.31886046544E+02  0.00000000000E+00 0. -1.
         11    1    3    3    0    0 -0.75183130186E+01 -0.66377371019E+01 -0.11109227134E+02  0.14966613253E+02  0.51100000000E-03 0.  1.
        -11    1    3    3    0    0  0.15627202085E+02 -0.28088627006E+00  0.92678017706E+01  0.18170869324E+02  0.51100000000E-03 0. -1.
        -12    1    3    3    0    0  0.21881297980E+02  0.12134925669E+02 -0.76506152763E+01  0.26164470879E+02  0.00000000000E+00 0.  1.
</event>
<event>
 7    1  0.6316620E-012  0.5930186E+02  0.7816164E-02  0.1266605E+00
        -11   -1    0    0    0    0  0.00000000000E+00  0.00000000000E+00  0.45593999997E+02  0.45594000000E+02  0.51100000000E-03 0.  1.
         11   -1    0    0    0    0 -0.00000000000E+00 -0.00000000000E+00 -0.45593999997E+02  0.45594000000E+02  0.51100000000E-03 0. -1.
    9900012    2    1    2    0    0  0.19435435427E+02 -0.24756581117E+02 -0.51089586625E+01  0.59301860104E+02  0.49999846943E+02 0.  0.
         12    1    1    2    0    0 -0.19435435427E+02  0.24756581117E+02  0.51089586625E+01  0.31886139896E+02  0.00000000000E+00 0. -1.
         11    1    3    3    0    0  0.12961730413E+02 -0.24884293154E+01 -0.22231082466E+01  0.13384354534E+02  0.51100000000E-03 0. -1.
        -11    1    3    3    0    0  0.14498027219E+02 -0.30825754905E+02 -0.28774361948E+01  0.34186248668E+02  0.51100000000E-03 0.  1.
        -12    1    3    3    0    0 -0.80243222044E+01  0.85576031027E+01 -0.84142210660E-02  0.11731256902E+02  0.00000000000E+00 0.  1.
</event>
<event>
 7    1  0.6316620E-012  0.5930196E+02  0.7816164E-02  0.1266605E+00
        -11   -1    0    0    0    0  0.00000000000E+00  0.00000000000E+00  0.45593999997E+02  0.45594000000E+02  0.51100000000E-03 0.  1.
         11   -1    0    0    0    0 -0.00000000000E+00 -0.00000000000E+00 -0.45593999997E+02  0.45594000000E+02  0.51100000000E-03 0. -1.
    9900012    2    1    2    0    0  0.16274702036E+02 -0.23949506372E+02  0.13351953513E+02  0.59301961606E+02  0.50000032059E+02 0.  0.
         12    1    1    2    0    0 -0.16274702036E+02  0.23949506372E+02 -0.13351953513E+02  0.31886038394E+02  0.00000000000E+00 0. -1.
         11    1    3    3    0    0 -0.36815242114E+01  0.93346477256E+01 -0.22875208026E+00  0.10037011331E+02  0.51100000000E-03 0. -1.
        -11    1    3    3    0    0 -0.14122235516E+01 -0.12069801178E+02 -0.57905616165E+01  0.13461243625E+02  0.51100000000E-03 0.  1.
        -12    1    3    3    0    0  0.21368449799E+02 -0.21214352919E+02  0.19371267210E+02  0.35803706651E+02  0.00000000000E+00 0.  1.
</event>
<event>
 7    1  0.6316620E-012  0.5930195E+02  0.7816164E-02  0.1266605E+00
        -11   -1    0    0    0    0  0.00000000000E+00  0.00000000000E+00  0.45593999997E+02  0.45594000000E+02  0.51100000000E-03 0.  1.
         11   -1    0    0    0    0 -0.00000000000E+00 -0.00000000000E+00 -0.45593999997E+02  0.45594000000E+02  0.51100000000E-03 0. -1.
    9900012    2    1    2    0    0  0.21390024039E+02 -0.69045587063E+00  0.23637055552E+02  0.59301948929E+02  0.50000008940E+02 0.  0.
         12    1    1    2    0    0 -0.21390024039E+02  0.69045587063E+00 -0.23637055552E+02  0.31886051071E+02  0.00000000000E+00 0. -1.
         11    1    3    3    0    0 -0.53932586119E+01 -0.39970737471E+01  0.53336703203E+01  0.85739067141E+01  0.51100000000E-03 0. -1.
        -11    1    3    3    0    0  0.41297239520E+00  0.15724318699E+02 -0.10103568404E+01  0.15762156133E+02  0.51100000000E-03 0.  1.
        -12    1    3    3    0    0  0.26370310256E+02 -0.12417700823E+02  0.19313742072E+02  0.34965886083E+02  0.00000000000E+00 0.  1.
</event>
<event>
 7    1  0.6316620E-012  0.5930191E+02  0.7816164E-02  0.1266605E+00
        -11   -1    0    0    0    0  0.00000000000E+00  0.00000000000E+00  0.45593999997E+02  0.45594000000E+02  0.51100000000E-03 0. -1.
         11   -1    0    0    0    0 -0.00000000000E+00 -0.00000000000E+00 -0.45593999997E+02  0.45594000000E+02  0.51100000000E-03 0.  1.
    9900012    2    1    2    0    0  0.14467276880E+02 -0.27903537426E+02 -0.53677792691E+01  0.59301912823E+02  0.49999943089E+02 0.  0.
         12    1    1    2    0    0 -0.14467276880E+02  0.27903537426E+02  0.53677792691E+01  0.31886087177E+02  0.00000000000E+00 0. -1.
         11    1    3    3    0    0  0.56294070660E+01 -0.23262653802E+02  0.10958864400E+02  0.26323715448E+02  0.51100000000E-03 0. -1.
        -11    1    3    3    0    0  0.14422115820E+02 -0.11071115942E+02 -0.50933742856E+01  0.18881459022E+02  0.51100000000E-03 0.  1.
         12    1    3    3    0    0 -0.55842460061E+01  0.64302323178E+01 -0.11233269384E+02  0.14096738352E+02  0.00000000000E+00 0. -1.
</event>
<event>
 7    1  0.6316620E-012  0.5930193E+02  0.7816164E-02  0.1266605E+00
        -11   -1    0    0    0    0  0.00000000000E+00  0.00000000000E+00  0.45593999997E+02  0.45594000000E+02  0.51100000000E-03 0.  1.
         11   -1    0    0    0    0 -0.00000000000E+00 -0.00000000000E+00 -0.45593999997E+02  0.45594000000E+02  0.51100000000E-03 0. -1.
    9900012    2    1    2    0    0  0.21183234019E+00 -0.27541959491E+02  0.16066030896E+02  0.59301925386E+02  0.49999966002E+02 0.  0.
         12    1    1    2    0    0 -0.21183234019E+00  0.27541959491E+02 -0.16066030896E+02  0.31886074614E+02  0.00000000000E+00 0. -1.
         11    1    3    3    0    0  0.18036898038E+02 -0.59906586323E+01 -0.31205290349E+01  0.19260202061E+02  0.51100000000E-03 0. -1.
        -11    1    3    3    0    0  0.53281672665E+00  0.36718145626E+01  0.68933056954E+00  0.37737637368E+01  0.51100000000E-03 0.  1.
        -12    1    3    3    0    0 -0.18357882425E+02 -0.25223115421E+02  0.18497229362E+02  0.36267959589E+02  0.00000000000E+00 0.  1.
</event>
<event>
 7    1  0.7933972E-012  0.5930194E+02  0.7816164E-02  0.1266605E+00
        -11   -1    0    0    0    0  0.00000000000E+00  0.00000000000E+00  0.45593999997E+02  0.45594000000E+02  0.51100000000E-03 0. -1.
         11   -1    0    0    0    0 -0.00000000000E+00 -0.00000000000E+00 -0.45593999997E+02  0.45594000000E+02  0.51100000000E-03 0.  1.
    9900012    2    1    2    0    0 -0.68306119877E+01  0.14800454734E+02 -0.27404564167E+02  0.59301939446E+02  0.49999991644E+02 0.  0.
         12    1    1    2    0    0  0.68306119877E+01 -0.14800454734E+02  0.27404564167E+02  0.31886060554E+02  0.00000000000E+00 0. -1.
         11    1    3    3    0    0 -0.19320761745E+01 -0.63074510089E+01  0.46648575053E+01  0.80794648573E+01  0.51100000000E-03 0. -1.
        -11    1    3    3    0    0 -0.14537311640E+02  0.16186351576E+01 -0.23850123736E+02  0.27978238185E+02  0.51100000000E-03 0.  1.
        -12    1    3    3    0    0  0.96387758267E+01  0.19489270586E+02 -0.82192979368E+01  0.23244236403E+02  0.00000000000E+00 0.  1.
</event>
<event>
 7    1  0.6316620E-012  0.5930194E+02  0.7816164E-02  0.1266605E+00
        -11   -1    0    0    0    0  0.00000000000E+00  0.00000000000E+00  0.45593999997E+02  0.45594000000E+02  0.51100000000E-03 0.  1.
         11   -1    0    0    0    0 -0.00000000000E+00 -0.00000000000E+00 -0.45593999997E+02  0.45594000000E+02  0.51100000000E-03 0. -1.
    9900012    2    1    2    0    0 -0.11489719764E+01  0.31860897618E+02 -0.53271241450E+00  0.59301941665E+02  0.49999995691E+02 0.  0.
         12    1    1    2    0    0  0.11489719764E+01 -0.31860897618E+02  0.53271241450E+00  0.31886058335E+02  0.00000000000E+00 0. -1.
         11    1    3    3    0    0  0.83319116004E+01 -0.30331880260E+01 -0.93278186600E+01  0.12869700142E+02  0.51100000000E-03 0.  1.
        -11    1    3    3    0    0 -0.13798605713E+01  0.51862204255E+01 -0.92847752964E+01  0.10724175962E+02  0.51100000000E-03 0. -1.
         12    1    3    3    0    0 -0.81010230055E+01  0.29707865218E+02  0.18079881542E+02  0.35708065562E+02  0.00000000000E+00 0. -1.
</event>
<event>
 7    1  0.6316620E-012  0.5930198E+02  0.7816164E-02  0.1266605E+00
        -11   -1    0    0    0    0  0.00000000000E+00  0.00000000000E+00  0.45593999997E+02  0.45594000000E+02  0.51100000000E-03 0.  1.
         11   -1    0    0    0    0 -0.00000000000E+00 -0.00000000000E+00 -0.45593999997E+02  0.45594000000E+02  0.51100000000E-03 0. -1.
    9900012    2    1    2    0    0  0.27053782346E+02 -0.40243485256E+01  0.16389507471E+02  0.59301976802E+02  0.50000059772E+02 0.  0.
         12    1    1    2    0    0 -0.27053782346E+02  0.40243485256E+01 -0.16389507471E+02  0.31886023198E+02  0.00000000000E+00 0. -1.
         11    1    3    3    0    0  0.26162386938E+01 -0.19385147417E+02 -0.42764175227E+01  0.20022896703E+02  0.51100000000E-03 0. -1.
        -11    1    3    3    0    0  0.14601917050E+01 -0.11379713607E+01  0.81307440460E+01  0.83388331099E+01  0.51100000000E-03 0.  1.
        -12    1    3    3    0    0  0.22977351947E+02  0.16498770252E+02  0.12535180947E+02  0.30940246989E+02  0.00000000000E+00 0.  1.
</event>
<event>
 7    1  0.6316620E-012  0.5930191E+02  0.7816164E-02  0.1266605E+00
        -11   -1    0    0    0    0  0.00000000000E+00  0.00000000000E+00  0.45593999997E+02  0.45594000000E+02  0.51100000000E-03 0.  1.
         11   -1    0    0    0    0 -0.00000000000E+00 -0.00000000000E+00 -0.45593999997E+02  0.45594000000E+02  0.51100000000E-03 0. -1.
    9900012    2    1    2    0    0 -0.17404587299E+02  0.52040982803E+01  0.26205347385E+02  0.59301913229E+02  0.49999943831E+02 0.  0.
         12    1    1    2    0    0  0.17404587299E+02 -0.52040982803E+01 -0.26205347385E+02  0.31886086771E+02  0.00000000000E+00 0. -1.
         11    1    3    3    0    0 -0.76752835137E+01  0.46010899288E+00  0.21179001538E+02  0.22531573042E+02  0.51100000000E-03 0.  1.
        -11    1    3    3    0    0  0.77430749529E+01 -0.38384646612E+00  0.14351922231E+02  0.16311965542E+02  0.51100000000E-03 0. -1.
         12    1    3    3    0    0 -0.17472378738E+02  0.51278357535E+01 -0.93255763843E+01  0.20458374646E+02  0.00000000000E+00 0. -1.
</event>
<event>
 7    1  0.6316620E-012  0.5930167E+02  0.7816164E-02  0.1266606E+00
        -11   -1    0    0    0    0  0.00000000000E+00  0.00000000000E+00  0.45593999997E+02  0.45594000000E+02  0.51100000000E-03 0.  1.
         11   -1    0    0    0    0 -0.00000000000E+00 -0.00000000000E+00 -0.45593999997E+02  0.45594000000E+02  0.51100000000E-03 0. -1.
    9900012    2    1    2    0    0  0.15241043949E+02 -0.26942983418E+02 -0.76501232821E+01  0.59301668095E+02  0.49999496762E+02 0.  0.
         12    1    1    2    0    0 -0.15241043949E+02  0.26942983418E+02  0.76501232821E+01  0.31886331905E+02  0.00000000000E+00 0. -1.
         11    1    3    3    0    0  0.10923354106E+02  0.44525592682E+01 -0.69801746458E+01  0.13706487052E+02  0.51100000000E-03 0. -1.
        -11    1    3    3    0    0  0.14270213004E+02 -0.29066269461E+02 -0.75818036850E+01  0.33256138485E+02  0.51100000000E-03 0.  1.
         12    1    3    3    0    0 -0.99525231608E+01 -0.23292732248E+01  0.69118550486E+01  0.12339042557E+02  0.00000000000E+00 0. -1.
</event>
<event>
 7    1  0.6316620E-012  0.5930194E+02  0.7816164E-02  0.1266605E+00
        -11   -1    0    0    0    0  0.00000000000E+00  0.00000000000E+00  0.45593999997E+02  0.45594000000E+02  0.51100000000E-03 0.  1.
         11   -1    0    0    0    0 -0.00000000000E+00 -0.00000000000E+00 -0.45593999997E+02  0.45594000000E+02  0.51100000000E-03 0. -1.
    9900012    2    1    2    0    0  0.25534947029E+01 -0.28139477122E+02  0.14777364928E+02  0.59301936867E+02  0.49999986940E+02 0.  0.
         12    1    1    2    0    0 -0.25534947029E+01  0.28139477122E+02 -0.14777364928E+02  0.31886063133E+02  0.00000000000E+00 0. -1.
         11    1    3    3    0    0  0.87300419366E+01 -0.11151296592E+02 -0.68958203014E+01  0.15751742310E+02  0.51100000000E-03 0. -1.
        -11    1    3    3    0    0  0.64070824978E+01 -0.21352015853E+02  0.20318082535E+02  0.30162621989E+02  0.51100000000E-03 0.  1.
        -12    1    3    3    0    0 -0.12583629732E+02  0.43638353227E+01  0.13551026943E+01  0.13387572568E+02  0.00000000000E+00 0.  1.
</event>
<event>
 7    1  0.6316620E-012  0.5930194E+02  0.7816164E-02  0.1266605E+00
        -11   -1    0    0    0    0  0.00000000000E+00  0.00000000000E+00  0.45593999997E+02  0.45594000000E+02  0.51100000000E-03 0.  1.
         11   -1    0    0    0    0 -0.00000000000E+00 -0.00000000000E+00 -0.45593999997E+02  0.45594000000E+02  0.51100000000E-03 0. -1.
    9900012    2    1    2    0    0  0.76475030352E+01  0.23259160241E+02 -0.20426651634E+02  0.59301938237E+02  0.49999989438E+02 0.  0.
         12    1    1    2    0    0 -0.76475030352E+01 -0.23259160241E+02  0.20426651634E+02  0.31886061763E+02  0.00000000000E+00 0. -1.
         11    1    3    3    0    0  0.79301502732E+01 -0.17972936870E+01 -0.14111783201E+02  0.16286803656E+02  0.51100000000E-03 0. -1.
        -11    1    3    3    0    0  0.15134056818E+02  0.39730513174E+01 -0.63767869576E+01  0.16896396796E+02  0.51100000000E-03 0.  1.
         12    1    3    3    0    0 -0.15416704056E+02  0.21083402611E+02  0.61918523880E-01  0.26118737785E+02  0.00000000000E+00 0. -1.
</event>
<event>
 7    1  0.6316620E-012  0.5930192E+02  0.7816164E-02  0.1266605E+00
        -11   -1    0    0    0    0  0.00000000000E+00  0.00000000000E+00  0.45593999997E+02  0.45594000000E+02  0.51100000000E-03 0.  1.
         11   -1    0    0    0    0 -0.00000000000E+00 -0.00000000000E+00 -0.45593999997E+02  0.45594000000E+02  0.51100000000E-03 0. -1.
    9900012    2    1    2    0    0 -0.21122445913E+02 -0.91680924114E+01  0.22056978797E+02  0.59301922263E+02  0.49999960307E+02 0.  0.
         12    1    1    2    0    0  0.21122445913E+02  0.91680924114E+01 -0.22056978797E+02  0.31886077737E+02  0.00000000000E+00 0. -1.
         11    1    3    3    0    0 -0.14619024034E+02 -0.17054321228E+02  0.26176551262E+02  0.34493152545E+02  0.51100000000E-03 0. -1.
        -11    1    3    3    0    0 -0.85394786884E+00  0.10465498256E+01  0.89287902778E+01  0.90303814751E+01  0.51100000000E-03 0.  1.
         12    1    3    3    0    0 -0.56494740100E+01  0.68396789910E+01 -0.13048362743E+02  0.15778388244E+02  0.00000000000E+00 0. -1.
</event>
<event>
 7    1  0.6316620E-012  0.5930192E+02  0.7816164E-02  0.1266605E+00
        -11   -1    0    0    0    0  0.00000000000E+00  0.00000000000E+00  0.45593999997E+02  0.45594000000E+02  0.51100000000E-03 0. -1.
         11   -1    0    0    0    0 -0.00000000000E+00 -0.00000000000E+00 -0.45593999997E+02  0.45594000000E+02  0.51100000000E-03 0.  1.
    9900012    2    1    2    0    0 -0.55153862544E+01 -0.19612221983E+02  0.24528822972E+02  0.59301923210E+02  0.49999962034E+02 0.  0.
         12    1    1    2    0    0  0.55153862544E+01  0.19612221983E+02 -0.24528822972E+02  0.31886076790E+02  0.00000000000E+00 0. -1.
         11    1    3    3    0    0  0.11859277600E+02 -0.18455131922E+02  0.15811494081E+02  0.27041407226E+02  0.51100000000E-03 0. -1.
        -11    1    3    3    0    0 -0.80581114746E+01 -0.12426539469E+02  0.95373153699E+01  0.17615686999E+02  0.51100000000E-03 0.  1.
        -12    1    3    3    0    0 -0.93165523795E+01  0.11269449407E+02 -0.81998647901E+00  0.14644828985E+02  0.00000000000E+00 0.  1.
</event>
<event>
 7    1  0.6316620E-012  0.5930194E+02  0.7816164E-02  0.1266605E+00
        -11   -1    0    0    0    0  0.00000000000E+00  0.00000000000E+00  0.45593999997E+02  0.45594000000E+02  0.51100000000E-03 0.  1.
         11   -1    0    0    0    0 -0.00000000000E+00 -0.00000000000E+00 -0.45593999997E+02  0.45594000000E+02  0.51100000000E-03 0. -1.
    9900012    2    1    2    0    0  0.11956425213E+02 -0.29536599130E+02  0.11635024944E+01  0.59301944582E+02  0.50000001011E+02 0.  0.
         12    1    1    2    0    0 -0.11956425213E+02  0.29536599130E+02 -0.11635024944E+01  0.31886055418E+02  0.00000000000E+00 0. -1.
         11    1    3    3    0    0  0.20368898548E+01 -0.16752921354E+02 -0.95934909167E+01  0.19412479553E+02  0.51100000000E-03 0. -1.
        -11    1    3    3    0    0  0.13602621806E+02  0.56791601261E+01 -0.47624471171E+01  0.15490806388E+02  0.51100000000E-03 0.  1.
        -12    1    3    3    0    0 -0.36830864480E+01 -0.18462837903E+02  0.15519440528E+02  0.24398658642E+02  0.00000000000E+00 0.  1.
</event>
<event>
 7    1  0.6316620E-012  0.5930194E+02  0.7816164E-02  0.1266605E+00
        -11   -1    0    0    0    0  0.00000000000E+00  0.00000000000E+00  0.45593999997E+02  0.45594000000E+02  0.51100000000E-03 0.  1.
         11   -1    0    0    0    0 -0.00000000000E+00 -0.00000000000E+00 -0.45593999997E+02  0.45594000000E+02  0.51100000000E-03 0. -1.
    9900012    2    1    2    0    0  0.27116964273E+02  0.26917874086E+01  0.16557327245E+02  0.59301944171E+02  0.50000000261E+02 0.  0.
         12    1    1    2    0    0 -0.27116964273E+02 -0.26917874086E+01 -0.16557327245E+02  0.31886055829E+02  0.00000000000E+00 0. -1.
         11    1    3    3    0    0  0.10854095118E+02 -0.19122677386E+01  0.11912949413E+02  0.16229187063E+02  0.51100000000E-03 0. -1.
        -11    1    3    3    0    0  0.11700721918E+02 -0.16375856143E+02  0.73631623749E+01  0.21431092325E+02  0.51100000000E-03 0.  1.
         12    1    3    3    0    0  0.45621472367E+01  0.20979911290E+02 -0.27187845430E+01  0.21641664782E+02  0.00000000000E+00 0. -1.
</event>
<event>
 7    1  0.6316620E-012  0.5930193E+02  0.7816164E-02  0.1266605E+00
        -11   -1    0    0    0    0  0.00000000000E+00  0.00000000000E+00  0.45593999997E+02  0.45594000000E+02  0.51100000000E-03 0.  1.
         11   -1    0    0    0    0 -0.00000000000E+00 -0.00000000000E+00 -0.45593999997E+02  0.45594000000E+02  0.51100000000E-03 0. -1.
    9900012    2    1    2    0    0  0.18422253362E+02 -0.12852232505E+02  0.22630997012E+02  0.59301932116E+02  0.49999978276E+02 0.  0.
         12    1    1    2    0    0 -0.18422253362E+02  0.12852232505E+02 -0.22630997012E+02  0.31886067884E+02  0.00000000000E+00 0. -1.
         11    1    3    3    0    0  0.10803484505E+01  0.79546827681E+01  0.32200533968E+01  0.86494436153E+01  0.51100000000E-03 0. -1.
        -11    1    3    3    0    0  0.28758936109E+02 -0.94870815232E+01  0.15869599191E+02  0.34189549583E+02  0.51100000000E-03 0.  1.
        -12    1    3    3    0    0 -0.11417031197E+02 -0.11319833750E+02  0.35413444244E+01  0.16462938918E+02  0.00000000000E+00 0.  1.
</event>
<event>
 7    1  0.6316620E-012  0.5930194E+02  0.7816164E-02  0.1266605E+00
        -11   -1    0    0    0    0  0.00000000000E+00  0.00000000000E+00  0.45593999997E+02  0.45594000000E+02  0.51100000000E-03 0.  1.
         11   -1    0    0    0    0 -0.00000000000E+00 -0.00000000000E+00 -0.45593999997E+02  0.45594000000E+02  0.51100000000E-03 0. -1.
    9900012    2    1    2    0    0  0.66794709163E+01  0.10778982506E+02  0.29256091307E+02  0.59301942324E+02  0.49999996892E+02 0.  0.
         12    1    1    2    0    0 -0.66794709163E+01 -0.10778982506E+02 -0.29256091307E+02  0.31886057676E+02  0.00000000000E+00 0. -1.
         11    1    3    3    0    0 -0.52093898971E+01 -0.47851662385E+01 -0.78626231533E+01  0.10576218707E+02  0.51100000000E-03 0. -1.
        -11    1    3    3    0    0  0.14172276539E+02 -0.15890595925E+01  0.16845015104E+02  0.22071091201E+02  0.51100000000E-03 0.  1.
        -12    1    3    3    0    0 -0.22834157260E+01  0.17153208337E+02  0.20273699356E+02  0.26654632415E+02  0.00000000000E+00 0.  1.
</event>
<event>
 7    1  0.6316620E-012  0.5930193E+02  0.7816164E-02  0.1266605E+00
        -11   -1    0    0    0    0  0.00000000000E+00  0.00000000000E+00  0.45593999997E+02  0.45594000000E+02  0.51100000000E-03 0. -1.
         11   -1    0    0    0    0 -0.00000000000E+00 -0.00000000000E+00 -0.45593999997E+02  0.45594000000E+02  0.51100000000E-03 0.  1.
    9900012    2    1    2    0    0  0.11837639203E+00  0.25952512195E+02 -0.18524978338E+02  0.59301925851E+02  0.49999966850E+02 0.  0.
         12    1    1    2    0    0 -0.11837639203E+00 -0.25952512195E+02  0.18524978338E+02  0.31886074149E+02  0.00000000000E+00 0. -1.
         11    1    3    3    0    0 -0.31687920286E+01  0.82900249459E+01 -0.10550026287E+02  0.13786544580E+02  0.51100000000E-03 0. -1.
        -11    1    3    3    0    0 -0.17812538404E+02  0.13907031163E+02 -0.83196690117E+01  0.24081298406E+02  0.51100000000E-03 0.  1.
         12    1    3    3    0    0  0.21099706825E+02  0.37554560859E+01  0.34471696099E+00  0.21434082866E+02  0.00000000000E+00 0. -1.
</event>
<event>
 7    1  0.6316620E-012  0.5930196E+02  0.7816164E-02  0.1266605E+00
        -11   -1    0    0    0    0  0.00000000000E+00  0.00000000000E+00  0.45593999997E+02  0.45594000000E+02  0.51100000000E-03 0. -1.
         11   -1    0    0    0    0 -0.00000000000E+00 -0.00000000000E+00 -0.45593999997E+02  0.45594000000E+02  0.51100000000E-03 0.  1.
    9900012    2    1    2    0    0 -0.25964527986E+02 -0.42594295271E+01 -0.18011669542E+02  0.59301957707E+02  0.50000024947E+02 0.  0.
         12    1    1    2    0    0  0.25964527986E+02  0.42594295271E+01  0.18011669542E+02  0.31886042293E+02  0.00000000000E+00 0. -1.
         11    1    3    3    0    0  0.11624457518E+02 -0.72342095301E+01 -0.70772131692E+01  0.15412616475E+02  0.51100000000E-03 0. -1.
        -11    1    3    3    0    0 -0.10200893315E+02 -0.55058146843E+01  0.30545696391E+01  0.11987602584E+02  0.51100000000E-03 0.  1.
        -12    1    3    3    0    0 -0.27388092189E+02  0.84805946872E+01 -0.13989026012E+02  0.31901738648E+02  0.00000000000E+00 0.  1.
</event>
<event>
 7    1  0.6316620E-012  0.5930194E+02  0.7816164E-02  0.1266605E+00
        -11   -1    0    0    0    0  0.00000000000E+00  0.00000000000E+00  0.45593999997E+02  0.45594000000E+02  0.51100000000E-03 0. -1.
         11   -1    0    0    0    0 -0.00000000000E+00 -0.00000000000E+00 -0.45593999997E+02  0.45594000000E+02  0.51100000000E-03 0.  1.
    9900012    2    1    2    0    0 -0.10661555683E+02  0.15890282102E+02 -0.25505896458E+02  0.59301943659E+02  0.49999999327E+02 0.  0.
         12    1    1    2    0    0  0.10661555683E+02 -0.15890282102E+02  0.25505896458E+02  0.31886056341E+02  0.00000000000E+00 0. -1.
         11    1    3    3    0    0 -0.11220968295E+02  0.22484877159E+01 -0.21964828322E+02  0.24767307281E+02  0.51100000000E-03 0. -1.
        -11    1    3    3    0    0  0.79855741786E+01  0.30471218100E+01 -0.14991764589E+02  0.17257095701E+02  0.51100000000E-03 0.  1.
         12    1    3    3    0    0 -0.74261615662E+01  0.10594672576E+02  0.11450696452E+02  0.17277540677E+02  0.00000000000E+00 0. -1.
</event>
<event>
 7    1  0.6316620E-012  0.5930195E+02  0.7816164E-02  0.1266605E+00
        -11   -1    0    0    0    0  0.00000000000E+00  0.00000000000E+00  0.45593999997E+02  0.45594000000E+02  0.51100000000E-03 0.  1.
         11   -1    0    0    0    0 -0.00000000000E+00 -0.00000000000E+00 -0.45593999997E+02  0.45594000000E+02  0.51100000000E-03 0. -1.
    9900012    2    1    2    0    0  0.16240390042E+02  0.17100730598E+02  0.21460084282E+02  0.59301945476E+02  0.50000002641E+02 0.  0.
         12    1    1    2    0    0 -0.16240390042E+02 -0.17100730598E+02 -0.21460084282E+02  0.31886054524E+02  0.00000000000E+00 0. -1.
         11    1    3    3    0    0  0.31439987301E+01 -0.74431793678E+01 -0.54443862910E+01  0.97430482634E+01  0.51100000000E-03 0. -1.
        -11    1    3    3    0    0 -0.80830754828E+01  0.67353257587E+01 -0.60634262030E+00  0.10538898138E+02  0.51100000000E-03 0.  1.
        -12    1    3    3    0    0  0.21179466795E+02  0.17808584207E+02  0.27510813193E+02  0.39019999074E+02  0.00000000000E+00 0.  1.
</event>
<event>
 7    1  0.6316620E-012  0.5930201E+02  0.7816164E-02  0.1266605E+00
        -11   -1    0    0    0    0  0.00000000000E+00  0.00000000000E+00  0.45593999997E+02  0.45594000000E+02  0.51100000000E-03 0.  1.
         11   -1    0    0    0    0 -0.00000000000E+00 -0.00000000000E+00 -0.45593999997E+02  0.45594000000E+02  0.51100000000E-03 0. -1.
    9900012    2    1    2    0    0 -0.67402481650E+01 -0.60146956311E+01  0.30579548781E+02  0.59302010717E+02  0.50000121626E+02 0.  0.
         12    1    1    2    0    0  0.67402481650E+01  0.60146956311E+01 -0.30579548781E+02  0.31885989283E+02  0.00000000000E+00 0. -1.
         11    1    3    3    0    0  0.83119112299E+01 -0.68872049159E+01  0.82538683001E+01  0.13588517286E+02  0.51100000000E-03 0. -1.
        -11    1    3    3    0    0  0.73811421508E+01 -0.31499324597E+01  0.21453907957E+02  0.22905752571E+02  0.51100000000E-03 0.  1.
        -12    1    3    3    0    0 -0.22433301546E+02  0.40224417445E+01  0.87177252432E+00  0.22807740861E+02  0.00000000000E+00 0.  1.
</event>
<event>
 7    1  0.6316620E-012  0.5930197E+02  0.7816164E-02  0.1266605E+00
        -11   -1    0    0    0    0  0.00000000000E+00  0.00000000000E+00  0.45593999997E+02  0.45594000000E+02  0.51100000000E-03 0. -1.
         11   -1    0    0    0    0 -0.00000000000E+00 -0.00000000000E+00 -0.45593999997E+02  0.45594000000E+02  0.51100000000E-03 0.  1.
    9900012    2    1    2    0    0 -0.41340386225E+01  0.56830082197E+01 -0.31101962791E+02  0.59301969403E+02  0.50000046279E+02 0.  0.
         12    1    1    2    0    0  0.41340386225E+01 -0.56830082197E+01  0.31101962791E+02  0.31886030597E+02  0.00000000000E+00 0. -1.
         11    1    3    3    0    0  0.11408465885E+02  0.11567714198E+02 -0.63896840727E+01  0.17458326622E+02  0.51100000000E-03 0. -1.
        -11    1    3    3    0    0 -0.64764366321E+01  0.65183999346E+01  0.34078398479E+01  0.98003643732E+01  0.51100000000E-03 0.  1.
        -12    1    3    3    0    0 -0.90660678754E+01 -0.12403105913E+02 -0.28120118566E+02  0.32043278409E+02  0.00000000000E+00 0.  1.
</event>
<event>
 7    1  0.6316620E-012  0.5930193E+02  0.7816164E-02  0.1266605E+00
        -11   -1    0    0    0    0  0.00000000000E+00  0.00000000000E+00  0.45593999997E+02  0.45594000000E+02  0.51100000000E-03 0.  1.
         11   -1    0    0    0    0 -0.00000000000E+00 -0.00000000000E+00 -0.45593999997E+02  0.45594000000E+02  0.51100000000E-03 0. -1.
    9900012    2    1    2    0    0 -0.25604349730E+02 -0.48939333567E+01  0.18362687108E+02  0.59301928015E+02  0.49999970797E+02 0.  0.
         12    1    1    2    0    0  0.25604349730E+02  0.48939333567E+01 -0.18362687108E+02  0.31886071985E+02  0.00000000000E+00 0. -1.
         11    1    3    3    0    0 -0.25668674529E+02  0.12832429519E+02 -0.53175555551E+00  0.28702523646E+02  0.51100000000E-03 0. -1.
        -11    1    3    3    0    0 -0.78790811292E+01 -0.11103459147E+02  0.92651076310E+01  0.16468422637E+02  0.51100000000E-03 0.  1.
        -12    1    3    3    0    0  0.79434059282E+01 -0.66229037292E+01  0.96293350324E+01  0.14130981732E+02  0.00000000000E+00 0.  1.
</event>
<event>
 7    1  0.6316620E-012  0.5930192E+02  0.7816164E-02  0.1266605E+00
        -11   -1    0    0    0    0  0.00000000000E+00  0.00000000000E+00  0.45593999997E+02  0.45594000000E+02  0.51100000000E-03 0. -1.
         11   -1    0    0    0    0 -0.00000000000E+00 -0.00000000000E+00 -0.45593999997E+02  0.45594000000E+02  0.51100000000E-03 0.  1.
    9900012    2    1    2    0    0 -0.18082569815E+02  0.25316695644E+02  0.69862585023E+01  0.59301918126E+02  0.49999952761E+02 0.  0.
         12    1    1    2    0    0  0.18082569815E+02 -0.25316695644E+02 -0.69862585023E+01  0.31886081874E+02  0.00000000000E+00 0. -1.
         11    1    3    3    0    0 -0.97845305258E+01 -0.12061945375E+02  0.10731219191E+02  0.18878205143E+02  0.51100000000E-03 0. -1.
        -11    1    3    3    0    0 -0.11284027113E+01  0.30514132848E+01  0.33231159025E+01  0.46505392457E+01  0.51100000000E-03 0.  1.
        -12    1    3    3    0    0 -0.71696365779E+01  0.34327227733E+02 -0.70680765913E+01  0.35773173737E+02  0.00000000000E+00 0.  1.
</event>
<event>
 7    1  0.6316620E-012  0.5930197E+02  0.7816164E-02  0.1266605E+00
        -11   -1    0    0    0    0  0.00000000000E+00  0.00000000000E+00  0.45593999997E+02  0.45594000000E+02  0.51100000000E-03 0.  1.
         11   -1    0    0    0    0 -0.00000000000E+00 -0.00000000000E+00 -0.45593999997E+02  0.45594000000E+02  0.51100000000E-03 0. -1.
    9900012    2    1    2    0    0  0.23356310458E+02 -0.20322673017E+02  0.76282847174E+01  0.59301968505E+02  0.50000044640E+02 0.  0.
         12    1    1    2    0    0 -0.23356310458E+02  0.20322673017E+02 -0.76282847174E+01  0.31886031495E+02  0.00000000000E+00 0. -1.
         11    1    3    3    0    0  0.33197503742E+02 -0.83630625832E+01 -0.62484978665E+01  0.34800270061E+02  0.51100000000E-03 0. -1.
        -11    1    3    3    0    0  0.46925785235E+00 -0.91234265778E+01  0.41029270012E+01  0.10014545706E+02  0.51100000000E-03 0.  1.
        -12    1    3    3    0    0 -0.10310451136E+02 -0.28361838557E+01  0.97738555826E+01  0.14487152738E+02  0.00000000000E+00 0.  1.
</event>
<event>
 7    1  0.6316620E-012  0.5930198E+02  0.7816164E-02  0.1266605E+00
        -11   -1    0    0    0    0  0.00000000000E+00  0.00000000000E+00  0.45593999997E+02  0.45594000000E+02  0.51100000000E-03 0. -1.
         11   -1    0    0    0    0 -0.00000000000E+00 -0.00000000000E+00 -0.45593999997E+02  0.45594000000E+02  0.51100000000E-03 0.  1.
    9900012    2    1    2    0    0  0.44614006230E+01 -0.20109898568E+01 -0.31508252958E+02  0.59301981431E+02  0.50000068214E+02 0.  0.
         12    1    1    2    0    0 -0.44614006230E+01  0.20109898568E+01  0.31508252958E+02  0.31886018569E+02  0.00000000000E+00 0. -1.
         11    1    3    3    0    0  0.14048519636E+02  0.90033014107E-01 -0.17879056500E+01  0.14162119078E+02  0.51100000000E-03 0. -1.
        -11    1    3    3    0    0 -0.11956278939E+02 -0.15884869047E+02 -0.19197092073E+02  0.27637113001E+02  0.51100000000E-03 0.  1.
         12    1    3    3    0    0  0.23691599264E+01  0.13783846176E+02 -0.10523255235E+02  0.17502749352E+02  0.00000000000E+00 0. -1.
</event>
<event>
 7    1  0.6316620E-012  0.5930192E+02  0.7816164E-02  0.1266605E+00
        -11   -1    0    0    0    0  0.00000000000E+00  0.00000000000E+00  0.45593999997E+02  0.45594000000E+02  0.51100000000E-03 0. -1.
         11   -1    0    0    0    0 -0.00000000000E+00 -0.00000000000E+00 -0.45593999997E+02  0.45594000000E+02  0.51100000000E-03 0.  1.
    9900012    2    1    2    0    0 -0.24369503224E+02 -0.14636217671E+02  0.14444039319E+02  0.59301924246E+02  0.49999963923E+02 0.  0.
         12    1    1    2    0    0  0.24369503224E+02  0.14636217671E+02 -0.14444039319E+02  0.31886075754E+02  0.00000000000E+00 0. -1.
         11    1    3    3    0    0 -0.18374588128E+02 -0.48911909482E+01  0.11082275175E+02  0.22008317998E+02  0.51100000000E-03 0. -1.
        -11    1    3    3    0    0 -0.15237996328E+02 -0.16965619712E+02 -0.44055772507E+01  0.23225802365E+02  0.51100000000E-03 0.  1.
        -12    1    3    3    0    0  0.92430812312E+01  0.72205929898E+01  0.77673413949E+01  0.14067803884E+02  0.00000000000E+00 0.  1.
</event>
<event>
 7    1  0.6316620E-012  0.5930196E+02  0.7816164E-02  0.1266605E+00
        -11   -1    0    0    0    0  0.00000000000E+00  0.00000000000E+00  0.45593999997E+02  0.45594000000E+02  0.51100000000E-03 0. -1.
         11   -1    0    0    0    0 -0.00000000000E+00 -0.00000000000E+00 -0.45593999997E+02  0.45594000000E+02  0.51100000000E-03 0.  1.
    9900012    2    1    2    0    0 -0.86706023627E+01 -0.42652323224E+01 -0.30386637160E+02  0.59301964342E+02  0.50000037049E+02 0.  0.
         12    1    1    2    0    0  0.86706023627E+01  0.42652323224E+01  0.30386637160E+02  0.31886035658E+02  0.00000000000E+00 0. -1.
         11    1    3    3    0    0 -0.34397617202E+01  0.10890245819E+01 -0.82380778321E+01  0.89935455667E+01  0.51100000000E-03 0.  1.
        -11    1    3    3    0    0  0.14054592690E+01 -0.13706461587E+02 -0.32588909640E+02  0.35381908325E+02  0.51100000000E-03 0. -1.
         12    1    3    3    0    0 -0.66362999115E+01  0.83522046827E+01  0.10440350312E+02  0.14926510450E+02  0.00000000000E+00 0. -1.
</event>
<event>
 7    1  0.6316620E-012  0.5930191E+02  0.7816164E-02  0.1266605E+00
        -11   -1    0    0    0    0  0.00000000000E+00  0.00000000000E+00  0.45593999997E+02  0.45594000000E+02  0.51100000000E-03 0. -1.
         11   -1    0    0    0    0 -0.00000000000E+00 -0.00000000000E+00 -0.45593999997E+02  0.45594000000E+02  0.51100000000E-03 0.  1.
    9900012    2    1    2    0    0  0.10977498103E+02  0.27604532649E+02 -0.11584771298E+02  0.59301911915E+02  0.49999941434E+02 0.  0.
         12    1    1    2    0    0 -0.10977498103E+02 -0.27604532649E+02  0.11584771298E+02  0.31886088085E+02  0.00000000000E+00 0. -1.
         11    1    3    3    0    0  0.20429203595E+02  0.14917669447E+02 -0.35778249760E+00  0.25298561813E+02  0.51100000000E-03 0. -1.
        -11    1    3    3    0    0  0.21924111921E+01  0.18291123169E+02 -0.29486003443E+01  0.18656529631E+02  0.51100000000E-03 0.  1.
        -12    1    3    3    0    0 -0.11644116683E+02 -0.56042599673E+01 -0.82783884561E+01  0.15346820470E+02  0.00000000000E+00 0.  1.
</event>
<event>
 7    1  0.6316620E-012  0.5930193E+02  0.7816164E-02  0.1266605E+00
        -11   -1    0    0    0    0  0.00000000000E+00  0.00000000000E+00  0.45593999997E+02  0.45594000000E+02  0.51100000000E-03 0. -1.
         11   -1    0    0    0    0 -0.00000000000E+00 -0.00000000000E+00 -0.45593999997E+02  0.45594000000E+02  0.51100000000E-03 0.  1.
    9900012    2    1    2    0    0 -0.18293005785E+02 -0.47078487955E+01 -0.25688972387E+02  0.59301934026E+02  0.49999981760E+02 0.  0.
         12    1    1    2    0    0  0.18293005785E+02  0.47078487955E+01  0.25688972387E+02  0.31886065974E+02  0.00000000000E+00 0. -1.
         11    1    3    3    0    0 -0.46246378849E+01 -0.48400790417E+00 -0.75804246233E+00  0.47112809144E+01  0.51100000000E-03 0. -1.
        -11    1    3    3    0    0 -0.23354869235E+02 -0.15983816900E+02 -0.38218748954E+01  0.28557644295E+02  0.51100000000E-03 0.  1.
        -12    1    3    3    0    0  0.96865013349E+01  0.11759976009E+02 -0.21109055030E+02  0.26033008817E+02  0.00000000000E+00 0.  1.
</event>
<event>
 7    1  0.6316620E-012  0.5930195E+02  0.7816164E-02  0.1266605E+00
        -11   -1    0    0    0    0  0.00000000000E+00  0.00000000000E+00  0.45593999997E+02  0.45594000000E+02  0.51100000000E-03 0.  1.
         11   -1    0    0    0    0 -0.00000000000E+00 -0.00000000000E+00 -0.45593999997E+02  0.45594000000E+02  0.51100000000E-03 0. -1.
    9900012    2    1    2    0    0  0.22830729681E+02 -0.23534067276E+01  0.22134573604E+02  0.59301951489E+02  0.50000013608E+02 0.  0.
         12    1    1    2    0    0 -0.22830729681E+02  0.23534067276E+01 -0.22134573604E+02  0.31886048511E+02  0.00000000000E+00 0. -1.
         11    1    3    3    0    0  0.84609787173E+00  0.96472317108E+01 -0.50141090815E+01  0.10905331331E+02  0.51100000000E-03 0. -1.
        -11    1    3    3    0    0  0.75760972668E+01  0.98801648356E+00  0.27955867175E+02  0.28981096185E+02  0.51100000000E-03 0.  1.
         12    1    3    3    0    0  0.14408534543E+02 -0.12988654922E+02 -0.80718448888E+00  0.19415523973E+02  0.00000000000E+00 0. -1.
</event>
<event>
 7    1  0.6316620E-012  0.5930194E+02  0.7816164E-02  0.1266605E+00
        -11   -1    0    0    0    0  0.00000000000E+00  0.00000000000E+00  0.45593999997E+02  0.45594000000E+02  0.51100000000E-03 0.  1.
         11   -1    0    0    0    0 -0.00000000000E+00 -0.00000000000E+00 -0.45593999997E+02  0.45594000000E+02  0.51100000000E-03 0. -1.
    9900012    2    1    2    0    0 -0.31825110645E+02 -0.14858018770E+01 -0.12943828547E+01  0.59301941890E+02  0.49999996102E+02 0.  0.
         12    1    1    2    0    0  0.31825110645E+02  0.14858018770E+01  0.12943828547E+01  0.31886058110E+02  0.00000000000E+00 0. -1.
         11    1    3    3    0    0 -0.24554313882E+01  0.11906996578E+02 -0.15758213068E+02  0.19902939234E+02  0.51100000000E-03 0.  1.
        -11    1    3    3    0    0 -0.12380898210E+02  0.14596996181E+01  0.10887452012E+02  0.16551555063E+02  0.51100000000E-03 0. -1.
        -12    1    3    3    0    0 -0.16988781047E+02 -0.14852498073E+02  0.35763782013E+01  0.22847447593E+02  0.00000000000E+00 0.  1.
</event>
<event>
 7    1  0.6316620E-012  0.5930199E+02  0.7816164E-02  0.1266605E+00
        -11   -1    0    0    0    0  0.00000000000E+00  0.00000000000E+00  0.45593999997E+02  0.45594000000E+02  0.51100000000E-03 0. -1.
         11   -1    0    0    0    0 -0.00000000000E+00 -0.00000000000E+00 -0.45593999997E+02  0.45594000000E+02  0.51100000000E-03 0.  1.
    9900012    2    1    2    0    0  0.10507665131E+02 -0.17644425863E+02  0.24392226587E+02  0.59301991965E+02  0.50000087426E+02 0.  0.
         12    1    1    2    0    0 -0.10507665131E+02  0.17644425863E+02 -0.24392226587E+02  0.31886008035E+02  0.00000000000E+00 0. -1.
         11    1    3    3    0    0  0.12761215098E+01 -0.22986252701E+01 -0.51438927412E+00  0.26789477088E+01  0.51100000000E-03 0. -1.
        -11    1    3    3    0    0  0.22463159387E+02  0.81402739207E+01  0.11926016553E+02  0.26703697501E+02  0.51100000000E-03 0.  1.
         12    1    3    3    0    0 -0.13231615766E+02 -0.23486074514E+02  0.12980599308E+02  0.29919346755E+02  0.00000000000E+00 0. -1.
</event>
<event>
 7    1  0.6316620E-012  0.5930197E+02  0.7816164E-02  0.1266605E+00
        -11   -1    0    0    0    0  0.00000000000E+00  0.00000000000E+00  0.45593999997E+02  0.45594000000E+02  0.51100000000E-03 0.  1.
         11   -1    0    0    0    0 -0.00000000000E+00 -0.00000000000E+00 -0.45593999997E+02  0.45594000000E+02  0.51100000000E-03 0. -1.
    9900012    2    1    2    0    0 -0.43251735217E+01 -0.21432073885E+02  0.23209442067E+02  0.59301966725E+02  0.50000041394E+02 0.  0.
         12    1    1    2    0    0  0.43251735217E+01  0.21432073885E+02 -0.23209442067E+02  0.31886033275E+02  0.00000000000E+00 0. -1.
         11    1    3    3    0    0 -0.10008722242E+01  0.59525462121E+01 -0.25671135685E+01  0.65593158142E+01  0.51100000000E-03 0. -1.
        -11    1    3    3    0    0 -0.57993415721E+01 -0.29410606717E+02  0.34347594125E+01  0.30173062864E+02  0.51100000000E-03 0.  1.
         12    1    3    3    0    0  0.24750402745E+01  0.20259866198E+01  0.22341796222E+02  0.22569588047E+02  0.00000000000E+00 0. -1.
</event>
<event>
 7    1  0.6316620E-012  0.5930194E+02  0.7816164E-02  0.1266605E+00
        -11   -1    0    0    0    0  0.00000000000E+00  0.00000000000E+00  0.45593999997E+02  0.45594000000E+02  0.51100000000E-03 0.  1.
         11   -1    0    0    0    0 -0.00000000000E+00 -0.00000000000E+00 -0.45593999997E+02  0.45594000000E+02  0.51100000000E-03 0. -1.
    9900012    2    1    2    0    0 -0.22268836920E+02  0.19566310276E+02  0.11746455992E+02  0.59301939975E+02  0.49999992608E+02 0.  0.
         12    1    1    2    0    0  0.22268836920E+02 -0.19566310276E+02 -0.11746455992E+02  0.31886060025E+02  0.00000000000E+00 0. -1.
         11    1    3    3    0    0 -0.18289979742E+02  0.11969132369E+02  0.88628316179E+01  0.23586718152E+02  0.51100000000E-03 0. -1.
        -11    1    3    3    0    0 -0.13329362737E+02 -0.93045049290E+01  0.62238021046E+00  0.16267546845E+02  0.51100000000E-03 0.  1.
         12    1    3    3    0    0  0.93505055593E+01  0.16901682836E+02  0.22612441635E+01  0.19447674978E+02  0.00000000000E+00 0. -1.
</event>
<event>
 7    1  0.6316620E-012  0.5930194E+02  0.7816164E-02  0.1266605E+00
        -11   -1    0    0    0    0  0.00000000000E+00  0.00000000000E+00  0.45593999997E+02  0.45594000000E+02  0.51100000000E-03 0. -1.
         11   -1    0    0    0    0 -0.00000000000E+00 -0.00000000000E+00 -0.45593999997E+02  0.45594000000E+02  0.51100000000E-03 0.  1.
    9900012    2    1    2    0    0 -0.11870216644E+02  0.23994974985E+02 -0.17322235751E+02  0.59301941618E+02  0.49999995606E+02 0.  0.
         12    1    1    2    0    0  0.11870216644E+02 -0.23994974985E+02  0.17322235751E+02  0.31886058382E+02  0.00000000000E+00 0. -1.
         11    1    3    3    0    0  0.33699360987E+01  0.18303416307E+02 -0.43495161238E+01  0.19112556307E+02  0.51100000000E-03 0. -1.
        -11    1    3    3    0    0  0.73448620125E+01 -0.66132902983E+01  0.24732608143E+01  0.10188210141E+02  0.51100000000E-03 0.  1.
        -12    1    3    3    0    0 -0.22585014755E+02  0.12304848976E+02 -0.15445980441E+02  0.30001175171E+02  0.00000000000E+00 0.  1.
</event>
<event>
 7    1  0.6316620E-012  0.5930182E+02  0.7816164E-02  0.1266605E+00
        -11   -1    0    0    0    0  0.00000000000E+00  0.00000000000E+00  0.45593999997E+02  0.45594000000E+02  0.51100000000E-03 0. -1.
         11   -1    0    0    0    0 -0.00000000000E+00 -0.00000000000E+00 -0.45593999997E+02  0.45594000000E+02  0.51100000000E-03 0.  1.
    9900012    2    1    2    0    0 -0.59398485518E+01  0.13466027707E+02 -0.28286262028E+02  0.59301822391E+02  0.49999778163E+02 0.  0.
         12    1    1    2    0    0  0.59398485518E+01 -0.13466027707E+02  0.28286262028E+02  0.31886177609E+02  0.00000000000E+00 0. -1.
         11    1    3    3    0    0 -0.22659573206E+01  0.11204280651E+02 -0.62286321081E+01  0.13017923248E+02  0.51100000000E-03 0. -1.
        -11    1    3    3    0    0  0.17418955400E+02  0.31907270633E+00 -0.17344836543E+02  0.24583839602E+02  0.51100000000E-03 0.  1.
         12    1    3    3    0    0 -0.21092846631E+02  0.19426743493E+01 -0.47127933764E+01  0.21700059540E+02  0.00000000000E+00 0. -1.
</event>
<event>
 7    1  0.6316620E-012  0.5930195E+02  0.7816164E-02  0.1266605E+00
        -11   -1    0    0    0    0  0.00000000000E+00  0.00000000000E+00  0.45593999997E+02  0.45594000000E+02  0.51100000000E-03 0.  1.
         11   -1    0    0    0    0 -0.00000000000E+00 -0.00000000000E+00 -0.45593999997E+02  0.45594000000E+02  0.51100000000E-03 0. -1.
    9900012    2    1    2    0    0 -0.15116167813E+02  0.56106371314E+00  0.28069677030E+02  0.59301951477E+02  0.50000013585E+02 0.  0.
         12    1    1    2    0    0  0.15116167813E+02 -0.56106371314E+00 -0.28069677030E+02  0.31886048523E+02  0.00000000000E+00 0. -1.
         11    1    3    3    0    0 -0.19383941880E+01 -0.87016607645E+01 -0.96081822684E+01  0.13106999613E+02  0.51100000000E-03 0. -1.
        -11    1    3    3    0    0 -0.58708982201E+01 -0.67001643869E+01  0.97441132995E+01  0.13202552517E+02  0.51100000000E-03 0.  1.
        -12    1    3    3    0    0 -0.73068754050E+01  0.15962888865E+02  0.27933745999E+02  0.32992399346E+02  0.00000000000E+00 0.  1.
</event>
<event>
 7    1  0.6316620E-012  0.5930195E+02  0.7816164E-02  0.1266605E+00
        -11   -1    0    0    0    0  0.00000000000E+00  0.00000000000E+00  0.45593999997E+02  0.45594000000E+02  0.51100000000E-03 0.  1.
         11   -1    0    0    0    0 -0.00000000000E+00 -0.00000000000E+00 -0.45593999997E+02  0.45594000000E+02  0.51100000000E-03 0. -1.
    9900012    2    1    2    0    0 -0.87289694585E+01 -0.30663751286E+02 -0.50965035548E+00  0.59301948281E+02  0.50000007757E+02 0.  0.
         12    1    1    2    0    0  0.87289694585E+01  0.30663751286E+02  0.50965035548E+00  0.31886051719E+02  0.00000000000E+00 0. -1.
         11    1    3    3    0    0  0.13125945180E+02 -0.85211354720E+01 -0.78840832441E+01  0.17523097770E+02  0.51100000000E-03 0. -1.
        -11    1    3    3    0    0  0.45493955952E+01 -0.10822973347E+02  0.55679754140E+01  0.12993694733E+02  0.51100000000E-03 0.  1.
         12    1    3    3    0    0 -0.26404310234E+02 -0.11319642468E+02  0.18064574746E+01  0.28785155778E+02  0.00000000000E+00 0. -1.
</event>
<event>
 7    1  0.6316620E-012  0.5930193E+02  0.7816164E-02  0.1266605E+00
        -11   -1    0    0    0    0  0.00000000000E+00  0.00000000000E+00  0.45593999997E+02  0.45594000000E+02  0.51100000000E-03 0.  1.
         11   -1    0    0    0    0 -0.00000000000E+00 -0.00000000000E+00 -0.45593999997E+02  0.45594000000E+02  0.51100000000E-03 0. -1.
    9900012    2    1    2    0    0 -0.15519095423E+02 -0.40641377032E+01  0.27556523941E+02  0.59301928594E+02  0.49999971853E+02 0.  0.
         12    1    1    2    0    0  0.15519095423E+02  0.40641377032E+01 -0.27556523941E+02  0.31886071406E+02  0.00000000000E+00 0. -1.
         11    1    3    3    0    0  0.16958597345E+01  0.13348274343E+02 -0.35702514618E+01  0.13921173224E+02  0.51100000000E-03 0. -1.
        -11    1    3    3    0    0  0.27916431638E+01 -0.38507619170E+00  0.13387707874E+02  0.13681091974E+02  0.51100000000E-03 0.  1.
         12    1    3    3    0    0 -0.20006598321E+02 -0.17027335854E+02  0.17739067528E+02  0.31699663396E+02  0.00000000000E+00 0. -1.
</event>
<event>
 7    1  0.6316620E-012  0.5930194E+02  0.7816164E-02  0.1266605E+00
        -11   -1    0    0    0    0  0.00000000000E+00  0.00000000000E+00  0.45593999997E+02  0.45594000000E+02  0.51100000000E-03 0. -1.
         11   -1    0    0    0    0 -0.00000000000E+00 -0.00000000000E+00 -0.45593999997E+02  0.45594000000E+02  0.51100000000E-03 0.  1.
    9900012    2    1    2    0    0  0.96108169248E+01 -0.19147621213E+02 -0.23616125307E+02  0.59301943885E+02  0.49999999739E+02 0.  0.
         12    1    1    2    0    0 -0.96108169248E+01  0.19147621213E+02  0.23616125307E+02  0.31886056115E+02  0.00000000000E+00 0. -1.
         11    1    3    3    0    0 -0.11832474939E+02 -0.98937241889E+01 -0.52180270690E+01  0.16282538139E+02  0.51100000000E-03 0. -1.
        -11    1    3    3    0    0 -0.86348082569E+00 -0.99631147957E+01  0.45689235201E+01  0.10994740468E+02  0.51100000000E-03 0.  1.
         12    1    3    3    0    0  0.22306772689E+02  0.70921777151E+00 -0.22967021758E+02  0.32024665277E+02  0.00000000000E+00 0. -1.
</event>
<event>
 7    1  0.6316620E-012  0.5930196E+02  0.7816164E-02  0.1266605E+00
        -11   -1    0    0    0    0  0.00000000000E+00  0.00000000000E+00  0.45593999997E+02  0.45594000000E+02  0.51100000000E-03 0. -1.
         11   -1    0    0    0    0 -0.00000000000E+00 -0.00000000000E+00 -0.45593999997E+02  0.45594000000E+02  0.51100000000E-03 0.  1.
    9900012    2    1    2    0    0  0.40903185469E+01 -0.11856705713E+02 -0.29315652803E+02  0.59301957984E+02  0.50000025453E+02 0.  0.
         12    1    1    2    0    0 -0.40903185469E+01  0.11856705713E+02  0.29315652803E+02  0.31886042016E+02  0.00000000000E+00 0. -1.
         11    1    3    3    0    0  0.15828527694E+02 -0.98736321069E+01 -0.27258939482E+02  0.33031510439E+02  0.51100000000E-03 0. -1.
        -11    1    3    3    0    0 -0.48269602783E+01 -0.11076027552E+02 -0.68445365459E+01  0.13886166233E+02  0.51100000000E-03 0.  1.
         12    1    3    3    0    0 -0.69112488684E+01  0.90929539466E+01  0.47878232245E+01  0.12384281312E+02  0.00000000000E+00 0. -1.
</event>
<event>
 7    1  0.6316620E-012  0.5930195E+02  0.7816164E-02  0.1266605E+00
        -11   -1    0    0    0    0  0.00000000000E+00  0.00000000000E+00  0.45593999997E+02  0.45594000000E+02  0.51100000000E-03 0.  1.
         11   -1    0    0    0    0 -0.00000000000E+00 -0.00000000000E+00 -0.45593999997E+02  0.45594000000E+02  0.51100000000E-03 0. -1.
    9900012    2    1    2    0    0 -0.26941888732E+02  0.82029662495E+01  0.14952122313E+02  0.59301953124E+02  0.50000016589E+02 0.  0.
         12    1    1    2    0    0  0.26941888732E+02 -0.82029662495E+01 -0.14952122313E+02  0.31886046876E+02  0.00000000000E+00 0. -1.
         11    1    3    3    0    0  0.25939281970E+01  0.86258060602E+01  0.10421465217E+02  0.13774611836E+02  0.51100000000E-03 0. -1.
        -11    1    3    3    0    0  0.50103694586E+01 -0.79760261892E+01 -0.18362117803E+01  0.95964821599E+01  0.51100000000E-03 0.  1.
        -12    1    3    3    0    0 -0.34546186388E+02  0.75531863785E+01  0.63668688762E+01  0.35930859128E+02  0.00000000000E+00 0.  1.
</event>
<event>
 7    1  0.6316620E-012  0.5930194E+02  0.7816164E-02  0.1266605E+00
        -11   -1    0    0    0    0  0.00000000000E+00  0.00000000000E+00  0.45593999997E+02  0.45594000000E+02  0.51100000000E-03 0.  1.
         11   -1    0    0    0    0 -0.00000000000E+00 -0.00000000000E+00 -0.45593999997E+02  0.45594000000E+02  0.51100000000E-03 0. -1.
    9900012    2    1    2    0    0  0.26224331796E+02 -0.16903196935E+02  0.65792967711E+01  0.59301940495E+02  0.49999993557E+02 0.  0.
         12    1    1    2    0    0 -0.26224331796E+02  0.16903196935E+02 -0.65792967711E+01  0.31886059505E+02  0.00000000000E+00 0. -1.
         11    1    3    3    0    0 -0.33322341644E+01 -0.25938372196E+01  0.15075164389E+02  0.15655425822E+02  0.51100000000E-03 0.  1.
        -11    1    3    3    0    0  0.24667378959E+02 -0.51402293844E+01  0.59128432012E+01  0.25881716671E+02  0.51100000000E-03 0. -1.
        -12    1    3    3    0    0  0.48891870014E+01 -0.91691303307E+01 -0.14408710820E+02  0.17764798002E+02  0.00000000000E+00 0.  1.
</event>
<event>
 7    1  0.6316620E-012  0.5930191E+02  0.7816164E-02  0.1266605E+00
        -11   -1    0    0    0    0  0.00000000000E+00  0.00000000000E+00  0.45593999997E+02  0.45594000000E+02  0.51100000000E-03 0.  1.
         11   -1    0    0    0    0 -0.00000000000E+00 -0.00000000000E+00 -0.45593999997E+02  0.45594000000E+02  0.51100000000E-03 0. -1.
    9900012    2    1    2    0    0  0.16455373364E+02  0.11572129163E+02  0.24739225048E+02  0.59301909900E+02  0.49999937759E+02 0.  0.
         12    1    1    2    0    0 -0.16455373364E+02 -0.11572129163E+02 -0.24739225048E+02  0.31886090100E+02  0.00000000000E+00 0. -1.
         11    1    3    3    0    0 -0.94546829141E+01  0.15050421163E+02  0.54872405700E+00  0.17782218775E+02  0.51100000000E-03 0. -1.
        -11    1    3    3    0    0  0.59866105698E-01  0.43079951182E+01  0.10286383516E+02  0.11152223634E+02  0.51100000000E-03 0.  1.
        -12    1    3    3    0    0  0.25850190173E+02 -0.77862871184E+01  0.13904117474E+02  0.30367467491E+02  0.00000000000E+00 0.  1.
</event>
<event>
 7    1  0.6316620E-012  0.5930193E+02  0.7816164E-02  0.1266605E+00
        -11   -1    0    0    0    0  0.00000000000E+00  0.00000000000E+00  0.45593999997E+02  0.45594000000E+02  0.51100000000E-03 0. -1.
         11   -1    0    0    0    0 -0.00000000000E+00 -0.00000000000E+00 -0.45593999997E+02  0.45594000000E+02  0.51100000000E-03 0.  1.
    9900012    2    1    2    0    0  0.21170901877E+02 -0.86979912261E+01 -0.22200432222E+02  0.59301932063E+02  0.49999978179E+02 0.  0.
         12    1    1    2    0    0 -0.21170901877E+02  0.86979912261E+01  0.22200432222E+02  0.31886067937E+02  0.00000000000E+00 0. -1.
         11    1    3    3    0    0 -0.36105343736E+01  0.96505655470E+01 -0.30674871811E+01  0.10750760518E+02  0.51100000000E-03 0. -1.
        -11    1    3    3    0    0  0.26874301550E+02 -0.19616521497E+01 -0.17082601633E+02  0.31904411008E+02  0.51100000000E-03 0.  1.
         12    1    3    3    0    0 -0.20928652991E+01 -0.16386904623E+02 -0.20503434076E+01  0.16646760537E+02  0.00000000000E+00 0. -1.
</event>
<event>
 7    1  0.6316620E-012  0.5930196E+02  0.7816164E-02  0.1266605E+00
        -11   -1    0    0    0    0  0.00000000000E+00  0.00000000000E+00  0.45593999997E+02  0.45594000000E+02  0.51100000000E-03 0. -1.
         11   -1    0    0    0    0 -0.00000000000E+00 -0.00000000000E+00 -0.45593999997E+02  0.45594000000E+02  0.51100000000E-03 0.  1.
    9900012    2    1    2    0    0 -0.18539930290E+02 -0.97696924312E+01 -0.24032143403E+02  0.59301955688E+02  0.50000021265E+02 0.  0.
         12    1    1    2    0    0  0.18539930290E+02  0.97696924312E+01  0.24032143403E+02  0.31886044312E+02  0.00000000000E+00 0. -1.
         11    1    3    3    0    0 -0.83420074590E+01  0.11628253331E+02 -0.17809987722E+02  0.22847341791E+02  0.51100000000E-03 0. -1.
        -11    1    3    3    0    0 -0.13765667762E+02  0.28814064337E+00 -0.66204742123E+00  0.13784590709E+02  0.51100000000E-03 0.  1.
         12    1    3    3    0    0  0.35677449308E+01 -0.21686086406E+02 -0.55601082591E+01  0.22670023188E+02  0.00000000000E+00 0. -1.
</event>
<event>
 7    1  0.6316620E-012  0.5930198E+02  0.7816164E-02  0.1266605E+00
        -11   -1    0    0    0    0  0.00000000000E+00  0.00000000000E+00  0.45593999997E+02  0.45594000000E+02  0.51100000000E-03 0.  1.
         11   -1    0    0    0    0 -0.00000000000E+00 -0.00000000000E+00 -0.45593999997E+02  0.45594000000E+02  0.51100000000E-03 0. -1.
    9900012    2    1    2    0    0 -0.13663797729E+02 -0.21111996931E+02  0.19603639034E+02  0.59301977260E+02  0.50000060608E+02 0.  0.
         12    1    1    2    0    0  0.13663797729E+02  0.21111996931E+02 -0.19603639034E+02  0.31886022740E+02  0.00000000000E+00 0. -1.
         11    1    3    3    0    0 -0.78121346933E+01  0.60183438718E+01  0.79876065909E+01  0.12690617429E+02  0.51100000000E-03 0. -1.
        -11    1    3    3    0    0 -0.26215706854E+01 -0.83570693217E+01  0.22867533103E+02  0.24487492950E+02  0.51100000000E-03 0.  1.
         12    1    3    3    0    0 -0.32300923508E+01 -0.18773271481E+02 -0.11251500660E+02  0.22123866881E+02  0.00000000000E+00 0. -1.
</event>
<event>
 7    1  0.6316620E-012  0.5930193E+02  0.7816164E-02  0.1266605E+00
        -11   -1    0    0    0    0  0.00000000000E+00  0.00000000000E+00  0.45593999997E+02  0.45594000000E+02  0.51100000000E-03 0. -1.
         11   -1    0    0    0    0 -0.00000000000E+00 -0.00000000000E+00 -0.45593999997E+02  0.45594000000E+02  0.51100000000E-03 0.  1.
    9900012    2    1    2    0    0  0.23555709127E+02 -0.82087068725E+00 -0.21475007975E+02  0.59301933628E+02  0.49999981033E+02 0.  0.
         12    1    1    2    0    0 -0.23555709127E+02  0.82087068725E+00  0.21475007975E+02  0.31886066372E+02  0.00000000000E+00 0. -1.
         11    1    3    3    0    0  0.44344432143E+01 -0.46927428110E+00 -0.28352499318E+01  0.52842357450E+01  0.51100000000E-03 0. -1.
        -11    1    3    3    0    0  0.21352106794E+02  0.16661950051E+02 -0.23846604785E+02  0.36085919748E+02  0.51100000000E-03 0.  1.
         12    1    3    3    0    0 -0.22308408808E+01 -0.17013546457E+02  0.52068467411E+01  0.17931778135E+02  0.00000000000E+00 0. -1.
</event>
<event>
 7    1  0.6316620E-012  0.5930195E+02  0.7816164E-02  0.1266605E+00
        -11   -1    0    0    0    0  0.00000000000E+00  0.00000000000E+00  0.45593999997E+02  0.45594000000E+02  0.51100000000E-03 0. -1.
         11   -1    0    0    0    0 -0.00000000000E+00 -0.00000000000E+00 -0.45593999997E+02  0.45594000000E+02  0.51100000000E-03 0.  1.
    9900012    2    1    2    0    0  0.88771282031E+01  0.10920821026E+02 -0.28612104545E+02  0.59301948763E+02  0.50000008635E+02 0.  0.
         12    1    1    2    0    0 -0.88771282031E+01 -0.10920821026E+02  0.28612104545E+02  0.31886051237E+02  0.00000000000E+00 0. -1.
         11    1    3    3    0    0  0.16436490841E+02 -0.31299259386E+01 -0.89359077689E+01  0.18968529607E+02  0.51100000000E-03 0. -1.
        -11    1    3    3    0    0 -0.34473594020E+01 -0.41936311682E+01 -0.20897923581E+02  0.21591527030E+02  0.51100000000E-03 0.  1.
        -12    1    3    3    0    0 -0.41120032358E+01  0.18244378133E+02  0.12217268048E+01  0.18741892126E+02  0.00000000000E+00 0.  1.
</event>
<event>
 7    1  0.6316620E-012  0.5930198E+02  0.7816164E-02  0.1266605E+00
        -11   -1    0    0    0    0  0.00000000000E+00  0.00000000000E+00  0.45593999997E+02  0.45594000000E+02  0.51100000000E-03 0. -1.
         11   -1    0    0    0    0 -0.00000000000E+00 -0.00000000000E+00 -0.45593999997E+02  0.45594000000E+02  0.51100000000E-03 0.  1.
    9900012    2    1    2    0    0 -0.31115135186E+02 -0.19767462375E+01 -0.66827593877E+01  0.59301977414E+02  0.50000060888E+02 0.  0.
         12    1    1    2    0    0  0.31115135186E+02  0.19767462375E+01  0.66827593877E+01  0.31886022586E+02  0.00000000000E+00 0. -1.
         11    1    3    3    0    0 -0.64078230618E+01  0.12227542221E+02 -0.61897502296E+01  0.15128978595E+02  0.51100000000E-03 0. -1.
        -11    1    3    3    0    0 -0.27276861495E+02  0.52090568587E+00  0.59050248990E+01  0.27913577970E+02  0.51100000000E-03 0.  1.
         12    1    3    3    0    0  0.25695493705E+01 -0.14725194144E+02 -0.63980340571E+01  0.16259420849E+02  0.00000000000E+00 0. -1.
</event>
<event>
 7    1  0.6316620E-012  0.5930180E+02  0.7816164E-02  0.1266605E+00
        -11   -1    0    0    0    0  0.00000000000E+00  0.00000000000E+00  0.45593999997E+02  0.45594000000E+02  0.51100000000E-03 0. -1.
         11   -1    0    0    0    0 -0.00000000000E+00 -0.00000000000E+00 -0.45593999997E+02  0.45594000000E+02  0.51100000000E-03 0.  1.
    9900012    2    1    2    0    0  0.24354948586E+02 -0.60726383073E+01 -0.19664416675E+02  0.59301800167E+02  0.49999737631E+02 0.  0.
         12    1    1    2    0    0 -0.24354948586E+02  0.60726383073E+01  0.19664416675E+02  0.31886199833E+02  0.00000000000E+00 0. -1.
         11    1    3    3    0    0  0.30941491753E+02 -0.10899882927E+02 -0.16774650589E+02  0.36845247487E+02  0.51100000000E-03 0. -1.
        -11    1    3    3    0    0  0.59641689033E+01  0.72766182528E+01 -0.32344266880E+00  0.94140904672E+01  0.51100000000E-03 0.  1.
         12    1    3    3    0    0 -0.12550712071E+02 -0.24493736330E+01 -0.25663234170E+01  0.13042462212E+02  0.00000000000E+00 0. -1.
</event>
<event>
 7    1  0.6316620E-012  0.5930194E+02  0.7816164E-02  0.1266605E+00
        -11   -1    0    0    0    0  0.00000000000E+00  0.00000000000E+00  0.45593999997E+02  0.45594000000E+02  0.51100000000E-03 0. -1.
         11   -1    0    0    0    0 -0.00000000000E+00 -0.00000000000E+00 -0.45593999997E+02  0.45594000000E+02  0.51100000000E-03 0.  1.
    9900012    2    1    2    0    0  0.15578491666E+01  0.16650356186E+02 -0.27148839340E+02  0.59301941406E+02  0.49999995218E+02 0.  0.
         12    1    1    2    0    0 -0.15578491666E+01 -0.16650356186E+02  0.27148839340E+02  0.31886058594E+02  0.00000000000E+00 0. -1.
         11    1    3    3    0    0  0.12491048047E+01  0.47759022323E+01  0.78898009561E+01  0.93069041218E+01  0.51100000000E-03 0. -1.
        -11    1    3    3    0    0  0.12145031299E+02  0.13205679089E+02 -0.65205384877E+01  0.19089504129E+02  0.51100000000E-03 0.  1.
        -12    1    3    3    0    0 -0.11836286937E+02 -0.13312251356E+01 -0.28518101809E+02  0.30905533155E+02  0.00000000000E+00 0.  1.
</event>
<event>
 7    1  0.6316620E-012  0.5930195E+02  0.7816164E-02  0.1266605E+00
        -11   -1    0    0    0    0  0.00000000000E+00  0.00000000000E+00  0.45593999997E+02  0.45594000000E+02  0.51100000000E-03 0.  1.
         11   -1    0    0    0    0 -0.00000000000E+00 -0.00000000000E+00 -0.45593999997E+02  0.45594000000E+02  0.51100000000E-03 0. -1.
    9900012    2    1    2    0    0  0.57206307263E+01  0.12031032709E+02  0.28969791662E+02  0.59301949871E+02  0.50000010656E+02 0.  0.
         12    1    1    2    0    0 -0.57206307263E+01 -0.12031032709E+02 -0.28969791662E+02  0.31886050129E+02  0.00000000000E+00 0. -1.
         11    1    3    3    0    0 -0.69478587498E+01 -0.34315476822E+01  0.11883042824E+02  0.14186436047E+02  0.51100000000E-03 0. -1.
        -11    1    3    3    0    0  0.10072970931E+02  0.20637448205E+02  0.25872310362E+02  0.34594008955E+02  0.51100000000E-03 0.  1.
         12    1    3    3    0    0  0.25955185449E+01 -0.51748678145E+01 -0.87855615242E+01  0.10521504869E+02  0.00000000000E+00 0. -1.
</event>
<event>
 7    1  0.6316620E-012  0.5930195E+02  0.7816164E-02  0.1266605E+00
        -11   -1    0    0    0    0  0.00000000000E+00  0.00000000000E+00  0.45593999997E+02  0.45594000000E+02  0.51100000000E-03 0.  1.
         11   -1    0    0    0    0 -0.00000000000E+00 -0.00000000000E+00 -0.45593999997E+02  0.45594000000E+02  0.51100000000E-03 0. -1.
    9900012    2    1    2    0    0 -0.31251582235E+02  0.14064795336E+01 -0.61709423729E+01  0.59301951222E+02  0.50000013121E+02 0.  0.
         12    1    1    2    0    0  0.31251582235E+02 -0.14064795336E+01  0.61709423729E+01  0.31886048778E+02  0.00000000000E+00 0. -1.
         11    1    3    3    0    0  0.81956213401E+01 -0.39859397302E+01 -0.56011298815E+01  0.10697129563E+02  0.51100000000E-03 0. -1.
        -11    1    3    3    0    0 -0.74839700914E+01  0.60910698120E+01 -0.11320354030E+02  0.14874856484E+02  0.51100000000E-03 0.  1.
        -12    1    3    3    0    0 -0.31963233484E+02 -0.69865054824E+00  0.10750541539E+02  0.33729965175E+02  0.00000000000E+00 0.  1.
</event>
<event>
 7    1  0.6316620E-012  0.5930192E+02  0.7816164E-02  0.1266605E+00
        -11   -1    0    0    0    0  0.00000000000E+00  0.00000000000E+00  0.45593999997E+02  0.45594000000E+02  0.51100000000E-03 0. -1.
         11   -1    0    0    0    0 -0.00000000000E+00 -0.00000000000E+00 -0.45593999997E+02  0.45594000000E+02  0.51100000000E-03 0.  1.
    9900012    2    1    2    0    0  0.14172931757E+02  0.27431471304E+02 -0.79601855221E+01  0.59301918930E+02  0.49999954227E+02 0.  0.
         12    1    1    2    0    0 -0.14172931757E+02 -0.27431471304E+02  0.79601855221E+01  0.31886081070E+02  0.00000000000E+00 0. -1.
         11    1    3    3    0    0 -0.11451855301E+02  0.10795924980E+02 -0.26847730664E+01  0.15965744351E+02  0.51100000000E-03 0.  1.
        -11    1    3    3    0    0  0.19004499894E+02  0.14157204204E+02  0.10598004823E+02  0.25959875839E+02  0.51100000000E-03 0. -1.
         12    1    3    3    0    0  0.66202871634E+01  0.24783421201E+01 -0.15873417278E+02  0.17376298739E+02  0.00000000000E+00 0. -1.
</event>
<event>
 7    1  0.6316620E-012  0.5930188E+02  0.7816164E-02  0.1266605E+00
        -11   -1    0    0    0    0  0.00000000000E+00  0.00000000000E+00  0.45593999997E+02  0.45594000000E+02  0.51100000000E-03 0. -1.
         11   -1    0    0    0    0 -0.00000000000E+00 -0.00000000000E+00 -0.45593999997E+02  0.45594000000E+02  0.51100000000E-03 0.  1.
    9900012    2    1    2    0    0 -0.21729729826E+02  0.17068199914E+02 -0.15912897245E+02  0.59301875975E+02  0.49999875888E+02 0.  0.
         12    1    1    2    0    0  0.21729729826E+02 -0.17068199914E+02  0.15912897245E+02  0.31886124025E+02  0.00000000000E+00 0. -1.
         11    1    3    3    0    0 -0.11010612147E+02  0.31665633096E+01 -0.21882927757E+01  0.11664018543E+02  0.51100000000E-03 0. -1.
        -11    1    3    3    0    0 -0.27013234861E+02  0.71226711689E+01 -0.92977312873E+01  0.29443082542E+02  0.51100000000E-03 0.  1.
         12    1    3    3    0    0  0.16294117182E+02  0.67789654359E+01 -0.44268731819E+01  0.18194774890E+02  0.00000000000E+00 0. -1.
</event>
<event>
 7    1  0.6316620E-012  0.5930196E+02  0.7816164E-02  0.1266605E+00
        -11   -1    0    0    0    0  0.00000000000E+00  0.00000000000E+00  0.45593999997E+02  0.45594000000E+02  0.51100000000E-03 0.  1.
         11   -1    0    0    0    0 -0.00000000000E+00 -0.00000000000E+00 -0.45593999997E+02  0.45594000000E+02  0.51100000000E-03 0. -1.
    9900012    2    1    2    0    0  0.16938604748E+02  0.67521439260E-01  0.27014791785E+02  0.59301955010E+02  0.50000020028E+02 0.  0.
         12    1    1    2    0    0 -0.16938604748E+02 -0.67521439260E-01 -0.27014791785E+02  0.31886044990E+02  0.00000000000E+00 0. -1.
         11    1    3    3    0    0 -0.45635199583E+01  0.30401243335E+01  0.17031842831E+02  0.17892784603E+02  0.51100000000E-03 0. -1.
        -11    1    3    3    0    0 -0.57133676709E+01  0.14914659795E+00  0.12654475623E+02  0.13885264434E+02  0.51100000000E-03 0.  1.
        -12    1    3    3    0    0  0.27215492377E+02 -0.31217494922E+01 -0.26715266694E+01  0.27523905972E+02  0.00000000000E+00 0.  1.
</event>
<event>
 7    1  0.6316620E-012  0.5930194E+02  0.7816164E-02  0.1266605E+00
        -11   -1    0    0    0    0  0.00000000000E+00  0.00000000000E+00  0.45593999997E+02  0.45594000000E+02  0.51100000000E-03 0. -1.
         11   -1    0    0    0    0 -0.00000000000E+00 -0.00000000000E+00 -0.45593999997E+02  0.45594000000E+02  0.51100000000E-03 0.  1.
    9900012    2    1    2    0    0 -0.54458503519E+01 -0.22467555153E+02 -0.21960706446E+02  0.59301938026E+02  0.49999989054E+02 0.  0.
         12    1    1    2    0    0  0.54458503519E+01  0.22467555153E+02  0.21960706446E+02  0.31886061974E+02  0.00000000000E+00 0. -1.
         11    1    3    3    0    0  0.99314606976E+01 -0.23455020647E+02 -0.81495138091E+01  0.26742970678E+02  0.51100000000E-03 0. -1.
        -11    1    3    3    0    0 -0.93280681985E+01 -0.11960154594E+02 -0.64300763250E+01  0.16474344783E+02  0.51100000000E-03 0.  1.
        -12    1    3    3    0    0 -0.60492428510E+01  0.12947620088E+02 -0.73811163119E+01  0.16084622564E+02  0.00000000000E+00 0.  1.
</event>
<event>
 7    1  0.6316620E-012  0.5930194E+02  0.7816164E-02  0.1266605E+00
        -11   -1    0    0    0    0  0.00000000000E+00  0.00000000000E+00  0.45593999997E+02  0.45594000000E+02  0.51100000000E-03 0.  1.
         11   -1    0    0    0    0 -0.00000000000E+00 -0.00000000000E+00 -0.45593999997E+02  0.45594000000E+02  0.51100000000E-03 0. -1.
    9900012    2    1    2    0    0 -0.29588324406E+02 -0.44523002133E+01  0.11019474544E+02  0.59301941329E+02  0.49999995078E+02 0.  0.
         12    1    1    2    0    0  0.29588324406E+02  0.44523002133E+01 -0.11019474544E+02  0.31886058671E+02  0.00000000000E+00 0. -1.
         11    1    3    3    0    0  0.44407496456E-01 -0.16949938881E+02 -0.77623612571E+01  0.18642871362E+02  0.51100000000E-03 0. -1.
        -11    1    3    3    0    0 -0.53104485962E+01 -0.37084679994E+01  0.57393030548E+01  0.86540856832E+01  0.51100000000E-03 0.  1.
         12    1    3    3    0    0 -0.24322283307E+02  0.16206106667E+02  0.13042532746E+02  0.32004984283E+02  0.00000000000E+00 0. -1.
</event>
<event>
 7    1  0.6316620E-012  0.5930195E+02  0.7816164E-02  0.1266605E+00
        -11   -1    0    0    0    0  0.00000000000E+00  0.00000000000E+00  0.45593999997E+02  0.45594000000E+02  0.51100000000E-03 0.  1.
         11   -1    0    0    0    0 -0.00000000000E+00 -0.00000000000E+00 -0.45593999997E+02  0.45594000000E+02  0.51100000000E-03 0. -1.
    9900012    2    1    2    0    0  0.55011266949E+01 -0.29583535974E+02  0.10548553596E+02  0.59301953231E+02  0.50000016784E+02 0.  0.
         12    1    1    2    0    0 -0.55011266949E+01  0.29583535974E+02 -0.10548553596E+02  0.31886046769E+02  0.00000000000E+00 0. -1.
         11    1    3    3    0    0  0.27663485110E+00 -0.29070177913E+02  0.79128096369E+01  0.30129127557E+02  0.51100000000E-03 0. -1.
        -11    1    3    3    0    0  0.88595212522E+01 -0.11980581114E+02  0.68857085872E+01  0.16414579606E+02  0.51100000000E-03 0.  1.
         12    1    3    3    0    0 -0.36350294085E+01  0.11467223054E+02 -0.42499646286E+01  0.12758246067E+02  0.00000000000E+00 0. -1.
</event>
<event>
 7    1  0.6316620E-012  0.5930196E+02  0.7816164E-02  0.1266605E+00
        -11   -1    0    0    0    0  0.00000000000E+00  0.00000000000E+00  0.45593999997E+02  0.45594000000E+02  0.51100000000E-03 0. -1.
         11   -1    0    0    0    0 -0.00000000000E+00 -0.00000000000E+00 -0.45593999997E+02  0.45594000000E+02  0.51100000000E-03 0.  1.
    9900012    2    1    2    0    0  0.61313150411E+01  0.20633810586E+02 -0.23523872851E+02  0.59301956700E+02  0.50000023110E+02 0.  0.
         12    1    1    2    0    0 -0.61313150411E+01 -0.20633810586E+02  0.23523872851E+02  0.31886043300E+02  0.00000000000E+00 0. -1.
         11    1    3    3    0    0  0.73675321992E+00 -0.53398332332E+01  0.68001488674E+00  0.54331431761E+01  0.51100000000E-03 0. -1.
        -11    1    3    3    0    0 -0.10434302376E+02  0.17989547452E+02  0.33895387921E+01  0.21071009873E+02  0.51100000000E-03 0.  1.
        -12    1    3    3    0    0  0.15828864198E+02  0.79840963678E+01 -0.27593426530E+02  0.32797803650E+02  0.00000000000E+00 0.  1.
</event>
<event>
 7    1  0.6316620E-012  0.5930194E+02  0.7816164E-02  0.1266605E+00
        -11   -1    0    0    0    0  0.00000000000E+00  0.00000000000E+00  0.45593999997E+02  0.45594000000E+02  0.51100000000E-03 0. -1.
         11   -1    0    0    0    0 -0.00000000000E+00 -0.00000000000E+00 -0.45593999997E+02  0.45594000000E+02  0.51100000000E-03 0.  1.
    9900012    2    1    2    0    0 -0.12203802102E+02  0.17391951621E+02 -0.23776206881E+02  0.59301940655E+02  0.49999993849E+02 0.  0.
         12    1    1    2    0    0  0.12203802102E+02 -0.17391951621E+02  0.23776206881E+02  0.31886059345E+02  0.00000000000E+00 0. -1.
         11    1    3    3    0    0 -0.21318626250E+02 -0.57345228923E+01 -0.20146336167E+01  0.22168160205E+02  0.51100000000E-03 0. -1.
        -11    1    3    3    0    0 -0.35785915554E+01  0.46873413210E+01  0.23601184742E-01  0.58972911966E+01  0.51100000000E-03 0.  1.
         12    1    3    3    0    0  0.12693415704E+02  0.18439133192E+02 -0.21785174449E+02  0.31236489253E+02  0.00000000000E+00 0. -1.
</event>
<event>
 7    1  0.6316620E-012  0.5930194E+02  0.7816164E-02  0.1266605E+00
        -11   -1    0    0    0    0  0.00000000000E+00  0.00000000000E+00  0.45593999997E+02  0.45594000000E+02  0.51100000000E-03 0.  1.
         11   -1    0    0    0    0 -0.00000000000E+00 -0.00000000000E+00 -0.45593999997E+02  0.45594000000E+02  0.51100000000E-03 0. -1.
    9900012    2    1    2    0    0 -0.72541240148E+01 -0.54199800460E+01  0.30573232760E+02  0.59301936268E+02  0.49999985848E+02 0.  0.
         12    1    1    2    0    0  0.72541240148E+01  0.54199800460E+01 -0.30573232760E+02  0.31886063732E+02  0.00000000000E+00 0. -1.
         11    1    3    3    0    0  0.11327807984E+01 -0.21531980864E+01  0.11759394426E+02  0.12008447521E+02  0.51100000000E-03 0. -1.
        -11    1    3    3    0    0  0.14587091309E+02 -0.10983217906E+02  0.12871585947E+02  0.22340367801E+02  0.51100000000E-03 0.  1.
         12    1    3    3    0    0 -0.22973996122E+02  0.77164359464E+01  0.59422523872E+01  0.24953120946E+02  0.00000000000E+00 0. -1.
</event>
<event>
 7    1  0.6316620E-012  0.5930194E+02  0.7816164E-02  0.1266605E+00
        -11   -1    0    0    0    0  0.00000000000E+00  0.00000000000E+00  0.45593999997E+02  0.45594000000E+02  0.51100000000E-03 0.  1.
         11   -1    0    0    0    0 -0.00000000000E+00 -0.00000000000E+00 -0.45593999997E+02  0.45594000000E+02  0.51100000000E-03 0. -1.
    9900012    2    1    2    0    0  0.71394777823E+01 -0.32896559716E+01  0.30901892145E+02  0.59301938507E+02  0.49999989931E+02 0.  0.
         12    1    1    2    0    0 -0.71394777823E+01  0.32896559716E+01 -0.30901892145E+02  0.31886061493E+02  0.00000000000E+00 0. -1.
         11    1    3    3    0    0  0.13133757164E+02  0.77647696151E+01  0.41595827325E+01  0.15814213644E+02  0.51100000000E-03 0. -1.
        -11    1    3    3    0    0 -0.16812018901E+02 -0.16631442854E+00  0.63663053208E+01  0.17977805309E+02  0.51100000000E-03 0.  1.
        -12    1    3    3    0    0  0.10817739520E+02 -0.10888111158E+02  0.20376004091E+02  0.25509919554E+02  0.00000000000E+00 0.  1.
</event>
<event>
 7    1  0.6316620E-012  0.5930192E+02  0.7816164E-02  0.1266605E+00
        -11   -1    0    0    0    0  0.00000000000E+00  0.00000000000E+00  0.45593999997E+02  0.45594000000E+02  0.51100000000E-03 0.  1.
         11   -1    0    0    0    0 -0.00000000000E+00 -0.00000000000E+00 -0.45593999997E+02  0.45594000000E+02  0.51100000000E-03 0. -1.
    9900012    2    1    2    0    0  0.15428348559E+02  0.17078328378E+02  0.22068505330E+02  0.59301918916E+02  0.49999954201E+02 0.  0.
         12    1    1    2    0    0 -0.15428348559E+02 -0.17078328378E+02 -0.22068505330E+02  0.31886081084E+02  0.00000000000E+00 0. -1.
         11    1    3    3    0    0  0.19027771744E+02  0.80937275769E+01  0.11108958886E+02  0.23472824530E+02  0.51100000000E-03 0. -1.
        -11    1    3    3    0    0 -0.15235601195E+01 -0.41692095271E+00  0.21497309213E+02  0.21555262981E+02  0.51100000000E-03 0.  1.
         12    1    3    3    0    0 -0.20758630662E+01  0.94015217541E+01 -0.10537762769E+02  0.14273831404E+02  0.00000000000E+00 0. -1.
</event>
<event>
 7    1  0.6316620E-012  0.5930192E+02  0.7816164E-02  0.1266605E+00
        -11   -1    0    0    0    0  0.00000000000E+00  0.00000000000E+00  0.45593999997E+02  0.45594000000E+02  0.51100000000E-03 0. -1.
         11   -1    0    0    0    0 -0.00000000000E+00 -0.00000000000E+00 -0.45593999997E+02  0.45594000000E+02  0.51100000000E-03 0.  1.
    9900012    2    1    2    0    0  0.62243487485E+01  0.14863864446E+02 -0.27514456286E+02  0.59301917012E+02  0.49999950730E+02 0.  0.
         12    1    1    2    0    0 -0.62243487485E+01 -0.14863864446E+02  0.27514456286E+02  0.31886082988E+02  0.00000000000E+00 0. -1.
         11    1    3    3    0    0  0.19365814483E+02  0.10852483658E+01  0.27201699792E+01  0.19586011835E+02  0.51100000000E-03 0. -1.
        -11    1    3    3    0    0 -0.88767522958E+00  0.43400695957E+01  0.12791714651E+01  0.46109056927E+01  0.51100000000E-03 0.  1.
        -12    1    3    3    0    0 -0.12253790505E+02  0.94385464840E+01 -0.31513797730E+02  0.35104999485E+02  0.00000000000E+00 0.  1.
</event>
<event>
 7    1  0.6316620E-012  0.5930194E+02  0.7816164E-02  0.1266605E+00
        -11   -1    0    0    0    0  0.00000000000E+00  0.00000000000E+00  0.45593999997E+02  0.45594000000E+02  0.51100000000E-03 0.  1.
         11   -1    0    0    0    0 -0.00000000000E+00 -0.00000000000E+00 -0.45593999997E+02  0.45594000000E+02  0.51100000000E-03 0. -1.
    9900012    2    1    2    0    0  0.51407657880E+01 -0.12793885477E+02  0.28750822241E+02  0.59301941009E+02  0.49999994494E+02 0.  0.
         12    1    1    2    0    0 -0.51407657880E+01  0.12793885477E+02 -0.28750822241E+02  0.31886058991E+02  0.00000000000E+00 0. -1.
         11    1    3    3    0    0  0.88584585115E+01 -0.11438985539E+02 -0.20075782164E+01  0.14606609734E+02  0.51100000000E-03 0. -1.
        -11    1    3    3    0    0  0.11451432723E+02  0.60756499313E+01  0.50034436768E+01  0.13895441065E+02  0.51100000000E-03 0.  1.
        -12    1    3    3    0    0 -0.15169125447E+02 -0.74305498689E+01  0.25754956780E+02  0.30799890210E+02  0.00000000000E+00 0.  1.
</event>
<event>
 7    1  0.6316620E-012  0.5930193E+02  0.7816164E-02  0.1266605E+00
        -11   -1    0    0    0    0  0.00000000000E+00  0.00000000000E+00  0.45593999997E+02  0.45594000000E+02  0.51100000000E-03 0.  1.
         11   -1    0    0    0    0 -0.00000000000E+00 -0.00000000000E+00 -0.45593999997E+02  0.45594000000E+02  0.51100000000E-03 0. -1.
    9900012    2    1    2    0    0  0.66548707397E+01  0.25424183621E+02  0.18056721881E+02  0.59301927454E+02  0.49999969773E+02 0.  0.
         12    1    1    2    0    0 -0.66548707397E+01 -0.25424183621E+02 -0.18056721881E+02  0.31886072546E+02  0.00000000000E+00 0. -1.
         11    1    3    3    0    0 -0.41964314118E+01 -0.45764313329E+01  0.12812857584E+02  0.14238085548E+02  0.51100000000E-03 0. -1.
        -11    1    3    3    0    0  0.14668630239E+02  0.26144338582E+01  0.86102444109E+01  0.17208727047E+02  0.51100000000E-03 0.  1.
         12    1    3    3    0    0 -0.38173280875E+01  0.27386181095E+02 -0.33663801140E+01  0.27855114859E+02  0.00000000000E+00 0. -1.
</event>
<event>
 7    1  0.6316620E-012  0.5930197E+02  0.7816164E-02  0.1266605E+00
        -11   -1    0    0    0    0  0.00000000000E+00  0.00000000000E+00  0.45593999997E+02  0.45594000000E+02  0.51100000000E-03 0.  1.
         11   -1    0    0    0    0 -0.00000000000E+00 -0.00000000000E+00 -0.45593999997E+02  0.45594000000E+02  0.51100000000E-03 0. -1.
    9900012    2    1    2    0    0 -0.26233289306E+02  0.71054062898E+01  0.16674737498E+02  0.59301966428E+02  0.50000040852E+02 0.  0.
         12    1    1    2    0    0  0.26233289306E+02 -0.71054062898E+01 -0.16674737498E+02  0.31886033572E+02  0.00000000000E+00 0. -1.
         11    1    3    3    0    0 -0.75399126608E+01 -0.16617142326E+02  0.14238800353E+02  0.23145693720E+02  0.51100000000E-03 0. -1.
        -11    1    3    3    0    0 -0.89668413838E+01 -0.14537379154E+01  0.68475219178E+00  0.91096917705E+01  0.51100000000E-03 0.  1.
        -12    1    3    3    0    0 -0.97265352611E+01  0.25176286531E+02  0.17511849528E+01  0.27046580937E+02  0.00000000000E+00 0.  1.
</event>
<event>
 7    1  0.6316620E-012  0.5930190E+02  0.7816164E-02  0.1266605E+00
        -11   -1    0    0    0    0  0.00000000000E+00  0.00000000000E+00  0.45593999997E+02  0.45594000000E+02  0.51100000000E-03 0. -1.
         11   -1    0    0    0    0 -0.00000000000E+00 -0.00000000000E+00 -0.45593999997E+02  0.45594000000E+02  0.51100000000E-03 0.  1.
    9900012    2    1    2    0    0 -0.59351609277E+01 -0.16665659228E+02 -0.26528349391E+02  0.59301895595E+02  0.49999911670E+02 0.  0.
         12    1    1    2    0    0  0.59351609277E+01  0.16665659228E+02  0.26528349391E+02  0.31886104405E+02  0.00000000000E+00 0. -1.
         11    1    3    3    0    0  0.29351013630E-01 -0.96087373419E+01  0.11520067733E+02  0.15001355126E+02  0.51100000000E-03 0. -1.
        -11    1    3    3    0    0 -0.17826434347E+01  0.73472839030E+01 -0.15069084201E+02  0.16859350440E+02  0.51100000000E-03 0.  1.
        -12    1    3    3    0    0 -0.41818685066E+01 -0.14404205789E+02 -0.22979332923E+02  0.27441190029E+02  0.00000000000E+00 0.  1.
</event>
<event>
 7    1  0.6316620E-012  0.5930196E+02  0.7816164E-02  0.1266605E+00
        -11   -1    0    0    0    0  0.00000000000E+00  0.00000000000E+00  0.45593999997E+02  0.45594000000E+02  0.51100000000E-03 0.  1.
         11   -1    0    0    0    0 -0.00000000000E+00 -0.00000000000E+00 -0.45593999997E+02  0.45594000000E+02  0.51100000000E-03 0. -1.
    9900012    2    1    2    0    0  0.22446584958E+02  0.21146627560E+02 -0.81049864454E+01  0.59301955424E+02  0.50000020784E+02 0.  0.
         12    1    1    2    0    0 -0.22446584958E+02 -0.21146627560E+02  0.81049864454E+01  0.31886044576E+02  0.00000000000E+00 0. -1.
         11    1    3    3    0    0 -0.44312841379E+01 -0.28982243955E+01 -0.31720665104E+01  0.61723569214E+01  0.51100000000E-03 0. -1.
        -11    1    3    3    0    0 -0.29531048350E+01 -0.47640455681E+01 -0.98854897865E+01  0.11363972321E+02  0.51100000000E-03 0.  1.
        -12    1    3    3    0    0  0.29830973931E+02  0.28808897523E+02  0.49525698515E+01  0.41765626181E+02  0.00000000000E+00 0.  1.
</event>
<event>
 7    1  0.6316620E-012  0.5930196E+02  0.7816164E-02  0.1266605E+00
        -11   -1    0    0    0    0  0.00000000000E+00  0.00000000000E+00  0.45593999997E+02  0.45594000000E+02  0.51100000000E-03 0.  1.
         11   -1    0    0    0    0 -0.00000000000E+00 -0.00000000000E+00 -0.45593999997E+02  0.45594000000E+02  0.51100000000E-03 0. -1.
    9900012    2    1    2    0    0  0.24563096303E+02  0.14110868372E+00 -0.20331111653E+02  0.59301957400E+02  0.50000024387E+02 0.  0.
         12    1    1    2    0    0 -0.24563096303E+02 -0.14110868372E+00  0.20331111653E+02  0.31886042600E+02  0.00000000000E+00 0. -1.
         11    1    3    3    0    0 -0.59040542290E+01  0.67187175468E+01 -0.19941107677E+02  0.21855132062E+02  0.51100000000E-03 0. -1.
        -11    1    3    3    0    0  0.14509236207E+02  0.71008791328E+01  0.20684322903E+01  0.16285540586E+02  0.51100000000E-03 0.  1.
         12    1    3    3    0    0  0.15957914325E+02 -0.13678487996E+02 -0.24584362666E+01  0.21161284751E+02  0.00000000000E+00 0. -1.
</event>
<event>
 7    1  0.6316620E-012  0.5930191E+02  0.7816164E-02  0.1266605E+00
        -11   -1    0    0    0    0  0.00000000000E+00  0.00000000000E+00  0.45593999997E+02  0.45594000000E+02  0.51100000000E-03 0. -1.
         11   -1    0    0    0    0 -0.00000000000E+00 -0.00000000000E+00 -0.45593999997E+02  0.45594000000E+02  0.51100000000E-03 0.  1.
    9900012    2    1    2    0    0 -0.28655860877E+02 -0.57243132932E+01 -0.12759166834E+02  0.59301914264E+02  0.49999945717E+02 0.  0.
         12    1    1    2    0    0  0.28655860877E+02  0.57243132932E+01  0.12759166834E+02  0.31886085736E+02  0.00000000000E+00 0. -1.
         11    1    3    3    0    0 -0.11540228244E+02  0.37139111117E+01 -0.22685103592E+02  0.25721273859E+02  0.51100000000E-03 0. -1.
        -11    1    3    3    0    0 -0.12450182930E+02  0.48614675926E+01 -0.30571752494E+01  0.13710843990E+02  0.51100000000E-03 0.  1.
         12    1    3    3    0    0 -0.46654497034E+01 -0.14299691997E+02  0.12983112008E+02  0.19869796415E+02  0.00000000000E+00 0. -1.
</event>
<event>
 7    1  0.6316620E-012  0.5930195E+02  0.7816164E-02  0.1266605E+00
        -11   -1    0    0    0    0  0.00000000000E+00  0.00000000000E+00  0.45593999997E+02  0.45594000000E+02  0.51100000000E-03 0.  1.
         11   -1    0    0    0    0 -0.00000000000E+00 -0.00000000000E+00 -0.45593999997E+02  0.45594000000E+02  0.51100000000E-03 0. -1.
    9900012    2    1    2    0    0  0.32902208899E+01 -0.12339530818E+02  0.29216962135E+02  0.59301945827E+02  0.50000003282E+02 0.  0.
         12    1    1    2    0    0 -0.32902208899E+01  0.12339530818E+02 -0.29216962135E+02  0.31886054173E+02  0.00000000000E+00 0. -1.
         11    1    3    3    0    0  0.18104222302E+01  0.26595264032E+01  0.49966192571E+01  0.59428035137E+01  0.51100000000E-03 0. -1.
        -11    1    3    3    0    0 -0.17820685986E+02  0.62072971679E+01  0.95159902485E+01  0.21134366748E+02  0.51100000000E-03 0.  1.
         12    1    3    3    0    0  0.19300484646E+02 -0.21206354389E+02  0.14704352630E+02  0.32224775566E+02  0.00000000000E+00 0. -1.
</event>
<event>
 7    1  0.6316620E-012  0.5930220E+02  0.7816164E-02  0.1266604E+00
        -11   -1    0    0    0    0  0.00000000000E+00  0.00000000000E+00  0.45593999997E+02  0.45594000000E+02  0.51100000000E-03 0. -1.
         11   -1    0    0    0    0 -0.00000000000E+00 -0.00000000000E+00 -0.45593999997E+02  0.45594000000E+02  0.51100000000E-03 0.  1.
    9900012    2    1    2    0    0  0.14460821956E+02  0.27502890114E+02 -0.71540004690E+01  0.59302202864E+02  0.50000472053E+02 0.  0.
         12    1    1    2    0    0 -0.14460821956E+02 -0.27502890114E+02  0.71540004690E+01  0.31885797136E+02  0.00000000000E+00 0. -1.
         11    1    3    3    0    0  0.15649808216E+02  0.16082337506E+02 -0.64874370876E+00  0.22449475395E+02  0.51100000000E-03 0. -1.
        -11    1    3    3    0    0 -0.99425639605E+01  0.86302506043E+01  0.10951958803E+02  0.17125454899E+02  0.51100000000E-03 0.  1.
         12    1    3    3    0    0  0.87535777012E+01  0.27903020038E+01 -0.17457215564E+02  0.19727272571E+02  0.00000000000E+00 0. -1.
</event>
<event>
 7    1  0.6316620E-012  0.5930198E+02  0.7816164E-02  0.1266605E+00
        -11   -1    0    0    0    0  0.00000000000E+00  0.00000000000E+00  0.45593999997E+02  0.45594000000E+02  0.51100000000E-03 0.  1.
         11   -1    0    0    0    0 -0.00000000000E+00 -0.00000000000E+00 -0.45593999997E+02  0.45594000000E+02  0.51100000000E-03 0. -1.
    9900012    2    1    2    0    0  0.27518689239E+02  0.15954717999E+02 -0.22106103820E+01  0.59301982969E+02  0.50000071019E+02 0.  0.
         12    1    1    2    0    0 -0.27518689239E+02 -0.15954717999E+02  0.22106103820E+01  0.31886017031E+02  0.00000000000E+00 0. -1.
         11    1    3    3    0    0 -0.48886873190E+01  0.74157704131E+01  0.66282431568E+01  0.11082712760E+02  0.51100000000E-03 0.  1.
        -11    1    3    3    0    0  0.22171526541E+02  0.21480017629E+02 -0.49109216974E+01  0.31258357261E+02  0.51100000000E-03 0. -1.
         12    1    3    3    0    0  0.10235850017E+02 -0.12941070044E+02 -0.39279318414E+01  0.16960912947E+02  0.00000000000E+00 0. -1.
</event>
<event>
 7    1  0.6316620E-012  0.5930194E+02  0.7816164E-02  0.1266605E+00
        -11   -1    0    0    0    0  0.00000000000E+00  0.00000000000E+00  0.45593999997E+02  0.45594000000E+02  0.51100000000E-03 0.  1.
         11   -1    0    0    0    0 -0.00000000000E+00 -0.00000000000E+00 -0.45593999997E+02  0.45594000000E+02  0.51100000000E-03 0. -1.
    9900012    2    1    2    0    0 -0.13555500876E+01  0.27476782633E+02 -0.16121713566E+02  0.59301941162E+02  0.49999994773E+02 0.  0.
         12    1    1    2    0    0  0.13555500876E+01 -0.27476782633E+02  0.16121713566E+02  0.31886058838E+02  0.00000000000E+00 0. -1.
         11    1    3    3    0    0  0.33096818510E+01  0.10202543486E+02  0.82193557072E+01  0.13513093503E+02  0.51100000000E-03 0. -1.
        -11    1    3    3    0    0  0.92957773446E+01  0.18119603431E+02 -0.34606992364E+01  0.20656910330E+02  0.51100000000E-03 0.  1.
         12    1    3    3    0    0 -0.13961009283E+02 -0.84536428333E+00 -0.20880370037E+02  0.25131937328E+02  0.00000000000E+00 0. -1.
</event>
<event>
 7    1  0.6316620E-012  0.5930195E+02  0.7816164E-02  0.1266605E+00
        -11   -1    0    0    0    0  0.00000000000E+00  0.00000000000E+00  0.45593999997E+02  0.45594000000E+02  0.51100000000E-03 0. -1.
         11   -1    0    0    0    0 -0.00000000000E+00 -0.00000000000E+00 -0.45593999997E+02  0.45594000000E+02  0.51100000000E-03 0.  1.
    9900012    2    1    2    0    0 -0.14479155233E+02  0.16555188581E+02  0.23086795806E+02  0.59301947472E+02  0.50000006282E+02 0.  0.
         12    1    1    2    0    0  0.14479155233E+02 -0.16555188581E+02 -0.23086795806E+02  0.31886052528E+02  0.00000000000E+00 0. -1.
         11    1    3    3    0    0 -0.79359530392E+01  0.19486395543E+02  0.32526595586E+02  0.38738590353E+02  0.51100000000E-03 0. -1.
        -11    1    3    3    0    0 -0.76724508253E+01  0.55402930694E+01 -0.32322428267E+01  0.10000437136E+02  0.51100000000E-03 0.  1.
        -12    1    3    3    0    0  0.11292486317E+01 -0.84715000308E+01 -0.62075569526E+01  0.10562919983E+02  0.00000000000E+00 0.  1.
</event>
<event>
 7    1  0.6316620E-012  0.5930195E+02  0.7816164E-02  0.1266605E+00
        -11   -1    0    0    0    0  0.00000000000E+00  0.00000000000E+00  0.45593999997E+02  0.45594000000E+02  0.51100000000E-03 0. -1.
         11   -1    0    0    0    0 -0.00000000000E+00 -0.00000000000E+00 -0.45593999997E+02  0.45594000000E+02  0.51100000000E-03 0.  1.
    9900012    2    1    2    0    0  0.68623642133E+01  0.29918784192E+02 -0.86310324555E+01  0.59301946444E+02  0.50000004407E+02 0.  0.
         12    1    1    2    0    0 -0.68623642133E+01 -0.29918784192E+02  0.86310324555E+01  0.31886053556E+02  0.00000000000E+00 0. -1.
         11    1    3    3    0    0 -0.44142623983E+01  0.56518119959E+01 -0.11287037143E+02  0.13372580121E+02  0.51100000000E-03 0. -1.
        -11    1    3    3    0    0  0.18343990982E+02  0.27058903480E+02 -0.72098178228E+01  0.33476375789E+02  0.51100000000E-03 0.  1.
         12    1    3    3    0    0 -0.70673643704E+01 -0.27919312838E+01  0.98658225101E+01  0.12452990534E+02  0.00000000000E+00 0. -1.
</event>
<event>
 7    1  0.6316620E-012  0.5930197E+02  0.7816164E-02  0.1266605E+00
        -11   -1    0    0    0    0  0.00000000000E+00  0.00000000000E+00  0.45593999997E+02  0.45594000000E+02  0.51100000000E-03 0. -1.
         11   -1    0    0    0    0 -0.00000000000E+00 -0.00000000000E+00 -0.45593999997E+02  0.45594000000E+02  0.51100000000E-03 0.  1.
    9900012    2    1    2    0    0 -0.30691338236E+02 -0.50260405024E+01 -0.70356118150E+01  0.59301966075E+02  0.50000040209E+02 0.  0.
         12    1    1    2    0    0  0.30691338236E+02  0.50260405024E+01  0.70356118150E+01  0.31886033925E+02  0.00000000000E+00 0. -1.
         11    1    3    3    0    0 -0.10956480424E+02 -0.22809921155E+01 -0.53476296240E+01  0.12403408046E+02  0.51100000000E-03 0.  1.
        -11    1    3    3    0    0 -0.19424991317E+02  0.16425033929E+02  0.61735336104E+01  0.26176794012E+02  0.51100000000E-03 0. -1.
         12    1    3    3    0    0 -0.30986649533E+00 -0.19170082316E+02 -0.78615158014E+01  0.20721764016E+02  0.00000000000E+00 0. -1.
</event>
<event>
 7    1  0.6316620E-012  0.5930196E+02  0.7816164E-02  0.1266605E+00
        -11   -1    0    0    0    0  0.00000000000E+00  0.00000000000E+00  0.45593999997E+02  0.45594000000E+02  0.51100000000E-03 0.  1.
         11   -1    0    0    0    0 -0.00000000000E+00 -0.00000000000E+00 -0.45593999997E+02  0.45594000000E+02  0.51100000000E-03 0. -1.
    9900012    2    1    2    0    0 -0.27389861491E+01 -0.12357664917E+02  0.29266119306E+02  0.59301958123E+02  0.50000025706E+02 0.  0.
         12    1    1    2    0    0  0.27389861491E+01  0.12357664917E+02 -0.29266119306E+02  0.31886041877E+02  0.00000000000E+00 0. -1.
         11    1    3    3    0    0  0.11130840088E+02  0.96859891396E+01  0.94316116440E+01  0.17511975478E+02  0.51100000000E-03 0. -1.
        -11    1    3    3    0    0 -0.16494227197E+01  0.39491121571E+01  0.10900332526E+02  0.11710394168E+02  0.51100000000E-03 0.  1.
         12    1    3    3    0    0 -0.12220403517E+02 -0.25992766214E+02  0.89341751365E+01  0.30079588477E+02  0.00000000000E+00 0. -1.
</event>
<event>
 7    1  0.6316620E-012  0.5930193E+02  0.7816164E-02  0.1266605E+00
        -11   -1    0    0    0    0  0.00000000000E+00  0.00000000000E+00  0.45593999997E+02  0.45594000000E+02  0.51100000000E-03 0.  1.
         11   -1    0    0    0    0 -0.00000000000E+00 -0.00000000000E+00 -0.45593999997E+02  0.45594000000E+02  0.51100000000E-03 0. -1.
    9900012    2    1    2    0    0 -0.75435410806E+01  0.41643578044E+01  0.30699752632E+02  0.59301926244E+02  0.49999967566E+02 0.  0.
         12    1    1    2    0    0  0.75435410806E+01 -0.41643578044E+01 -0.30699752632E+02  0.31886073756E+02  0.00000000000E+00 0. -1.
         11    1    3    3    0    0  0.55769376828E+01  0.14600076279E+02 -0.19797408518E+01  0.15753851446E+02  0.51100000000E-03 0. -1.
        -11    1    3    3    0    0  0.34796983726E+01  0.50063399122E+01  0.63704043593E+01  0.88178110686E+01  0.51100000000E-03 0.  1.
         12    1    3    3    0    0 -0.16600177136E+02 -0.15442058387E+02  0.26309089124E+02  0.34730263729E+02  0.00000000000E+00 0. -1.
</event>
<event>
 7    1  0.6316620E-012  0.5930194E+02  0.7816164E-02  0.1266605E+00
        -11   -1    0    0    0    0  0.00000000000E+00  0.00000000000E+00  0.45593999997E+02  0.45594000000E+02  0.51100000000E-03 0.  1.
         11   -1    0    0    0    0 -0.00000000000E+00 -0.00000000000E+00 -0.45593999997E+02  0.45594000000E+02  0.51100000000E-03 0. -1.
    9900012    2    1    2    0    0  0.18746779801E+02 -0.22284941068E+01  0.25696553348E+02  0.59301940462E+02  0.49999993497E+02 0.  0.
         12    1    1    2    0    0 -0.18746779801E+02  0.22284941068E+01 -0.25696553348E+02  0.31886059538E+02  0.00000000000E+00 0. -1.
         11    1    3    3    0    0  0.19102854834E+01 -0.11083314640E+02 -0.49101686623E+01  0.12271870704E+02  0.51100000000E-03 0. -1.
        -11    1    3    3    0    0  0.12651509190E+02  0.10852289845E+02  0.61257735033E+00  0.16679572264E+02  0.51100000000E-03 0.  1.
        -12    1    3    3    0    0  0.41849851274E+01 -0.19974693117E+01  0.29994144660E+02  0.30350497493E+02  0.00000000000E+00 0.  1.
</event>
<event>
 7    1  0.6316620E-012  0.5930192E+02  0.7816164E-02  0.1266605E+00
        -11   -1    0    0    0    0  0.00000000000E+00  0.00000000000E+00  0.45593999997E+02  0.45594000000E+02  0.51100000000E-03 0. -1.
         11   -1    0    0    0    0 -0.00000000000E+00 -0.00000000000E+00 -0.45593999997E+02  0.45594000000E+02  0.51100000000E-03 0.  1.
    9900012    2    1    2    0    0 -0.25104929832E+01 -0.31775604404E+02  0.85467728283E+00  0.59301920224E+02  0.49999956587E+02 0.  0.
         12    1    1    2    0    0  0.25104929832E+01  0.31775604404E+02 -0.85467728283E+00  0.31886079776E+02  0.00000000000E+00 0. -1.
         11    1    3    3    0    0 -0.45548896277E+01 -0.13174122882E+02 -0.39959910568E+01  0.14500775083E+02  0.51100000000E-03 0. -1.
        -11    1    3    3    0    0 -0.72869762334E+01 -0.85139081554E+01 -0.16178217677E+02  0.19680482265E+02  0.51100000000E-03 0.  1.
         12    1    3    3    0    0  0.93313728780E+01 -0.10087573366E+02  0.21028886017E+02  0.25120662876E+02  0.00000000000E+00 0. -1.
</event>
<event>
 7    1  0.6316620E-012  0.5930195E+02  0.7816164E-02  0.1266605E+00
        -11   -1    0    0    0    0  0.00000000000E+00  0.00000000000E+00  0.45593999997E+02  0.45594000000E+02  0.51100000000E-03 0. -1.
         11   -1    0    0    0    0 -0.00000000000E+00 -0.00000000000E+00 -0.45593999997E+02  0.45594000000E+02  0.51100000000E-03 0.  1.
    9900012    2    1    2    0    0  0.20961828723E+02  0.23985597686E+02 -0.14187801446E+01  0.59301951376E+02  0.50000013401E+02 0.  0.
         12    1    1    2    0    0 -0.20961828723E+02 -0.23985597686E+02  0.14187801446E+01  0.31886048624E+02  0.00000000000E+00 0. -1.
         11    1    3    3    0    0  0.65962890220E+01  0.62482356518E+01  0.11250693200E+02  0.14461313058E+02  0.51100000000E-03 0. -1.
        -11    1    3    3    0    0  0.78499628128E+01 -0.17396465627E+01  0.10921638346E+02  0.13562096842E+02  0.51100000000E-03 0.  1.
        -12    1    3    3    0    0  0.65155768887E+01  0.19477008597E+02 -0.23591111690E+02  0.31278541476E+02  0.00000000000E+00 0.  1.
</event>
<event>
 7    1  0.6316620E-012  0.5930196E+02  0.7816164E-02  0.1266605E+00
        -11   -1    0    0    0    0  0.00000000000E+00  0.00000000000E+00  0.45593999997E+02  0.45594000000E+02  0.51100000000E-03 0. -1.
         11   -1    0    0    0    0 -0.00000000000E+00 -0.00000000000E+00 -0.45593999997E+02  0.45594000000E+02  0.51100000000E-03 0.  1.
    9900012    2    1    2    0    0  0.16420469630E+02  0.17509076009E+02 -0.20988567468E+02  0.59301960266E+02  0.50000029615E+02 0.  0.
         12    1    1    2    0    0 -0.16420469630E+02 -0.17509076009E+02  0.20988567468E+02  0.31886039734E+02  0.00000000000E+00 0. -1.
         11    1    3    3    0    0  0.48644099301E+01  0.67017831063E+01 -0.22148083441E+02  0.23645591156E+02  0.51100000000E-03 0. -1.
        -11    1    3    3    0    0  0.18176843576E+02  0.16266870971E+02 -0.52426752905E+01  0.24949837235E+02  0.51100000000E-03 0.  1.
         12    1    3    3    0    0 -0.66207838769E+01 -0.54595780679E+01  0.64021912630E+01  0.10706531875E+02  0.00000000000E+00 0. -1.
</event>
<event>
 7    1  0.6316620E-012  0.5930194E+02  0.7816164E-02  0.1266605E+00
        -11   -1    0    0    0    0  0.00000000000E+00  0.00000000000E+00  0.45593999997E+02  0.45594000000E+02  0.51100000000E-03 0.  1.
         11   -1    0    0    0    0 -0.00000000000E+00 -0.00000000000E+00 -0.45593999997E+02  0.45594000000E+02  0.51100000000E-03 0. -1.
    9900012    2    1    2    0    0  0.75737463503E+01  0.30181787019E+02 -0.69583570821E+01  0.59301942942E+02  0.49999998019E+02 0.  0.
         12    1    1    2    0    0 -0.75737463503E+01 -0.30181787019E+02  0.69583570821E+01  0.31886057058E+02  0.00000000000E+00 0. -1.
         11    1    3    3    0    0  0.24600162310E+02  0.15232134220E+02  0.23102274080E+01  0.29026247596E+02  0.51100000000E-03 0. -1.
        -11    1    3    3    0    0  0.37493249900E+01  0.24279667668E+01 -0.55718600400E+00  0.45014349940E+01  0.51100000000E-03 0.  1.
         12    1    3    3    0    0 -0.20775740950E+02  0.12521686032E+02 -0.87113984861E+01  0.25774260352E+02  0.00000000000E+00 0. -1.
</event>
<event>
 7    1  0.6316620E-012  0.5930191E+02  0.7816164E-02  0.1266605E+00
        -11   -1    0    0    0    0  0.00000000000E+00  0.00000000000E+00  0.45593999997E+02  0.45594000000E+02  0.51100000000E-03 0. -1.
         11   -1    0    0    0    0 -0.00000000000E+00 -0.00000000000E+00 -0.45593999997E+02  0.45594000000E+02  0.51100000000E-03 0.  1.
    9900012    2    1    2    0    0 -0.52828570790E+00 -0.60900409574E+01 -0.31294651002E+02  0.59301907953E+02  0.49999934209E+02 0.  0.
         12    1    1    2    0    0  0.52828570790E+00  0.60900409574E+01  0.31294651002E+02  0.31886092047E+02  0.00000000000E+00 0. -1.
         11    1    3    3    0    0  0.91260271312E+01  0.21589035286E+01  0.41158677795E+01  0.10241367266E+02  0.51100000000E-03 0. -1.
        -11    1    3    3    0    0 -0.62449213360E+01  0.32916031998E+01  0.38195199217E+01  0.80263582533E+01  0.51100000000E-03 0.  1.
        -12    1    3    3    0    0 -0.34093915031E+01 -0.11540547686E+02 -0.39230038704E+02  0.41034182434E+02  0.00000000000E+00 0.  1.
</event>
<event>
 7    1  0.6316620E-012  0.5930195E+02  0.7816164E-02  0.1266605E+00
        -11   -1    0    0    0    0  0.00000000000E+00  0.00000000000E+00  0.45593999997E+02  0.45594000000E+02  0.51100000000E-03 0. -1.
         11   -1    0    0    0    0 -0.00000000000E+00 -0.00000000000E+00 -0.45593999997E+02  0.45594000000E+02  0.51100000000E-03 0.  1.
    9900012    2    1    2    0    0  0.80926829971E+01 -0.30745225855E+02  0.24412540371E+01  0.59301950507E+02  0.50000011817E+02 0.  0.
         12    1    1    2    0    0 -0.80926829971E+01  0.30745225855E+02 -0.24412540371E+01  0.31886049493E+02  0.00000000000E+00 0. -1.
         11    1    3    3    0    0  0.11211411632E+02 -0.21018664097E+02 -0.64058354731E+01  0.24668091122E+02  0.51100000000E-03 0. -1.
        -11    1    3    3    0    0 -0.54469290403E+01 -0.88691466241E+01 -0.10701614011E+02  0.14928340179E+02  0.51100000000E-03 0.  1.
         12    1    3    3    0    0  0.23282004056E+01 -0.85741513402E+00  0.19548703521E+02  0.19705519206E+02  0.00000000000E+00 0. -1.
</event>
<event>
 7    1  0.6316620E-012  0.5930198E+02  0.7816164E-02  0.1266605E+00
        -11   -1    0    0    0    0  0.00000000000E+00  0.00000000000E+00  0.45593999997E+02  0.45594000000E+02  0.51100000000E-03 0. -1.
         11   -1    0    0    0    0 -0.00000000000E+00 -0.00000000000E+00 -0.45593999997E+02  0.45594000000E+02  0.51100000000E-03 0.  1.
    9900012    2    1    2    0    0 -0.14993501979E+02  0.26474873932E+02  0.95390937806E+01  0.59301978588E+02  0.50000063030E+02 0.  0.
         12    1    1    2    0    0  0.14993501979E+02 -0.26474873932E+02 -0.95390937806E+01  0.31886021412E+02  0.00000000000E+00 0. -1.
         11    1    3    3    0    0 -0.24873721991E+02  0.89813995843E+01 -0.36857050294E+01  0.26701161136E+02  0.51100000000E-03 0. -1.
        -11    1    3    3    0    0  0.23270542126E+01  0.14954899883E+02 -0.21470676843E+01  0.15286402838E+02  0.51100000000E-03 0.  1.
         12    1    3    3    0    0  0.75531657998E+01  0.25385744642E+01  0.15371866494E+02  0.17314414614E+02  0.00000000000E+00 0. -1.
</event>
<event>
 7    1  0.6316620E-012  0.5930192E+02  0.7816164E-02  0.1266605E+00
        -11   -1    0    0    0    0  0.00000000000E+00  0.00000000000E+00  0.45593999997E+02  0.45594000000E+02  0.51100000000E-03 0.  1.
         11   -1    0    0    0    0 -0.00000000000E+00 -0.00000000000E+00 -0.45593999997E+02  0.45594000000E+02  0.51100000000E-03 0. -1.
    9900012    2    1    2    0    0  0.75212233161E+01 -0.27823935610E+02  0.13637527216E+02  0.59301916177E+02  0.49999949207E+02 0.  0.
         12    1    1    2    0    0 -0.75212233161E+01  0.27823935610E+02 -0.13637527216E+02  0.31886083823E+02  0.00000000000E+00 0. -1.
         11    1    3    3    0    0  0.54748351477E+01  0.48113107242E+01 -0.64985436699E+01  0.97649168389E+01  0.51100000000E-03 0. -1.
        -11    1    3    3    0    0 -0.39700432562E+01  0.53588429723E+01  0.43129776467E+01  0.79423055784E+01  0.51100000000E-03 0.  1.
         12    1    3    3    0    0  0.60164314246E+01 -0.37994089307E+02  0.15823093239E+02  0.41594693760E+02  0.00000000000E+00 0. -1.
</event>
<event>
 7    1  0.6316620E-012  0.5930191E+02  0.7816164E-02  0.1266605E+00
        -11   -1    0    0    0    0  0.00000000000E+00  0.00000000000E+00  0.45593999997E+02  0.45594000000E+02  0.51100000000E-03 0. -1.
         11   -1    0    0    0    0 -0.00000000000E+00 -0.00000000000E+00 -0.45593999997E+02  0.45594000000E+02  0.51100000000E-03 0.  1.
    9900012    2    1    2    0    0 -0.15284304304E+02 -0.11641470560E+02 -0.25447766880E+02  0.59301911591E+02  0.49999940843E+02 0.  0.
         12    1    1    2    0    0  0.15284304304E+02  0.11641470560E+02  0.25447766880E+02  0.31886088409E+02  0.00000000000E+00 0. -1.
         11    1    3    3    0    0 -0.11939443856E+02 -0.12461897173E+02  0.61878243572E+01  0.18334076777E+02  0.51100000000E-03 0. -1.
        -11    1    3    3    0    0 -0.11358741785E+01 -0.12384696086E+02 -0.12682595449E+02  0.17762858297E+02  0.51100000000E-03 0.  1.
        -12    1    3    3    0    0 -0.22089862696E+01  0.13205122698E+02 -0.18952995788E+02  0.23204976517E+02  0.00000000000E+00 0.  1.
</event>
<event>
 7    1  0.6316620E-012  0.5930193E+02  0.7816164E-02  0.1266605E+00
        -11   -1    0    0    0    0  0.00000000000E+00  0.00000000000E+00  0.45593999997E+02  0.45594000000E+02  0.51100000000E-03 0. -1.
         11   -1    0    0    0    0 -0.00000000000E+00 -0.00000000000E+00 -0.45593999997E+02  0.45594000000E+02  0.51100000000E-03 0.  1.
    9900012    2    1    2    0    0 -0.24938802322E+02 -0.54381947679E+01 -0.19110309672E+02  0.59301925306E+02  0.49999965857E+02 0.  0.
         12    1    1    2    0    0  0.24938802322E+02  0.54381947679E+01  0.19110309672E+02  0.31886074694E+02  0.00000000000E+00 0. -1.
         11    1    3    3    0    0  0.40639877357E+01 -0.17362287883E+00 -0.48034135747E+01  0.62943564763E+01  0.51100000000E-03 0. -1.
        -11    1    3    3    0    0 -0.13940071486E+02  0.12557940981E+02 -0.21550905164E+02  0.28573921473E+02  0.51100000000E-03 0.  1.
         12    1    3    3    0    0 -0.15062718572E+02 -0.17822512871E+02  0.72440090663E+01  0.24433647357E+02  0.00000000000E+00 0. -1.
</event>
<event>
 7    1  0.6316620E-012  0.5930195E+02  0.7816164E-02  0.1266605E+00
        -11   -1    0    0    0    0  0.00000000000E+00  0.00000000000E+00  0.45593999997E+02  0.45594000000E+02  0.51100000000E-03 0.  1.
         11   -1    0    0    0    0 -0.00000000000E+00 -0.00000000000E+00 -0.45593999997E+02  0.45594000000E+02  0.51100000000E-03 0. -1.
    9900012    2    1    2    0    0  0.19499714372E+02 -0.36333447647E+01  0.24965580485E+02  0.59301948759E+02  0.50000008629E+02 0.  0.
         12    1    1    2    0    0 -0.19499714372E+02  0.36333447647E+01 -0.24965580485E+02  0.31886051241E+02  0.00000000000E+00 0. -1.
         11    1    3    3    0    0 -0.93086264498E+01  0.11664383279E+02  0.62398654277E+01  0.16175422235E+02  0.51100000000E-03 0. -1.
        -11    1    3    3    0    0 -0.13482985462E+01 -0.25572240568E+01  0.82687123662E+01  0.87595038845E+01  0.51100000000E-03 0.  1.
         12    1    3    3    0    0  0.30156639368E+02 -0.12740503987E+02  0.10457002691E+02  0.34367022640E+02  0.00000000000E+00 0. -1.
</event>
<event>
 7    1  0.6316620E-012  0.5930199E+02  0.7816164E-02  0.1266605E+00
        -11   -1    0    0    0    0  0.00000000000E+00  0.00000000000E+00  0.45593999997E+02  0.45594000000E+02  0.51100000000E-03 0.  1.
         11   -1    0    0    0    0 -0.00000000000E+00 -0.00000000000E+00 -0.45593999997E+02  0.45594000000E+02  0.51100000000E-03 0. -1.
    9900012    2    1    2    0    0 -0.47945397838E+01 -0.20346452464E+02  0.24078043212E+02  0.59301985754E+02  0.50000076098E+02 0.  0.
         12    1    1    2    0    0  0.47945397838E+01  0.20346452464E+02 -0.24078043212E+02  0.31886014246E+02  0.00000000000E+00 0. -1.
         11    1    3    3    0    0 -0.20111631592E+01  0.54282440208E+01 -0.76489632634E+01  0.95925622056E+01  0.51100000000E-03 0. -1.
        -11    1    3    3    0    0  0.58368469505E+01  0.82598176956E+00 -0.16938582964E+01  0.61335295219E+01  0.51100000000E-03 0.  1.
        -12    1    3    3    0    0 -0.86202235751E+01 -0.26600678254E+02  0.33420864772E+02  0.43575894026E+02  0.00000000000E+00 0.  1.
</event>
<event>
 7    1  0.6316620E-012  0.5930196E+02  0.7816164E-02  0.1266605E+00
        -11   -1    0    0    0    0  0.00000000000E+00  0.00000000000E+00  0.45593999997E+02  0.45594000000E+02  0.51100000000E-03 0.  1.
         11   -1    0    0    0    0 -0.00000000000E+00 -0.00000000000E+00 -0.45593999997E+02  0.45594000000E+02  0.51100000000E-03 0. -1.
    9900012    2    1    2    0    0  0.25527290420E+02  0.84530544908E+00  0.19088281302E+02  0.59301959472E+02  0.50000028167E+02 0.  0.
         12    1    1    2    0    0 -0.25527290420E+02 -0.84530544908E+00 -0.19088281302E+02  0.31886040528E+02  0.00000000000E+00 0. -1.
         11    1    3    3    0    0 -0.40805963568E+01  0.19654985038E+01  0.15148280791E+02  0.15810909593E+02  0.51100000000E-03 0. -1.
        -11    1    3    3    0    0  0.86773089860E+01  0.22190535727E+01  0.16557297130E+02  0.18824557857E+02  0.51100000000E-03 0.  1.
         12    1    3    3    0    0  0.20930577790E+02 -0.33392466274E+01 -0.12617296619E+02  0.24666492022E+02  0.00000000000E+00 0. -1.
</event>
<event>
 7    1  0.6316620E-012  0.5930195E+02  0.7816164E-02  0.1266605E+00
        -11   -1    0    0    0    0  0.00000000000E+00  0.00000000000E+00  0.45593999997E+02  0.45594000000E+02  0.51100000000E-03 0.  1.
         11   -1    0    0    0    0 -0.00000000000E+00 -0.00000000000E+00 -0.45593999997E+02  0.45594000000E+02  0.51100000000E-03 0. -1.
    9900012    2    1    2    0    0  0.48046998805E+01  0.29069165427E+01  0.31387656002E+02  0.59301948911E+02  0.50000008906E+02 0.  0.
         12    1    1    2    0    0 -0.48046998805E+01 -0.29069165427E+01 -0.31387656002E+02  0.31886051089E+02  0.00000000000E+00 0. -1.
         11    1    3    3    0    0  0.23071688947E+01 -0.80095202762E+01  0.19407087677E+01  0.85581419798E+01  0.51100000000E-03 0. -1.
        -11    1    3    3    0    0 -0.57780036937E+01 -0.64284030202E+01  0.30298262816E+02  0.31507053528E+02  0.51100000000E-03 0.  1.
        -12    1    3    3    0    0  0.82755346795E+01  0.17344839839E+02 -0.85131558166E+00  0.19236753403E+02  0.00000000000E+00 0.  1.
</event>
<event>
 7    1  0.6316620E-012  0.5930193E+02  0.7816164E-02  0.1266605E+00
        -11   -1    0    0    0    0  0.00000000000E+00  0.00000000000E+00  0.45593999997E+02  0.45594000000E+02  0.51100000000E-03 0.  1.
         11   -1    0    0    0    0 -0.00000000000E+00 -0.00000000000E+00 -0.45593999997E+02  0.45594000000E+02  0.51100000000E-03 0. -1.
    9900012    2    1    2    0    0 -0.30767950679E+02  0.68627316003E+01  0.47913744340E+01  0.59301934972E+02  0.49999983484E+02 0.  0.
         12    1    1    2    0    0  0.30767950679E+02 -0.68627316003E+01 -0.47913744340E+01  0.31886065028E+02  0.00000000000E+00 0. -1.
         11    1    3    3    0    0 -0.15693603015E+02  0.17190673308E+02  0.25158318504E+01  0.23412343636E+02  0.51100000000E-03 0. -1.
        -11    1    3    3    0    0  0.14022840139E+00  0.33574339042E+01  0.12549352370E+02  0.12991469186E+02  0.51100000000E-03 0.  1.
        -12    1    3    3    0    0 -0.15214576066E+02 -0.13685375612E+02 -0.10273809787E+02  0.22898122151E+02  0.00000000000E+00 0.  1.
</event>
<event>
 7    1  0.6316620E-012  0.5930196E+02  0.7816164E-02  0.1266605E+00
        -11   -1    0    0    0    0  0.00000000000E+00  0.00000000000E+00  0.45593999997E+02  0.45594000000E+02  0.51100000000E-03 0.  1.
         11   -1    0    0    0    0 -0.00000000000E+00 -0.00000000000E+00 -0.45593999997E+02  0.45594000000E+02  0.51100000000E-03 0. -1.
    9900012    2    1    2    0    0  0.17652574926E+02 -0.26455707280E+02 -0.22807420948E+01  0.59301958639E+02  0.50000026647E+02 0.  0.
         12    1    1    2    0    0 -0.17652574926E+02  0.26455707280E+02  0.22807420948E+01  0.31886041361E+02  0.00000000000E+00 0. -1.
         11    1    3    3    0    0 -0.40329294739E+01  0.15012653385E+01  0.41199480237E+01  0.59575405778E+01  0.51100000000E-03 0. -1.
        -11    1    3    3    0    0  0.32480535456E+02 -0.14142604729E+02 -0.41191146320E+01  0.35664626139E+02  0.51100000000E-03 0.  1.
         12    1    3    3    0    0 -0.10795031057E+02 -0.13814367889E+02 -0.22815754865E+01  0.17679791922E+02  0.00000000000E+00 0. -1.
</event>
<event>
 7    1  0.6316620E-012  0.5930195E+02  0.7816164E-02  0.1266605E+00
        -11   -1    0    0    0    0  0.00000000000E+00  0.00000000000E+00  0.45593999997E+02  0.45594000000E+02  0.51100000000E-03 0.  1.
         11   -1    0    0    0    0 -0.00000000000E+00 -0.00000000000E+00 -0.45593999997E+02  0.45594000000E+02  0.51100000000E-03 0. -1.
    9900012    2    1    2    0    0  0.12740437935E+02 -0.28035882344E+02  0.82698877441E+01  0.59301945040E+02  0.50000001847E+02 0.  0.
         12    1    1    2    0    0 -0.12740437935E+02  0.28035882344E+02 -0.82698877441E+01  0.31886054960E+02  0.00000000000E+00 0. -1.
         11    1    3    3    0    0 -0.47297492637E+00  0.53105081863E+01 -0.12288221393E+02  0.13394983678E+02  0.51100000000E-03 0. -1.
        -11    1    3    3    0    0  0.11889861727E+02 -0.80676656701E+01  0.19726044949E+01  0.14503351682E+02  0.51100000000E-03 0.  1.
        -12    1    3    3    0    0  0.13235511338E+01 -0.25278724860E+02  0.18585504642E+02  0.31403609681E+02  0.00000000000E+00 0.  1.
</event>
<event>
 7    1  0.6316620E-012  0.5930188E+02  0.7816164E-02  0.1266605E+00
        -11   -1    0    0    0    0  0.00000000000E+00  0.00000000000E+00  0.45593999997E+02  0.45594000000E+02  0.51100000000E-03 0. -1.
         11   -1    0    0    0    0 -0.00000000000E+00 -0.00000000000E+00 -0.45593999997E+02  0.45594000000E+02  0.51100000000E-03 0.  1.
    9900012    2    1    2    0    0 -0.32463432037E+01  0.18988666325E+01 -0.31663549292E+02  0.59301877746E+02  0.49999879117E+02 0.  0.
         12    1    1    2    0    0  0.32463432037E+01 -0.18988666325E+01  0.31663549292E+02  0.31886122254E+02  0.00000000000E+00 0. -1.
         11    1    3    3    0    0 -0.85564026977E+00  0.18929239960E+00 -0.26453055099E+02  0.26467566496E+02  0.51100000000E-03 0. -1.
        -11    1    3    3    0    0 -0.15862545884E+02 -0.55518886708E+01 -0.49798663299E+01  0.17528345577E+02  0.51100000000E-03 0.  1.
         12    1    3    3    0    0  0.13471842950E+02  0.72614629037E+01 -0.23062786278E+00  0.15305965673E+02  0.00000000000E+00 0. -1.
</event>
<event>
 7    1  0.6316620E-012  0.5930205E+02  0.7816164E-02  0.1266604E+00
        -11   -1    0    0    0    0  0.00000000000E+00  0.00000000000E+00  0.45593999997E+02  0.45594000000E+02  0.51100000000E-03 0.  1.
         11   -1    0    0    0    0 -0.00000000000E+00 -0.00000000000E+00 -0.45593999997E+02  0.45594000000E+02  0.51100000000E-03 0. -1.
    9900012    2    1    2    0    0 -0.24119362516E+02  0.19041331132E+02 -0.85086862651E+01  0.59302051975E+02  0.50000196870E+02 0.  0.
         12    1    1    2    0    0  0.24119362516E+02 -0.19041331132E+02  0.85086862651E+01  0.31885948025E+02  0.00000000000E+00 0. -1.
         11    1    3    3    0    0 -0.21562384370E+02 -0.45807699186E+01 -0.13184432709E+02  0.25685582316E+02  0.51100000000E-03 0. -1.
        -11    1    3    3    0    0 -0.10329437415E+02  0.55345893134E+01 -0.36025459795E+01  0.12259987520E+02  0.51100000000E-03 0.  1.
        -12    1    3    3    0    0  0.77724592698E+01  0.18087511737E+02  0.82782924232E+01  0.21356482140E+02  0.00000000000E+00 0.  1.
</event>
<event>
 7    1  0.6316620E-012  0.5930209E+02  0.7816164E-02  0.1266604E+00
        -11   -1    0    0    0    0  0.00000000000E+00  0.00000000000E+00  0.45593999997E+02  0.45594000000E+02  0.51100000000E-03 0.  1.
         11   -1    0    0    0    0 -0.00000000000E+00 -0.00000000000E+00 -0.45593999997E+02  0.45594000000E+02  0.51100000000E-03 0. -1.
    9900012    2    1    2    0    0  0.27290168898E+02 -0.15491316902E+02  0.56548190431E+01  0.59302090945E+02  0.50000267942E+02 0.  0.
         12    1    1    2    0    0 -0.27290168898E+02  0.15491316902E+02 -0.56548190431E+01  0.31885909055E+02  0.00000000000E+00 0. -1.
         11    1    3    3    0    0  0.61423239993E+01 -0.13341678113E+01  0.11994704871E+02  0.13541827538E+02  0.51100000000E-03 0. -1.
        -11    1    3    3    0    0  0.88657286319E+01 -0.26146957830E+02 -0.44700119995E+00  0.27612757165E+02  0.51100000000E-03 0.  1.
         12    1    3    3    0    0  0.12282116267E+02  0.11989808739E+02 -0.58928846280E+01  0.18147506242E+02  0.00000000000E+00 0. -1.
</event>
<event>
 7    1  0.6316620E-012  0.5930193E+02  0.7816164E-02  0.1266605E+00
        -11   -1    0    0    0    0  0.00000000000E+00  0.00000000000E+00  0.45593999997E+02  0.45594000000E+02  0.51100000000E-03 0.  1.
         11   -1    0    0    0    0 -0.00000000000E+00 -0.00000000000E+00 -0.45593999997E+02  0.45594000000E+02  0.51100000000E-03 0. -1.
    9900012    2    1    2    0    0  0.19727855041E+02 -0.24968743954E+02  0.20236277833E+01  0.59301929239E+02  0.49999973029E+02 0.  0.
         12    1    1    2    0    0 -0.19727855041E+02  0.24968743954E+02 -0.20236277833E+01  0.31886070761E+02  0.00000000000E+00 0. -1.
         11    1    3    3    0    0 -0.22967189277E+01 -0.96158615574E+01  0.48022382757E+00  0.98979960856E+01  0.51100000000E-03 0. -1.
        -11    1    3    3    0    0  0.12141488486E+02 -0.15056414568E+02 -0.18681996387E+02  0.26891045936E+02  0.51100000000E-03 0.  1.
         12    1    3    3    0    0  0.98830854830E+01 -0.29646782899E+00  0.20225400342E+02  0.22512887217E+02  0.00000000000E+00 0. -1.
</event>
<event>
 7    1  0.6316620E-012  0.5930195E+02  0.7816164E-02  0.1266605E+00
        -11   -1    0    0    0    0  0.00000000000E+00  0.00000000000E+00  0.45593999997E+02  0.45594000000E+02  0.51100000000E-03 0.  1.
         11   -1    0    0    0    0 -0.00000000000E+00 -0.00000000000E+00 -0.45593999997E+02  0.45594000000E+02  0.51100000000E-03 0. -1.
    9900012    2    1    2    0    0  0.25976131044E+02  0.13567326269E+02  0.12565371444E+02  0.59301948416E+02  0.50000008003E+02 0.  0.
         12    1    1    2    0    0 -0.25976131044E+02 -0.13567326269E+02 -0.12565371444E+02  0.31886051584E+02  0.00000000000E+00 0. -1.
         11    1    3    3    0    0 -0.34312259878E+01  0.26815230310E+01  0.52549049925E+01  0.68248006775E+01  0.51100000000E-03 0. -1.
        -11    1    3    3    0    0  0.88070742842E+01 -0.68916760545E+01  0.19642315466E+02  0.22602661644E+02  0.51100000000E-03 0.  1.
         12    1    3    3    0    0  0.20600282748E+02  0.17777479292E+02 -0.12331849014E+02  0.29874486094E+02  0.00000000000E+00 0. -1.
</event>
<event>
 7    1  0.6316620E-012  0.5930196E+02  0.7816164E-02  0.1266605E+00
        -11   -1    0    0    0    0  0.00000000000E+00  0.00000000000E+00  0.45593999997E+02  0.45594000000E+02  0.51100000000E-03 0.  1.
         11   -1    0    0    0    0 -0.00000000000E+00 -0.00000000000E+00 -0.45593999997E+02  0.45594000000E+02  0.51100000000E-03 0. -1.
    9900012    2    1    2    0    0  0.48660305830E+01  0.29468920044E+02  0.11163503496E+02  0.59301963675E+02  0.50000035832E+02 0.  0.
         12    1    1    2    0    0 -0.48660305830E+01 -0.29468920044E+02 -0.11163503496E+02  0.31886036325E+02  0.00000000000E+00 0. -1.
         11    1    3    3    0    0 -0.13741293846E+02  0.47434292665E+01  0.76825825349E+01  0.16442182107E+02  0.51100000000E-03 0. -1.
        -11    1    3    3    0    0 -0.27416348683E+01  0.12167134561E+02  0.11357744236E+02  0.16868730823E+02  0.51100000000E-03 0.  1.
         12    1    3    3    0    0  0.21348959297E+02  0.12558356217E+02 -0.78768232757E+01  0.25991050745E+02  0.00000000000E+00 0. -1.
</event>
<event>
 7    1  0.6316620E-012  0.5930194E+02  0.7816164E-02  0.1266605E+00
        -11   -1    0    0    0    0  0.00000000000E+00  0.00000000000E+00  0.45593999997E+02  0.45594000000E+02  0.51100000000E-03 0. -1.
         11   -1    0    0    0    0 -0.00000000000E+00 -0.00000000000E+00 -0.45593999997E+02  0.45594000000E+02  0.51100000000E-03 0.  1.
    9900012    2    1    2    0    0 -0.18205894532E+02  0.25536636058E+02 -0.57572765517E+01  0.59301943327E+02  0.49999998722E+02 0.  0.
         12    1    1    2    0    0  0.18205894532E+02 -0.25536636058E+02  0.57572765517E+01  0.31886056673E+02  0.00000000000E+00 0. -1.
         11    1    3    3    0    0 -0.13938832283E+02  0.53263488164E+01 -0.84286420460E+01  0.17137766603E+02  0.51100000000E-03 0. -1.
        -11    1    3    3    0    0  0.27242864188E+01  0.98192235691E+01 -0.16423831251E+02  0.19328246719E+02  0.51100000000E-03 0.  1.
         12    1    3    3    0    0 -0.69913486675E+01  0.10391063673E+02  0.19095196746E+02  0.22835930005E+02  0.00000000000E+00 0. -1.
</event>
<event>
 7    1  0.6316620E-012  0.5930198E+02  0.7816164E-02  0.1266605E+00
        -11   -1    0    0    0    0  0.00000000000E+00  0.00000000000E+00  0.45593999997E+02  0.45594000000E+02  0.51100000000E-03 0.  1.
         11   -1    0    0    0    0 -0.00000000000E+00 -0.00000000000E+00 -0.45593999997E+02  0.45594000000E+02  0.51100000000E-03 0. -1.
    9900012    2    1    2    0    0  0.15196967460E+02 -0.28014396778E+02 -0.98200419954E+00  0.59301975176E+02  0.50000056807E+02 0.  0.
         12    1    1    2    0    0 -0.15196967460E+02  0.28014396778E+02  0.98200419954E+00  0.31886024824E+02  0.00000000000E+00 0. -1.
         11    1    3    3    0    0 -0.40201550866E+01  0.84807561284E+01 -0.53929949469E+01  0.10824475331E+02  0.51100000000E-03 0. -1.
        -11    1    3    3    0    0  0.34251485226E+01  0.30061067394E+01 -0.27724089234E+01  0.53342826725E+01  0.51100000000E-03 0.  1.
        -12    1    3    3    0    0  0.15791974024E+02 -0.39501259646E+02  0.71833996708E+01  0.43143217173E+02  0.00000000000E+00 0.  1.
</event>
<event>
 7    1  0.6316620E-012  0.5930194E+02  0.7816164E-02  0.1266605E+00
        -11   -1    0    0    0    0  0.00000000000E+00  0.00000000000E+00  0.45593999997E+02  0.45594000000E+02  0.51100000000E-03 0. -1.
         11   -1    0    0    0    0 -0.00000000000E+00 -0.00000000000E+00 -0.45593999997E+02  0.45594000000E+02  0.51100000000E-03 0.  1.
    9900012    2    1    2    0    0  0.30680136219E+02  0.52422669903E+01  0.69259457257E+01  0.59301939631E+02  0.49999991982E+02 0.  0.
         12    1    1    2    0    0 -0.30680136219E+02 -0.52422669903E+01 -0.69259457257E+01  0.31886060369E+02  0.00000000000E+00 0. -1.
         11    1    3    3    0    0  0.57193990948E+01 -0.54702912371E+01 -0.10364643248E+02  0.13040760796E+02  0.51100000000E-03 0. -1.
        -11    1    3    3    0    0 -0.80989140091E+01  0.37365060748E+01  0.18338335233E+01  0.91058679667E+01  0.51100000000E-03 0.  1.
        -12    1    3    3    0    0  0.33059651134E+02  0.69760521526E+01  0.15456755450E+02  0.37155310869E+02  0.00000000000E+00 0.  1.
</event>
<event>
 7    1  0.6316620E-012  0.5930188E+02  0.7816164E-02  0.1266605E+00
        -11   -1    0    0    0    0  0.00000000000E+00  0.00000000000E+00  0.45593999997E+02  0.45594000000E+02  0.51100000000E-03 0. -1.
         11   -1    0    0    0    0 -0.00000000000E+00 -0.00000000000E+00 -0.45593999997E+02  0.45594000000E+02  0.51100000000E-03 0.  1.
    9900012    2    1    2    0    0  0.19664489102E+02 -0.23358351121E+02 -0.91880390712E+01  0.59301878243E+02  0.49999880024E+02 0.  0.
         12    1    1    2    0    0 -0.19664489102E+02  0.23358351121E+02  0.91880390712E+01  0.31886121757E+02  0.00000000000E+00 0. -1.
         11    1    3    3    0    0 -0.37211800044E+01 -0.40884035310E+01 -0.65660241526E+01  0.85834082678E+01  0.51100000000E-03 0. -1.
        -11    1    3    3    0    0  0.15083787770E+02  0.50108683059E+01 -0.15330684749E+02  0.22083010434E+02  0.51100000000E-03 0.  1.
        -12    1    3    3    0    0  0.83018813361E+01 -0.24280815896E+02  0.12708669830E+02  0.28635459541E+02  0.00000000000E+00 0.  1.
</event>
<event>
 7    1  0.6316620E-012  0.5930195E+02  0.7816164E-02  0.1266605E+00
        -11   -1    0    0    0    0  0.00000000000E+00  0.00000000000E+00  0.45593999997E+02  0.45594000000E+02  0.51100000000E-03 0. -1.
         11   -1    0    0    0    0 -0.00000000000E+00 -0.00000000000E+00 -0.45593999997E+02  0.45594000000E+02  0.51100000000E-03 0.  1.
    9900012    2    1    2    0    0  0.73838952336E+01  0.27603958033E+02 -0.14149912244E+02  0.59301946239E+02  0.50000004033E+02 0.  0.
         12    1    1    2    0    0 -0.73838952336E+01 -0.27603958033E+02  0.14149912244E+02  0.31886053761E+02  0.00000000000E+00 0. -1.
         11    1    3    3    0    0  0.24196675644E+01 -0.43931776138E+01 -0.13779974155E+01  0.52013150075E+01  0.51100000000E-03 0. -1.
        -11    1    3    3    0    0  0.12507246501E+02  0.42114845057E+01 -0.20417596286E+02  0.24311438772E+02  0.51100000000E-03 0.  1.
         12    1    3    3    0    0 -0.75430188322E+01  0.27785651141E+02  0.76456814581E+01  0.29789192460E+02  0.00000000000E+00 0. -1.
</event>
<event>
 7    1  0.6316620E-012  0.5930194E+02  0.7816164E-02  0.1266605E+00
        -11   -1    0    0    0    0  0.00000000000E+00  0.00000000000E+00  0.45593999997E+02  0.45594000000E+02  0.51100000000E-03 0.  1.
         11   -1    0    0    0    0 -0.00000000000E+00 -0.00000000000E+00 -0.45593999997E+02  0.45594000000E+02  0.51100000000E-03 0. -1.
    9900012    2    1    2    0    0 -0.15840522946E+02 -0.96502677848E+01  0.25935898490E+02  0.59301942451E+02  0.49999997125E+02 0.  0.
         12    1    1    2    0    0  0.15840522946E+02  0.96502677848E+01 -0.25935898490E+02  0.31886057549E+02  0.00000000000E+00 0. -1.
         11    1    3    3    0    0 -0.65565812387E+01 -0.28445258058E+02  0.16877302418E+02  0.33718908652E+02  0.51100000000E-03 0. -1.
        -11    1    3    3    0    0 -0.38281372781E+01 -0.31189778990E+00  0.27897680408E+01  0.47470750187E+01  0.51100000000E-03 0.  1.
        -12    1    3    3    0    0 -0.54558044296E+01  0.19106888063E+02  0.62688280315E+01  0.20835958781E+02  0.00000000000E+00 0.  1.
</event>
<event>
 7    1  0.6316620E-012  0.5930206E+02  0.7816164E-02  0.1266604E+00
        -11   -1    0    0    0    0  0.00000000000E+00  0.00000000000E+00  0.45593999997E+02  0.45594000000E+02  0.51100000000E-03 0.  1.
         11   -1    0    0    0    0 -0.00000000000E+00 -0.00000000000E+00 -0.45593999997E+02  0.45594000000E+02  0.51100000000E-03 0. -1.
    9900012    2    1    2    0    0  0.14727390858E+02  0.28226946390E+02  0.17483927098E+01  0.59302056058E+02  0.50000204316E+02 0.  0.
         12    1    1    2    0    0 -0.14727390858E+02 -0.28226946390E+02 -0.17483927098E+01  0.31885943942E+02  0.00000000000E+00 0. -1.
         11    1    3    3    0    0  0.14187036911E+02  0.23521562436E+01  0.72569892659E+01  0.16108027464E+02  0.51100000000E-03 0. -1.
        -11    1    3    3    0    0  0.84130459859E+01 -0.81248626361E+00  0.85476016545E+01  0.12020855668E+02  0.51100000000E-03 0.  1.
         12    1    3    3    0    0 -0.78726920393E+01  0.26687276410E+02 -0.14056198211E+02  0.31173172926E+02  0.00000000000E+00 0. -1.
</event>
<event>
 7    1  0.6316620E-012  0.5930195E+02  0.7816164E-02  0.1266605E+00
        -11   -1    0    0    0    0  0.00000000000E+00  0.00000000000E+00  0.45593999997E+02  0.45594000000E+02  0.51100000000E-03 0. -1.
         11   -1    0    0    0    0 -0.00000000000E+00 -0.00000000000E+00 -0.45593999997E+02  0.45594000000E+02  0.51100000000E-03 0.  1.
    9900012    2    1    2    0    0  0.93992440908E+01 -0.11379790931E+02 -0.28264375692E+02  0.59301947181E+02  0.50000005751E+02 0.  0.
         12    1    1    2    0    0 -0.93992440908E+01  0.11379790931E+02  0.28264375692E+02  0.31886052819E+02  0.00000000000E+00 0. -1.
         11    1    3    3    0    0  0.31506954896E+01  0.10350587702E+02 -0.16686592257E+02  0.19887280087E+02  0.51100000000E-03 0. -1.
        -11    1    3    3    0    0 -0.49733782796E+01 -0.24094638587E+01 -0.15744349192E+02  0.16686058232E+02  0.51100000000E-03 0.  1.
         12    1    3    3    0    0  0.11221926881E+02 -0.19320914774E+02  0.41665657564E+01  0.22728608862E+02  0.00000000000E+00 0. -1.
</event>
<event>
 7    1  0.6316620E-012  0.5930195E+02  0.7816164E-02  0.1266605E+00
        -11   -1    0    0    0    0  0.00000000000E+00  0.00000000000E+00  0.45593999997E+02  0.45594000000E+02  0.51100000000E-03 0. -1.
         11   -1    0    0    0    0 -0.00000000000E+00 -0.00000000000E+00 -0.45593999997E+02  0.45594000000E+02  0.51100000000E-03 0.  1.
    9900012    2    1    2    0    0  0.57716846660E+01 -0.30995918319E+02 -0.47603428142E+01  0.59301950385E+02  0.50000011594E+02 0.  0.
         12    1    1    2    0    0 -0.57716846660E+01  0.30995918319E+02  0.47603428142E+01  0.31886049615E+02  0.00000000000E+00 0. -1.
         11    1    3    3    0    0  0.13123222833E+02 -0.30093999205E+02  0.43800706461E+01  0.33121787162E+02  0.51100000000E-03 0. -1.
        -11    1    3    3    0    0 -0.14519418103E+02 -0.60067884393E+01 -0.63629903130E+01  0.16952364301E+02  0.51100000000E-03 0.  1.
        -12    1    3    3    0    0  0.71678799357E+01  0.51048693257E+01 -0.27774231473E+01  0.92277989219E+01  0.00000000000E+00 0.  1.
</event>
<event>
 7    1  0.6316620E-012  0.5930205E+02  0.7816164E-02  0.1266604E+00
        -11   -1    0    0    0    0  0.00000000000E+00  0.00000000000E+00  0.45593999997E+02  0.45594000000E+02  0.51100000000E-03 0.  1.
         11   -1    0    0    0    0 -0.00000000000E+00 -0.00000000000E+00 -0.45593999997E+02  0.45594000000E+02  0.51100000000E-03 0. -1.
    9900012    2    1    2    0    0  0.26550938569E+02 -0.99399197049E+01  0.14593123295E+02  0.59302053407E+02  0.50000199481E+02 0.  0.
         12    1    1    2    0    0 -0.26550938569E+02  0.99399197049E+01 -0.14593123295E+02  0.31885946593E+02  0.00000000000E+00 0. -1.
         11    1    3    3    0    0  0.13068843758E+01 -0.18044495247E+02  0.16973575715E+02  0.24807539747E+02  0.51100000000E-03 0. -1.
        -11    1    3    3    0    0  0.81283122299E+01 -0.33251322490E+01  0.76064051293E+01  0.11618234093E+02  0.51100000000E-03 0.  1.
         12    1    3    3    0    0  0.17115741963E+02  0.11429707791E+02 -0.99868575491E+01  0.22876279567E+02  0.00000000000E+00 0. -1.
</event>
<event>
 7    1  0.6316620E-012  0.5930195E+02  0.7816164E-02  0.1266605E+00
        -11   -1    0    0    0    0  0.00000000000E+00  0.00000000000E+00  0.45593999997E+02  0.45594000000E+02  0.51100000000E-03 0.  1.
         11   -1    0    0    0    0 -0.00000000000E+00 -0.00000000000E+00 -0.45593999997E+02  0.45594000000E+02  0.51100000000E-03 0. -1.
    9900012    2    1    2    0    0 -0.24040663718E+02 -0.10876636219E+02  0.17901553077E+02  0.59301947720E+02  0.50000006733E+02 0.  0.
         12    1    1    2    0    0  0.24040663718E+02  0.10876636219E+02 -0.17901553077E+02  0.31886052280E+02  0.00000000000E+00 0. -1.
         11    1    3    3    0    0 -0.18091410020E+02 -0.47744669763E+01 -0.39451609728E+01  0.19122210823E+02  0.51100000000E-03 0.  1.
        -11    1    3    3    0    0 -0.50333304600E+01  0.12482611929E+02  0.31942288255E+01  0.13833044283E+02  0.51100000000E-03 0. -1.
        -12    1    3    3    0    0 -0.91592323823E+00 -0.18584781172E+02  0.18652485225E+02  0.26346692613E+02  0.00000000000E+00 0.  1.
</event>
<event>
 7    1  0.6316620E-012  0.5930194E+02  0.7816164E-02  0.1266605E+00
        -11   -1    0    0    0    0  0.00000000000E+00  0.00000000000E+00  0.45593999997E+02  0.45594000000E+02  0.51100000000E-03 0.  1.
         11   -1    0    0    0    0 -0.00000000000E+00 -0.00000000000E+00 -0.45593999997E+02  0.45594000000E+02  0.51100000000E-03 0. -1.
    9900012    2    1    2    0    0 -0.22585436841E+02 -0.41453450079E+01  0.22123181240E+02  0.59301937359E+02  0.49999987838E+02 0.  0.
         12    1    1    2    0    0  0.22585436841E+02  0.41453450079E+01 -0.22123181240E+02  0.31886062641E+02  0.00000000000E+00 0. -1.
         11    1    3    3    0    0  0.88919163714E+01  0.79683426308E+01  0.25785851068E+01  0.12215144799E+02  0.51100000000E-03 0. -1.
        -11    1    3    3    0    0 -0.99154944045E+01  0.66801860148E+01 -0.80618073400E+00  0.11982981353E+02  0.51100000000E-03 0.  1.
        -12    1    3    3    0    0 -0.21561858808E+02 -0.18793873653E+02  0.20350776867E+02  0.35103811207E+02  0.00000000000E+00 0.  1.
</event>
<event>
 7    1  0.6316620E-012  0.5930194E+02  0.7816164E-02  0.1266605E+00
        -11   -1    0    0    0    0  0.00000000000E+00  0.00000000000E+00  0.45593999997E+02  0.45594000000E+02  0.51100000000E-03 0.  1.
         11   -1    0    0    0    0 -0.00000000000E+00 -0.00000000000E+00 -0.45593999997E+02  0.45594000000E+02  0.51100000000E-03 0. -1.
    9900012    2    1    2    0    0  0.13319660924E+02  0.28970267895E+02 -0.17630425722E+00  0.59301939218E+02  0.49999991228E+02 0.  0.
         12    1    1    2    0    0 -0.13319660924E+02 -0.28970267895E+02  0.17630425722E+00  0.31886060782E+02  0.00000000000E+00 0. -1.
         11    1    3    3    0    0 -0.27751181299E+01  0.56091101737E+01 -0.68935450630E+00  0.62959199068E+01  0.51100000000E-03 0. -1.
        -11    1    3    3    0    0 -0.15376069490E+02  0.87322449200E+01  0.39910225845E+01  0.18127434342E+02  0.51100000000E-03 0.  1.
        -12    1    3    3    0    0  0.31470848544E+02  0.14628912801E+02 -0.34779723355E+01  0.34878584968E+02  0.00000000000E+00 0.  1.
</event>
<event>
 7    1  0.6316620E-012  0.5930174E+02  0.7816164E-02  0.1266605E+00
        -11   -1    0    0    0    0  0.00000000000E+00  0.00000000000E+00  0.45593999997E+02  0.45594000000E+02  0.51100000000E-03 0. -1.
         11   -1    0    0    0    0 -0.00000000000E+00 -0.00000000000E+00 -0.45593999997E+02  0.45594000000E+02  0.51100000000E-03 0.  1.
    9900012    2    1    2    0    0  0.23081640656E+02 -0.51086326379E+01 -0.21397979548E+02  0.59301736633E+02  0.49999621760E+02 0.  0.
         12    1    1    2    0    0 -0.23081640656E+02  0.51086326379E+01  0.21397979548E+02  0.31886263367E+02  0.00000000000E+00 0. -1.
         11    1    3    3    0    0  0.39882657150E+00  0.56318861316E+01  0.79891884565E+01  0.97828593206E+01  0.51100000000E-03 0. -1.
        -11    1    3    3    0    0  0.21173439311E+00  0.89343314198E+01 -0.23715651310E+01  0.92461576238E+01  0.51100000000E-03 0.  1.
         12    1    3    3    0    0  0.22471079691E+02 -0.19674850189E+02 -0.27015602873E+02  0.40272719688E+02  0.00000000000E+00 0. -1.
</event>
<event>
 7    1  0.6316620E-012  0.5930207E+02  0.7816164E-02  0.1266604E+00
        -11   -1    0    0    0    0  0.00000000000E+00  0.00000000000E+00  0.45593999997E+02  0.45594000000E+02  0.51100000000E-03 0.  1.
         11   -1    0    0    0    0 -0.00000000000E+00 -0.00000000000E+00 -0.45593999997E+02  0.45594000000E+02  0.51100000000E-03 0. -1.
    9900012    2    1    2    0    0 -0.13202060198E+02 -0.25069004822E+02 -0.14627472306E+02  0.59302072974E+02  0.50000235167E+02 0.  0.
         12    1    1    2    0    0  0.13202060198E+02  0.25069004822E+02  0.14627472306E+02  0.31885927026E+02  0.00000000000E+00 0. -1.
         11    1    3    3    0    0 -0.16900512225E+01 -0.22208017661E+02 -0.11507650527E+02  0.25069470327E+02  0.51100000000E-03 0. -1.
        -11    1    3    3    0    0  0.52395666874E+01 -0.12384123251E+02  0.34354120294E+01  0.13878819253E+02  0.51100000000E-03 0.  1.
        -12    1    3    3    0    0 -0.16751575663E+02  0.95231360907E+01 -0.65552338082E+01  0.20353783395E+02  0.00000000000E+00 0.  1.
</event>
<event>
 7    1  0.6316620E-012  0.5930182E+02  0.7816164E-02  0.1266605E+00
        -11   -1    0    0    0    0  0.00000000000E+00  0.00000000000E+00  0.45593999997E+02  0.45594000000E+02  0.51100000000E-03 0.  1.
         11   -1    0    0    0    0 -0.00000000000E+00 -0.00000000000E+00 -0.45593999997E+02  0.45594000000E+02  0.51100000000E-03 0. -1.
    9900012    2    1    2    0    0  0.30801894628E+02  0.75296881238E+01 -0.33578678092E+01  0.59301824436E+02  0.49999781892E+02 0.  0.
         12    1    1    2    0    0 -0.30801894628E+02 -0.75296881238E+01  0.33578678092E+01  0.31886175564E+02  0.00000000000E+00 0. -1.
         11    1    3    3    0    0  0.80309856453E+01 -0.50349626158E+01  0.77197937640E+01  0.12224679750E+02  0.51100000000E-03 0. -1.
        -11    1    3    3    0    0  0.33161445304E+02  0.83363138015E+01 -0.58073518817E+01  0.34682862030E+02  0.51100000000E-03 0.  1.
         12    1    3    3    0    0 -0.10390536321E+02  0.42283369381E+01 -0.52703096915E+01  0.12394282656E+02  0.00000000000E+00 0. -1.
</event>
<event>
 7    1  0.6316620E-012  0.5930195E+02  0.7816164E-02  0.1266605E+00
        -11   -1    0    0    0    0  0.00000000000E+00  0.00000000000E+00  0.45593999997E+02  0.45594000000E+02  0.51100000000E-03 0. -1.
         11   -1    0    0    0    0 -0.00000000000E+00 -0.00000000000E+00 -0.45593999997E+02  0.45594000000E+02  0.51100000000E-03 0.  1.
    9900012    2    1    2    0    0 -0.14830317176E+02  0.97406180093E+01 -0.26493434265E+02  0.59301952802E+02  0.50000016003E+02 0.  0.
         12    1    1    2    0    0  0.14830317176E+02 -0.97406180093E+01  0.26493434265E+02  0.31886047198E+02  0.00000000000E+00 0. -1.
         11    1    3    3    0    0 -0.23255773490E+02 -0.53589321009E+01 -0.16275079890E+02  0.28886456681E+02  0.51100000000E-03 0. -1.
        -11    1    3    3    0    0 -0.55225932554E+01  0.12492561685E+02 -0.85837218397E+01  0.16132061697E+02  0.51100000000E-03 0.  1.
         12    1    3    3    0    0  0.13948049569E+02  0.26069884254E+01 -0.16346325350E+01  0.14283434425E+02  0.00000000000E+00 0. -1.
</event>
<event>
 7    1  0.6316620E-012  0.5930194E+02  0.7816164E-02  0.1266605E+00
        -11   -1    0    0    0    0  0.00000000000E+00  0.00000000000E+00  0.45593999997E+02  0.45594000000E+02  0.51100000000E-03 0.  1.
         11   -1    0    0    0    0 -0.00000000000E+00 -0.00000000000E+00 -0.45593999997E+02  0.45594000000E+02  0.51100000000E-03 0. -1.
    9900012    2    1    2    0    0 -0.29301314688E+02  0.37718981000E+01  0.11996951187E+02  0.59301935716E+02  0.49999984842E+02 0.  0.
         12    1    1    2    0    0  0.29301314688E+02 -0.37718981000E+01 -0.11996951187E+02  0.31886064284E+02  0.00000000000E+00 0. -1.
         11    1    3    3    0    0 -0.25313029075E+02  0.25919446376E+01 -0.29618574896E+01  0.25617185989E+02  0.51100000000E-03 0. -1.
        -11    1    3    3    0    0 -0.74260745781E+01  0.94973742096E+01 -0.39967087950E+01  0.12701196084E+02  0.51100000000E-03 0.  1.
         12    1    3    3    0    0  0.34377889654E+01 -0.83174207471E+01  0.18955517472E+02  0.20983553643E+02  0.00000000000E+00 0. -1.
</event>
<event>
 7    1  0.6316620E-012  0.5930194E+02  0.7816164E-02  0.1266605E+00
        -11   -1    0    0    0    0  0.00000000000E+00  0.00000000000E+00  0.45593999997E+02  0.45594000000E+02  0.51100000000E-03 0. -1.
         11   -1    0    0    0    0 -0.00000000000E+00 -0.00000000000E+00 -0.45593999997E+02  0.45594000000E+02  0.51100000000E-03 0.  1.
    9900012    2    1    2    0    0 -0.19985126447E+01  0.26657388427E+02 -0.17381323005E+02  0.59301940350E+02  0.49999993294E+02 0.  0.
         12    1    1    2    0    0  0.19985126447E+01 -0.26657388427E+02  0.17381323005E+02  0.31886059650E+02  0.00000000000E+00 0. -1.
         11    1    3    3    0    0 -0.34764095682E+01 -0.79604183071E+01  0.65332190220E+01  0.10869067769E+02  0.51100000000E-03 0. -1.
        -11    1    3    3    0    0  0.45603017828E+01 -0.38713458892E+00 -0.93184127820E+01  0.10381668583E+02  0.51100000000E-03 0.  1.
        -12    1    3    3    0    0 -0.30824048594E+01  0.35004941323E+02 -0.14596129245E+02  0.38051203998E+02  0.00000000000E+00 0.  1.
</event>
<event>
 7    1  0.6316620E-012  0.5930189E+02  0.7816164E-02  0.1266605E+00
        -11   -1    0    0    0    0  0.00000000000E+00  0.00000000000E+00  0.45593999997E+02  0.45594000000E+02  0.51100000000E-03 0.  1.
         11   -1    0    0    0    0 -0.00000000000E+00 -0.00000000000E+00 -0.45593999997E+02  0.45594000000E+02  0.51100000000E-03 0. -1.
    9900012    2    1    2    0    0 -0.29898321317E+02 -0.59705061132E+00  0.11066083962E+02  0.59301885447E+02  0.49999893163E+02 0.  0.
         12    1    1    2    0    0  0.29898321317E+02  0.59705061132E+00 -0.11066083962E+02  0.31886114553E+02  0.00000000000E+00 0. -1.
         11    1    3    3    0    0  0.79308842422E+01  0.69627159188E+01 -0.15595688436E+01  0.10668204773E+02  0.51100000000E-03 0. -1.
        -11    1    3    3    0    0  0.64323996536E+00 -0.82309201503E+01  0.41181564226E+01  0.92261051781E+01  0.51100000000E-03 0.  1.
        -12    1    3    3    0    0 -0.38472445525E+02  0.67115362022E+00  0.85074963829E+01  0.39407575497E+02  0.00000000000E+00 0.  1.
</event>
<event>
 7    1  0.6316620E-012  0.5930194E+02  0.7816164E-02  0.1266605E+00
        -11   -1    0    0    0    0  0.00000000000E+00  0.00000000000E+00  0.45593999997E+02  0.45594000000E+02  0.51100000000E-03 0. -1.
         11   -1    0    0    0    0 -0.00000000000E+00 -0.00000000000E+00 -0.45593999997E+02  0.45594000000E+02  0.51100000000E-03 0.  1.
    9900012    2    1    2    0    0 -0.29433944617E+01  0.28673294518E+02 -0.13634502295E+02  0.59301936551E+02  0.49999986364E+02 0.  0.
         12    1    1    2    0    0  0.29433944617E+01 -0.28673294518E+02  0.13634502295E+02  0.31886063449E+02  0.00000000000E+00 0. -1.
         11    1    3    3    0    0 -0.81310717653E+00  0.66195072613E+00  0.92395084516E+01  0.92988084577E+01  0.51100000000E-03 0. -1.
        -11    1    3    3    0    0  0.13463194812E+02  0.84724041794E+01  0.30791683389E+00  0.15910187308E+02  0.51100000000E-03 0.  1.
        -12    1    3    3    0    0 -0.15593482097E+02  0.19538939612E+02 -0.23181927580E+02  0.34092940786E+02  0.00000000000E+00 0.  1.
</event>
<event>
 7    1  0.6316620E-012  0.5930195E+02  0.7816164E-02  0.1266605E+00
        -11   -1    0    0    0    0  0.00000000000E+00  0.00000000000E+00  0.45593999997E+02  0.45594000000E+02  0.51100000000E-03 0.  1.
         11   -1    0    0    0    0 -0.00000000000E+00 -0.00000000000E+00 -0.45593999997E+02  0.45594000000E+02  0.51100000000E-03 0. -1.
    9900012    2    1    2    0    0  0.18680717505E+01  0.28821071641E+02  0.13512084144E+02  0.59301948496E+02  0.50000008149E+02 0.  0.
         12    1    1    2    0    0 -0.18680717505E+01 -0.28821071641E+02 -0.13512084144E+02  0.31886051504E+02  0.00000000000E+00 0. -1.
         11    1    3    3    0    0  0.72657289463E+01  0.44787229683E+01  0.92046489055E+01  0.12552901588E+02  0.51100000000E-03 0. -1.
        -11    1    3    3    0    0  0.75777154626E+01 -0.32844233140E+01 -0.10058829936E+02  0.13014963237E+02  0.51100000000E-03 0.  1.
         12    1    3    3    0    0 -0.12975372658E+02  0.27626771987E+02  0.14366265174E+02  0.33734083670E+02  0.00000000000E+00 0. -1.
</event>
<event>
 7    1  0.6316620E-012  0.5930194E+02  0.7816164E-02  0.1266605E+00
        -11   -1    0    0    0    0  0.00000000000E+00  0.00000000000E+00  0.45593999997E+02  0.45594000000E+02  0.51100000000E-03 0.  1.
         11   -1    0    0    0    0 -0.00000000000E+00 -0.00000000000E+00 -0.45593999997E+02  0.45594000000E+02  0.51100000000E-03 0. -1.
    9900012    2    1    2    0    0 -0.25957947589E+02 -0.15639212089E+02  0.99156760723E+01  0.59301943020E+02  0.49999998162E+02 0.  0.
         12    1    1    2    0    0  0.25957947589E+02  0.15639212089E+02 -0.99156760723E+01  0.31886056980E+02  0.00000000000E+00 0. -1.
         11    1    3    3    0    0  0.29220907535E+01  0.47927075588E+01  0.15500030475E+02  0.16485132850E+02  0.51100000000E-03 0. -1.
        -11    1    3    3    0    0 -0.11528323093E+02 -0.55867351554E+00  0.70924705827E+01  0.13546862687E+02  0.51100000000E-03 0.  1.
        -12    1    3    3    0    0 -0.17351715249E+02 -0.19873246132E+02 -0.12676824985E+02  0.29269947482E+02  0.00000000000E+00 0.  1.
</event>
<event>
 7    1  0.6316620E-012  0.5930197E+02  0.7816164E-02  0.1266605E+00
        -11   -1    0    0    0    0  0.00000000000E+00  0.00000000000E+00  0.45593999997E+02  0.45594000000E+02  0.51100000000E-03 0.  1.
         11   -1    0    0    0    0 -0.00000000000E+00 -0.00000000000E+00 -0.45593999997E+02  0.45594000000E+02  0.51100000000E-03 0. -1.
    9900012    2    1    2    0    0 -0.26503344569E+02  0.16536058007E+02  0.63914390470E+01  0.59301968876E+02  0.50000045318E+02 0.  0.
         12    1    1    2    0    0  0.26503344569E+02 -0.16536058007E+02 -0.63914390470E+01  0.31886031124E+02  0.00000000000E+00 0. -1.
         11    1    3    3    0    0  0.94604000566E+00 -0.97994808204E+01  0.11329181308E+02  0.15009169378E+02  0.51100000000E-03 0. -1.
        -11    1    3    3    0    0  0.10238634569E+01  0.80210251588E+01  0.43570270274E+01  0.91852504460E+01  0.51100000000E-03 0.  1.
         12    1    3    3    0    0 -0.28473248031E+02  0.18314513669E+02 -0.92947692881E+01  0.35107549053E+02  0.00000000000E+00 0. -1.
</event>
<event>
 7    1  0.6316620E-012  0.5930193E+02  0.7816164E-02  0.1266605E+00
        -11   -1    0    0    0    0  0.00000000000E+00  0.00000000000E+00  0.45593999997E+02  0.45594000000E+02  0.51100000000E-03 0. -1.
         11   -1    0    0    0    0 -0.00000000000E+00 -0.00000000000E+00 -0.45593999997E+02  0.45594000000E+02  0.51100000000E-03 0.  1.
    9900012    2    1    2    0    0 -0.18849469625E+02 -0.93620060097E+01 -0.23953529786E+02  0.59301933280E+02  0.49999980398E+02 0.  0.
         12    1    1    2    0    0  0.18849469625E+02  0.93620060097E+01  0.23953529786E+02  0.31886066720E+02  0.00000000000E+00 0. -1.
         11    1    3    3    0    0  0.33575726894E+01 -0.13983073055E+02 -0.41491623520E+01  0.14967136497E+02  0.51100000000E-03 0. -1.
        -11    1    3    3    0    0  0.85509056718E+01  0.29240562235E+00 -0.33869018341E+01  0.92018798705E+01  0.51100000000E-03 0.  1.
         12    1    3    3    0    0 -0.30757947987E+02  0.43286614230E+01 -0.16417465600E+02  0.35132916913E+02  0.00000000000E+00 0. -1.
</event>
<event>
 7    1  0.6316620E-012  0.5930195E+02  0.7816164E-02  0.1266605E+00
        -11   -1    0    0    0    0  0.00000000000E+00  0.00000000000E+00  0.45593999997E+02  0.45594000000E+02  0.51100000000E-03 0.  1.
         11   -1    0    0    0    0 -0.00000000000E+00 -0.00000000000E+00 -0.45593999997E+02  0.45594000000E+02  0.51100000000E-03 0. -1.
    9900012    2    1    2    0    0 -0.18749570841E+02 -0.25209631103E+02  0.54450121193E+01  0.59301951890E+02  0.50000014340E+02 0.  0.
         12    1    1    2    0    0  0.18749570841E+02  0.25209631103E+02 -0.54450121193E+01  0.31886048110E+02  0.00000000000E+00 0. -1.
         11    1    3    3    0    0  0.81615284304E+01  0.44946120333E+01 -0.69351056745E+01  0.11614980612E+02  0.51100000000E-03 0. -1.
        -11    1    3    3    0    0  0.54697109654E+00 -0.10357424969E+02  0.93449088076E+01  0.13960757510E+02  0.51100000000E-03 0.  1.
        -12    1    3    3    0    0 -0.27458070368E+02 -0.19346818167E+02  0.30352089862E+01  0.33726213768E+02  0.00000000000E+00 0.  1.
</event>
<event>
 7    1  0.6316620E-012  0.5930196E+02  0.7816164E-02  0.1266605E+00
        -11   -1    0    0    0    0  0.00000000000E+00  0.00000000000E+00  0.45593999997E+02  0.45594000000E+02  0.51100000000E-03 0.  1.
         11   -1    0    0    0    0 -0.00000000000E+00 -0.00000000000E+00 -0.45593999997E+02  0.45594000000E+02  0.51100000000E-03 0. -1.
    9900012    2    1    2    0    0 -0.19165841920E+02  0.15478818424E+02  0.20243429995E+02  0.59301956434E+02  0.50000022627E+02 0.  0.
         12    1    1    2    0    0  0.19165841920E+02 -0.15478818424E+02 -0.20243429995E+02  0.31886043566E+02  0.00000000000E+00 0. -1.
         11    1    3    3    0    0 -0.18662388576E+02  0.14976794684E+02  0.42619359287E+01  0.24305415539E+02  0.51100000000E-03 0. -1.
        -11    1    3    3    0    0 -0.33162350272E+01  0.15095765721E+02  0.41591260745E+01  0.16005558016E+02  0.51100000000E-03 0.  1.
         12    1    3    3    0    0  0.28127816834E+01 -0.14593741981E+02  0.11822367992E+02  0.18990982879E+02  0.00000000000E+00 0. -1.
</event>
<event>
 7    1  0.6316620E-012  0.5930197E+02  0.7816164E-02  0.1266605E+00
        -11   -1    0    0    0    0  0.00000000000E+00  0.00000000000E+00  0.45593999997E+02  0.45594000000E+02  0.51100000000E-03 0.  1.
         11   -1    0    0    0    0 -0.00000000000E+00 -0.00000000000E+00 -0.45593999997E+02  0.45594000000E+02  0.51100000000E-03 0. -1.
    9900012    2    1    2    0    0  0.41485447282E+01 -0.16063457021E+02  0.27230020294E+02  0.59301967321E+02  0.50000042481E+02 0.  0.
         12    1    1    2    0    0 -0.41485447282E+01  0.16063457021E+02 -0.27230020294E+02  0.31886032679E+02  0.00000000000E+00 0. -1.
         11    1    3    3    0    0  0.28550999607E+01 -0.85752001780E+01  0.31911723969E+00  0.90436436215E+01  0.51100000000E-03 0. -1.
        -11    1    3    3    0    0 -0.18572827388E+02 -0.39921187693E+01  0.22791357857E+02  0.29670404828E+02  0.51100000000E-03 0.  1.
         12    1    3    3    0    0  0.19866272156E+02 -0.34961380739E+01  0.41195451970E+01  0.20587918871E+02  0.00000000000E+00 0. -1.
</event>
<event>
 7    1  0.6316620E-012  0.5930194E+02  0.7816164E-02  0.1266605E+00
        -11   -1    0    0    0    0  0.00000000000E+00  0.00000000000E+00  0.45593999997E+02  0.45594000000E+02  0.51100000000E-03 0. -1.
         11   -1    0    0    0    0 -0.00000000000E+00 -0.00000000000E+00 -0.45593999997E+02  0.45594000000E+02  0.51100000000E-03 0.  1.
    9900012    2    1    2    0    0 -0.19890688627E+02 -0.18413122431E+02  0.16793992677E+02  0.59301940950E+02  0.49999994387E+02 0.  0.
         12    1    1    2    0    0  0.19890688627E+02  0.18413122431E+02 -0.16793992677E+02  0.31886059050E+02  0.00000000000E+00 0. -1.
         11    1    3    3    0    0 -0.87448068921E+01 -0.75494962805E+01 -0.19897484765E+00  0.11554485403E+02  0.51100000000E-03 0. -1.
        -11    1    3    3    0    0  0.73924214213E+01  0.12474648819E+02  0.29401138501E+01  0.14795574586E+02  0.51100000000E-03 0.  1.
         12    1    3    3    0    0 -0.18538303157E+02 -0.23338274969E+02  0.14052853674E+02  0.32951880961E+02  0.00000000000E+00 0. -1.
</event>
<event>
 7    1  0.6316620E-012  0.5930188E+02  0.7816164E-02  0.1266605E+00
        -11   -1    0    0    0    0  0.00000000000E+00  0.00000000000E+00  0.45593999997E+02  0.45594000000E+02  0.51100000000E-03 0.  1.
         11   -1    0    0    0    0 -0.00000000000E+00 -0.00000000000E+00 -0.45593999997E+02  0.45594000000E+02  0.51100000000E-03 0. -1.
    9900012    2    1    2    0    0  0.16057177957E+01 -0.29267034309E+02 -0.12553368164E+02  0.59301879522E+02  0.49999882356E+02 0.  0.
         12    1    1    2    0    0 -0.16057177957E+01  0.29267034309E+02  0.12553368164E+02  0.31886120478E+02  0.00000000000E+00 0. -1.
         11    1    3    3    0    0 -0.12213875631E+01 -0.10023407719E+02 -0.14782200856E+02  0.17901786288E+02  0.51100000000E-03 0. -1.
        -11    1    3    3    0    0  0.18663753747E+02 -0.45587018046E+01  0.43502433132E+01  0.19698783800E+02  0.51100000000E-03 0.  1.
         12    1    3    3    0    0 -0.15836648388E+02 -0.14684924785E+02 -0.21214106216E+01  0.21701309434E+02  0.00000000000E+00 0. -1.
</event>
<event>
 7    1  0.6316620E-012  0.5930194E+02  0.7816164E-02  0.1266605E+00
        -11   -1    0    0    0    0  0.00000000000E+00  0.00000000000E+00  0.45593999997E+02  0.45594000000E+02  0.51100000000E-03 0. -1.
         11   -1    0    0    0    0 -0.00000000000E+00 -0.00000000000E+00 -0.45593999997E+02  0.45594000000E+02  0.51100000000E-03 0.  1.
    9900012    2    1    2    0    0 -0.20213709232E+02  0.20977122389E+02 -0.12964838668E+02  0.59301941192E+02  0.49999994828E+02 0.  0.
         12    1    1    2    0    0  0.20213709232E+02 -0.20977122389E+02  0.12964838668E+02  0.31886058808E+02  0.00000000000E+00 0. -1.
         11    1    3    3    0    0 -0.93213138942E+01 -0.84705700824E+01 -0.22985816046E+01  0.12803160855E+02  0.51100000000E-03 0. -1.
        -11    1    3    3    0    0  0.34904006431E+01 -0.58218960303E-02  0.80357123161E+01  0.87610275215E+01  0.51100000000E-03 0.  1.
        -12    1    3    3    0    0 -0.14382795981E+02  0.29453514368E+02 -0.18701969380E+02  0.37737752815E+02  0.00000000000E+00 0.  1.
</event>
<event>
 7    1  0.6316620E-012  0.5930196E+02  0.7816164E-02  0.1266605E+00
        -11   -1    0    0    0    0  0.00000000000E+00  0.00000000000E+00  0.45593999997E+02  0.45594000000E+02  0.51100000000E-03 0.  1.
         11   -1    0    0    0    0 -0.00000000000E+00 -0.00000000000E+00 -0.45593999997E+02  0.45594000000E+02  0.51100000000E-03 0. -1.
    9900012    2    1    2    0    0  0.40138657655E+01  0.31575476393E+02  0.18967895901E+01  0.59301958562E+02  0.50000026507E+02 0.  0.
         12    1    1    2    0    0 -0.40138657655E+01 -0.31575476393E+02 -0.18967895901E+01  0.31886041438E+02  0.00000000000E+00 0. -1.
         11    1    3    3    0    0 -0.24333023135E+01  0.33398708534E+02 -0.10959939122E+02  0.35235138111E+02  0.51100000000E-03 0. -1.
        -11    1    3    3    0    0  0.20716058608E+01  0.76571798452E+01  0.58482984775E+00  0.79539914657E+01  0.51100000000E-03 0.  1.
        -12    1    3    3    0    0  0.43755622182E+01 -0.94804119862E+01  0.12271898865E+02  0.16112828985E+02  0.00000000000E+00 0.  1.
</event>
<event>
 7    1  0.6316620E-012  0.5930195E+02  0.7816164E-02  0.1266605E+00
        -11   -1    0    0    0    0  0.00000000000E+00  0.00000000000E+00  0.45593999997E+02  0.45594000000E+02  0.51100000000E-03 0. -1.
         11   -1    0    0    0    0 -0.00000000000E+00 -0.00000000000E+00 -0.45593999997E+02  0.45594000000E+02  0.51100000000E-03 0.  1.
    9900012    2    1    2    0    0 -0.24086902622E+02  0.11605660812E+01 -0.20861318212E+02  0.59301946794E+02  0.50000005044E+02 0.  0.
         12    1    1    2    0    0  0.24086902622E+02 -0.11605660812E+01  0.20861318212E+02  0.31886053206E+02  0.00000000000E+00 0. -1.
         11    1    3    3    0    0 -0.18430667294E+01 -0.19019796255E+01 -0.19809663553E+02  0.19985924843E+02  0.51100000000E-03 0. -1.
        -11    1    3    3    0    0  0.46665567208E+01  0.10266059831E+02  0.13372899718E+01  0.11355927123E+02  0.51100000000E-03 0.  1.
         12    1    3    3    0    0 -0.26910392614E+02 -0.72035141244E+01 -0.23889446301E+01  0.27960094828E+02  0.00000000000E+00 0. -1.
</event>
<event>
 7    1  0.6316620E-012  0.5930194E+02  0.7816164E-02  0.1266605E+00
        -11   -1    0    0    0    0  0.00000000000E+00  0.00000000000E+00  0.45593999997E+02  0.45594000000E+02  0.51100000000E-03 0.  1.
         11   -1    0    0    0    0 -0.00000000000E+00 -0.00000000000E+00 -0.45593999997E+02  0.45594000000E+02  0.51100000000E-03 0. -1.
    9900012    2    1    2    0    0  0.24806475525E+02  0.40113012045E+01  0.19628267465E+02  0.59301942717E+02  0.49999997610E+02 0.  0.
         12    1    1    2    0    0 -0.24806475525E+02 -0.40113012045E+01 -0.19628267465E+02  0.31886057283E+02  0.00000000000E+00 0. -1.
         11    1    3    3    0    0  0.23005209679E+01 -0.28147224523E+01 -0.78511111590E+01  0.86518787497E+01  0.51100000000E-03 0. -1.
        -11    1    3    3    0    0  0.26138597579E+02 -0.46317522725E+01  0.79368095484E+01  0.27706900919E+02  0.51100000000E-03 0.  1.
        -12    1    3    3    0    0 -0.36326430210E+01  0.11457775929E+02  0.19542569076E+02  0.22943163048E+02  0.00000000000E+00 0.  1.
</event>
<event>
 7    1  0.6316620E-012  0.5930197E+02  0.7816164E-02  0.1266605E+00
        -11   -1    0    0    0    0  0.00000000000E+00  0.00000000000E+00  0.45593999997E+02  0.45594000000E+02  0.51100000000E-03 0. -1.
         11   -1    0    0    0    0 -0.00000000000E+00 -0.00000000000E+00 -0.45593999997E+02  0.45594000000E+02  0.51100000000E-03 0.  1.
    9900012    2    1    2    0    0  0.20378426264E+02  0.18745653364E+02 -0.15812620013E+02  0.59301972830E+02  0.50000052529E+02 0.  0.
         12    1    1    2    0    0 -0.20378426264E+02 -0.18745653364E+02  0.15812620013E+02  0.31886027170E+02  0.00000000000E+00 0. -1.
         11    1    3    3    0    0 -0.44798369646E+01 -0.51868097604E+01 -0.62818614139E+01  0.92969735831E+01  0.51100000000E-03 0. -1.
        -11    1    3    3    0    0  0.81687801937E+01 -0.88330694841E+01 -0.47048439714E+01  0.12918500045E+02  0.51100000000E-03 0.  1.
         12    1    3    3    0    0  0.16689483035E+02  0.32765532608E+02 -0.48259146275E+01  0.37086499202E+02  0.00000000000E+00 0. -1.
</event>
<event>
 7    1  0.6316620E-012  0.5930193E+02  0.7816164E-02  0.1266605E+00
        -11   -1    0    0    0    0  0.00000000000E+00  0.00000000000E+00  0.45593999997E+02  0.45594000000E+02  0.51100000000E-03 0. -1.
         11   -1    0    0    0    0 -0.00000000000E+00 -0.00000000000E+00 -0.45593999997E+02  0.45594000000E+02  0.51100000000E-03 0.  1.
    9900012    2    1    2    0    0  0.37703378338E+01 -0.23922279356E+02 -0.20741993236E+02  0.59301934385E+02  0.49999982415E+02 0.  0.
         12    1    1    2    0    0 -0.37703378338E+01  0.23922279356E+02  0.20741993236E+02  0.31886065615E+02  0.00000000000E+00 0. -1.
         11    1    3    3    0    0  0.14727672055E+02  0.15338863774E+01 -0.19226423750E+02  0.24267519487E+02  0.51100000000E-03 0. -1.
        -11    1    3    3    0    0 -0.55885474851E+01 -0.43048845436E+01 -0.94692754667E+01  0.11808093498E+02  0.51100000000E-03 0.  1.
        -12    1    3    3    0    0 -0.53687867359E+01 -0.21151281190E+02  0.79537059805E+01  0.23226321401E+02  0.00000000000E+00 0.  1.
</event>
<event>
 7    1  0.6316620E-012  0.5930194E+02  0.7816164E-02  0.1266605E+00
        -11   -1    0    0    0    0  0.00000000000E+00  0.00000000000E+00  0.45593999997E+02  0.45594000000E+02  0.51100000000E-03 0.  1.
         11   -1    0    0    0    0 -0.00000000000E+00 -0.00000000000E+00 -0.45593999997E+02  0.45594000000E+02  0.51100000000E-03 0. -1.
    9900012    2    1    2    0    0 -0.23343289694E+02  0.12042444440E+02  0.18077371963E+02  0.59301936917E+02  0.49999987032E+02 0.  0.
         12    1    1    2    0    0  0.23343289694E+02 -0.12042444440E+02 -0.18077371963E+02  0.31886063083E+02  0.00000000000E+00 0. -1.
         11    1    3    3    0    0 -0.21120277982E+02  0.17572450914E+02  0.15308163471E+02  0.31451503021E+02  0.51100000000E-03 0. -1.
        -11    1    3    3    0    0 -0.12281332815E+02 -0.61728922058E+01  0.85926634143E+01  0.16210169608E+02  0.51100000000E-03 0.  1.
         12    1    3    3    0    0  0.10058321103E+02  0.64288573180E+00 -0.58234549223E+01  0.11640264288E+02  0.00000000000E+00 0. -1.
</event>
<event>
 7    1  0.6316620E-012  0.5930200E+02  0.7816164E-02  0.1266605E+00
        -11   -1    0    0    0    0  0.00000000000E+00  0.00000000000E+00  0.45593999997E+02  0.45594000000E+02  0.51100000000E-03 0.  1.
         11   -1    0    0    0    0 -0.00000000000E+00 -0.00000000000E+00 -0.45593999997E+02  0.45594000000E+02  0.51100000000E-03 0. -1.
    9900012    2    1    2    0    0  0.29516636003E+02  0.79664409452E+01  0.90565547469E+01  0.59301997332E+02  0.50000097213E+02 0.  0.
         12    1    1    2    0    0 -0.29516636003E+02 -0.79664409452E+01 -0.90565547469E+01  0.31886002668E+02  0.00000000000E+00 0. -1.
         11    1    3    3    0    0  0.24991456047E+01 -0.86061362824E+01  0.11415968068E+02  0.14513291758E+02  0.51100000000E-03 0. -1.
        -11    1    3    3    0    0  0.81326519962E+01  0.40749006813E+01  0.14109611237E+02  0.16787673263E+02  0.51100000000E-03 0.  1.
         12    1    3    3    0    0  0.18884838403E+02  0.12497676546E+02 -0.16469024558E+02  0.28001032310E+02  0.00000000000E+00 0. -1.
</event>
<event>
 7    1  0.6316620E-012  0.5930195E+02  0.7816164E-02  0.1266605E+00
        -11   -1    0    0    0    0  0.00000000000E+00  0.00000000000E+00  0.45593999997E+02  0.45594000000E+02  0.51100000000E-03 0.  1.
         11   -1    0    0    0    0 -0.00000000000E+00 -0.00000000000E+00 -0.45593999997E+02  0.45594000000E+02  0.51100000000E-03 0. -1.
    9900012    2    1    2    0    0  0.13117498637E+02 -0.21777461814E+01  0.28981185055E+02  0.59301946056E+02  0.50000003699E+02 0.  0.
         12    1    1    2    0    0 -0.13117498637E+02  0.21777461814E+01 -0.28981185055E+02  0.31886053944E+02  0.00000000000E+00 0. -1.
         11    1    3    3    0    0  0.26538266889E+02 -0.29357408047E+00  0.17367230529E+02  0.31717290107E+02  0.51100000000E-03 0. -1.
        -11    1    3    3    0    0  0.85314333865E+00  0.49267974483E+01  0.10619551364E+02  0.11737804654E+02  0.51100000000E-03 0.  1.
         12    1    3    3    0    0 -0.14273911591E+02 -0.68109695493E+01  0.99440316161E+00  0.15846851295E+02  0.00000000000E+00 0. -1.
</event>
<event>
 7    1  0.6316620E-012  0.5930192E+02  0.7816164E-02  0.1266605E+00
        -11   -1    0    0    0    0  0.00000000000E+00  0.00000000000E+00  0.45593999997E+02  0.45594000000E+02  0.51100000000E-03 0.  1.
         11   -1    0    0    0    0 -0.00000000000E+00 -0.00000000000E+00 -0.45593999997E+02  0.45594000000E+02  0.51100000000E-03 0. -1.
    9900012    2    1    2    0    0  0.25367412480E+01  0.14207398537E+02  0.28433024078E+02  0.59301920160E+02  0.49999956471E+02 0.  0.
         12    1    1    2    0    0 -0.25367412480E+01 -0.14207398537E+02 -0.28433024078E+02  0.31886079840E+02  0.00000000000E+00 0. -1.
         11    1    3    3    0    0  0.16506220370E+01  0.14147452311E+02  0.18806816675E+02  0.23591763683E+02  0.51100000000E-03 0. -1.
        -11    1    3    3    0    0  0.60278231421E+01  0.14584321836E+01  0.21670157803E+02  0.22540129008E+02  0.51100000000E-03 0.  1.
         12    1    3    3    0    0 -0.51417039311E+01 -0.13984859567E+01 -0.12043950400E+02  0.13170027468E+02  0.00000000000E+00 0. -1.
</event>
<event>
 7    1  0.6316620E-012  0.5930199E+02  0.7816164E-02  0.1266605E+00
        -11   -1    0    0    0    0  0.00000000000E+00  0.00000000000E+00  0.45593999997E+02  0.45594000000E+02  0.51100000000E-03 0.  1.
         11   -1    0    0    0    0 -0.00000000000E+00 -0.00000000000E+00 -0.45593999997E+02  0.45594000000E+02  0.51100000000E-03 0. -1.
    9900012    2    1    2    0    0  0.82207827445E+01  0.12459791205E+00  0.30807802873E+02  0.59301991917E+02  0.50000087339E+02 0.  0.
         12    1    1    2    0    0 -0.82207827445E+01 -0.12459791205E+00 -0.30807802873E+02  0.31886008083E+02  0.00000000000E+00 0. -1.
         11    1    3    3    0    0 -0.24392900032E+01  0.11970869711E+02 -0.61173447474E+01  0.13662860769E+02  0.51100000000E-03 0. -1.
        -11    1    3    3    0    0 -0.19889903625E+00 -0.15037906122E+02  0.16788216942E+02  0.22539352469E+02  0.51100000000E-03 0.  1.
        -12    1    3    3    0    0  0.10858971784E+02  0.31916343230E+01  0.20136930679E+02  0.23099778679E+02  0.00000000000E+00 0.  1.
</event>
<event>
 7    1  0.6316620E-012  0.5930198E+02  0.7816164E-02  0.1266605E+00
        -11   -1    0    0    0    0  0.00000000000E+00  0.00000000000E+00  0.45593999997E+02  0.45594000000E+02  0.51100000000E-03 0.  1.
         11   -1    0    0    0    0 -0.00000000000E+00 -0.00000000000E+00 -0.45593999997E+02  0.45594000000E+02  0.51100000000E-03 0. -1.
    9900012    2    1    2    0    0 -0.56778597576E+00  0.19947155987E+02  0.24869797600E+02  0.59301980406E+02  0.50000066345E+02 0.  0.
         12    1    1    2    0    0  0.56778597576E+00 -0.19947155987E+02 -0.24869797600E+02  0.31886019594E+02  0.00000000000E+00 0. -1.
         11    1    3    3    0    0  0.66525919970E+00 -0.44926180886E+01  0.76564194614E+00  0.46056915815E+01  0.51100000000E-03 0.  1.
        -11    1    3    3    0    0 -0.17252016064E+02  0.24524139248E+01 -0.13015146090E+01  0.17473990182E+02  0.51100000000E-03 0. -1.
         12    1    3    3    0    0  0.16018970888E+02  0.21987360151E+02  0.25405670263E+02  0.37222298643E+02  0.00000000000E+00 0. -1.
</event>
<event>
 7    1  0.6316620E-012  0.5930195E+02  0.7816164E-02  0.1266605E+00
        -11   -1    0    0    0    0  0.00000000000E+00  0.00000000000E+00  0.45593999997E+02  0.45594000000E+02  0.51100000000E-03 0.  1.
         11   -1    0    0    0    0 -0.00000000000E+00 -0.00000000000E+00 -0.45593999997E+02  0.45594000000E+02  0.51100000000E-03 0. -1.
    9900012    2    1    2    0    0  0.14835472725E+02  0.93595490312E+01  0.26627570459E+02  0.59301954187E+02  0.50000018528E+02 0.  0.
         12    1    1    2    0    0 -0.14835472725E+02 -0.93595490312E+01 -0.26627570459E+02  0.31886045813E+02  0.00000000000E+00 0. -1.
         11    1    3    3    0    0 -0.10931184694E+02  0.88553458864E+01  0.14188035315E+02  0.19980197595E+02  0.51100000000E-03 0. -1.
        -11    1    3    3    0    0  0.81687831990E+01 -0.12758563394E+02  0.35481515335E+01  0.15559541715E+02  0.51100000000E-03 0.  1.
        -12    1    3    3    0    0  0.17597874221E+02  0.13262766538E+02  0.88913836100E+01  0.23762214877E+02  0.00000000000E+00 0.  1.
</event>
<event>
 7    1  0.6316620E-012  0.5930192E+02  0.7816164E-02  0.1266605E+00
        -11   -1    0    0    0    0  0.00000000000E+00  0.00000000000E+00  0.45593999997E+02  0.45594000000E+02  0.51100000000E-03 0.  1.
         11   -1    0    0    0    0 -0.00000000000E+00 -0.00000000000E+00 -0.45593999997E+02  0.45594000000E+02  0.51100000000E-03 0. -1.
    9900012    2    1    2    0    0  0.19168549844E+02  0.23497922414E+02 -0.98557747119E+01  0.59301922222E+02  0.49999960231E+02 0.  0.
         12    1    1    2    0    0 -0.19168549844E+02 -0.23497922414E+02  0.98557747119E+01  0.31886077778E+02  0.00000000000E+00 0. -1.
         11    1    3    3    0    0  0.29129647732E+01  0.77822348651E+00  0.37678108071E+01  0.48257014106E+01  0.51100000000E-03 0. -1.
        -11    1    3    3    0    0 -0.12556372567E+02  0.13941604366E+02  0.45397930645E+01  0.19303899753E+02  0.51100000000E-03 0.  1.
         12    1    3    3    0    0  0.28811957638E+02  0.87780945615E+01 -0.18163378584E+02  0.35172321058E+02  0.00000000000E+00 0. -1.
</event>
<event>
 7    1  0.6316620E-012  0.5930192E+02  0.7816164E-02  0.1266605E+00
        -11   -1    0    0    0    0  0.00000000000E+00  0.00000000000E+00  0.45593999997E+02  0.45594000000E+02  0.51100000000E-03 0. -1.
         11   -1    0    0    0    0 -0.00000000000E+00 -0.00000000000E+00 -0.45593999997E+02  0.45594000000E+02  0.51100000000E-03 0.  1.
    9900012    2    1    2    0    0  0.29095966059E+02  0.10954585658E+02  0.70812453955E+01  0.59301918018E+02  0.49999952564E+02 0.  0.
         12    1    1    2    0    0 -0.29095966059E+02 -0.10954585658E+02 -0.70812453955E+01  0.31886081982E+02  0.00000000000E+00 0. -1.
         11    1    3    3    0    0 -0.12647759454E+01  0.12456482145E+02  0.11040544849E+02  0.16693029576E+02  0.51100000000E-03 0. -1.
        -11    1    3    3    0    0  0.19116659649E+02 -0.53201568784E+01  0.11639157513E+02  0.23004798048E+02  0.51100000000E-03 0.  1.
        -12    1    3    3    0    0  0.11244082356E+02  0.38182603914E+01 -0.15598456966E+02  0.19604090394E+02  0.00000000000E+00 0.  1.
</event>
<event>
 7    1  0.6316620E-012  0.5930209E+02  0.7816164E-02  0.1266604E+00
        -11   -1    0    0    0    0  0.00000000000E+00  0.00000000000E+00  0.45593999997E+02  0.45594000000E+02  0.51100000000E-03 0. -1.
         11   -1    0    0    0    0 -0.00000000000E+00 -0.00000000000E+00 -0.45593999997E+02  0.45594000000E+02  0.51100000000E-03 0.  1.
    9900012    2    1    2    0    0 -0.54860507157E+01  0.76417236852E+01 -0.30466683987E+02  0.59302085767E+02  0.50000258497E+02 0.  0.
         12    1    1    2    0    0  0.54860507157E+01 -0.76417236852E+01  0.30466683987E+02  0.31885914233E+02  0.00000000000E+00 0. -1.
         11    1    3    3    0    0 -0.94757998489E+01  0.14404384348E+01 -0.59176459480E+01  0.11264287793E+02  0.51100000000E-03 0. -1.
        -11    1    3    3    0    0 -0.20276280334E+01 -0.17075303880E+02 -0.90279946259E+01  0.19421173117E+02  0.51100000000E-03 0.  1.
        -12    1    3    3    0    0  0.60173771666E+01  0.23276589130E+02 -0.15521043413E+02  0.28616624856E+02  0.00000000000E+00 0.  1.
</event>
<event>
 7    1  0.6316620E-012  0.5930193E+02  0.7816164E-02  0.1266605E+00
        -11   -1    0    0    0    0  0.00000000000E+00  0.00000000000E+00  0.45593999997E+02  0.45594000000E+02  0.51100000000E-03 0.  1.
         11   -1    0    0    0    0 -0.00000000000E+00 -0.00000000000E+00 -0.45593999997E+02  0.45594000000E+02  0.51100000000E-03 0. -1.
    9900012    2    1    2    0    0  0.17170381484E+01 -0.54369594940E+01  0.31372165081E+02  0.59301929524E+02  0.49999973548E+02 0.  0.
         12    1    1    2    0    0 -0.17170381484E+01  0.54369594940E+01 -0.31372165081E+02  0.31886070476E+02  0.00000000000E+00 0. -1.
         11    1    3    3    0    0  0.12077244917E+02  0.11033504647E+02  0.14157727569E+01  0.16419576193E+02  0.51100000000E-03 0. -1.
        -11    1    3    3    0    0 -0.30364082587E+01 -0.67798451413E+01  0.29823480622E+02  0.30734769755E+02  0.51100000000E-03 0.  1.
        -12    1    3    3    0    0 -0.73237985101E+01 -0.96906189995E+01  0.13291170277E+00  0.12147583576E+02  0.00000000000E+00 0.  1.
</event>
<event>
 7    1  0.6316620E-012  0.5930192E+02  0.7816164E-02  0.1266605E+00
        -11   -1    0    0    0    0  0.00000000000E+00  0.00000000000E+00  0.45593999997E+02  0.45594000000E+02  0.51100000000E-03 0.  1.
         11   -1    0    0    0    0 -0.00000000000E+00 -0.00000000000E+00 -0.45593999997E+02  0.45594000000E+02  0.51100000000E-03 0. -1.
    9900012    2    1    2    0    0  0.20361065410E+02 -0.21565981780E+02  0.11707159356E+02  0.59301919417E+02  0.49999955116E+02 0.  0.
         12    1    1    2    0    0 -0.20361065410E+02  0.21565981780E+02 -0.11707159356E+02  0.31886080583E+02  0.00000000000E+00 0. -1.
         11    1    3    3    0    0  0.20048756705E+02 -0.11998276088E+01  0.33037933136E+01  0.20354539597E+02  0.51100000000E-03 0. -1.
        -11    1    3    3    0    0  0.70332819074E+01 -0.98837521549E+01 -0.10679055203E+02  0.16161615988E+02  0.51100000000E-03 0.  1.
        -12    1    3    3    0    0 -0.67209732018E+01 -0.10482402016E+02  0.19082421246E+02  0.22785763832E+02  0.00000000000E+00 0.  1.
</event>
<event>
 7    1  0.6316620E-012  0.5930196E+02  0.7816164E-02  0.1266605E+00
        -11   -1    0    0    0    0  0.00000000000E+00  0.00000000000E+00  0.45593999997E+02  0.45594000000E+02  0.51100000000E-03 0.  1.
         11   -1    0    0    0    0 -0.00000000000E+00 -0.00000000000E+00 -0.45593999997E+02  0.45594000000E+02  0.51100000000E-03 0. -1.
    9900012    2    1    2    0    0  0.17254839162E+02  0.13469075226E+02  0.23185643926E+02  0.59301960011E+02  0.50000029149E+02 0.  0.
         12    1    1    2    0    0 -0.17254839162E+02 -0.13469075226E+02 -0.23185643926E+02  0.31886039989E+02  0.00000000000E+00 0. -1.
         11    1    3    3    0    0  0.11674856806E+02 -0.10090741653E+02  0.18931262587E+02  0.24423719044E+02  0.51100000000E-03 0. -1.
        -11    1    3    3    0    0 -0.15995465823E+01  0.33751747083E+01  0.11634410733E+02  0.12219241668E+02  0.51100000000E-03 0.  1.
         12    1    3    3    0    0  0.71795289384E+01  0.20184642171E+02 -0.73800293939E+01  0.22658999299E+02  0.00000000000E+00 0. -1.
</event>
<event>
 7    1  0.6316620E-012  0.5930195E+02  0.7816164E-02  0.1266605E+00
        -11   -1    0    0    0    0  0.00000000000E+00  0.00000000000E+00  0.45593999997E+02  0.45594000000E+02  0.51100000000E-03 0.  1.
         11   -1    0    0    0    0 -0.00000000000E+00 -0.00000000000E+00 -0.45593999997E+02  0.45594000000E+02  0.51100000000E-03 0. -1.
    9900012    2    1    2    0    0 -0.19309042215E+02  0.13941630779E+02  0.21201704971E+02  0.59301945467E+02  0.50000002624E+02 0.  0.
         12    1    1    2    0    0  0.19309042215E+02 -0.13941630779E+02 -0.21201704971E+02  0.31886054533E+02  0.00000000000E+00 0. -1.
         11    1    3    3    0    0 -0.28356840715E+02  0.21228876351E+02  0.26768683137E+01  0.35523812165E+02  0.51100000000E-03 0. -1.
        -11    1    3    3    0    0  0.69773561290E+01 -0.34752226126E+01  0.42910163169E+01  0.88979487553E+01  0.51100000000E-03 0.  1.
        -12    1    3    3    0    0  0.20704423712E+01 -0.38120229600E+01  0.14233820340E+02  0.14880184547E+02  0.00000000000E+00 0.  1.
</event>
<event>
 7    1  0.6316620E-012  0.5930194E+02  0.7816164E-02  0.1266605E+00
        -11   -1    0    0    0    0  0.00000000000E+00  0.00000000000E+00  0.45593999997E+02  0.45594000000E+02  0.51100000000E-03 0.  1.
         11   -1    0    0    0    0 -0.00000000000E+00 -0.00000000000E+00 -0.45593999997E+02  0.45594000000E+02  0.51100000000E-03 0. -1.
    9900012    2    1    2    0    0 -0.15818499093E+02 -0.34205334703E+01  0.27473547235E+02  0.59301940970E+02  0.49999994424E+02 0.  0.
         12    1    1    2    0    0  0.15818499093E+02  0.34205334703E+01 -0.27473547235E+02  0.31886059030E+02  0.00000000000E+00 0. -1.
         11    1    3    3    0    0  0.12425223758E+02  0.56261017217E+01  0.31277976832E+01  0.13993653012E+02  0.51100000000E-03 0. -1.
        -11    1    3    3    0    0 -0.16962163411E+02  0.31451302474E+01  0.22849354659E+02  0.28630400634E+02  0.51100000000E-03 0.  1.
        -12    1    3    3    0    0 -0.11281559440E+02 -0.12191765439E+02  0.14963948928E+01  0.16677887324E+02  0.00000000000E+00 0.  1.
</event>
<event>
 7    1  0.6316620E-012  0.5930193E+02  0.7816164E-02  0.1266605E+00
        -11   -1    0    0    0    0  0.00000000000E+00  0.00000000000E+00  0.45593999997E+02  0.45594000000E+02  0.51100000000E-03 0. -1.
         11   -1    0    0    0    0 -0.00000000000E+00 -0.00000000000E+00 -0.45593999997E+02  0.45594000000E+02  0.51100000000E-03 0.  1.
    9900012    2    1    2    0    0  0.10088175793E+02 -0.30091809558E+02 -0.30713481527E+01  0.59301929801E+02  0.49999974053E+02 0.  0.
         12    1    1    2    0    0 -0.10088175793E+02  0.30091809558E+02  0.30713481527E+01  0.31886070199E+02  0.00000000000E+00 0. -1.
         11    1    3    3    0    0 -0.98065048186E+01 -0.94371994787E+01 -0.16190805831E+02  0.21151133881E+02  0.51100000000E-03 0. -1.
        -11    1    3    3    0    0  0.46256244890E+01 -0.76411071531E+01 -0.57386655538E+01  0.10616741639E+02  0.51100000000E-03 0.  1.
         12    1    3    3    0    0  0.15269056122E+02 -0.13013502926E+02  0.18858123232E+02  0.27534054280E+02  0.00000000000E+00 0. -1.
</event>
<event>
 7    1  0.6316620E-012  0.5930190E+02  0.7816164E-02  0.1266605E+00
        -11   -1    0    0    0    0  0.00000000000E+00  0.00000000000E+00  0.45593999997E+02  0.45594000000E+02  0.51100000000E-03 0. -1.
         11   -1    0    0    0    0 -0.00000000000E+00 -0.00000000000E+00 -0.45593999997E+02  0.45594000000E+02  0.51100000000E-03 0.  1.
    9900012    2    1    2    0    0  0.23566160053E+02  0.31682661404E+01 -0.21244325882E+02  0.59301902839E+02  0.49999924882E+02 0.  0.
         12    1    1    2    0    0 -0.23566160053E+02 -0.31682661404E+01  0.21244325882E+02  0.31886097161E+02  0.00000000000E+00 0. -1.
         11    1    3    3    0    0  0.27265846530E+02  0.13840005152E+02 -0.10214630293E+02  0.32238343659E+02  0.51100000000E-03 0. -1.
        -11    1    3    3    0    0  0.52553588696E+01 -0.66785238909E+00 -0.12481090773E+02  0.13558851382E+02  0.51100000000E-03 0.  1.
         12    1    3    3    0    0 -0.89550453469E+01 -0.10003886623E+02  0.14513951833E+01  0.13504707798E+02  0.00000000000E+00 0. -1.
</event>
<event>
 7    1  0.6316620E-012  0.5930197E+02  0.7816164E-02  0.1266605E+00
        -11   -1    0    0    0    0  0.00000000000E+00  0.00000000000E+00  0.45593999997E+02  0.45594000000E+02  0.51100000000E-03 0.  1.
         11   -1    0    0    0    0 -0.00000000000E+00 -0.00000000000E+00 -0.45593999997E+02  0.45594000000E+02  0.51100000000E-03 0. -1.
    9900012    2    1    2    0    0  0.29221954911E+02 -0.12414696040E+02  0.29448014771E+01  0.59301965717E+02  0.50000039555E+02 0.  0.
         12    1    1    2    0    0 -0.29221954911E+02  0.12414696040E+02 -0.29448014771E+01  0.31886034283E+02  0.00000000000E+00 0. -1.
         11    1    3    3    0    0  0.14862842234E+01  0.80930151732E+01  0.10489384240E+02  0.13331658463E+02  0.51100000000E-03 0.  1.
        -11    1    3    3    0    0  0.34091408766E+01 -0.12379384447E+02  0.87911285382E+01  0.15561341267E+02  0.51100000000E-03 0. -1.
        -12    1    3    3    0    0  0.24326529811E+02 -0.81283267663E+01 -0.16335711301E+02  0.30408965986E+02  0.00000000000E+00 0.  1.
</event>
<event>
 7    1  0.6316620E-012  0.5930193E+02  0.7816164E-02  0.1266605E+00
        -11   -1    0    0    0    0  0.00000000000E+00  0.00000000000E+00  0.45593999997E+02  0.45594000000E+02  0.51100000000E-03 0. -1.
         11   -1    0    0    0    0 -0.00000000000E+00 -0.00000000000E+00 -0.45593999997E+02  0.45594000000E+02  0.51100000000E-03 0.  1.
    9900012    2    1    2    0    0 -0.70163150596E+01 -0.30988558405E+02 -0.26836142179E+01  0.59301933853E+02  0.49999981444E+02 0.  0.
         12    1    1    2    0    0  0.70163150596E+01  0.30988558405E+02  0.26836142179E+01  0.31886066147E+02  0.00000000000E+00 0. -1.
         11    1    3    3    0    0 -0.43308351036E+01 -0.17732445787E+02  0.93476472159E+01  0.20507907622E+02  0.51100000000E-03 0. -1.
        -11    1    3    3    0    0 -0.13126774183E+02 -0.72193311911E+00  0.60235564367E+01  0.14460865130E+02  0.51100000000E-03 0.  1.
        -12    1    3    3    0    0  0.10441294227E+02 -0.12534179499E+02 -0.18054817870E+02  0.24333161102E+02  0.00000000000E+00 0.  1.
</event>
<event>
 7    1  0.6316620E-012  0.5930195E+02  0.7816164E-02  0.1266605E+00
        -11   -1    0    0    0    0  0.00000000000E+00  0.00000000000E+00  0.45593999997E+02  0.45594000000E+02  0.51100000000E-03 0. -1.
         11   -1    0    0    0    0 -0.00000000000E+00 -0.00000000000E+00 -0.45593999997E+02  0.45594000000E+02  0.51100000000E-03 0.  1.
    9900012    2    1    2    0    0  0.15270247386E+02  0.27895359279E+02  0.23212836761E+01  0.59301954738E+02  0.50000019533E+02 0.  0.
         12    1    1    2    0    0 -0.15270247386E+02 -0.27895359279E+02 -0.23212836761E+01  0.31886045262E+02  0.00000000000E+00 0. -1.
         11    1    3    3    0    0 -0.76173885963E+01  0.33473650553E+00 -0.43179068833E+00  0.76369562664E+01  0.51100000000E-03 0. -1.
        -11    1    3    3    0    0  0.11863920447E+02  0.25431429478E+02  0.17544093735E+02  0.33095399060E+02  0.51100000000E-03 0.  1.
         12    1    3    3    0    0  0.11023715536E+02  0.21291932955E+01 -0.14791019370E+02  0.18569599412E+02  0.00000000000E+00 0. -1.
</event>
<event>
 7    1  0.6316620E-012  0.5930195E+02  0.7816164E-02  0.1266605E+00
        -11   -1    0    0    0    0  0.00000000000E+00  0.00000000000E+00  0.45593999997E+02  0.45594000000E+02  0.51100000000E-03 0.  1.
         11   -1    0    0    0    0 -0.00000000000E+00 -0.00000000000E+00 -0.45593999997E+02  0.45594000000E+02  0.51100000000E-03 0. -1.
    9900012    2    1    2    0    0  0.14394413755E+02 -0.18565286836E+02 -0.21560405939E+02  0.59301950904E+02  0.50000012541E+02 0.  0.
         12    1    1    2    0    0 -0.14394413755E+02  0.18565286836E+02  0.21560405939E+02  0.31886049096E+02  0.00000000000E+00 0. -1.
         11    1    3    3    0    0  0.17601906791E+02  0.52997788383E+01 -0.19359940229E+01  0.18484124310E+02  0.51100000000E-03 0. -1.
        -11    1    3    3    0    0  0.20802604135E+01 -0.34388440007E+01  0.62502101926E+01  0.74308989471E+01  0.51100000000E-03 0.  1.
        -12    1    3    3    0    0 -0.52877534491E+01 -0.20426221674E+02 -0.25874622109E+02  0.33386927647E+02  0.00000000000E+00 0.  1.
</event>
<event>
 7    1  0.6316620E-012  0.5930195E+02  0.7816164E-02  0.1266605E+00
        -11   -1    0    0    0    0  0.00000000000E+00  0.00000000000E+00  0.45593999997E+02  0.45594000000E+02  0.51100000000E-03 0. -1.
         11   -1    0    0    0    0 -0.00000000000E+00 -0.00000000000E+00 -0.45593999997E+02  0.45594000000E+02  0.51100000000E-03 0.  1.
    9900012    2    1    2    0    0 -0.21838492515E+02  0.21516888479E+02 -0.87649444624E+01  0.59301945108E+02  0.50000001970E+02 0.  0.
         12    1    1    2    0    0  0.21838492515E+02 -0.21516888479E+02  0.87649444624E+01  0.31886054892E+02  0.00000000000E+00 0. -1.
         11    1    3    3    0    0 -0.11449244789E+02  0.14208144749E+02  0.10652845772E+02  0.21129119876E+02  0.51100000000E-03 0. -1.
        -11    1    3    3    0    0 -0.75028484508E+01  0.67835992570E+01  0.65431175032E+01  0.12046673428E+02  0.51100000000E-03 0.  1.
        -12    1    3    3    0    0 -0.28863992752E+01  0.52514447338E+00 -0.25960907738E+02  0.26126151804E+02  0.00000000000E+00 0.  1.
</event>
<event>
 7    1  0.6316620E-012  0.5930194E+02  0.7816164E-02  0.1266605E+00
        -11   -1    0    0    0    0  0.00000000000E+00  0.00000000000E+00  0.45593999997E+02  0.45594000000E+02  0.51100000000E-03 0.  1.
         11   -1    0    0    0    0 -0.00000000000E+00 -0.00000000000E+00 -0.45593999997E+02  0.45594000000E+02  0.51100000000E-03 0. -1.
    9900012    2    1    2    0    0 -0.16876141178E+01  0.19907315268E+02  0.24850988895E+02  0.59301938913E+02  0.49999990672E+02 0.  0.
         12    1    1    2    0    0  0.16876141178E+01 -0.19907315268E+02 -0.24850988895E+02  0.31886061087E+02  0.00000000000E+00 0. -1.
         11    1    3    3    0    0  0.18527094160E+02  0.19485097953E+02  0.17510225730E+02  0.32086294047E+02  0.51100000000E-03 0. -1.
        -11    1    3    3    0    0 -0.32242572124E+01 -0.23257724383E+01  0.90844861764E+01  0.99162967562E+01  0.51100000000E-03 0.  1.
        -12    1    3    3    0    0 -0.16990451065E+02  0.27479897533E+01 -0.17437230116E+01  0.17299348110E+02  0.00000000000E+00 0.  1.
</event>
<event>
 7    1  0.6316620E-012  0.5930194E+02  0.7816164E-02  0.1266605E+00
        -11   -1    0    0    0    0  0.00000000000E+00  0.00000000000E+00  0.45593999997E+02  0.45594000000E+02  0.51100000000E-03 0.  1.
         11   -1    0    0    0    0 -0.00000000000E+00 -0.00000000000E+00 -0.45593999997E+02  0.45594000000E+02  0.51100000000E-03 0. -1.
    9900012    2    1    2    0    0  0.41664087570E+01  0.13545349719E+02  0.28563705334E+02  0.59301941552E+02  0.49999995486E+02 0.  0.
         12    1    1    2    0    0 -0.41664087570E+01 -0.13545349719E+02 -0.28563705334E+02  0.31886058448E+02  0.00000000000E+00 0. -1.
         11    1    3    3    0    0 -0.81799295229E+01  0.17485090509E+02  0.10323685069E+02  0.21891050929E+02  0.51100000000E-03 0. -1.
        -11    1    3    3    0    0  0.67114056616E+01  0.43347352384E+01  0.24387644156E+02  0.25663010020E+02  0.51100000000E-03 0.  1.
         12    1    3    3    0    0  0.56349326183E+01 -0.82744760288E+01 -0.61476238913E+01  0.11747880603E+02  0.00000000000E+00 0. -1.
</event>
<event>
 7    1  0.6316620E-012  0.5930222E+02  0.7816164E-02  0.1266604E+00
        -11   -1    0    0    0    0  0.00000000000E+00  0.00000000000E+00  0.45593999997E+02  0.45594000000E+02  0.51100000000E-03 0. -1.
         11   -1    0    0    0    0 -0.00000000000E+00 -0.00000000000E+00 -0.45593999997E+02  0.45594000000E+02  0.51100000000E-03 0.  1.
    9900012    2    1    2    0    0  0.13145424483E+02 -0.73447925800E+01 -0.28106136970E+02  0.59302217929E+02  0.50000499528E+02 0.  0.
         12    1    1    2    0    0 -0.13145424483E+02  0.73447925800E+01  0.28106136970E+02  0.31885782071E+02  0.00000000000E+00 0. -1.
         11    1    3    3    0    0  0.92546133043E+01 -0.10193432662E+02  0.56725543023E+01  0.14890661819E+02  0.51100000000E-03 0. -1.
        -11    1    3    3    0    0 -0.66852778574E+01 -0.61172993471E+00  0.19495073979E+01  0.69905459658E+01  0.51100000000E-03 0.  1.
        -12    1    3    3    0    0  0.10576089036E+02  0.34603700164E+01 -0.35728198671E+02  0.37421010144E+02  0.00000000000E+00 0.  1.
</event>
<event>
 7    1  0.6316620E-012  0.5930195E+02  0.7816164E-02  0.1266605E+00
        -11   -1    0    0    0    0  0.00000000000E+00  0.00000000000E+00  0.45593999997E+02  0.45594000000E+02  0.51100000000E-03 0. -1.
         11   -1    0    0    0    0 -0.00000000000E+00 -0.00000000000E+00 -0.45593999997E+02  0.45594000000E+02  0.51100000000E-03 0.  1.
    9900012    2    1    2    0    0  0.82960697165E+01  0.35930906908E+01 -0.30577522142E+02  0.59301953932E+02  0.50000018064E+02 0.  0.
         12    1    1    2    0    0 -0.82960697165E+01 -0.35930906908E+01  0.30577522142E+02  0.31886046068E+02  0.00000000000E+00 0. -1.
         11    1    3    3    0    0 -0.84383744927E+01 -0.47038607666E+01 -0.24507162113E+02  0.26342616903E+02  0.51100000000E-03 0. -1.
        -11    1    3    3    0    0 -0.23633677220E+01  0.70457538900E+01  0.66552655366E+01  0.99760069412E+01  0.51100000000E-03 0.  1.
        -12    1    3    3    0    0  0.19097811931E+02  0.12511975674E+01 -0.12725625566E+02  0.22983330089E+02  0.00000000000E+00 0.  1.
</event>
<event>
 7    1  0.6316620E-012  0.5930194E+02  0.7816164E-02  0.1266605E+00
        -11   -1    0    0    0    0  0.00000000000E+00  0.00000000000E+00  0.45593999997E+02  0.45594000000E+02  0.51100000000E-03 0. -1.
         11   -1    0    0    0    0 -0.00000000000E+00 -0.00000000000E+00 -0.45593999997E+02  0.45594000000E+02  0.51100000000E-03 0.  1.
    9900012    2    1    2    0    0 -0.29665755939E+02  0.14227159488E+01 -0.11603421939E+02  0.59301943536E+02  0.49999999104E+02 0.  0.
         12    1    1    2    0    0  0.29665755939E+02 -0.14227159488E+01  0.11603421939E+02  0.31886056464E+02  0.00000000000E+00 0. -1.
         11    1    3    3    0    0  0.28156712579E+01 -0.62305079740E+01 -0.59534935164E+01  0.90659428388E+01  0.51100000000E-03 0. -1.
        -11    1    3    3    0    0  0.57807099485E+00  0.12576825218E+02 -0.10586283215E+02  0.16449318868E+02  0.51100000000E-03 0.  1.
         12    1    3    3    0    0 -0.33059498192E+02 -0.49236012956E+01  0.49363547921E+01  0.33786681829E+02  0.00000000000E+00 0. -1.
</event>
<event>
 7    1  0.6316620E-012  0.5930204E+02  0.7816164E-02  0.1266604E+00
        -11   -1    0    0    0    0  0.00000000000E+00  0.00000000000E+00  0.45593999997E+02  0.45594000000E+02  0.51100000000E-03 0. -1.
         11   -1    0    0    0    0 -0.00000000000E+00 -0.00000000000E+00 -0.45593999997E+02  0.45594000000E+02  0.51100000000E-03 0.  1.
    9900012    2    1    2    0    0  0.11033118517E+02  0.29904711822E+02  0.83247941336E+00  0.59302038899E+02  0.50000173022E+02 0.  0.
         12    1    1    2    0    0 -0.11033118517E+02 -0.29904711822E+02 -0.83247941336E+00  0.31885961101E+02  0.00000000000E+00 0. -1.
         11    1    3    3    0    0  0.97839296189E+01  0.12936826454E+02  0.22516177908E+02  0.27750045502E+02  0.51100000000E-03 0. -1.
        -11    1    3    3    0    0 -0.18906120889E+01  0.58932974808E+01  0.85112952359E+00  0.62473827316E+01  0.51100000000E-03 0.  1.
         12    1    3    3    0    0  0.31398009868E+01  0.11074587887E+02 -0.22534828019E+02  0.25304610665E+02  0.00000000000E+00 0. -1.
</event>
<event>
 7    1  0.6316620E-012  0.5930196E+02  0.7816164E-02  0.1266605E+00
        -11   -1    0    0    0    0  0.00000000000E+00  0.00000000000E+00  0.45593999997E+02  0.45594000000E+02  0.51100000000E-03 0.  1.
         11   -1    0    0    0    0 -0.00000000000E+00 -0.00000000000E+00 -0.45593999997E+02  0.45594000000E+02  0.51100000000E-03 0. -1.
    9900012    2    1    2    0    0 -0.42275588916E+01 -0.24834649059E+02  0.19547060531E+02  0.59301958799E+02  0.50000026939E+02 0.  0.
         12    1    1    2    0    0  0.42275588916E+01  0.24834649059E+02 -0.19547060531E+02  0.31886041201E+02  0.00000000000E+00 0. -1.
         11    1    3    3    0    0 -0.61565586447E+01 -0.32519108734E+01 -0.56606465982E+01  0.89733527093E+01  0.51100000000E-03 0. -1.
        -11    1    3    3    0    0  0.28359018160E+01  0.10799212604E+02  0.65906299628E+01  0.12965405337E+02  0.51100000000E-03 0.  1.
         12    1    3    3    0    0 -0.90690206293E+00 -0.32381950790E+02  0.18617077166E+02  0.37363200753E+02  0.00000000000E+00 0. -1.
</event>
<event>
 7    1  0.6316620E-012  0.5930193E+02  0.7816164E-02  0.1266605E+00
        -11   -1    0    0    0    0  0.00000000000E+00  0.00000000000E+00  0.45593999997E+02  0.45594000000E+02  0.51100000000E-03 0. -1.
         11   -1    0    0    0    0 -0.00000000000E+00 -0.00000000000E+00 -0.45593999997E+02  0.45594000000E+02  0.51100000000E-03 0.  1.
    9900012    2    1    2    0    0 -0.10597212435E+02 -0.28354109275E+02 -0.10023216208E+02  0.59301932708E+02  0.49999979356E+02 0.  0.
         12    1    1    2    0    0  0.10597212435E+02  0.28354109275E+02  0.10023216208E+02  0.31886067292E+02  0.00000000000E+00 0. -1.
         11    1    3    3    0    0  0.27053790509E+01 -0.77038212072E+01 -0.11744698390E+02  0.14304051088E+02  0.51100000000E-03 0. -1.
        -11    1    3    3    0    0  0.65295415586E+01 -0.23961206442E+02  0.22961660067E+00  0.24836003124E+02  0.51100000000E-03 0.  1.
        -12    1    3    3    0    0 -0.19832133044E+02  0.33109183743E+01  0.14918655813E+01  0.20161878496E+02  0.00000000000E+00 0.  1.
</event>
<event>
 7    1  0.6316620E-012  0.5930196E+02  0.7816164E-02  0.1266605E+00
        -11   -1    0    0    0    0  0.00000000000E+00  0.00000000000E+00  0.45593999997E+02  0.45594000000E+02  0.51100000000E-03 0.  1.
         11   -1    0    0    0    0 -0.00000000000E+00 -0.00000000000E+00 -0.45593999997E+02  0.45594000000E+02  0.51100000000E-03 0. -1.
    9900012    2    1    2    0    0  0.25206827300E+02  0.60774815194E+01 -0.18558013654E+02  0.59301956111E+02  0.50000022037E+02 0.  0.
         12    1    1    2    0    0 -0.25206827300E+02 -0.60774815194E+01  0.18558013654E+02  0.31886043889E+02  0.00000000000E+00 0. -1.
         11    1    3    3    0    0  0.31917880385E+02  0.12200196659E+02 -0.76391971192E+01  0.35013614776E+02  0.51100000000E-03 0.  1.
        -11    1    3    3    0    0  0.38289948037E+01 -0.49786982950E+01 -0.12087766140E+02  0.13622141111E+02  0.51100000000E-03 0. -1.
        -12    1    3    3    0    0 -0.10540047889E+02 -0.11440168447E+01  0.11689496060E+01  0.10666200224E+02  0.00000000000E+00 0.  1.
</event>
<event>
 7    1  0.6316620E-012  0.5930195E+02  0.7816164E-02  0.1266605E+00
        -11   -1    0    0    0    0  0.00000000000E+00  0.00000000000E+00  0.45593999997E+02  0.45594000000E+02  0.51100000000E-03 0. -1.
         11   -1    0    0    0    0 -0.00000000000E+00 -0.00000000000E+00 -0.45593999997E+02  0.45594000000E+02  0.51100000000E-03 0.  1.
    9900012    2    1    2    0    0  0.38933063929E+01  0.50866275945E+01 -0.31236016237E+02  0.59301947793E+02  0.50000006867E+02 0.  0.
         12    1    1    2    0    0 -0.38933063929E+01 -0.50866275945E+01  0.31236016237E+02  0.31886052207E+02  0.00000000000E+00 0. -1.
         11    1    3    3    0    0  0.66127603864E+01  0.16347192283E+02 -0.80377385396E+01  0.19379487520E+02  0.51100000000E-03 0. -1.
        -11    1    3    3    0    0  0.90251477437E+01  0.17478925904E+01  0.18249252565E+01  0.93722341390E+01  0.51100000000E-03 0.  1.
        -12    1    3    3    0    0 -0.11744601737E+02 -0.13008457279E+02 -0.25023202954E+02  0.30550226134E+02  0.00000000000E+00 0.  1.
</event>
<event>
 7    1  0.6316620E-012  0.5930196E+02  0.7816164E-02  0.1266605E+00
        -11   -1    0    0    0    0  0.00000000000E+00  0.00000000000E+00  0.45593999997E+02  0.45594000000E+02  0.51100000000E-03 0. -1.
         11   -1    0    0    0    0 -0.00000000000E+00 -0.00000000000E+00 -0.45593999997E+02  0.45594000000E+02  0.51100000000E-03 0.  1.
    9900012    2    1    2    0    0  0.15756145374E+02  0.18999096787E+02 -0.20186580453E+02  0.59301955621E+02  0.50000021143E+02 0.  0.
         12    1    1    2    0    0 -0.15756145374E+02 -0.18999096787E+02  0.20186580453E+02  0.31886044379E+02  0.00000000000E+00 0. -1.
         11    1    3    3    0    0  0.10262837647E+02  0.12028284021E+02  0.47833387865E+01  0.16519254925E+02  0.51100000000E-03 0. -1.
        -11    1    3    3    0    0  0.14089820707E+02  0.49161600071E+01 -0.29344303079E+02  0.32920811051E+02  0.51100000000E-03 0.  1.
         12    1    3    3    0    0 -0.85965129810E+01  0.20546527586E+01  0.43743838395E+01  0.98618896448E+01  0.00000000000E+00 0. -1.
</event>
<event>
 7    1  0.6316620E-012  0.5930192E+02  0.7816164E-02  0.1266605E+00
        -11   -1    0    0    0    0  0.00000000000E+00  0.00000000000E+00  0.45593999997E+02  0.45594000000E+02  0.51100000000E-03 0. -1.
         11   -1    0    0    0    0 -0.00000000000E+00 -0.00000000000E+00 -0.45593999997E+02  0.45594000000E+02  0.51100000000E-03 0.  1.
    9900012    2    1    2    0    0  0.15237866732E+02 -0.12313015909E+02 -0.25157881874E+02  0.59301922102E+02  0.49999960013E+02 0.  0.
         12    1    1    2    0    0 -0.15237866732E+02  0.12313015909E+02  0.25157881874E+02  0.31886077898E+02  0.00000000000E+00 0. -1.
         11    1    3    3    0    0  0.24881610800E+01  0.53169560483E+01 -0.81019959019E+01  0.10005163918E+02  0.51100000000E-03 0. -1.
        -11    1    3    3    0    0  0.26528416908E+02 -0.18510850903E+02 -0.10476718772E+02  0.34002501986E+02  0.51100000000E-03 0.  1.
         12    1    3    3    0    0 -0.13778711256E+02  0.88087894564E+00 -0.65791672003E+01  0.15294256198E+02  0.00000000000E+00 0. -1.
</event>
<event>
 7    1  0.6316620E-012  0.5930193E+02  0.7816164E-02  0.1266605E+00
        -11   -1    0    0    0    0  0.00000000000E+00  0.00000000000E+00  0.45593999997E+02  0.45594000000E+02  0.51100000000E-03 0.  1.
         11   -1    0    0    0    0 -0.00000000000E+00 -0.00000000000E+00 -0.45593999997E+02  0.45594000000E+02  0.51100000000E-03 0. -1.
    9900012    2    1    2    0    0  0.24223513902E+02  0.13508238377E+02  0.15731195867E+02  0.59301926971E+02  0.49999968893E+02 0.  0.
         12    1    1    2    0    0 -0.24223513902E+02 -0.13508238377E+02 -0.15731195867E+02  0.31886073029E+02  0.00000000000E+00 0. -1.
         11    1    3    3    0    0  0.49190030620E+01 -0.97742718007E+01 -0.65728710393E+01  0.12764623548E+02  0.51100000000E-03 0. -1.
        -11    1    3    3    0    0 -0.44033973387E+01 -0.18160619780E+01  0.76914085950E+01  0.90468644108E+01  0.51100000000E-03 0.  1.
        -12    1    3    3    0    0  0.23707908179E+02  0.25098572155E+02  0.14612658311E+02  0.37490439013E+02  0.00000000000E+00 0.  1.
</event>
<event>
 7    1  0.6316620E-012  0.5930195E+02  0.7816164E-02  0.1266605E+00
        -11   -1    0    0    0    0  0.00000000000E+00  0.00000000000E+00  0.45593999997E+02  0.45594000000E+02  0.51100000000E-03 0. -1.
         11   -1    0    0    0    0 -0.00000000000E+00 -0.00000000000E+00 -0.45593999997E+02  0.45594000000E+02  0.51100000000E-03 0.  1.
    9900012    2    1    2    0    0  0.20056138061E+02 -0.11230272295E+02  0.22098697403E+02  0.59301951065E+02  0.50000012835E+02 0.  0.
         12    1    1    2    0    0 -0.20056138061E+02  0.11230272295E+02 -0.22098697403E+02  0.31886048935E+02  0.00000000000E+00 0. -1.
         11    1    3    3    0    0 -0.12452127810E+01  0.16494161646E+02  0.74833767302E+01  0.18155132906E+02  0.51100000000E-03 0. -1.
        -11    1    3    3    0    0 -0.19135380415E+01 -0.13980607763E+01  0.36906366419E+01  0.43860005533E+01  0.51100000000E-03 0.  1.
        -12    1    3    3    0    0  0.23214888883E+02 -0.26326373165E+02  0.10924684031E+02  0.36760817606E+02  0.00000000000E+00 0.  1.
</event>
<event>
 7    1  0.6316620E-012  0.5930196E+02  0.7816164E-02  0.1266605E+00
        -11   -1    0    0    0    0  0.00000000000E+00  0.00000000000E+00  0.45593999997E+02  0.45594000000E+02  0.51100000000E-03 0. -1.
         11   -1    0    0    0    0 -0.00000000000E+00 -0.00000000000E+00 -0.45593999997E+02  0.45594000000E+02  0.51100000000E-03 0.  1.
    9900012    2    1    2    0    0  0.18822394226E+02 -0.15926683811E+01 -0.25688531377E+02  0.59301956637E+02  0.50000022997E+02 0.  0.
         12    1    1    2    0    0 -0.18822394226E+02  0.15926683811E+01  0.25688531377E+02  0.31886043363E+02  0.00000000000E+00 0. -1.
         11    1    3    3    0    0 -0.29285508978E+01 -0.35304900942E+01  0.12212773162E+01  0.47468188517E+01  0.51100000000E-03 0. -1.
        -11    1    3    3    0    0 -0.89627705358E+01 -0.23989894808E+01 -0.21028049347E+02  0.22984021968E+02  0.51100000000E-03 0.  1.
         12    1    3    3    0    0  0.30713715660E+02  0.43368111940E+01 -0.58817593464E+01  0.31571115818E+02  0.00000000000E+00 0. -1.
</event>
<event>
 7    1  0.6316620E-012  0.5930193E+02  0.7816164E-02  0.1266605E+00
        -11   -1    0    0    0    0  0.00000000000E+00  0.00000000000E+00  0.45593999997E+02  0.45594000000E+02  0.51100000000E-03 0.  1.
         11   -1    0    0    0    0 -0.00000000000E+00 -0.00000000000E+00 -0.45593999997E+02  0.45594000000E+02  0.51100000000E-03 0. -1.
    9900012    2    1    2    0    0  0.63290285478E+01 -0.11333946852E+02  0.29123987936E+02  0.59301927383E+02  0.49999969645E+02 0.  0.
         12    1    1    2    0    0 -0.63290285478E+01  0.11333946852E+02 -0.29123987936E+02  0.31886072617E+02  0.00000000000E+00 0. -1.
         11    1    3    3    0    0  0.29269701215E+01 -0.49137777131E+01  0.16443194087E+02  0.17409508826E+02  0.51100000000E-03 0. -1.
        -11    1    3    3    0    0  0.18921612026E+02  0.10304653415E+01  0.15457561516E+02  0.24454559263E+02  0.51100000000E-03 0.  1.
         12    1    3    3    0    0 -0.15519553599E+02 -0.74506344802E+01 -0.27767676675E+01  0.17437859294E+02  0.00000000000E+00 0. -1.
</event>
<event>
 7    1  0.6316620E-012  0.5930198E+02  0.7816164E-02  0.1266605E+00
        -11   -1    0    0    0    0  0.00000000000E+00  0.00000000000E+00  0.45593999997E+02  0.45594000000E+02  0.51100000000E-03 0.  1.
         11   -1    0    0    0    0 -0.00000000000E+00 -0.00000000000E+00 -0.45593999997E+02  0.45594000000E+02  0.51100000000E-03 0. -1.
    9900012    2    1    2    0    0  0.10736982794E+02  0.13536550414E+02  0.26799203753E+02  0.59301979263E+02  0.50000064262E+02 0.  0.
         12    1    1    2    0    0 -0.10736982794E+02 -0.13536550414E+02 -0.26799203753E+02  0.31886020737E+02  0.00000000000E+00 0. -1.
         11    1    3    3    0    0  0.63057377501E+01 -0.98674398606E+01  0.31620444933E+01  0.12129601132E+02  0.51100000000E-03 0. -1.
        -11    1    3    3    0    0 -0.84057873959E+01  0.69302347993E+01  0.23921757381E+02  0.26285659447E+02  0.51100000000E-03 0.  1.
         12    1    3    3    0    0  0.12837032440E+02  0.16473755475E+02 -0.28459812154E+00  0.20886718685E+02  0.00000000000E+00 0. -1.
</event>
<event>
 7    1  0.6316620E-012  0.5930195E+02  0.7816164E-02  0.1266605E+00
        -11   -1    0    0    0    0  0.00000000000E+00  0.00000000000E+00  0.45593999997E+02  0.45594000000E+02  0.51100000000E-03 0. -1.
         11   -1    0    0    0    0 -0.00000000000E+00 -0.00000000000E+00 -0.45593999997E+02  0.45594000000E+02  0.51100000000E-03 0.  1.
    9900012    2    1    2    0    0  0.14727491823E+02 -0.16019876601E+02 -0.23306327021E+02  0.59301947549E+02  0.50000006422E+02 0.  0.
         12    1    1    2    0    0 -0.14727491823E+02  0.16019876601E+02  0.23306327021E+02  0.31886052451E+02  0.00000000000E+00 0. -1.
         11    1    3    3    0    0  0.19942970758E+02 -0.21012452877E+02  0.80361924735E+00  0.28980874085E+02  0.51100000000E-03 0. -1.
        -11    1    3    3    0    0  0.39508750371E+01 -0.39309053207E+01 -0.79937207696E+01  0.97447935946E+01  0.51100000000E-03 0.  1.
         12    1    3    3    0    0 -0.91663539725E+01  0.89234815968E+01 -0.16116225498E+02  0.20576279870E+02  0.00000000000E+00 0. -1.
</event>
<event>
 7    1  0.6316620E-012  0.5930194E+02  0.7816164E-02  0.1266605E+00
        -11   -1    0    0    0    0  0.00000000000E+00  0.00000000000E+00  0.45593999997E+02  0.45594000000E+02  0.51100000000E-03 0. -1.
         11   -1    0    0    0    0 -0.00000000000E+00 -0.00000000000E+00 -0.45593999997E+02  0.45594000000E+02  0.51100000000E-03 0.  1.
    9900012    2    1    2    0    0 -0.50095202720E+01  0.22723018766E+02 -0.21801141366E+02  0.59301942858E+02  0.49999997867E+02 0.  0.
         12    1    1    2    0    0  0.50095202720E+01 -0.22723018766E+02  0.21801141366E+02  0.31886057142E+02  0.00000000000E+00 0. -1.
         11    1    3    3    0    0 -0.18531513949E+01 -0.37555533782E+01 -0.72677806674E+01  0.83880264281E+01  0.51100000000E-03 0. -1.
        -11    1    3    3    0    0  0.47711512678E+01  0.29117820363E+02 -0.24182681439E+02  0.38149881113E+02  0.51100000000E-03 0.  1.
        -12    1    3    3    0    0 -0.79275201449E+01 -0.26392482189E+01  0.96493207405E+01  0.12764035317E+02  0.00000000000E+00 0.  1.
</event>
<event>
 7    1  0.6316620E-012  0.5930195E+02  0.7816164E-02  0.1266605E+00
        -11   -1    0    0    0    0  0.00000000000E+00  0.00000000000E+00  0.45593999997E+02  0.45594000000E+02  0.51100000000E-03 0.  1.
         11   -1    0    0    0    0 -0.00000000000E+00 -0.00000000000E+00 -0.45593999997E+02  0.45594000000E+02  0.51100000000E-03 0. -1.
    9900012    2    1    2    0    0  0.36172398659E+01 -0.29212266438E+02 -0.12258844578E+02  0.59301949679E+02  0.50000010306E+02 0.  0.
         12    1    1    2    0    0 -0.36172398659E+01  0.29212266438E+02  0.12258844578E+02  0.31886050321E+02  0.00000000000E+00 0. -1.
         11    1    3    3    0    0 -0.67409164026E+01  0.55914045842E+01 -0.15085572534E+02  0.17443573548E+02  0.51100000000E-03 0. -1.
        -11    1    3    3    0    0  0.65356511504E+01 -0.26507700454E+01  0.60857502419E+01  0.93154535081E+01  0.51100000000E-03 0.  1.
        -12    1    3    3    0    0  0.38225051181E+01 -0.32152900977E+02 -0.32590222863E+01  0.32542922623E+02  0.00000000000E+00 0.  1.
</event>
<event>
 7    1  0.6316620E-012  0.5930194E+02  0.7816164E-02  0.1266605E+00
        -11   -1    0    0    0    0  0.00000000000E+00  0.00000000000E+00  0.45593999997E+02  0.45594000000E+02  0.51100000000E-03 0.  1.
         11   -1    0    0    0    0 -0.00000000000E+00 -0.00000000000E+00 -0.45593999997E+02  0.45594000000E+02  0.51100000000E-03 0. -1.
    9900012    2    1    2    0    0  0.24111404915E+02 -0.14888734579E+02  0.14618029495E+02  0.59301936420E+02  0.49999986125E+02 0.  0.
         12    1    1    2    0    0 -0.24111404915E+02  0.14888734579E+02 -0.14618029495E+02  0.31886063580E+02  0.00000000000E+00 0. -1.
         11    1    3    3    0    0  0.88272562800E+00  0.10496731732E+02  0.36292037756E+01  0.11141440746E+02  0.51100000000E-03 0. -1.
        -11    1    3    3    0    0  0.12965911590E+01 -0.19170034312E-01  0.14396464843E+02  0.14454747191E+02  0.51100000000E-03 0.  1.
        -12    1    3    3    0    0  0.21932088128E+02 -0.25366296276E+02 -0.34076391232E+01  0.33705748483E+02  0.00000000000E+00 0.  1.
</event>
<event>
 7    1  0.6316620E-012  0.5930190E+02  0.7816164E-02  0.1266605E+00
        -11   -1    0    0    0    0  0.00000000000E+00  0.00000000000E+00  0.45593999997E+02  0.45594000000E+02  0.51100000000E-03 0. -1.
         11   -1    0    0    0    0 -0.00000000000E+00 -0.00000000000E+00 -0.45593999997E+02  0.45594000000E+02  0.51100000000E-03 0.  1.
    9900012    2    1    2    0    0 -0.14274807328E+01 -0.17627627435E+01 -0.31805321021E+02  0.59301898342E+02  0.49999916680E+02 0.  0.
         12    1    1    2    0    0  0.14274807328E+01  0.17627627435E+01  0.31805321021E+02  0.31886101658E+02  0.00000000000E+00 0. -1.
         11    1    3    3    0    0  0.42632417960E+01  0.10050329965E+02 -0.80999216846E+01  0.13593862386E+02  0.51100000000E-03 0. -1.
        -11    1    3    3    0    0  0.12349430635E+02  0.21957559485E+01 -0.18384553411E+02  0.22255821386E+02  0.51100000000E-03 0.  1.
         12    1    3    3    0    0 -0.18040153164E+02 -0.14008848657E+02 -0.53208459255E+01  0.23452214570E+02  0.00000000000E+00 0. -1.
</event>
<event>
 7    1  0.6316620E-012  0.5930194E+02  0.7816164E-02  0.1266605E+00
        -11   -1    0    0    0    0  0.00000000000E+00  0.00000000000E+00  0.45593999997E+02  0.45594000000E+02  0.51100000000E-03 0.  1.
         11   -1    0    0    0    0 -0.00000000000E+00 -0.00000000000E+00 -0.45593999997E+02  0.45594000000E+02  0.51100000000E-03 0. -1.
    9900012    2    1    2    0    0  0.17526354958E+02  0.15877754571E+02  0.21387961926E+02  0.59301935275E+02  0.49999984036E+02 0.  0.
         12    1    1    2    0    0 -0.17526354958E+02 -0.15877754571E+02 -0.21387961926E+02  0.31886064725E+02  0.00000000000E+00 0. -1.
         11    1    3    3    0    0  0.25161418282E+01  0.24924933172E+02  0.22162649488E+01  0.25149455141E+02  0.51100000000E-03 0. -1.
        -11    1    3    3    0    0  0.10338156248E+02 -0.79603622781E+01 -0.13129708151E+01  0.13113685021E+02  0.51100000000E-03 0.  1.
        -12    1    3    3    0    0  0.46720568813E+01 -0.10868163223E+01  0.20484667792E+02  0.21038795112E+02  0.00000000000E+00 0.  1.
</event>
<event>
 7    1  0.6316620E-012  0.5930194E+02  0.7816164E-02  0.1266605E+00
        -11   -1    0    0    0    0  0.00000000000E+00  0.00000000000E+00  0.45593999997E+02  0.45594000000E+02  0.51100000000E-03 0. -1.
         11   -1    0    0    0    0 -0.00000000000E+00 -0.00000000000E+00 -0.45593999997E+02  0.45594000000E+02  0.51100000000E-03 0.  1.
    9900012    2    1    2    0    0 -0.29254343392E+02 -0.66011200631E+01 -0.10831858833E+02  0.59301944127E+02  0.50000000180E+02 0.  0.
         12    1    1    2    0    0  0.29254343392E+02  0.66011200631E+01  0.10831858833E+02  0.31886055873E+02  0.00000000000E+00 0. -1.
         11    1    3    3    0    0  0.63340280141E+01  0.60418638065E+01 -0.11492745171E+02  0.14446702772E+02  0.51100000000E-03 0. -1.
        -11    1    3    3    0    0 -0.49712914296E+01  0.31186465889E+01 -0.74432963757E+01  0.94785207824E+01  0.51100000000E-03 0.  1.
         12    1    3    3    0    0 -0.30617079977E+02 -0.15761630459E+02  0.81041827142E+01  0.35376720573E+02  0.00000000000E+00 0. -1.
</event>
<event>
 7    1  0.6316620E-012  0.5930188E+02  0.7816164E-02  0.1266605E+00
        -11   -1    0    0    0    0  0.00000000000E+00  0.00000000000E+00  0.45593999997E+02  0.45594000000E+02  0.51100000000E-03 0.  1.
         11   -1    0    0    0    0 -0.00000000000E+00 -0.00000000000E+00 -0.45593999997E+02  0.45594000000E+02  0.51100000000E-03 0. -1.
    9900012    2    1    2    0    0 -0.29855070287E+02  0.10951443427E+02  0.23377786389E+01  0.59301881642E+02  0.49999886223E+02 0.  0.
         12    1    1    2    0    0  0.29855070287E+02 -0.10951443427E+02 -0.23377786389E+01  0.31886118358E+02  0.00000000000E+00 0. -1.
         11    1    3    3    0    0  0.23402834131E+01 -0.58866181197E+01 -0.36402847552E+01  0.73062215064E+01  0.51100000000E-03 0. -1.
        -11    1    3    3    0    0 -0.23377658210E+02 -0.74874746583E+01 -0.27216976027E+01  0.24697870723E+02  0.51100000000E-03 0.  1.
         12    1    3    3    0    0 -0.88176954902E+01  0.24325536205E+02  0.86997609969E+01  0.27297789413E+02  0.00000000000E+00 0. -1.
</event>
<event>
 7    1  0.6316620E-012  0.5930194E+02  0.7816164E-02  0.1266605E+00
        -11   -1    0    0    0    0  0.00000000000E+00  0.00000000000E+00  0.45593999997E+02  0.45594000000E+02  0.51100000000E-03 0.  1.
         11   -1    0    0    0    0 -0.00000000000E+00 -0.00000000000E+00 -0.45593999997E+02  0.45594000000E+02  0.51100000000E-03 0. -1.
    9900012    2    1    2    0    0  0.18001554925E+02  0.21315636582E+02  0.15437249824E+02  0.59301936826E+02  0.49999986866E+02 0.  0.
         12    1    1    2    0    0 -0.18001554925E+02 -0.21315636582E+02 -0.15437249824E+02  0.31886063174E+02  0.00000000000E+00 0. -1.
         11    1    3    3    0    0  0.15243518701E+02  0.10368441430E+02 -0.10461343805E+02  0.21196913797E+02  0.51100000000E-03 0. -1.
        -11    1    3    3    0    0  0.77650132519E+01  0.17771575657E+02  0.19424329134E+02  0.27448659251E+02  0.51100000000E-03 0.  1.
        -12    1    3    3    0    0 -0.50069770279E+01 -0.68243805039E+01  0.64742644947E+01  0.10656363778E+02  0.00000000000E+00 0.  1.
</event>
<event>
 7    1  0.6316620E-012  0.5930164E+02  0.7816164E-02  0.1266606E+00
        -11   -1    0    0    0    0  0.00000000000E+00  0.00000000000E+00  0.45593999997E+02  0.45594000000E+02  0.51100000000E-03 0.  1.
         11   -1    0    0    0    0 -0.00000000000E+00 -0.00000000000E+00 -0.45593999997E+02  0.45594000000E+02  0.51100000000E-03 0. -1.
    9900012    2    1    2    0    0  0.23422949663E+02 -0.14212596389E+02  0.16312793862E+02  0.59301643817E+02  0.49999452485E+02 0.  0.
         12    1    1    2    0    0 -0.23422949663E+02  0.14212596389E+02 -0.16312793862E+02  0.31886356183E+02  0.00000000000E+00 0. -1.
         11    1    3    3    0    0 -0.11035313315E+01 -0.12343767488E+02  0.15972635749E+01  0.12495504327E+02  0.51100000000E-03 0. -1.
        -11    1    3    3    0    0 -0.69732172060E+01 -0.33928613178E+01  0.13106169860E+02  0.15228557213E+02  0.51100000000E-03 0.  1.
        -12    1    3    3    0    0  0.31499698201E+02  0.15240324169E+01  0.16093604270E+01  0.31577582278E+02  0.00000000000E+00 0.  1.
</event>
<event>
 7    1  0.6316620E-012  0.5930196E+02  0.7816164E-02  0.1266605E+00
        -11   -1    0    0    0    0  0.00000000000E+00  0.00000000000E+00  0.45593999997E+02  0.45594000000E+02  0.51100000000E-03 0. -1.
         11   -1    0    0    0    0 -0.00000000000E+00 -0.00000000000E+00 -0.45593999997E+02  0.45594000000E+02  0.51100000000E-03 0.  1.
    9900012    2    1    2    0    0  0.11884777869E+02 -0.29567477151E+02 -0.11116338160E+01  0.59301962620E+02  0.50000033907E+02 0.  0.
         12    1    1    2    0    0 -0.11884777869E+02  0.29567477151E+02  0.11116338160E+01  0.31886037380E+02  0.00000000000E+00 0. -1.
         11    1    3    3    0    0 -0.13901246788E+00 -0.11379000010E+02  0.39570065307E+00  0.11386726701E+02  0.51100000000E-03 0. -1.
        -11    1    3    3    0    0 -0.13144702618E+02 -0.15837127845E+02 -0.75540508525E+01  0.21923993930E+02  0.51100000000E-03 0.  1.
         12    1    3    3    0    0  0.25168492955E+02 -0.23513492964E+01  0.60467163835E+01  0.25991241989E+02  0.00000000000E+00 0. -1.
</event>
<event>
 7    1  0.6316620E-012  0.5930196E+02  0.7816164E-02  0.1266605E+00
        -11   -1    0    0    0    0  0.00000000000E+00  0.00000000000E+00  0.45593999997E+02  0.45594000000E+02  0.51100000000E-03 0. -1.
         11   -1    0    0    0    0 -0.00000000000E+00 -0.00000000000E+00 -0.45593999997E+02  0.45594000000E+02  0.51100000000E-03 0.  1.
    9900012    2    1    2    0    0  0.18403233188E+02 -0.40967086436E+01 -0.25714922619E+02  0.59301964518E+02  0.50000037369E+02 0.  0.
         12    1    1    2    0    0 -0.18403233188E+02  0.40967086436E+01  0.25714922619E+02  0.31886035482E+02  0.00000000000E+00 0. -1.
         11    1    3    3    0    0  0.47230963843E+01 -0.35220788568E+01  0.29210614749E+01  0.65761143033E+01  0.51100000000E-03 0. -1.
        -11    1    3    3    0    0  0.83660055967E+01 -0.21239195824E+02 -0.12964351746E+02  0.26252007645E+02  0.51100000000E-03 0.  1.
        -12    1    3    3    0    0  0.53141312068E+01  0.20664566037E+02 -0.15671632347E+02  0.26473842570E+02  0.00000000000E+00 0.  1.
</event>
<event>
 7    1  0.6316620E-012  0.5930195E+02  0.7816164E-02  0.1266605E+00
        -11   -1    0    0    0    0  0.00000000000E+00  0.00000000000E+00  0.45593999997E+02  0.45594000000E+02  0.51100000000E-03 0. -1.
         11   -1    0    0    0    0 -0.00000000000E+00 -0.00000000000E+00 -0.45593999997E+02  0.45594000000E+02  0.51100000000E-03 0.  1.
    9900012    2    1    2    0    0  0.27660431239E+02 -0.15685204710E+02  0.23654411975E+01  0.59301946385E+02  0.50000004298E+02 0.  0.
         12    1    1    2    0    0 -0.27660431239E+02  0.15685204710E+02 -0.23654411975E+01  0.31886053615E+02  0.00000000000E+00 0. -1.
         11    1    3    3    0    0  0.54771215795E+01  0.58828684786E+01 -0.48397598438E+00  0.80524055628E+01  0.51100000000E-03 0. -1.
        -11    1    3    3    0    0 -0.49687511679E+01  0.77207012092E+01  0.63420598843E+01  0.11158827858E+02  0.51100000000E-03 0.  1.
        -12    1    3    3    0    0  0.27152060827E+02 -0.29288774398E+02 -0.34926427025E+01  0.40090712964E+02  0.00000000000E+00 0.  1.
</event>
<event>
 7    1  0.6316620E-012  0.5930196E+02  0.7816164E-02  0.1266605E+00
        -11   -1    0    0    0    0  0.00000000000E+00  0.00000000000E+00  0.45593999997E+02  0.45594000000E+02  0.51100000000E-03 0.  1.
         11   -1    0    0    0    0 -0.00000000000E+00 -0.00000000000E+00 -0.45593999997E+02  0.45594000000E+02  0.51100000000E-03 0. -1.
    9900012    2    1    2    0    0  0.30900561108E+02 -0.76021362381E+01  0.20204917152E+01  0.59301960124E+02  0.50000029356E+02 0.  0.
         12    1    1    2    0    0 -0.30900561108E+02  0.76021362381E+01 -0.20204917152E+01  0.31886039876E+02  0.00000000000E+00 0. -1.
         11    1    3    3    0    0  0.19769434812E+01 -0.96290138915E+01  0.45979117006E+01  0.10852050789E+02  0.51100000000E-03 0. -1.
        -11    1    3    3    0    0  0.12256666849E+02 -0.87480067911E+01  0.15495821556E+02  0.21607267088E+02  0.51100000000E-03 0.  1.
        -12    1    3    3    0    0  0.16666950778E+02  0.10774884445E+02 -0.18073241541E+02  0.26842642248E+02  0.00000000000E+00 0.  1.
</event>
<event>
 7    1  0.6316620E-012  0.5930194E+02  0.7816164E-02  0.1266605E+00
        -11   -1    0    0    0    0  0.00000000000E+00  0.00000000000E+00  0.45593999997E+02  0.45594000000E+02  0.51100000000E-03 0.  1.
         11   -1    0    0    0    0 -0.00000000000E+00 -0.00000000000E+00 -0.45593999997E+02  0.45594000000E+02  0.51100000000E-03 0. -1.
    9900012    2    1    2    0    0 -0.23128162283E+02  0.17957441667E+02  0.12622972616E+02  0.59301936595E+02  0.49999986444E+02 0.  0.
         12    1    1    2    0    0  0.23128162283E+02 -0.17957441667E+02 -0.12622972616E+02  0.31886063405E+02  0.00000000000E+00 0. -1.
         11    1    3    3    0    0  0.45651283097E+01  0.80956639379E+01  0.12142243297E+02  0.15290985698E+02  0.51100000000E-03 0. -1.
        -11    1    3    3    0    0 -0.10425164721E+02  0.12142372701E+02  0.14543262376E+02  0.21624702428E+02  0.51100000000E-03 0.  1.
         12    1    3    3    0    0 -0.17268125872E+02 -0.22805949722E+01 -0.14062533057E+02  0.22386248469E+02  0.00000000000E+00 0. -1.
</event>
<event>
 7    1  0.6316620E-012  0.5930192E+02  0.7816164E-02  0.1266605E+00
        -11   -1    0    0    0    0  0.00000000000E+00  0.00000000000E+00  0.45593999997E+02  0.45594000000E+02  0.51100000000E-03 0. -1.
         11   -1    0    0    0    0 -0.00000000000E+00 -0.00000000000E+00 -0.45593999997E+02  0.45594000000E+02  0.51100000000E-03 0.  1.
    9900012    2    1    2    0    0 -0.31791338877E+02 -0.16625855864E+01  0.18078995251E+01  0.59301922801E+02  0.49999961288E+02 0.  0.
         12    1    1    2    0    0  0.31791338877E+02  0.16625855864E+01 -0.18078995251E+01  0.31886077199E+02  0.00000000000E+00 0. -1.
         11    1    3    3    0    0  0.61236424638E+01 -0.26365177234E+01 -0.66990287110E+01  0.94513072462E+01  0.51100000000E-03 0. -1.
        -11    1    3    3    0    0 -0.15045758955E+02 -0.14973716615E+02  0.42176313335E+01  0.21641983877E+02  0.51100000000E-03 0.  1.
         12    1    3    3    0    0 -0.22869222386E+02  0.15947648752E+02  0.42892969027E+01  0.28208631678E+02  0.00000000000E+00 0. -1.
</event>
<event>
 7    1  0.6316620E-012  0.5930194E+02  0.7816164E-02  0.1266605E+00
        -11   -1    0    0    0    0  0.00000000000E+00  0.00000000000E+00  0.45593999997E+02  0.45594000000E+02  0.51100000000E-03 0.  1.
         11   -1    0    0    0    0 -0.00000000000E+00 -0.00000000000E+00 -0.45593999997E+02  0.45594000000E+02  0.51100000000E-03 0. -1.
    9900012    2    1    2    0    0 -0.14383362477E+02 -0.25989732674E+02  0.11591956011E+02  0.59301940902E+02  0.49999994300E+02 0.  0.
         12    1    1    2    0    0  0.14383362477E+02  0.25989732674E+02 -0.11591956011E+02  0.31886059098E+02  0.00000000000E+00 0. -1.
         11    1    3    3    0    0 -0.20860923373E+01 -0.10221870250E+02 -0.87350095513E+01  0.13606572117E+02  0.51100000000E-03 0. -1.
        -11    1    3    3    0    0 -0.10798067463E+02  0.94442118001E+01  0.19870168033E+01  0.14482390462E+02  0.51100000000E-03 0.  1.
        -12    1    3    3    0    0 -0.14992026769E+01 -0.25212074224E+02  0.18339948759E+02  0.31212978324E+02  0.00000000000E+00 0.  1.
</event>
<event>
 7    1  0.7767586E-012  0.5930194E+02  0.7816164E-02  0.1266605E+00
        -11   -1    0    0    0    0  0.00000000000E+00  0.00000000000E+00  0.45593999997E+02  0.45594000000E+02  0.51100000000E-03 0. -1.
         11   -1    0    0    0    0 -0.00000000000E+00 -0.00000000000E+00 -0.45593999997E+02  0.45594000000E+02  0.51100000000E-03 0.  1.
    9900012    2    1    2    0    0  0.15880240564E+02 -0.38321371455E+01 -0.27383452573E+02  0.59301940502E+02  0.49999993570E+02 0.  0.
         12    1    1    2    0    0 -0.15880240564E+02  0.38321371455E+01  0.27383452573E+02  0.31886059498E+02  0.00000000000E+00 0. -1.
         11    1    3    3    0    0 -0.71355097819E+01  0.87572117309E+01  0.60322790971E+01  0.12805961444E+02  0.51100000000E-03 0. -1.
        -11    1    3    3    0    0  0.11641238059E+02  0.36368522153E+01 -0.96450862643E+01  0.15549045209E+02  0.51100000000E-03 0.  1.
        -12    1    3    3    0    0  0.11374512287E+02 -0.16226201092E+02 -0.23770645406E+02  0.30946933849E+02  0.00000000000E+00 0.  1.
</event>
<event>
 7    1  0.6316620E-012  0.5930195E+02  0.7816164E-02  0.1266605E+00
        -11   -1    0    0    0    0  0.00000000000E+00  0.00000000000E+00  0.45593999997E+02  0.45594000000E+02  0.51100000000E-03 0.  1.
         11   -1    0    0    0    0 -0.00000000000E+00 -0.00000000000E+00 -0.45593999997E+02  0.45594000000E+02  0.51100000000E-03 0. -1.
    9900012    2    1    2    0    0 -0.74593174249E+01  0.28711859869E+02  0.11692202921E+02  0.59301954106E+02  0.50000018380E+02 0.  0.
         12    1    1    2    0    0  0.74593174249E+01 -0.28711859869E+02 -0.11692202921E+02  0.31886045894E+02  0.00000000000E+00 0. -1.
         11    1    3    3    0    0 -0.18062511924E+02  0.20352443373E+02  0.29930944414E+01  0.27375808716E+02  0.51100000000E-03 0. -1.
        -11    1    3    3    0    0 -0.50681290823E+01 -0.53757492769E+01  0.82612458332E+01  0.11082995789E+02  0.51100000000E-03 0.  1.
         12    1    3    3    0    0  0.15671323581E+02  0.13735165773E+02  0.43786264658E+00  0.20843149601E+02  0.00000000000E+00 0. -1.
</event>
<event>
 7    1  0.6316620E-012  0.5930196E+02  0.7816164E-02  0.1266605E+00
        -11   -1    0    0    0    0  0.00000000000E+00  0.00000000000E+00  0.45593999997E+02  0.45594000000E+02  0.51100000000E-03 0.  1.
         11   -1    0    0    0    0 -0.00000000000E+00 -0.00000000000E+00 -0.45593999997E+02  0.45594000000E+02  0.51100000000E-03 0. -1.
    9900012    2    1    2    0    0 -0.23139421084E+02  0.15483915558E+02  0.15541398782E+02  0.59301960340E+02  0.50000029749E+02 0.  0.
         12    1    1    2    0    0  0.23139421084E+02 -0.15483915558E+02 -0.15541398782E+02  0.31886039660E+02  0.00000000000E+00 0. -1.
         11    1    3    3    0    0 -0.55718108764E+01 -0.34538702255E+00 -0.58004298343E+01  0.80504257752E+01  0.51100000000E-03 0.  1.
        -11    1    3    3    0    0  0.82085777503E+01  0.71719777827E+00 -0.64352637549E+01  0.10455034251E+02  0.51100000000E-03 0. -1.
        -12    1    3    3    0    0 -0.25776187958E+02  0.15112104803E+02  0.27777092371E+02  0.40796500313E+02  0.00000000000E+00 0.  1.
</event>
<event>
 7    1  0.6316620E-012  0.5930198E+02  0.7816164E-02  0.1266605E+00
        -11   -1    0    0    0    0  0.00000000000E+00  0.00000000000E+00  0.45593999997E+02  0.45594000000E+02  0.51100000000E-03 0. -1.
         11   -1    0    0    0    0 -0.00000000000E+00 -0.00000000000E+00 -0.45593999997E+02  0.45594000000E+02  0.51100000000E-03 0.  1.
    9900012    2    1    2    0    0 -0.26069157901E+02 -0.18350938764E+02 -0.60050585298E+00  0.59301975562E+02  0.50000057510E+02 0.  0.
         12    1    1    2    0    0  0.26069157901E+02  0.18350938764E+02  0.60050585298E+00  0.31886024438E+02  0.00000000000E+00 0. -1.
         11    1    3    3    0    0 -0.15539248440E+00 -0.66545343365E+01  0.77033808552E+01  0.10180817792E+02  0.51100000000E-03 0. -1.
        -11    1    3    3    0    0 -0.30891575285E+02 -0.12793095641E+01  0.52025304613E+01  0.31352709293E+02  0.51100000000E-03 0.  1.
        -12    1    3    3    0    0  0.49778098685E+01 -0.10417094863E+02 -0.13506417169E+02  0.17768448476E+02  0.00000000000E+00 0.  1.
</event>
<event>
 7    1  0.6316620E-012  0.5930195E+02  0.7816164E-02  0.1266605E+00
        -11   -1    0    0    0    0  0.00000000000E+00  0.00000000000E+00  0.45593999997E+02  0.45594000000E+02  0.51100000000E-03 0.  1.
         11   -1    0    0    0    0 -0.00000000000E+00 -0.00000000000E+00 -0.45593999997E+02  0.45594000000E+02  0.51100000000E-03 0. -1.
    9900012    2    1    2    0    0 -0.22426203363E+02  0.22001541039E+01  0.22559810036E+02  0.59301948124E+02  0.50000007471E+02 0.  0.
         12    1    1    2    0    0  0.22426203363E+02 -0.22001541039E+01 -0.22559810036E+02  0.31886051876E+02  0.00000000000E+00 0. -1.
         11    1    3    3    0    0 -0.15399962091E+02 -0.79473062610E+01 -0.41796537317E+01  0.17826609739E+02  0.51100000000E-03 0. -1.
        -11    1    3    3    0    0 -0.13871053109E+02  0.10162745353E+02  0.39000466363E+01  0.17632296263E+02  0.51100000000E-03 0.  1.
         12    1    3    3    0    0  0.68448118374E+01 -0.15284988425E-01  0.22839417132E+02  0.23843042122E+02  0.00000000000E+00 0. -1.
</event>
<event>
 7    1  0.6316620E-012  0.5930195E+02  0.7816164E-02  0.1266605E+00
        -11   -1    0    0    0    0  0.00000000000E+00  0.00000000000E+00  0.45593999997E+02  0.45594000000E+02  0.51100000000E-03 0.  1.
         11   -1    0    0    0    0 -0.00000000000E+00 -0.00000000000E+00 -0.45593999997E+02  0.45594000000E+02  0.51100000000E-03 0. -1.
    9900012    2    1    2    0    0 -0.21269902146E+02  0.31207521027E+01  0.23549359396E+02  0.59301950402E+02  0.50000011626E+02 0.  0.
         12    1    1    2    0    0  0.21269902146E+02 -0.31207521027E+01 -0.23549359396E+02  0.31886049598E+02  0.00000000000E+00 0. -1.
         11    1    3    3    0    0  0.22773531125E+01  0.11021142798E+02  0.18795056269E+02  0.21906758459E+02  0.51100000000E-03 0.  1.
        -11    1    3    3    0    0 -0.17942956692E+02 -0.12054205795E+02  0.14044203253E+02  0.25777765952E+02  0.51100000000E-03 0. -1.
         12    1    3    3    0    0 -0.56042985667E+01  0.41538151005E+01 -0.92899001259E+01  0.11617425991E+02  0.00000000000E+00 0. -1.
</event>
<event>
 7    1  0.6316620E-012  0.5930192E+02  0.7816164E-02  0.1266605E+00
        -11   -1    0    0    0    0  0.00000000000E+00  0.00000000000E+00  0.45593999997E+02  0.45594000000E+02  0.51100000000E-03 0.  1.
         11   -1    0    0    0    0 -0.00000000000E+00 -0.00000000000E+00 -0.45593999997E+02  0.45594000000E+02  0.51100000000E-03 0. -1.
    9900012    2    1    2    0    0 -0.22009889570E+01 -0.19243438380E+00  0.31809445632E+02  0.59301918165E+02  0.49999952832E+02 0.  0.
         12    1    1    2    0    0  0.22009889570E+01  0.19243438380E+00 -0.31809445632E+02  0.31886081835E+02  0.00000000000E+00 0. -1.
         11    1    3    3    0    0  0.80752652678E+01 -0.16417850244E+02  0.16826004794E+01  0.18373536960E+02  0.51100000000E-03 0. -1.
        -11    1    3    3    0    0  0.98782218497E+00 -0.27245488384E+01  0.12126522511E+02  0.12468019390E+02  0.51100000000E-03 0.  1.
         12    1    3    3    0    0 -0.11264076410E+02  0.18949964698E+02  0.18000322642E+02  0.28460361815E+02  0.00000000000E+00 0. -1.
</event>
<event>
 7    1  0.6316620E-012  0.5930192E+02  0.7816164E-02  0.1266605E+00
        -11   -1    0    0    0    0  0.00000000000E+00  0.00000000000E+00  0.45593999997E+02  0.45594000000E+02  0.51100000000E-03 0.  1.
         11   -1    0    0    0    0 -0.00000000000E+00 -0.00000000000E+00 -0.45593999997E+02  0.45594000000E+02  0.51100000000E-03 0. -1.
    9900012    2    1    2    0    0  0.18849282925E+02 -0.58118405807E+01  0.25052925314E+02  0.59301921149E+02  0.49999958274E+02 0.  0.
         12    1    1    2    0    0 -0.18849282925E+02  0.58118405807E+01 -0.25052925314E+02  0.31886078851E+02  0.00000000000E+00 0. -1.
         11    1    3    3    0    0 -0.14342886219E+02 -0.10091881634E+02  0.72465781148E+01  0.18975704325E+02  0.51100000000E-03 0.  1.
        -11    1    3    3    0    0  0.34420309351E+01  0.48889341647E+01  0.74415666385E+00  0.60251990529E+01  0.51100000000E-03 0. -1.
        -12    1    3    3    0    0  0.29750138208E+02 -0.60889311182E+00  0.17062190536E+02  0.34301017771E+02  0.00000000000E+00 0.  1.
</event>
<event>
 7    1  0.6316620E-012  0.5930195E+02  0.7816164E-02  0.1266605E+00
        -11   -1    0    0    0    0  0.00000000000E+00  0.00000000000E+00  0.45593999997E+02  0.45594000000E+02  0.51100000000E-03 0.  1.
         11   -1    0    0    0    0 -0.00000000000E+00 -0.00000000000E+00 -0.45593999997E+02  0.45594000000E+02  0.51100000000E-03 0. -1.
    9900012    2    1    2    0    0  0.14379093091E+02  0.22208408358E+02  0.17797430491E+02  0.59301948943E+02  0.50000008964E+02 0.  0.
         12    1    1    2    0    0 -0.14379093091E+02 -0.22208408358E+02 -0.17797430491E+02  0.31886051057E+02  0.00000000000E+00 0. -1.
         11    1    3    3    0    0 -0.24393726760E+01 -0.11159880763E+02 -0.39883624062E+01  0.12099607954E+02  0.51100000000E-03 0. -1.
        -11    1    3    3    0    0  0.99173320338E+01  0.11559445601E+02 -0.53747579186E+00  0.15240181684E+02  0.51100000000E-03 0.  1.
        -12    1    3    3    0    0  0.69011337331E+01  0.21808843521E+02  0.22323268689E+02  0.31962159305E+02  0.00000000000E+00 0.  1.
</event>
<event>
 7    1  0.6316620E-012  0.5930195E+02  0.7816164E-02  0.1266605E+00
        -11   -1    0    0    0    0  0.00000000000E+00  0.00000000000E+00  0.45593999997E+02  0.45594000000E+02  0.51100000000E-03 0.  1.
         11   -1    0    0    0    0 -0.00000000000E+00 -0.00000000000E+00 -0.45593999997E+02  0.45594000000E+02  0.51100000000E-03 0. -1.
    9900012    2    1    2    0    0 -0.22186877105E+02  0.15926984074E+02 -0.16455823491E+02  0.59301945616E+02  0.50000002897E+02 0.  0.
         12    1    1    2    0    0  0.22186877105E+02 -0.15926984074E+02  0.16455823491E+02  0.31886054384E+02  0.00000000000E+00 0. -1.
         11    1    3    3    0    0  0.10719728120E+02  0.75009700462E+01  0.21196469039E+01  0.13254056959E+02  0.51100000000E-03 0. -1.
        -11    1    3    3    0    0 -0.46934899692E+01  0.12212403142E+02 -0.95055850018E+01  0.16171820710E+02  0.51100000000E-03 0.  1.
        -12    1    3    3    0    0 -0.28213115256E+02 -0.37863891140E+01 -0.90698853930E+01  0.29876067948E+02  0.00000000000E+00 0.  1.
</event>
<event>
 7    1  0.6316620E-012  0.5930194E+02  0.7816164E-02  0.1266605E+00
        -11   -1    0    0    0    0  0.00000000000E+00  0.00000000000E+00  0.45593999997E+02  0.45594000000E+02  0.51100000000E-03 0.  1.
         11   -1    0    0    0    0 -0.00000000000E+00 -0.00000000000E+00 -0.45593999997E+02  0.45594000000E+02  0.51100000000E-03 0. -1.
    9900012    2    1    2    0    0 -0.10822514948E+02 -0.28774748239E+02  0.84621600432E+01  0.59301935354E+02  0.49999984181E+02 0.  0.
         12    1    1    2    0    0  0.10822514948E+02  0.28774748239E+02 -0.84621600432E+01  0.31886064646E+02  0.00000000000E+00 0. -1.
         11    1    3    3    0    0 -0.21499896904E+02 -0.96941622084E+01  0.71763319494E+01  0.24652019964E+02  0.51100000000E-03 0. -1.
        -11    1    3    3    0    0 -0.80757613430E+00 -0.21438050292E+02  0.55746080459E+01  0.22165704019E+02  0.51100000000E-03 0.  1.
        -12    1    3    3    0    0  0.11484958090E+02  0.23574642610E+01 -0.42887799521E+01  0.12484211371E+02  0.00000000000E+00 0.  1.
</event>
<event>
 7    1  0.6316620E-012  0.5930194E+02  0.7816164E-02  0.1266605E+00
        -11   -1    0    0    0    0  0.00000000000E+00  0.00000000000E+00  0.45593999997E+02  0.45594000000E+02  0.51100000000E-03 0. -1.
         11   -1    0    0    0    0 -0.00000000000E+00 -0.00000000000E+00 -0.45593999997E+02  0.45594000000E+02  0.51100000000E-03 0.  1.
    9900012    2    1    2    0    0  0.79346955977E+01 -0.55757585031E+01 -0.30375517216E+02  0.59301944690E+02  0.50000001208E+02 0.  0.
         12    1    1    2    0    0 -0.79346955977E+01  0.55757585031E+01  0.30375517216E+02  0.31886055310E+02  0.00000000000E+00 0. -1.
         11    1    3    3    0    0 -0.11246777274E+02 -0.45693294548E-01 -0.22071482903E+02  0.24771807458E+02  0.51100000000E-03 0.  1.
        -11    1    3    3    0    0  0.52903870648E+01 -0.55212825541E+00 -0.16717980790E+02  0.17543771626E+02  0.51100000000E-03 0. -1.
         12    1    3    3    0    0  0.13891085807E+02 -0.49779369531E+01  0.84139464770E+01  0.16986365607E+02  0.00000000000E+00 0. -1.
</event>
<event>
 7    1  0.6316620E-012  0.5930192E+02  0.7816164E-02  0.1266605E+00
        -11   -1    0    0    0    0  0.00000000000E+00  0.00000000000E+00  0.45593999997E+02  0.45594000000E+02  0.51100000000E-03 0.  1.
         11   -1    0    0    0    0 -0.00000000000E+00 -0.00000000000E+00 -0.45593999997E+02  0.45594000000E+02  0.51100000000E-03 0. -1.
    9900012    2    1    2    0    0 -0.11316107529E+02 -0.25901069990E+02  0.14758127264E+02  0.59301920960E+02  0.49999957930E+02 0.  0.
         12    1    1    2    0    0  0.11316107529E+02  0.25901069990E+02 -0.14758127264E+02  0.31886079040E+02  0.00000000000E+00 0. -1.
         11    1    3    3    0    0 -0.47964820874E+00 -0.61035230153E+01 -0.11609581840E+02  0.13124993195E+02  0.51100000000E-03 0. -1.
        -11    1    3    3    0    0 -0.79321623069E+01 -0.22176718937E+02  0.44867039316E+01  0.23976166793E+02  0.51100000000E-03 0.  1.
         12    1    3    3    0    0 -0.29042970130E+01  0.23791719619E+01  0.21881005172E+02  0.22200760972E+02  0.00000000000E+00 0. -1.
</event>
<event>
 7    1  0.6316620E-012  0.5930207E+02  0.7816164E-02  0.1266604E+00
        -11   -1    0    0    0    0  0.00000000000E+00  0.00000000000E+00  0.45593999997E+02  0.45594000000E+02  0.51100000000E-03 0.  1.
         11   -1    0    0    0    0 -0.00000000000E+00 -0.00000000000E+00 -0.45593999997E+02  0.45594000000E+02  0.51100000000E-03 0. -1.
    9900012    2    1    2    0    0 -0.46182936004E+00  0.31550115787E+02 -0.45923317108E+01  0.59302068885E+02  0.50000227709E+02 0.  0.
         12    1    1    2    0    0  0.46182936004E+00 -0.31550115787E+02  0.45923317108E+01  0.31885931115E+02  0.00000000000E+00 0. -1.
         11    1    3    3    0    0 -0.56389349288E+01  0.76966348762E+01 -0.58884041120E+01  0.11212006011E+02  0.51100000000E-03 0.  1.
        -11    1    3    3    0    0 -0.12368690732E+02 -0.57656703311E+01  0.40790367002E+00  0.13652613320E+02  0.51100000000E-03 0. -1.
        -12    1    3    3    0    0  0.17545796301E+02  0.29619151242E+02  0.88816873114E+00  0.34437449554E+02  0.00000000000E+00 0.  1.
</event>
<event>
 7    1  0.6316620E-012  0.5930193E+02  0.7816164E-02  0.1266605E+00
        -11   -1    0    0    0    0  0.00000000000E+00  0.00000000000E+00  0.45593999997E+02  0.45594000000E+02  0.51100000000E-03 0. -1.
         11   -1    0    0    0    0 -0.00000000000E+00 -0.00000000000E+00 -0.45593999997E+02  0.45594000000E+02  0.51100000000E-03 0.  1.
    9900012    2    1    2    0    0  0.27872659535E+01 -0.29374687712E+02 -0.12086375381E+02  0.59301927813E+02  0.49999970429E+02 0.  0.
         12    1    1    2    0    0 -0.27872659535E+01  0.29374687712E+02  0.12086375381E+02  0.31886072187E+02  0.00000000000E+00 0. -1.
         11    1    3    3    0    0 -0.32857089332E+01 -0.76422261010E+01  0.64853555407E+01  0.10547954291E+02  0.51100000000E-03 0. -1.
        -11    1    3    3    0    0 -0.90875051932E+01 -0.20327940191E+01  0.80656978012E+01  0.12319516364E+02  0.51100000000E-03 0.  1.
        -12    1    3    3    0    0  0.15160480080E+02 -0.19699667591E+02 -0.26637428723E+02  0.36434457158E+02  0.00000000000E+00 0.  1.
</event>
<event>
 7    1  0.6316620E-012  0.5930195E+02  0.7816164E-02  0.1266605E+00
        -11   -1    0    0    0    0  0.00000000000E+00  0.00000000000E+00  0.45593999997E+02  0.45594000000E+02  0.51100000000E-03 0.  1.
         11   -1    0    0    0    0 -0.00000000000E+00 -0.00000000000E+00 -0.45593999997E+02  0.45594000000E+02  0.51100000000E-03 0. -1.
    9900012    2    1    2    0    0 -0.93961275951E+01 -0.18720865964E+02  0.24040837861E+02  0.59301954129E+02  0.50000018422E+02 0.  0.
         12    1    1    2    0    0  0.93961275951E+01  0.18720865964E+02 -0.24040837861E+02  0.31886045871E+02  0.00000000000E+00 0. -1.
         11    1    3    3    0    0 -0.28982542988E+01 -0.91855920092E+01 -0.10448461260E+02  0.14210746690E+02  0.51100000000E-03 0. -1.
        -11    1    3    3    0    0  0.62599311393E+01 -0.65184335196E+01  0.95784538946E+00  0.90881341027E+01  0.51100000000E-03 0.  1.
        -12    1    3    3    0    0 -0.12757804436E+02 -0.30168404352E+01  0.33531453732E+02  0.36003073336E+02  0.00000000000E+00 0.  1.
</event>
<event>
 7    1  0.6316620E-012  0.5930196E+02  0.7816164E-02  0.1266605E+00
        -11   -1    0    0    0    0  0.00000000000E+00  0.00000000000E+00  0.45593999997E+02  0.45594000000E+02  0.51100000000E-03 0.  1.
         11   -1    0    0    0    0 -0.00000000000E+00 -0.00000000000E+00 -0.45593999997E+02  0.45594000000E+02  0.51100000000E-03 0. -1.
    9900012    2    1    2    0    0  0.15675926835E+02  0.27754251291E+02 -0.82830634247E+00  0.59301964839E+02  0.50000037955E+02 0.  0.
         12    1    1    2    0    0 -0.15675926835E+02 -0.27754251291E+02  0.82830634247E+00  0.31886035161E+02  0.00000000000E+00 0. -1.
         11    1    3    3    0    0  0.24320178542E+02  0.14138337761E+02 -0.22109419628E+01  0.28217936558E+02  0.51100000000E-03 0. -1.
        -11    1    3    3    0    0  0.48380286266E+01  0.25981765708E+01  0.10187094085E+02  0.11572982703E+02  0.51100000000E-03 0.  1.
         12    1    3    3    0    0 -0.13482280333E+02  0.11017736960E+02 -0.88044584648E+01  0.19511045578E+02  0.00000000000E+00 0. -1.
</event>
<event>
 7    1  0.6316620E-012  0.5930196E+02  0.7816164E-02  0.1266605E+00
        -11   -1    0    0    0    0  0.00000000000E+00  0.00000000000E+00  0.45593999997E+02  0.45594000000E+02  0.51100000000E-03 0.  1.
         11   -1    0    0    0    0 -0.00000000000E+00 -0.00000000000E+00 -0.45593999997E+02  0.45594000000E+02  0.51100000000E-03 0. -1.
    9900012    2    1    2    0    0  0.43471758009E+01 -0.18364690520E+02  0.25701355280E+02  0.59301961384E+02  0.50000031654E+02 0.  0.
         12    1    1    2    0    0 -0.43471758009E+01  0.18364690520E+02 -0.25701355280E+02  0.31886038616E+02  0.00000000000E+00 0. -1.
         11    1    3    3    0    0  0.17340466029E+01 -0.22038486138E+02  0.99949396724E+01  0.24261092477E+02  0.51100000000E-03 0. -1.
        -11    1    3    3    0    0 -0.15841490230E+01 -0.78425093434E+01  0.20402123247E+02  0.21914860578E+02  0.51100000000E-03 0.  1.
         12    1    3    3    0    0  0.41972782209E+01  0.11516304961E+02 -0.46957076389E+01  0.13126008329E+02  0.00000000000E+00 0. -1.
</event>
<event>
 7    1  0.6316620E-012  0.5930195E+02  0.7816164E-02  0.1266605E+00
        -11   -1    0    0    0    0  0.00000000000E+00  0.00000000000E+00  0.45593999997E+02  0.45594000000E+02  0.51100000000E-03 0.  1.
         11   -1    0    0    0    0 -0.00000000000E+00 -0.00000000000E+00 -0.45593999997E+02  0.45594000000E+02  0.51100000000E-03 0. -1.
    9900012    2    1    2    0    0 -0.29915889187E+02 -0.92502436624E+01 -0.60160393233E+01  0.59301950342E+02  0.50000011516E+02 0.  0.
         12    1    1    2    0    0  0.29915889187E+02  0.92502436624E+01  0.60160393233E+01  0.31886049658E+02  0.00000000000E+00 0. -1.
         11    1    3    3    0    0 -0.12277449697E+02  0.89689066157E+01 -0.92981198278E+01  0.17822235818E+02  0.51100000000E-03 0. -1.
        -11    1    3    3    0    0  0.64663093582E+01  0.22324123777E+01 -0.53796501380E+01  0.87027270214E+01  0.51100000000E-03 0.  1.
        -12    1    3    3    0    0 -0.24104748848E+02 -0.20451562656E+02  0.86617306425E+01  0.32776987503E+02  0.00000000000E+00 0.  1.
</event>
<event>
 7    1  0.6316620E-012  0.5930197E+02  0.7816164E-02  0.1266605E+00
        -11   -1    0    0    0    0  0.00000000000E+00  0.00000000000E+00  0.45593999997E+02  0.45594000000E+02  0.51100000000E-03 0. -1.
         11   -1    0    0    0    0 -0.00000000000E+00 -0.00000000000E+00 -0.45593999997E+02  0.45594000000E+02  0.51100000000E-03 0.  1.
    9900012    2    1    2    0    0  0.31186351804E+02 -0.14959252380E+01 -0.64724676581E+01  0.59301965929E+02  0.50000039943E+02 0.  0.
         12    1    1    2    0    0 -0.31186351804E+02  0.14959252380E+01  0.64724676581E+01  0.31886034071E+02  0.00000000000E+00 0. -1.
         11    1    3    3    0    0 -0.59999244302E+01 -0.49301693064E+00 -0.56899768689E+01  0.82835980040E+01  0.51100000000E-03 0. -1.
        -11    1    3    3    0    0  0.10005049768E+02 -0.16655793530E+02  0.19823757138E+01  0.19530650084E+02  0.51100000000E-03 0.  1.
        -12    1    3    3    0    0  0.27181226467E+02  0.15652885223E+02 -0.27648665031E+01  0.31487717841E+02  0.00000000000E+00 0.  1.
</event>
<event>
 7    1  0.6316620E-012  0.5930182E+02  0.7816164E-02  0.1266605E+00
        -11   -1    0    0    0    0  0.00000000000E+00  0.00000000000E+00  0.45593999997E+02  0.45594000000E+02  0.51100000000E-03 0.  1.
         11   -1    0    0    0    0 -0.00000000000E+00 -0.00000000000E+00 -0.45593999997E+02  0.45594000000E+02  0.51100000000E-03 0. -1.
    9900012    2    1    2    0    0 -0.99459730735E+01 -0.26864976860E+01  0.30175963029E+02  0.59301821255E+02  0.49999776092E+02 0.  0.
         12    1    1    2    0    0  0.99459730735E+01  0.26864976860E+01 -0.30175963029E+02  0.31886178745E+02  0.00000000000E+00 0. -1.
         11    1    3    3    0    0  0.97825164873E+01 -0.89111103878E+01  0.19467670873E+02  0.23539238022E+02  0.51100000000E-03 0. -1.
        -11    1    3    3    0    0 -0.17024688001E+01 -0.13045795876E+01  0.15500447934E+02  0.15648137727E+02  0.51100000000E-03 0.  1.
         12    1    3    3    0    0 -0.18026020761E+02  0.75291922894E+01 -0.47921557781E+01  0.20114445506E+02  0.00000000000E+00 0. -1.
</event>
<event>
 7    1  0.6316620E-012  0.5930197E+02  0.7816164E-02  0.1266605E+00
        -11   -1    0    0    0    0  0.00000000000E+00  0.00000000000E+00  0.45593999997E+02  0.45594000000E+02  0.51100000000E-03 0.  1.
         11   -1    0    0    0    0 -0.00000000000E+00 -0.00000000000E+00 -0.45593999997E+02  0.45594000000E+02  0.51100000000E-03 0. -1.
    9900012    2    1    2    0    0  0.25009871783E+02  0.10103871321E+02  0.17004029711E+02  0.59301969694E+02  0.50000046809E+02 0.  0.
         12    1    1    2    0    0 -0.25009871783E+02 -0.10103871321E+02 -0.17004029711E+02  0.31886030306E+02  0.00000000000E+00 0. -1.
         11    1    3    3    0    0  0.60754413012E+01 -0.18545218170E+02  0.83502636956E+01  0.21226469513E+02  0.51100000000E-03 0. -1.
        -11    1    3    3    0    0  0.62833845673E+01  0.70798487952E+00  0.24590019334E+01  0.67844568670E+01  0.51100000000E-03 0.  1.
         12    1    3    3    0    0  0.12651045915E+02  0.27941104611E+02  0.61947640816E+01  0.31291043313E+02  0.00000000000E+00 0. -1.
</event>
<event>
 7    1  0.6316620E-012  0.5930195E+02  0.7816164E-02  0.1266605E+00
        -11   -1    0    0    0    0  0.00000000000E+00  0.00000000000E+00  0.45593999997E+02  0.45594000000E+02  0.51100000000E-03 0.  1.
         11   -1    0    0    0    0 -0.00000000000E+00 -0.00000000000E+00 -0.45593999997E+02  0.45594000000E+02  0.51100000000E-03 0. -1.
    9900012    2    1    2    0    0  0.26402298939E+01  0.24898604697E+02  0.19743573446E+02  0.59301952547E+02  0.50000015538E+02 0.  0.
         12    1    1    2    0    0 -0.26402298939E+01 -0.24898604697E+02 -0.19743573446E+02  0.31886047453E+02  0.00000000000E+00 0. -1.
         11    1    3    3    0    0 -0.69879381807E+01 -0.62220898267E+01  0.54544359227E+01  0.10830353333E+02  0.51100000000E-03 0. -1.
        -11    1    3    3    0    0 -0.96758924030E+01  0.21238189337E+02  0.17105284313E+01  0.23401057409E+02  0.51100000000E-03 0.  1.
        -12    1    3    3    0    0  0.19304060478E+02  0.98825051870E+01  0.12578609092E+02  0.25070541805E+02  0.00000000000E+00 0.  1.
</event>
<event>
 7    1  0.6316620E-012  0.5930194E+02  0.7816164E-02  0.1266605E+00
        -11   -1    0    0    0    0  0.00000000000E+00  0.00000000000E+00  0.45593999997E+02  0.45594000000E+02  0.51100000000E-03 0.  1.
         11   -1    0    0    0    0 -0.00000000000E+00 -0.00000000000E+00 -0.45593999997E+02  0.45594000000E+02  0.51100000000E-03 0. -1.
    9900012    2    1    2    0    0 -0.23063709311E+01 -0.11079367240E+02  0.29810217545E+02  0.59301940423E+02  0.49999993425E+02 0.  0.
         12    1    1    2    0    0  0.23063709311E+01  0.11079367240E+02 -0.29810217545E+02  0.31886059577E+02  0.00000000000E+00 0. -1.
         11    1    3    3    0    0 -0.93266849266E+01  0.12600012269E+02  0.15657145935E+02  0.22156118342E+02  0.51100000000E-03 0.  1.
        -11    1    3    3    0    0  0.48461662048E+01  0.36671027649E+01 -0.40272116085E+00  0.60905791324E+01  0.51100000000E-03 0. -1.
        -12    1    3    3    0    0  0.21741477906E+01 -0.27346482274E+02  0.14555792770E+02  0.31055242948E+02  0.00000000000E+00 0.  1.
</event>
<event>
 7    1  0.6316620E-012  0.5930198E+02  0.7816164E-02  0.1266605E+00
        -11   -1    0    0    0    0  0.00000000000E+00  0.00000000000E+00  0.45593999997E+02  0.45594000000E+02  0.51100000000E-03 0.  1.
         11   -1    0    0    0    0 -0.00000000000E+00 -0.00000000000E+00 -0.45593999997E+02  0.45594000000E+02  0.51100000000E-03 0. -1.
    9900012    2    1    2    0    0  0.18384222313E+02  0.25219607568E+02  0.65353052573E+01  0.59301977188E+02  0.50000060477E+02 0.  0.
         12    1    1    2    0    0 -0.18384222313E+02 -0.25219607568E+02 -0.65353052573E+01  0.31886022812E+02  0.00000000000E+00 0. -1.
         11    1    3    3    0    0 -0.10241040842E+02  0.37994882376E+01  0.15074340448E+02  0.18615874103E+02  0.51100000000E-03 0. -1.
        -11    1    3    3    0    0  0.58801964312E+01  0.12693396714E+02  0.20203277030E+01  0.14134381999E+02  0.51100000000E-03 0.  1.
        -12    1    3    3    0    0  0.22745066725E+02  0.87267226159E+01 -0.10559362894E+02  0.26551721086E+02  0.00000000000E+00 0.  1.
</event>
<event>
 7    1  0.6316620E-012  0.5930196E+02  0.7816164E-02  0.1266605E+00
        -11   -1    0    0    0    0  0.00000000000E+00  0.00000000000E+00  0.45593999997E+02  0.45594000000E+02  0.51100000000E-03 0.  1.
         11   -1    0    0    0    0 -0.00000000000E+00 -0.00000000000E+00 -0.45593999997E+02  0.45594000000E+02  0.51100000000E-03 0. -1.
    9900012    2    1    2    0    0  0.19968774363E+02  0.15345827935E+02  0.19556926141E+02  0.59301956899E+02  0.50000023474E+02 0.  0.
         12    1    1    2    0    0 -0.19968774363E+02 -0.15345827935E+02 -0.19556926141E+02  0.31886043101E+02  0.00000000000E+00 0. -1.
         11    1    3    3    0    0  0.12232959603E+02 -0.34771827079E+01  0.25642587931E+02  0.28623039956E+02  0.51100000000E-03 0. -1.
        -11    1    3    3    0    0 -0.46370722048E+01  0.36736056928E+01  0.53882835661E+01  0.80019633509E+01  0.51100000000E-03 0.  1.
         12    1    3    3    0    0  0.12372886965E+02  0.15149404950E+02 -0.11473945357E+02  0.22676953593E+02  0.00000000000E+00 0. -1.
</event>
<event>
 7    1  0.6316620E-012  0.5930194E+02  0.7816164E-02  0.1266605E+00
        -11   -1    0    0    0    0  0.00000000000E+00  0.00000000000E+00  0.45593999997E+02  0.45594000000E+02  0.51100000000E-03 0.  1.
         11   -1    0    0    0    0 -0.00000000000E+00 -0.00000000000E+00 -0.45593999997E+02  0.45594000000E+02  0.51100000000E-03 0. -1.
    9900012    2    1    2    0    0  0.13993968577E+02  0.46717189543E+01  0.28267730630E+02  0.59301941770E+02  0.49999995882E+02 0.  0.
         12    1    1    2    0    0 -0.13993968577E+02 -0.46717189543E+01 -0.28267730630E+02  0.31886058230E+02  0.00000000000E+00 0. -1.
         11    1    3    3    0    0  0.55291301374E+01 -0.50496369399E+01  0.26111034962E-01  0.74880434927E+01  0.51100000000E-03 0.  1.
        -11    1    3    3    0    0  0.69406928980E+01  0.80639528586E+01  0.39204293866E+02  0.40622373286E+02  0.51100000000E-03 0. -1.
         12    1    3    3    0    0  0.15241455412E+01  0.16574030356E+01 -0.10962674271E+02  0.11191524991E+02  0.00000000000E+00 0. -1.
</event>
<event>
 7    1  0.6316620E-012  0.5930194E+02  0.7816164E-02  0.1266605E+00
        -11   -1    0    0    0    0  0.00000000000E+00  0.00000000000E+00  0.45593999997E+02  0.45594000000E+02  0.51100000000E-03 0.  1.
         11   -1    0    0    0    0 -0.00000000000E+00 -0.00000000000E+00 -0.45593999997E+02  0.45594000000E+02  0.51100000000E-03 0. -1.
    9900012    2    1    2    0    0  0.22414634058E+02 -0.18076812143E+02  0.13694294498E+02  0.59301942561E+02  0.49999997326E+02 0.  0.
         12    1    1    2    0    0 -0.22414634058E+02  0.18076812143E+02 -0.13694294498E+02  0.31886057439E+02  0.00000000000E+00 0. -1.
         11    1    3    3    0    0  0.45900928382E+01 -0.26363380255E+02 -0.12084579069E+01  0.26787257073E+02  0.51100000000E-03 0. -1.
        -11    1    3    3    0    0  0.97622163276E+01 -0.62746896595E+01  0.95552915624E+01  0.15032504617E+02  0.51100000000E-03 0.  1.
        -12    1    3    3    0    0  0.80623248917E+01  0.14561257772E+02  0.53474608426E+01  0.17482180871E+02  0.00000000000E+00 0.  1.
</event>
<event>
 7    1  0.6316620E-012  0.5930195E+02  0.7816164E-02  0.1266605E+00
        -11   -1    0    0    0    0  0.00000000000E+00  0.00000000000E+00  0.45593999997E+02  0.45594000000E+02  0.51100000000E-03 0. -1.
         11   -1    0    0    0    0 -0.00000000000E+00 -0.00000000000E+00 -0.45593999997E+02  0.45594000000E+02  0.51100000000E-03 0.  1.
    9900012    2    1    2    0    0  0.51030073620E+01 -0.28418888016E+02 -0.13529466846E+02  0.59301947354E+02  0.50000006066E+02 0.  0.
         12    1    1    2    0    0 -0.51030073620E+01  0.28418888016E+02  0.13529466846E+02  0.31886052646E+02  0.00000000000E+00 0. -1.
         11    1    3    3    0    0  0.33129957910E+01  0.82928457378E+00  0.10563628291E+02  0.11101977164E+02  0.51100000000E-03 0. -1.
        -11    1    3    3    0    0 -0.30277140307E+01 -0.28602818779E+02 -0.58905690981E+01  0.29359616804E+02  0.51100000000E-03 0.  1.
         12    1    3    3    0    0  0.48177256018E+01 -0.64535381139E+00 -0.18202526039E+02  0.18840353386E+02  0.00000000000E+00 0. -1.
</event>
<event>
 7    1  0.6316620E-012  0.5930192E+02  0.7816164E-02  0.1266605E+00
        -11   -1    0    0    0    0  0.00000000000E+00  0.00000000000E+00  0.45593999997E+02  0.45594000000E+02  0.51100000000E-03 0.  1.
         11   -1    0    0    0    0 -0.00000000000E+00 -0.00000000000E+00 -0.45593999997E+02  0.45594000000E+02  0.51100000000E-03 0. -1.
    9900012    2    1    2    0    0 -0.23438608186E+02 -0.29888550272E+01  0.21410753986E+02  0.59301921622E+02  0.49999959138E+02 0.  0.
         12    1    1    2    0    0  0.23438608186E+02  0.29888550272E+01 -0.21410753986E+02  0.31886078378E+02  0.00000000000E+00 0. -1.
         11    1    3    3    0    0 -0.53878957978E+01  0.71233990105E+01  0.11956050709E+01  0.90111989401E+01  0.51100000000E-03 0. -1.
        -11    1    3    3    0    0 -0.95127505913E+01  0.98737411915E+01  0.24559530159E+02  0.28127454752E+02  0.51100000000E-03 0.  1.
         12    1    3    3    0    0 -0.85379617968E+01 -0.19985995229E+02 -0.43443812441E+01  0.22163267930E+02  0.00000000000E+00 0. -1.
</event>
<event>
 7    1  0.6316620E-012  0.5930196E+02  0.7816164E-02  0.1266605E+00
        -11   -1    0    0    0    0  0.00000000000E+00  0.00000000000E+00  0.45593999997E+02  0.45594000000E+02  0.51100000000E-03 0.  1.
         11   -1    0    0    0    0 -0.00000000000E+00 -0.00000000000E+00 -0.45593999997E+02  0.45594000000E+02  0.51100000000E-03 0. -1.
    9900012    2    1    2    0    0  0.27860481013E+01 -0.31023650196E+02  0.68183960668E+01  0.59301961356E+02  0.50000031602E+02 0.  0.
         12    1    1    2    0    0 -0.27860481013E+01  0.31023650196E+02 -0.68183960668E+01  0.31886038644E+02  0.00000000000E+00 0. -1.
         11    1    3    3    0    0  0.88661422598E+00  0.62341427420E+01 -0.11310047694E+01  0.63976396087E+01  0.51100000000E-03 0. -1.
        -11    1    3    3    0    0 -0.13202612524E+02 -0.33332566405E+02  0.11149120780E+01  0.35869373982E+02  0.51100000000E-03 0.  1.
         12    1    3    3    0    0  0.15102046400E+02 -0.39252265326E+01  0.68344887583E+01  0.17034947766E+02  0.00000000000E+00 0. -1.
</event>
<event>
 7    1  0.6316620E-012  0.5930196E+02  0.7816164E-02  0.1266605E+00
        -11   -1    0    0    0    0  0.00000000000E+00  0.00000000000E+00  0.45593999997E+02  0.45594000000E+02  0.51100000000E-03 0.  1.
         11   -1    0    0    0    0 -0.00000000000E+00 -0.00000000000E+00 -0.45593999997E+02  0.45594000000E+02  0.51100000000E-03 0. -1.
    9900012    2    1    2    0    0 -0.12809520561E+02 -0.21675491281E+02  0.19565498072E+02  0.59301961455E+02  0.50000031784E+02 0.  0.
         12    1    1    2    0    0  0.12809520561E+02  0.21675491281E+02 -0.19565498072E+02  0.31886038545E+02  0.00000000000E+00 0. -1.
         11    1    3    3    0    0  0.98147773544E+01 -0.72641948505E+01 -0.31408041302E+01  0.12608054259E+02  0.51100000000E-03 0. -1.
        -11    1    3    3    0    0 -0.40674886044E+01  0.73651369368E+01  0.14777702356E+02  0.17005004935E+02  0.51100000000E-03 0.  1.
        -12    1    3    3    0    0 -0.18556809311E+02 -0.21776433367E+02  0.79285998457E+01  0.29688902262E+02  0.00000000000E+00 0.  1.
</event>
<event>
 7    1  0.6316620E-012  0.5930196E+02  0.7816164E-02  0.1266605E+00
        -11   -1    0    0    0    0  0.00000000000E+00  0.00000000000E+00  0.45593999997E+02  0.45594000000E+02  0.51100000000E-03 0. -1.
         11   -1    0    0    0    0 -0.00000000000E+00 -0.00000000000E+00 -0.45593999997E+02  0.45594000000E+02  0.51100000000E-03 0.  1.
    9900012    2    1    2    0    0  0.38064306852E+01  0.36948399135E+01 -0.31441673375E+02  0.59301959462E+02  0.50000028148E+02 0.  0.
         12    1    1    2    0    0 -0.38064306852E+01 -0.36948399135E+01  0.31441673375E+02  0.31886040538E+02  0.00000000000E+00 0. -1.
         11    1    3    3    0    0 -0.99634649966E+01 -0.50041774354E+01  0.52302694740E+01  0.12315362178E+02  0.51100000000E-03 0. -1.
        -11    1    3    3    0    0  0.47211211406E+01 -0.76342663322E+01 -0.20130848332E+02  0.22041371602E+02  0.51100000000E-03 0.  1.
        -12    1    3    3    0    0  0.90487745413E+01  0.16333283681E+02 -0.16541094518E+02  0.24945225682E+02  0.00000000000E+00 0.  1.
</event>
<event>
 7    1  0.6316620E-012  0.5930194E+02  0.7816164E-02  0.1266605E+00
        -11   -1    0    0    0    0  0.00000000000E+00  0.00000000000E+00  0.45593999997E+02  0.45594000000E+02  0.51100000000E-03 0.  1.
         11   -1    0    0    0    0 -0.00000000000E+00 -0.00000000000E+00 -0.45593999997E+02  0.45594000000E+02  0.51100000000E-03 0. -1.
    9900012    2    1    2    0    0 -0.84480623112E+01  0.18557728500E+02 -0.24514527154E+02  0.59301935873E+02  0.49999985129E+02 0.  0.
         12    1    1    2    0    0  0.84480623112E+01 -0.18557728500E+02  0.24514527154E+02  0.31886064127E+02  0.00000000000E+00 0. -1.
         11    1    3    3    0    0 -0.53165056568E+01  0.13531032054E+02 -0.23774589826E+02  0.27867277989E+02  0.51100000000E-03 0. -1.
        -11    1    3    3    0    0  0.49237769211E+01  0.12590537817E+02 -0.10162516069E+02  0.16912774900E+02  0.51100000000E-03 0.  1.
        -12    1    3    3    0    0 -0.80553335755E+01 -0.75638413704E+01  0.94225787416E+01  0.14521882985E+02  0.00000000000E+00 0.  1.
</event>
<event>
 7    1  0.6316620E-012  0.5930194E+02  0.7816164E-02  0.1266605E+00
        -11   -1    0    0    0    0  0.00000000000E+00  0.00000000000E+00  0.45593999997E+02  0.45594000000E+02  0.51100000000E-03 0.  1.
         11   -1    0    0    0    0 -0.00000000000E+00 -0.00000000000E+00 -0.45593999997E+02  0.45594000000E+02  0.51100000000E-03 0. -1.
    9900012    2    1    2    0    0 -0.13830795759E+01 -0.31731805316E+02  0.28108065977E+01  0.59301937034E+02  0.49999987245E+02 0.  0.
         12    1    1    2    0    0  0.13830795759E+01  0.31731805316E+02 -0.28108065977E+01  0.31886062966E+02  0.00000000000E+00 0. -1.
         11    1    3    3    0    0  0.57404113826E+01 -0.82290078128E+01 -0.77759870264E+00  0.10063476160E+02  0.51100000000E-03 0. -1.
        -11    1    3    3    0    0  0.16059959521E+02 -0.78792701754E+01  0.10086925835E+02  0.20536583732E+02  0.51100000000E-03 0.  1.
         12    1    3    3    0    0 -0.23183450480E+02 -0.15623527328E+02 -0.64985205346E+01  0.28701877142E+02  0.00000000000E+00 0. -1.
</event>
<event>
 7    1  0.6316620E-012  0.5930206E+02  0.7816164E-02  0.1266604E+00
        -11   -1    0    0    0    0  0.00000000000E+00  0.00000000000E+00  0.45593999997E+02  0.45594000000E+02  0.51100000000E-03 0.  1.
         11   -1    0    0    0    0 -0.00000000000E+00 -0.00000000000E+00 -0.45593999997E+02  0.45594000000E+02  0.51100000000E-03 0. -1.
    9900012    2    1    2    0    0 -0.23375013917E+02  0.18859894770E+02  0.10706375022E+02  0.59302056820E+02  0.50000205706E+02 0.  0.
         12    1    1    2    0    0  0.23375013917E+02 -0.18859894770E+02 -0.10706375022E+02  0.31885943180E+02  0.00000000000E+00 0. -1.
         11    1    3    3    0    0  0.69837471131E+01  0.36008574442E+01 -0.55438592399E+01  0.96163024913E+01  0.51100000000E-03 0. -1.
        -11    1    3    3    0    0 -0.19690979552E+01  0.18127175401E+02  0.41989213070E+01  0.18711033515E+02  0.51100000000E-03 0.  1.
        -12    1    3    3    0    0 -0.28389663075E+02 -0.28681380758E+01  0.12051312955E+02  0.30974720814E+02  0.00000000000E+00 0.  1.
</event>
<event>
 7    1  0.6316620E-012  0.5930192E+02  0.7816164E-02  0.1266605E+00
        -11   -1    0    0    0    0  0.00000000000E+00  0.00000000000E+00  0.45593999997E+02  0.45594000000E+02  0.51100000000E-03 0. -1.
         11   -1    0    0    0    0 -0.00000000000E+00 -0.00000000000E+00 -0.45593999997E+02  0.45594000000E+02  0.51100000000E-03 0.  1.
    9900012    2    1    2    0    0  0.13224787152E+02 -0.49320216823E+01 -0.28591998907E+02  0.59301917854E+02  0.49999952266E+02 0.  0.
         12    1    1    2    0    0 -0.13224787152E+02  0.49320216823E+01  0.28591998907E+02  0.31886082146E+02  0.00000000000E+00 0. -1.
         11    1    3    3    0    0  0.34546218349E+00  0.16354440761E+02 -0.17671857466E+01  0.16453267835E+02  0.51100000000E-03 0. -1.
        -11    1    3    3    0    0 -0.22770434195E+01 -0.13499820236E+02 -0.38067777901E+01  0.14209913108E+02  0.51100000000E-03 0.  1.
        -12    1    3    3    0    0  0.15156368388E+02 -0.77866422074E+01 -0.23018035370E+02  0.28638736912E+02  0.00000000000E+00 0.  1.
</event>
<event>
 7    1  0.6316620E-012  0.5930202E+02  0.7816164E-02  0.1266604E+00
        -11   -1    0    0    0    0  0.00000000000E+00  0.00000000000E+00  0.45593999997E+02  0.45594000000E+02  0.51100000000E-03 0. -1.
         11   -1    0    0    0    0 -0.00000000000E+00 -0.00000000000E+00 -0.45593999997E+02  0.45594000000E+02  0.51100000000E-03 0.  1.
    9900012    2    1    2    0    0  0.27211121502E+02  0.48365234771E+00 -0.16614347778E+02  0.59302021811E+02  0.50000141857E+02 0.  0.
         12    1    1    2    0    0 -0.27211121502E+02 -0.48365234771E+00  0.16614347778E+02  0.31885978189E+02  0.00000000000E+00 0. -1.
         11    1    3    3    0    0  0.11586926336E+02 -0.12246224963E+02  0.42232807950E+01  0.17379959399E+02  0.51100000000E-03 0. -1.
        -11    1    3    3    0    0  0.11709572977E+02 -0.32403254303E+01 -0.22319871734E+02  0.25412408046E+02  0.51100000000E-03 0.  1.
         12    1    3    3    0    0  0.39146221892E+01  0.15970202741E+02  0.14822431617E+01  0.16509654366E+02  0.00000000000E+00 0. -1.
</event>
<event>
 7    1  0.6316620E-012  0.5930191E+02  0.7816164E-02  0.1266605E+00
        -11   -1    0    0    0    0  0.00000000000E+00  0.00000000000E+00  0.45593999997E+02  0.45594000000E+02  0.51100000000E-03 0.  1.
         11   -1    0    0    0    0 -0.00000000000E+00 -0.00000000000E+00 -0.45593999997E+02  0.45594000000E+02  0.51100000000E-03 0. -1.
    9900012    2    1    2    0    0 -0.18548475475E+02  0.38591727468E+01  0.25647292859E+02  0.59301909181E+02  0.49999936447E+02 0.  0.
         12    1    1    2    0    0  0.18548475475E+02 -0.38591727468E+01 -0.25647292859E+02  0.31886090819E+02  0.00000000000E+00 0. -1.
         11    1    3    3    0    0 -0.26489017459E+02 -0.10185627742E+02  0.29794009539E+02  0.41147272851E+02  0.51100000000E-03 0. -1.
        -11    1    3    3    0    0  0.89317930358E+00  0.54613851958E+00  0.15719346534E+01  0.18886543799E+01  0.51100000000E-03 0.  1.
         12    1    3    3    0    0  0.70473626797E+01  0.13498661969E+02 -0.57186513338E+01  0.16265981950E+02  0.00000000000E+00 0. -1.
</event>
<event>
 7    1  0.6316620E-012  0.5930195E+02  0.7816164E-02  0.1266605E+00
        -11   -1    0    0    0    0  0.00000000000E+00  0.00000000000E+00  0.45593999997E+02  0.45594000000E+02  0.51100000000E-03 0. -1.
         11   -1    0    0    0    0 -0.00000000000E+00 -0.00000000000E+00 -0.45593999997E+02  0.45594000000E+02  0.51100000000E-03 0.  1.
    9900012    2    1    2    0    0 -0.13371656785E+02 -0.16520079544E+02 -0.23769854164E+02  0.59301949754E+02  0.50000010443E+02 0.  0.
         12    1    1    2    0    0  0.13371656785E+02  0.16520079544E+02  0.23769854164E+02  0.31886050246E+02  0.00000000000E+00 0. -1.
         11    1    3    3    0    0  0.13602679458E+01  0.98501558901E+01  0.15693068295E+01  0.10066708704E+02  0.51100000000E-03 0. -1.
        -11    1    3    3    0    0 -0.19139229109E+02 -0.13813700230E+02 -0.37866415597E+01  0.23905377209E+02  0.51100000000E-03 0.  1.
        -12    1    3    3    0    0  0.44073043786E+01 -0.12556535204E+02 -0.21552519434E+02  0.25329863841E+02  0.00000000000E+00 0.  1.
</event>
<event>
 7    1  0.6316620E-012  0.5930199E+02  0.7816164E-02  0.1266605E+00
        -11   -1    0    0    0    0  0.00000000000E+00  0.00000000000E+00  0.45593999997E+02  0.45594000000E+02  0.51100000000E-03 0. -1.
         11   -1    0    0    0    0 -0.00000000000E+00 -0.00000000000E+00 -0.45593999997E+02  0.45594000000E+02  0.51100000000E-03 0.  1.
    9900012    2    1    2    0    0  0.23454657590E+02  0.39432761552E+01 -0.21237869258E+02  0.59301992408E+02  0.50000088234E+02 0.  0.
         12    1    1    2    0    0 -0.23454657590E+02 -0.39432761552E+01  0.21237869258E+02  0.31886007592E+02  0.00000000000E+00 0. -1.
         11    1    3    3    0    0  0.10347783285E+02  0.99976124318E+01 -0.11582942102E+02  0.18471421744E+02  0.51100000000E-03 0. -1.
        -11    1    3    3    0    0  0.62671520036E+01  0.30431771043E+01 -0.22567103870E+02  0.23618050268E+02  0.51100000000E-03 0.  1.
         12    1    3    3    0    0  0.68397223016E+01 -0.90975133808E+01  0.12912176714E+02  0.17212520396E+02  0.00000000000E+00 0. -1.
</event>
<event>
 7    1  0.6316620E-012  0.5930194E+02  0.7816164E-02  0.1266605E+00
        -11   -1    0    0    0    0  0.00000000000E+00  0.00000000000E+00  0.45593999997E+02  0.45594000000E+02  0.51100000000E-03 0.  1.
         11   -1    0    0    0    0 -0.00000000000E+00 -0.00000000000E+00 -0.45593999997E+02  0.45594000000E+02  0.51100000000E-03 0. -1.
    9900012    2    1    2    0    0 -0.11412875207E+02  0.22664200624E+01  0.29687205570E+02  0.59301944193E+02  0.50000000301E+02 0.  0.
         12    1    1    2    0    0  0.11412875207E+02 -0.22664200624E+01 -0.29687205570E+02  0.31886055807E+02  0.00000000000E+00 0. -1.
         11    1    3    3    0    0 -0.39413618273E+01 -0.10788953271E+02  0.12053854471E+01  0.11549406915E+02  0.51100000000E-03 0. -1.
        -11    1    3    3    0    0 -0.20617050512E+02  0.16953899070E+01  0.18271758943E+02  0.27600621259E+02  0.51100000000E-03 0.  1.
         12    1    3    3    0    0  0.13145537132E+02  0.11359983427E+02  0.10210061180E+02  0.20151916019E+02  0.00000000000E+00 0. -1.
</event>
<event>
 7    1  0.6316620E-012  0.5930194E+02  0.7816164E-02  0.1266605E+00
        -11   -1    0    0    0    0  0.00000000000E+00  0.00000000000E+00  0.45593999997E+02  0.45594000000E+02  0.51100000000E-03 0.  1.
         11   -1    0    0    0    0 -0.00000000000E+00 -0.00000000000E+00 -0.45593999997E+02  0.45594000000E+02  0.51100000000E-03 0. -1.
    9900012    2    1    2    0    0  0.14923717233E+02 -0.33537695001E+01  0.27977766774E+02  0.59301944433E+02  0.50000000740E+02 0.  0.
         12    1    1    2    0    0 -0.14923717233E+02  0.33537695001E+01 -0.27977766774E+02  0.31886055567E+02  0.00000000000E+00 0. -1.
         11    1    3    3    0    0  0.13555251630E+01  0.15345203064E+02  0.69639607518E+01  0.16905900010E+02  0.51100000000E-03 0. -1.
        -11    1    3    3    0    0 -0.89111193395E+01 -0.61105611487E+01  0.85334012410E+01  0.13768294827E+02  0.51100000000E-03 0.  1.
        -12    1    3    3    0    0  0.22479311410E+02 -0.12588411416E+02  0.12480404781E+02  0.28627749596E+02  0.00000000000E+00 0.  1.
</event>
<event>
 7    1  0.6316620E-012  0.5930194E+02  0.7816164E-02  0.1266605E+00
        -11   -1    0    0    0    0  0.00000000000E+00  0.00000000000E+00  0.45593999997E+02  0.45594000000E+02  0.51100000000E-03 0. -1.
         11   -1    0    0    0    0 -0.00000000000E+00 -0.00000000000E+00 -0.45593999997E+02  0.45594000000E+02  0.51100000000E-03 0.  1.
    9900012    2    1    2    0    0  0.25767569028E+02 -0.21542786022E+01 -0.18657763326E+02  0.59301942510E+02  0.49999997232E+02 0.  0.
         12    1    1    2    0    0 -0.25767569028E+02  0.21542786022E+01  0.18657763326E+02  0.31886057490E+02  0.00000000000E+00 0. -1.
         11    1    3    3    0    0  0.86704614455E+01 -0.11011447478E+02  0.41402560533E+00  0.14021422706E+02  0.51100000000E-03 0. -1.
        -11    1    3    3    0    0  0.24992728486E+02 -0.26807683144E+01 -0.18639377867E+02  0.31292960925E+02  0.51100000000E-03 0.  1.
         12    1    3    3    0    0 -0.78956209034E+01  0.11537937190E+02 -0.43241106463E+00  0.13987558879E+02  0.00000000000E+00 0. -1.
</event>
<event>
 7    1  0.6316620E-012  0.5930194E+02  0.7816164E-02  0.1266605E+00
        -11   -1    0    0    0    0  0.00000000000E+00  0.00000000000E+00  0.45593999997E+02  0.45594000000E+02  0.51100000000E-03 0.  1.
         11   -1    0    0    0    0 -0.00000000000E+00 -0.00000000000E+00 -0.45593999997E+02  0.45594000000E+02  0.51100000000E-03 0. -1.
    9900012    2    1    2    0    0 -0.29806674815E+02  0.87022954575E+01  0.72493460080E+01  0.59301939922E+02  0.49999992512E+02 0.  0.
         12    1    1    2    0    0  0.29806674815E+02 -0.87022954575E+01 -0.72493460080E+01  0.31886060078E+02  0.00000000000E+00 0. -1.
         11    1    3    3    0    0 -0.18568120335E+02 -0.16123021286E+01 -0.59188427349E+01  0.19555237419E+02  0.51100000000E-03 0. -1.
        -11    1    3    3    0    0 -0.23057031975E+02  0.30307110178E+01  0.55396537177E+01  0.23906059824E+02  0.51100000000E-03 0.  1.
         12    1    3    3    0    0  0.11818477495E+02  0.72838865683E+01  0.76285350252E+01  0.15840642678E+02  0.00000000000E+00 0. -1.
</event>
<event>
 7    1  0.6316620E-012  0.5930192E+02  0.7816164E-02  0.1266605E+00
        -11   -1    0    0    0    0  0.00000000000E+00  0.00000000000E+00  0.45593999997E+02  0.45594000000E+02  0.51100000000E-03 0.  1.
         11   -1    0    0    0    0 -0.00000000000E+00 -0.00000000000E+00 -0.45593999997E+02  0.45594000000E+02  0.51100000000E-03 0. -1.
    9900012    2    1    2    0    0  0.17500858634E+02 -0.23257578272E+02  0.13020261291E+02  0.59301918333E+02  0.49999953138E+02 0.  0.
         12    1    1    2    0    0 -0.17500858634E+02  0.23257578272E+02 -0.13020261291E+02  0.31886081667E+02  0.00000000000E+00 0. -1.
         11    1    3    3    0    0  0.57767776031E+01 -0.17668990972E+01 -0.13816805073E+02  0.15079694777E+02  0.51100000000E-03 0. -1.
        -11    1    3    3    0    0  0.34780406723E+01 -0.12315046727E+02 -0.19113037932E+01  0.12938710340E+02  0.51100000000E-03 0.  1.
        -12    1    3    3    0    0  0.82460403591E+01 -0.91756324475E+01  0.28748370157E+02  0.31283513215E+02  0.00000000000E+00 0.  1.
</event>
<event>
 7    1  0.6316620E-012  0.5930194E+02  0.7816164E-02  0.1266605E+00
        -11   -1    0    0    0    0  0.00000000000E+00  0.00000000000E+00  0.45593999997E+02  0.45594000000E+02  0.51100000000E-03 0. -1.
         11   -1    0    0    0    0 -0.00000000000E+00 -0.00000000000E+00 -0.45593999997E+02  0.45594000000E+02  0.51100000000E-03 0.  1.
    9900012    2    1    2    0    0 -0.20160438190E+02  0.20302667452E+02 -0.14074056458E+02  0.59301942876E+02  0.49999997900E+02 0.  0.
         12    1    1    2    0    0  0.20160438190E+02 -0.20302667452E+02  0.14074056458E+02  0.31886057124E+02  0.00000000000E+00 0. -1.
         11    1    3    3    0    0  0.35183251972E+01 -0.13425974742E+01  0.52776549509E+01  0.64834267338E+01  0.51100000000E-03 0. -1.
        -11    1    3    3    0    0 -0.14299524603E+02  0.18047359372E+02  0.74460428247E+01  0.24199734259E+02  0.51100000000E-03 0.  1.
        -12    1    3    3    0    0 -0.93792387843E+01  0.35979055541E+01 -0.26797754234E+02  0.28618781884E+02  0.00000000000E+00 0.  1.
</event>
<event>
 7    1  0.6316620E-012  0.5930195E+02  0.7816164E-02  0.1266605E+00
        -11   -1    0    0    0    0  0.00000000000E+00  0.00000000000E+00  0.45593999997E+02  0.45594000000E+02  0.51100000000E-03 0.  1.
         11   -1    0    0    0    0 -0.00000000000E+00 -0.00000000000E+00 -0.45593999997E+02  0.45594000000E+02  0.51100000000E-03 0. -1.
    9900012    2    1    2    0    0  0.21913104064E+02  0.17561295050E+02 -0.15104209961E+02  0.59301947060E+02  0.50000005530E+02 0.  0.
         12    1    1    2    0    0 -0.21913104064E+02 -0.17561295050E+02  0.15104209961E+02  0.31886052940E+02  0.00000000000E+00 0. -1.
         11    1    3    3    0    0  0.16188096736E+01  0.33245806156E+01 -0.51911880352E+01  0.63735244965E+01  0.51100000000E-03 0. -1.
        -11    1    3    3    0    0  0.28547461802E+01  0.28937024856E+02 -0.72266376308E+01  0.29962063931E+02  0.51100000000E-03 0.  1.
        -12    1    3    3    0    0  0.17439548210E+02 -0.14700310421E+02 -0.26863842950E+01  0.22966358632E+02  0.00000000000E+00 0.  1.
</event>
<event>
 7    1  0.6316620E-012  0.5930196E+02  0.7816164E-02  0.1266605E+00
        -11   -1    0    0    0    0  0.00000000000E+00  0.00000000000E+00  0.45593999997E+02  0.45594000000E+02  0.51100000000E-03 0. -1.
         11   -1    0    0    0    0 -0.00000000000E+00 -0.00000000000E+00 -0.45593999997E+02  0.45594000000E+02  0.51100000000E-03 0.  1.
    9900012    2    1    2    0    0  0.27291118558E+02 -0.88040848689E+01 -0.13942834261E+02  0.59301957759E+02  0.50000025043E+02 0.  0.
         12    1    1    2    0    0 -0.27291118558E+02  0.88040848689E+01  0.13942834261E+02  0.31886042241E+02  0.00000000000E+00 0. -1.
         11    1    3    3    0    0  0.26130551034E+02 -0.14856406987E+02 -0.13227066000E+01  0.30087673205E+02  0.51100000000E-03 0. -1.
        -11    1    3    3    0    0 -0.14025293218E+01 -0.94657383839E+01 -0.88640028708E+01  0.13043689616E+02  0.51100000000E-03 0.  1.
         12    1    3    3    0    0  0.25630968464E+01  0.15518060502E+02 -0.37561247901E+01  0.16170594938E+02  0.00000000000E+00 0. -1.
</event>
<event>
 7    1  0.6316620E-012  0.5930193E+02  0.7816164E-02  0.1266605E+00
        -11   -1    0    0    0    0  0.00000000000E+00  0.00000000000E+00  0.45593999997E+02  0.45594000000E+02  0.51100000000E-03 0.  1.
         11   -1    0    0    0    0 -0.00000000000E+00 -0.00000000000E+00 -0.45593999997E+02  0.45594000000E+02  0.51100000000E-03 0. -1.
    9900012    2    1    2    0    0 -0.28023817905E+01 -0.31682953421E+02 -0.22490645903E+01  0.59301934506E+02  0.49999982634E+02 0.  0.
         12    1    1    2    0    0  0.28023817905E+01  0.31682953421E+02  0.22490645903E+01  0.31886065494E+02  0.00000000000E+00 0. -1.
         11    1    3    3    0    0  0.89072906536E+01 -0.18853490330E+02  0.72160664244E+01  0.22065029783E+02  0.51100000000E-03 0. -1.
        -11    1    3    3    0    0  0.14962030012E+01 -0.14684525061E+01  0.10519017809E+02  0.10725889805E+02  0.51100000000E-03 0.  1.
         12    1    3    3    0    0 -0.13205875445E+02 -0.11361010584E+02 -0.19984148824E+02  0.26511014918E+02  0.00000000000E+00 0. -1.
</event>
<event>
 7    1  0.6316620E-012  0.5930198E+02  0.7816164E-02  0.1266605E+00
        -11   -1    0    0    0    0  0.00000000000E+00  0.00000000000E+00  0.45593999997E+02  0.45594000000E+02  0.51100000000E-03 0. -1.
         11   -1    0    0    0    0 -0.00000000000E+00 -0.00000000000E+00 -0.45593999997E+02  0.45594000000E+02  0.51100000000E-03 0.  1.
    9900012    2    1    2    0    0  0.88174828992E+01 -0.13986840040E+02 -0.27264235230E+02  0.59301980781E+02  0.50000067029E+02 0.  0.
         12    1    1    2    0    0 -0.88174828992E+01  0.13986840040E+02  0.27264235230E+02  0.31886019219E+02  0.00000000000E+00 0. -1.
         11    1    3    3    0    0  0.37272871919E+00 -0.13350259482E+01 -0.11249605035E+02  0.11334674000E+02  0.51100000000E-03 0. -1.
        -11    1    3    3    0    0  0.24498554680E+02 -0.15353103055E+02 -0.10987442453E+02  0.30929287848E+02  0.51100000000E-03 0.  1.
         12    1    3    3    0    0 -0.16053800500E+02  0.27012889634E+01 -0.50271877411E+01  0.17038018933E+02  0.00000000000E+00 0. -1.
</event>
<event>
 7    1  0.6316620E-012  0.5930175E+02  0.7816164E-02  0.1266605E+00
        -11   -1    0    0    0    0  0.00000000000E+00  0.00000000000E+00  0.45593999997E+02  0.45594000000E+02  0.51100000000E-03 0. -1.
         11   -1    0    0    0    0 -0.00000000000E+00 -0.00000000000E+00 -0.45593999997E+02  0.45594000000E+02  0.51100000000E-03 0.  1.
    9900012    2    1    2    0    0  0.16602614948E+02  0.22944284416E+02 -0.14650796451E+02  0.59301751442E+02  0.49999648768E+02 0.  0.
         12    1    1    2    0    0 -0.16602614948E+02 -0.22944284416E+02  0.14650796451E+02  0.31886248558E+02  0.00000000000E+00 0. -1.
         11    1    3    3    0    0 -0.55763897620E+01  0.91801050157E+01 -0.11071458978E+02  0.15425552018E+02  0.51100000000E-03 0. -1.
        -11    1    3    3    0    0 -0.80170373065E+01 -0.25431513826E+01 -0.45137921538E+01  0.95454086343E+01  0.51100000000E-03 0.  1.
         12    1    3    3    0    0  0.30196042016E+02  0.16307330783E+02  0.93445468103E+00  0.34330790790E+02  0.00000000000E+00 0. -1.
</event>
<event>
 7    1  0.6316620E-012  0.5930194E+02  0.7816164E-02  0.1266605E+00
        -11   -1    0    0    0    0  0.00000000000E+00  0.00000000000E+00  0.45593999997E+02  0.45594000000E+02  0.51100000000E-03 0.  1.
         11   -1    0    0    0    0 -0.00000000000E+00 -0.00000000000E+00 -0.45593999997E+02  0.45594000000E+02  0.51100000000E-03 0. -1.
    9900012    2    1    2    0    0 -0.49646271302E+01 -0.16294526845E+02  0.26954805820E+02  0.59301942163E+02  0.49999996598E+02 0.  0.
         12    1    1    2    0    0  0.49646271302E+01  0.16294526845E+02 -0.26954805820E+02  0.31886057837E+02  0.00000000000E+00 0. -1.
         11    1    3    3    0    0 -0.37691230883E+01 -0.73033398118E+01 -0.10181649836E+02  0.13084764228E+02  0.51100000000E-03 0. -1.
        -11    1    3    3    0    0 -0.77677158705E+01 -0.70648150951E+01  0.23457650216E+01  0.10758793425E+02  0.51100000000E-03 0.  1.
         12    1    3    3    0    0  0.65722118286E+01 -0.19263719377E+01  0.34790690634E+02  0.35458384509E+02  0.00000000000E+00 0. -1.
</event>
<event>
 7    1  0.6316620E-012  0.5930184E+02  0.7816164E-02  0.1266605E+00
        -11   -1    0    0    0    0  0.00000000000E+00  0.00000000000E+00  0.45593999997E+02  0.45594000000E+02  0.51100000000E-03 0.  1.
         11   -1    0    0    0    0 -0.00000000000E+00 -0.00000000000E+00 -0.45593999997E+02  0.45594000000E+02  0.51100000000E-03 0. -1.
    9900012    2    1    2    0    0 -0.42817907840E+01  0.31418286682E+02  0.33592506463E+01  0.59301842576E+02  0.49999814976E+02 0.  0.
         12    1    1    2    0    0  0.42817907840E+01 -0.31418286682E+02 -0.33592506463E+01  0.31886157424E+02  0.00000000000E+00 0. -1.
         11    1    3    3    0    0 -0.71747813809E+00 -0.67707929086E+01 -0.72260971388E+01  0.99284888886E+01  0.51100000000E-03 0. -1.
        -11    1    3    3    0    0 -0.47775745354E+01  0.14230329773E+02  0.18762724136E+02  0.24028468973E+02  0.51100000000E-03 0.  1.
         12    1    3    3    0    0  0.12132618895E+01  0.23958749817E+02 -0.81773763510E+01  0.25344884715E+02  0.00000000000E+00 0. -1.
</event>
<event>
 7    1  0.6316620E-012  0.5930193E+02  0.7816164E-02  0.1266605E+00
        -11   -1    0    0    0    0  0.00000000000E+00  0.00000000000E+00  0.45593999997E+02  0.45594000000E+02  0.51100000000E-03 0. -1.
         11   -1    0    0    0    0 -0.00000000000E+00 -0.00000000000E+00 -0.45593999997E+02  0.45594000000E+02  0.51100000000E-03 0.  1.
    9900012    2    1    2    0    0  0.31224172599E+02  0.53448653630E+01 -0.36338429821E+01  0.59301931647E+02  0.49999977420E+02 0.  0.
         12    1    1    2    0    0 -0.31224172599E+02 -0.53448653630E+01  0.36338429821E+01  0.31886068353E+02  0.00000000000E+00 0. -1.
         11    1    3    3    0    0 -0.49771055056E+01  0.40491081222E+01  0.49072905318E+01  0.80776454753E+01  0.51100000000E-03 0. -1.
        -11    1    3    3    0    0  0.81149333950E+00 -0.12271474605E+02 -0.45519626178E+01  0.13113656026E+02  0.51100000000E-03 0.  1.
        -12    1    3    3    0    0  0.35389784765E+02  0.13567231846E+02 -0.39891708961E+01  0.38110630146E+02  0.00000000000E+00 0.  1.
</event>
<event>
 7    1  0.6316620E-012  0.5930193E+02  0.7816164E-02  0.1266605E+00
        -11   -1    0    0    0    0  0.00000000000E+00  0.00000000000E+00  0.45593999997E+02  0.45594000000E+02  0.51100000000E-03 0.  1.
         11   -1    0    0    0    0 -0.00000000000E+00 -0.00000000000E+00 -0.45593999997E+02  0.45594000000E+02  0.51100000000E-03 0. -1.
    9900012    2    1    2    0    0  0.35887630174E+01 -0.17606400011E+01  0.31634511855E+02  0.59301930729E+02  0.49999975747E+02 0.  0.
         12    1    1    2    0    0 -0.35887630174E+01  0.17606400011E+01 -0.31634511855E+02  0.31886069271E+02  0.00000000000E+00 0. -1.
         11    1    3    3    0    0 -0.54464274911E+01 -0.25683832137E+01  0.78032905813E+01  0.98565464999E+01  0.51100000000E-03 0. -1.
        -11    1    3    3    0    0  0.14571999683E+02 -0.63388954320E+01  0.32964228512E+02  0.36594605227E+02  0.51100000000E-03 0.  1.
         12    1    3    3    0    0 -0.55368091750E+01  0.71466386446E+01 -0.91330072378E+01  0.12850779002E+02  0.00000000000E+00 0. -1.
</event>
<event>
 7    1  0.6316620E-012  0.5930190E+02  0.7816164E-02  0.1266605E+00
        -11   -1    0    0    0    0  0.00000000000E+00  0.00000000000E+00  0.45593999997E+02  0.45594000000E+02  0.51100000000E-03 0. -1.
         11   -1    0    0    0    0 -0.00000000000E+00 -0.00000000000E+00 -0.45593999997E+02  0.45594000000E+02  0.51100000000E-03 0.  1.
    9900012    2    1    2    0    0  0.15526409244E+02 -0.27571896950E+02  0.39299459174E+01  0.59301900201E+02  0.49999920071E+02 0.  0.
         12    1    1    2    0    0 -0.15526409244E+02  0.27571896950E+02 -0.39299459174E+01  0.31886099799E+02  0.00000000000E+00 0. -1.
         11    1    3    3    0    0  0.65543504074E+01  0.46800335440E+01 -0.33505310717E+00  0.80606751629E+01  0.51100000000E-03 0. -1.
        -11    1    3    3    0    0  0.48904728826E+01 -0.15915288757E+02  0.21468585200E+02  0.27168240502E+02  0.51100000000E-03 0.  1.
         12    1    3    3    0    0  0.40815859544E+01 -0.16336641737E+02 -0.17203586176E+02  0.24072984536E+02  0.00000000000E+00 0. -1.
</event>
<event>
 7    1  0.6316620E-012  0.5930200E+02  0.7816164E-02  0.1266605E+00
        -11   -1    0    0    0    0  0.00000000000E+00  0.00000000000E+00  0.45593999997E+02  0.45594000000E+02  0.51100000000E-03 0.  1.
         11   -1    0    0    0    0 -0.00000000000E+00 -0.00000000000E+00 -0.45593999997E+02  0.45594000000E+02  0.51100000000E-03 0. -1.
    9900012    2    1    2    0    0  0.17748804100E+01  0.67340672716E+01  0.31116219398E+02  0.59302000375E+02  0.50000102763E+02 0.  0.
         12    1    1    2    0    0 -0.17748804100E+01 -0.67340672716E+01 -0.31116219398E+02  0.31885999625E+02  0.00000000000E+00 0. -1.
         11    1    3    3    0    0 -0.17382186028E+01  0.67710653801E+01  0.28529748137E+02  0.29373717152E+02  0.51100000000E-03 0. -1.
        -11    1    3    3    0    0  0.90478198519E+01  0.23981178403E+01  0.14099673219E+02  0.16923793853E+02  0.51100000000E-03 0.  1.
         12    1    3    3    0    0 -0.55347208391E+01 -0.24351159489E+01 -0.11513201958E+02  0.13004489370E+02  0.00000000000E+00 0. -1.
</event>
<event>
 7    1  0.6316620E-012  0.5930193E+02  0.7816164E-02  0.1266605E+00
        -11   -1    0    0    0    0  0.00000000000E+00  0.00000000000E+00  0.45593999997E+02  0.45594000000E+02  0.51100000000E-03 0.  1.
         11   -1    0    0    0    0 -0.00000000000E+00 -0.00000000000E+00 -0.45593999997E+02  0.45594000000E+02  0.51100000000E-03 0. -1.
    9900012    2    1    2    0    0  0.16602336467E+02  0.14987415915E+02  0.22725779354E+02  0.59301933149E+02  0.49999980160E+02 0.  0.
         12    1    1    2    0    0 -0.16602336467E+02 -0.14987415915E+02 -0.22725779354E+02  0.31886066851E+02  0.00000000000E+00 0. -1.
         11    1    3    3    0    0  0.19441265880E+02  0.26305239404E+02  0.21900713020E+02  0.39364573797E+02  0.51100000000E-03 0. -1.
        -11    1    3    3    0    0 -0.14338931927E+01  0.36785941401E+01  0.26648016433E+01  0.47633257914E+01  0.51100000000E-03 0.  1.
         12    1    3    3    0    0 -0.14050362196E+01 -0.14996417630E+02 -0.18397353095E+01  0.15174033561E+02  0.00000000000E+00 0. -1.
</event>
<event>
 7    1  0.6316620E-012  0.5930191E+02  0.7816164E-02  0.1266605E+00
        -11   -1    0    0    0    0  0.00000000000E+00  0.00000000000E+00  0.45593999997E+02  0.45594000000E+02  0.51100000000E-03 0. -1.
         11   -1    0    0    0    0 -0.00000000000E+00 -0.00000000000E+00 -0.45593999997E+02  0.45594000000E+02  0.51100000000E-03 0.  1.
    9900012    2    1    2    0    0 -0.30719284386E+02 -0.18138089728E+01 -0.83521525125E+01  0.59301909180E+02  0.49999936446E+02 0.  0.
         12    1    1    2    0    0  0.30719284386E+02  0.18138089728E+01  0.83521525125E+01  0.31886090820E+02  0.00000000000E+00 0. -1.
         11    1    3    3    0    0 -0.70343938448E+00 -0.38328452951E+01  0.45455643257E+01  0.59872936560E+01  0.51100000000E-03 0. -1.
        -11    1    3    3    0    0  0.10362692633E+01  0.15252258765E+02  0.36577698555E+01  0.15718922736E+02  0.51100000000E-03 0.  1.
        -12    1    3    3    0    0 -0.31052114265E+02 -0.13233222443E+02 -0.16555486694E+02  0.37595692788E+02  0.00000000000E+00 0.  1.
</event>
<event>
 7    1  0.6316620E-012  0.5930192E+02  0.7816164E-02  0.1266605E+00
        -11   -1    0    0    0    0  0.00000000000E+00  0.00000000000E+00  0.45593999997E+02  0.45594000000E+02  0.51100000000E-03 0.  1.
         11   -1    0    0    0    0 -0.00000000000E+00 -0.00000000000E+00 -0.45593999997E+02  0.45594000000E+02  0.51100000000E-03 0. -1.
    9900012    2    1    2    0    0  0.33737894546E+01  0.73901853205E+01  0.30833826020E+02  0.59301919630E+02  0.49999955504E+02 0.  0.
         12    1    1    2    0    0 -0.33737894546E+01 -0.73901853205E+01 -0.30833826020E+02  0.31886080370E+02  0.00000000000E+00 0. -1.
         11    1    3    3    0    0 -0.98861153991E+01  0.56398198873E+01  0.60247834518E+01  0.12877921492E+02  0.51100000000E-03 0. -1.
        -11    1    3    3    0    0  0.17902772844E+01  0.73357730211E+01  0.31238440311E+02  0.32138120852E+02  0.51100000000E-03 0.  1.
        -12    1    3    3    0    0  0.11469627569E+02 -0.55854075879E+01 -0.64293977431E+01  0.14285877286E+02  0.00000000000E+00 0.  1.
</event>
<event>
 7    1  0.6316620E-012  0.5930193E+02  0.7816164E-02  0.1266605E+00
        -11   -1    0    0    0    0  0.00000000000E+00  0.00000000000E+00  0.45593999997E+02  0.45594000000E+02  0.51100000000E-03 0.  1.
         11   -1    0    0    0    0 -0.00000000000E+00 -0.00000000000E+00 -0.45593999997E+02  0.45594000000E+02  0.51100000000E-03 0. -1.
    9900012    2    1    2    0    0  0.12813520243E+02  0.88105128717E+01  0.27837209492E+02  0.59301926702E+02  0.49999968402E+02 0.  0.
         12    1    1    2    0    0 -0.12813520243E+02 -0.88105128717E+01 -0.27837209492E+02  0.31886073298E+02  0.00000000000E+00 0. -1.
         11    1    3    3    0    0 -0.40280832015E+01  0.45428966985E+01 -0.40847080150E+01  0.73176638704E+01  0.51100000000E-03 0. -1.
        -11    1    3    3    0    0 -0.18345688410E+01  0.15069628382E+02  0.25140732638E+02  0.29368618971E+02  0.51100000000E-03 0.  1.
         12    1    3    3    0    0  0.18676172285E+02 -0.10802012209E+02  0.67811848687E+01  0.22615643860E+02  0.00000000000E+00 0. -1.
</event>
<event>
 7    1  0.6316620E-012  0.5930195E+02  0.7816164E-02  0.1266605E+00
        -11   -1    0    0    0    0  0.00000000000E+00  0.00000000000E+00  0.45593999997E+02  0.45594000000E+02  0.51100000000E-03 0. -1.
         11   -1    0    0    0    0 -0.00000000000E+00 -0.00000000000E+00 -0.45593999997E+02  0.45594000000E+02  0.51100000000E-03 0.  1.
    9900012    2    1    2    0    0  0.73364345035E+01  0.99806432830E+01 -0.29381694112E+02  0.59301945675E+02  0.50000003004E+02 0.  0.
         12    1    1    2    0    0 -0.73364345035E+01 -0.99806432830E+01  0.29381694112E+02  0.31886054325E+02  0.00000000000E+00 0. -1.
         11    1    3    3    0    0  0.21076557503E+01  0.92875210189E+01 -0.19835138031E+02  0.22003021620E+02  0.51100000000E-03 0. -1.
        -11    1    3    3    0    0 -0.81297619617E+01  0.58427524396E+01 -0.18054827800E+02  0.20644795779E+02  0.51100000000E-03 0.  1.
         12    1    3    3    0    0  0.13358540715E+02 -0.51496301756E+01  0.85082717189E+01  0.16654128276E+02  0.00000000000E+00 0. -1.
</event>
<event>
 7    1  0.6316620E-012  0.5930193E+02  0.7816164E-02  0.1266605E+00
        -11   -1    0    0    0    0  0.00000000000E+00  0.00000000000E+00  0.45593999997E+02  0.45594000000E+02  0.51100000000E-03 0. -1.
         11   -1    0    0    0    0 -0.00000000000E+00 -0.00000000000E+00 -0.45593999997E+02  0.45594000000E+02  0.51100000000E-03 0.  1.
    9900012    2    1    2    0    0 -0.12682980004E+02 -0.49249221342E+01 -0.28837620313E+02  0.59301934311E+02  0.49999982280E+02 0.  0.
         12    1    1    2    0    0  0.12682980004E+02  0.49249221342E+01  0.28837620313E+02  0.31886065689E+02  0.00000000000E+00 0. -1.
         11    1    3    3    0    0  0.29554987750E+01  0.10652734700E+02  0.14309316988E+01  0.11147344768E+02  0.51100000000E-03 0. -1.
        -11    1    3    3    0    0 -0.22289221747E+02 -0.16485422196E+02 -0.15103640874E+02  0.31570532447E+02  0.51100000000E-03 0.  1.
         12    1    3    3    0    0  0.66507429676E+01  0.90776536243E+00 -0.15164911137E+02  0.16584057097E+02  0.00000000000E+00 0. -1.
</event>
<event>
 7    1  0.6316620E-012  0.5930194E+02  0.7816164E-02  0.1266605E+00
        -11   -1    0    0    0    0  0.00000000000E+00  0.00000000000E+00  0.45593999997E+02  0.45594000000E+02  0.51100000000E-03 0.  1.
         11   -1    0    0    0    0 -0.00000000000E+00 -0.00000000000E+00 -0.45593999997E+02  0.45594000000E+02  0.51100000000E-03 0. -1.
    9900012    2    1    2    0    0 -0.35270979316E+01 -0.16119700452E+02  0.27284347666E+02  0.59301940506E+02  0.49999993578E+02 0.  0.
         12    1    1    2    0    0  0.35270979316E+01  0.16119700452E+02 -0.27284347666E+02  0.31886059494E+02  0.00000000000E+00 0. -1.
         11    1    3    3    0    0  0.55311355122E+01 -0.72411675179E+01 -0.36715511780E+01  0.98238615315E+01  0.51100000000E-03 0. -1.
        -11    1    3    3    0    0  0.12809451015E+02  0.17736851481E+01  0.48892136456E+01  0.13825064363E+02  0.51100000000E-03 0.  1.
         12    1    3    3    0    0 -0.21867684459E+02 -0.10652218082E+02  0.26066685198E+02  0.35653014612E+02  0.00000000000E+00 0. -1.
</event>
<event>
 7    1  0.6316620E-012  0.5930196E+02  0.7816164E-02  0.1266605E+00
        -11   -1    0    0    0    0  0.00000000000E+00  0.00000000000E+00  0.45593999997E+02  0.45594000000E+02  0.51100000000E-03 0.  1.
         11   -1    0    0    0    0 -0.00000000000E+00 -0.00000000000E+00 -0.45593999997E+02  0.45594000000E+02  0.51100000000E-03 0. -1.
    9900012    2    1    2    0    0  0.18587813073E+02  0.52167764968E+01  0.25377111749E+02  0.59301963047E+02  0.50000034687E+02 0.  0.
         12    1    1    2    0    0 -0.18587813073E+02 -0.52167764968E+01 -0.25377111749E+02  0.31886036953E+02  0.00000000000E+00 0. -1.
         11    1    3    3    0    0  0.23038238343E+01  0.12483787150E+02  0.64511599932E+00  0.12710968523E+02  0.51100000000E-03 0. -1.
        -11    1    3    3    0    0  0.82535632881E+01 -0.49520242726E+01 -0.81817937894E+01  0.12632719470E+02  0.51100000000E-03 0.  1.
        -12    1    3    3    0    0  0.80304259503E+01 -0.23149863807E+01  0.32913789539E+02  0.33958275054E+02  0.00000000000E+00 0.  1.
</event>
<event>
 7    1  0.6316620E-012  0.5930194E+02  0.7816164E-02  0.1266605E+00
        -11   -1    0    0    0    0  0.00000000000E+00  0.00000000000E+00  0.45593999997E+02  0.45594000000E+02  0.51100000000E-03 0.  1.
         11   -1    0    0    0    0 -0.00000000000E+00 -0.00000000000E+00 -0.45593999997E+02  0.45594000000E+02  0.51100000000E-03 0. -1.
    9900012    2    1    2    0    0  0.24216341852E+02 -0.43494830345E+01  0.20282290509E+02  0.59301944683E+02  0.50000001195E+02 0.  0.
         12    1    1    2    0    0 -0.24216341852E+02  0.43494830345E+01 -0.20282290509E+02  0.31886055317E+02  0.00000000000E+00 0. -1.
         11    1    3    3    0    0 -0.28085311474E+01 -0.41716989062E+01  0.38145153871E+01  0.63120081487E+01  0.51100000000E-03 0. -1.
        -11    1    3    3    0    0  0.16930082002E+02  0.35607291140E+01  0.30643636138E+02  0.35190039847E+02  0.51100000000E-03 0.  1.
         12    1    3    3    0    0  0.10094790997E+02 -0.37385132422E+01 -0.14175861016E+02  0.17799896687E+02  0.00000000000E+00 0. -1.
</event>
<event>
 7    1  0.6316620E-012  0.5930191E+02  0.7816164E-02  0.1266605E+00
        -11   -1    0    0    0    0  0.00000000000E+00  0.00000000000E+00  0.45593999997E+02  0.45594000000E+02  0.51100000000E-03 0.  1.
         11   -1    0    0    0    0 -0.00000000000E+00 -0.00000000000E+00 -0.45593999997E+02  0.45594000000E+02  0.51100000000E-03 0. -1.
    9900012    2    1    2    0    0 -0.15889768376E+02  0.15063698023E+02  0.23180233673E+02  0.59301906318E+02  0.49999931226E+02 0.  0.
         12    1    1    2    0    0  0.15889768376E+02 -0.15063698023E+02 -0.23180233673E+02  0.31886093682E+02  0.00000000000E+00 0. -1.
         11    1    3    3    0    0 -0.12320296966E+02 -0.13192912738E+01 -0.76227232262E+00  0.12414157488E+02  0.51100000000E-03 0. -1.
        -11    1    3    3    0    0 -0.19774878091E+02  0.86654656426E+01  0.17586447064E+02  0.27846350190E+02  0.51100000000E-03 0.  1.
        -12    1    3    3    0    0  0.16205406680E+02  0.77175236542E+01  0.63560589317E+01  0.19041398640E+02  0.00000000000E+00 0.  1.
</event>
<event>
 7    1  0.6316620E-012  0.5930193E+02  0.7816164E-02  0.1266605E+00
        -11   -1    0    0    0    0  0.00000000000E+00  0.00000000000E+00  0.45593999997E+02  0.45594000000E+02  0.51100000000E-03 0.  1.
         11   -1    0    0    0    0 -0.00000000000E+00 -0.00000000000E+00 -0.45593999997E+02  0.45594000000E+02  0.51100000000E-03 0. -1.
    9900012    2    1    2    0    0  0.16544218627E+02  0.45337931162E+01  0.26878527867E+02  0.59301926075E+02  0.49999967259E+02 0.  0.
         12    1    1    2    0    0 -0.16544218627E+02 -0.45337931162E+01 -0.26878527867E+02  0.31886073925E+02  0.00000000000E+00 0. -1.
         11    1    3    3    0    0 -0.29762467940E+01 -0.20072783654E+01  0.97545594325E+00  0.37200438134E+01  0.51100000000E-03 0. -1.
        -11    1    3    3    0    0  0.12959017564E+02 -0.13123583919E+02 -0.43101749069E+01  0.18940490994E+02  0.51100000000E-03 0.  1.
         12    1    3    3    0    0  0.65614478570E+01  0.19664655400E+02  0.30213246831E+02  0.36641391268E+02  0.00000000000E+00 0. -1.
</event>
<event>
 7    1  0.6316620E-012  0.5930195E+02  0.7816164E-02  0.1266605E+00
        -11   -1    0    0    0    0  0.00000000000E+00  0.00000000000E+00  0.45593999997E+02  0.45594000000E+02  0.51100000000E-03 0.  1.
         11   -1    0    0    0    0 -0.00000000000E+00 -0.00000000000E+00 -0.45593999997E+02  0.45594000000E+02  0.51100000000E-03 0. -1.
    9900012    2    1    2    0    0 -0.12865948613E+01  0.10430701556E+02  0.30104236548E+02  0.59301954158E+02  0.50000018476E+02 0.  0.
         12    1    1    2    0    0  0.12865948613E+01 -0.10430701556E+02 -0.30104236548E+02  0.31886045842E+02  0.00000000000E+00 0. -1.
         11    1    3    3    0    0 -0.63468699003E+01  0.18059629267E+02  0.15115119692E+02  0.24390568062E+02  0.51100000000E-03 0. -1.
        -11    1    3    3    0    0 -0.12577238212E+02 -0.30776962474E+01  0.88728079379E+01  0.15696682968E+02  0.51100000000E-03 0.  1.
        -12    1    3    3    0    0  0.17637513251E+02 -0.45512314641E+01  0.61163089175E+01  0.19214703128E+02  0.00000000000E+00 0.  1.
</event>
<event>
 7    1  0.6316620E-012  0.5930195E+02  0.7816164E-02  0.1266605E+00
        -11   -1    0    0    0    0  0.00000000000E+00  0.00000000000E+00  0.45593999997E+02  0.45594000000E+02  0.51100000000E-03 0. -1.
         11   -1    0    0    0    0 -0.00000000000E+00 -0.00000000000E+00 -0.45593999997E+02  0.45594000000E+02  0.51100000000E-03 0.  1.
    9900012    2    1    2    0    0  0.67698024757E+01  0.29351128584E+02 -0.10459508690E+02  0.59301948241E+02  0.50000007685E+02 0.  0.
         12    1    1    2    0    0 -0.67698024757E+01 -0.29351128584E+02  0.10459508690E+02  0.31886051759E+02  0.00000000000E+00 0. -1.
         11    1    3    3    0    0 -0.52324664631E+01  0.76369411639E+01 -0.34050750096E+01  0.98638791411E+01  0.51100000000E-03 0. -1.
        -11    1    3    3    0    0  0.13886092386E+02  0.10864601406E+02 -0.23663732856E+02  0.29509920000E+02  0.51100000000E-03 0.  1.
         12    1    3    3    0    0 -0.18838234470E+01  0.10849586014E+02  0.16609299176E+02  0.19928149100E+02  0.00000000000E+00 0. -1.
</event>
<event>
 7    1  0.6316620E-012  0.5930193E+02  0.7816164E-02  0.1266605E+00
        -11   -1    0    0    0    0  0.00000000000E+00  0.00000000000E+00  0.45593999997E+02  0.45594000000E+02  0.51100000000E-03 0.  1.
         11   -1    0    0    0    0 -0.00000000000E+00 -0.00000000000E+00 -0.45593999997E+02  0.45594000000E+02  0.51100000000E-03 0. -1.
    9900012    2    1    2    0    0  0.26165239885E+02 -0.80425414840E+01  0.16352947687E+02  0.59301934864E+02  0.49999983288E+02 0.  0.
         12    1    1    2    0    0 -0.26165239885E+02  0.80425414840E+01 -0.16352947687E+02  0.31886065136E+02  0.00000000000E+00 0. -1.
         11    1    3    3    0    0  0.10804607026E+02 -0.83228379199E+01 -0.24485615736E+01  0.13856573100E+02  0.51100000000E-03 0. -1.
        -11    1    3    3    0    0  0.13164627121E+02 -0.14119638598E+02  0.23245334617E+02  0.30216174197E+02  0.51100000000E-03 0.  1.
         12    1    3    3    0    0  0.21960057384E+01  0.14399935034E+02 -0.44438253557E+01  0.15229187568E+02  0.00000000000E+00 0. -1.
</event>
<event>
 7    1  0.6316620E-012  0.5930193E+02  0.7816164E-02  0.1266605E+00
        -11   -1    0    0    0    0  0.00000000000E+00  0.00000000000E+00  0.45593999997E+02  0.45594000000E+02  0.51100000000E-03 0.  1.
         11   -1    0    0    0    0 -0.00000000000E+00 -0.00000000000E+00 -0.45593999997E+02  0.45594000000E+02  0.51100000000E-03 0. -1.
    9900012    2    1    2    0    0  0.90955309814E+01  0.20030214383E+02  0.23082099078E+02  0.59301929845E+02  0.49999974135E+02 0.  0.
         12    1    1    2    0    0 -0.90955309814E+01 -0.20030214383E+02 -0.23082099078E+02  0.31886070155E+02  0.00000000000E+00 0. -1.
         11    1    3    3    0    0 -0.51873825032E+01 -0.60334083409E+01  0.40856653124E-01  0.79569229586E+01  0.51100000000E-03 0. -1.
        -11    1    3    3    0    0 -0.94858461204E+01  0.18301587431E+02  0.13176920826E+02  0.24465498602E+02  0.51100000000E-03 0.  1.
         12    1    3    3    0    0  0.23768759605E+02  0.77620352933E+01  0.98643215983E+01  0.26879508285E+02  0.00000000000E+00 0. -1.
</event>
<event>
 7    1  0.6316620E-012  0.5930191E+02  0.7816164E-02  0.1266605E+00
        -11   -1    0    0    0    0  0.00000000000E+00  0.00000000000E+00  0.45593999997E+02  0.45594000000E+02  0.51100000000E-03 0.  1.
         11   -1    0    0    0    0 -0.00000000000E+00 -0.00000000000E+00 -0.45593999997E+02  0.45594000000E+02  0.51100000000E-03 0. -1.
    9900012    2    1    2    0    0  0.28665394056E+02  0.13342338884E+02  0.41230928440E+01  0.59301910276E+02  0.49999938445E+02 0.  0.
         12    1    1    2    0    0 -0.28665394056E+02 -0.13342338884E+02 -0.41230928440E+01  0.31886089724E+02  0.00000000000E+00 0. -1.
         11    1    3    3    0    0  0.11474949166E+02 -0.11486369005E+02 -0.75641532382E+01  0.17911659492E+02  0.51100000000E-03 0. -1.
        -11    1    3    3    0    0  0.22194843759E+02  0.14568260511E+02  0.13576929235E+02  0.29819093070E+02  0.51100000000E-03 0.  1.
        -12    1    3    3    0    0 -0.50043988693E+01  0.10260447378E+02 -0.18896831527E+01  0.11571157715E+02  0.00000000000E+00 0.  1.
</event>
<event>
 7    1  0.6316620E-012  0.5930196E+02  0.7816164E-02  0.1266605E+00
        -11   -1    0    0    0    0  0.00000000000E+00  0.00000000000E+00  0.45593999997E+02  0.45594000000E+02  0.51100000000E-03 0. -1.
         11   -1    0    0    0    0 -0.00000000000E+00 -0.00000000000E+00 -0.45593999997E+02  0.45594000000E+02  0.51100000000E-03 0.  1.
    9900012    2    1    2    0    0  0.82439860511E+01  0.66045359872E+01 -0.30085486727E+02  0.59301957391E+02  0.50000024372E+02 0.  0.
         12    1    1    2    0    0 -0.82439860511E+01 -0.66045359872E+01  0.30085486727E+02  0.31886042609E+02  0.00000000000E+00 0. -1.
         11    1    3    3    0    0  0.21809198173E+02  0.36930694842E+01 -0.11784569601E+02  0.25063039882E+02  0.51100000000E-03 0. -1.
        -11    1    3    3    0    0  0.30587776462E+01  0.50858774622E+01 -0.16309157687E+02  0.17355428400E+02  0.51100000000E-03 0.  1.
         12    1    3    3    0    0 -0.16623989768E+02 -0.21744109591E+01 -0.19917594395E+01  0.16883489109E+02  0.00000000000E+00 0. -1.
</event>
<event>
 7    1  0.6316620E-012  0.5930213E+02  0.7816164E-02  0.1266604E+00
        -11   -1    0    0    0    0  0.00000000000E+00  0.00000000000E+00  0.45593999997E+02  0.45594000000E+02  0.51100000000E-03 0.  1.
         11   -1    0    0    0    0 -0.00000000000E+00 -0.00000000000E+00 -0.45593999997E+02  0.45594000000E+02  0.51100000000E-03 0. -1.
    9900012    2    1    2    0    0 -0.24113370796E+02  0.20299333658E+02 -0.48156821914E+01  0.59302134902E+02  0.50000348108E+02 0.  0.
         12    1    1    2    0    0  0.24113370796E+02 -0.20299333658E+02  0.48156821914E+01  0.31885865098E+02  0.00000000000E+00 0. -1.
         11    1    3    3    0    0 -0.11719455097E+02  0.20616828467E+01  0.87324574545E+00  0.11931417448E+02  0.51100000000E-03 0. -1.
        -11    1    3    3    0    0 -0.18145753110E+02  0.22977811972E+01  0.12774171136E+02  0.22309809565E+02  0.51100000000E-03 0.  1.
         12    1    3    3    0    0  0.57518374105E+01  0.15939869614E+02 -0.18463099073E+02  0.25060907890E+02  0.00000000000E+00 0. -1.
</event>
<event>
 7    1  0.6316620E-012  0.5930192E+02  0.7816164E-02  0.1266605E+00
        -11   -1    0    0    0    0  0.00000000000E+00  0.00000000000E+00  0.45593999997E+02  0.45594000000E+02  0.51100000000E-03 0.  1.
         11   -1    0    0    0    0 -0.00000000000E+00 -0.00000000000E+00 -0.45593999997E+02  0.45594000000E+02  0.51100000000E-03 0. -1.
    9900012    2    1    2    0    0 -0.14393336446E+02 -0.18357640435E+02  0.21738230953E+02  0.59301924962E+02  0.49999965228E+02 0.  0.
         12    1    1    2    0    0  0.14393336446E+02  0.18357640435E+02 -0.21738230953E+02  0.31886075038E+02  0.00000000000E+00 0. -1.
         11    1    3    3    0    0 -0.25265024660E+01  0.57848272978E+01  0.14582651551E+02  0.15890285337E+02  0.51100000000E-03 0. -1.
        -11    1    3    3    0    0 -0.13902147971E+02 -0.10715539937E+02  0.18656581156E+02  0.25615630679E+02  0.51100000000E-03 0.  1.
         12    1    3    3    0    0  0.20353139911E+01 -0.13426927795E+02 -0.11501001754E+02  0.17796008946E+02  0.00000000000E+00 0. -1.
</event>
<event>
 7    1  0.6316620E-012  0.5930194E+02  0.7816164E-02  0.1266605E+00
        -11   -1    0    0    0    0  0.00000000000E+00  0.00000000000E+00  0.45593999997E+02  0.45594000000E+02  0.51100000000E-03 0. -1.
         11   -1    0    0    0    0 -0.00000000000E+00 -0.00000000000E+00 -0.45593999997E+02  0.45594000000E+02  0.51100000000E-03 0.  1.
    9900012    2    1    2    0    0 -0.29762512961E+02  0.11438912246E+02  0.25421311449E+00  0.59301944812E+02  0.50000001431E+02 0.  0.
         12    1    1    2    0    0  0.29762512961E+02 -0.11438912246E+02 -0.25421311449E+00  0.31886055188E+02  0.00000000000E+00 0. -1.
         11    1    3    3    0    0  0.76995983626E+01  0.49715305137E+01 -0.72965671295E+01  0.11714940151E+02  0.51100000000E-03 0. -1.
        -11    1    3    3    0    0 -0.21930505968E+02  0.93840009086E+01 -0.82494887950E+01  0.25240060038E+02  0.51100000000E-03 0.  1.
         12    1    3    3    0    0 -0.15531605355E+02 -0.29166191758E+01  0.15800269039E+02  0.22346944624E+02  0.00000000000E+00 0. -1.
</event>
<event>
 7    1  0.6316620E-012  0.5930193E+02  0.7816164E-02  0.1266605E+00
        -11   -1    0    0    0    0  0.00000000000E+00  0.00000000000E+00  0.45593999997E+02  0.45594000000E+02  0.51100000000E-03 0.  1.
         11   -1    0    0    0    0 -0.00000000000E+00 -0.00000000000E+00 -0.45593999997E+02  0.45594000000E+02  0.51100000000E-03 0. -1.
    9900012    2    1    2    0    0  0.18396833605E+02  0.10499645655E+02  0.23833487260E+02  0.59301934696E+02  0.49999982982E+02 0.  0.
         12    1    1    2    0    0 -0.18396833605E+02 -0.10499645655E+02 -0.23833487260E+02  0.31886065304E+02  0.00000000000E+00 0. -1.
         11    1    3    3    0    0  0.54620190405E+01 -0.11456526885E+02 -0.29046540345E+01  0.13020087388E+02  0.51100000000E-03 0. -1.
        -11    1    3    3    0    0  0.59028274453E+01  0.84117840253E+00 -0.48190685709E+01  0.76664447501E+01  0.51100000000E-03 0.  1.
        -12    1    3    3    0    0  0.70319871188E+01  0.21114994137E+02  0.31557209866E+02  0.38615402559E+02  0.00000000000E+00 0.  1.
</event>
<event>
 7    1  0.6316620E-012  0.5930194E+02  0.7816164E-02  0.1266605E+00
        -11   -1    0    0    0    0  0.00000000000E+00  0.00000000000E+00  0.45593999997E+02  0.45594000000E+02  0.51100000000E-03 0.  1.
         11   -1    0    0    0    0 -0.00000000000E+00 -0.00000000000E+00 -0.45593999997E+02  0.45594000000E+02  0.51100000000E-03 0. -1.
    9900012    2    1    2    0    0 -0.18371654054E+02  0.20810209623E+02  0.15688786314E+02  0.59301944847E+02  0.50000001494E+02 0.  0.
         12    1    1    2    0    0  0.18371654054E+02 -0.20810209623E+02 -0.15688786314E+02  0.31886055153E+02  0.00000000000E+00 0. -1.
         11    1    3    3    0    0  0.65315683479E+01  0.99212857483E+01  0.61565596121E+01  0.13378958199E+02  0.51100000000E-03 0. -1.
        -11    1    3    3    0    0 -0.70555139493E+01  0.20328226014E+02  0.13423168631E+02  0.25361358527E+02  0.51100000000E-03 0.  1.
        -12    1    3    3    0    0 -0.17847708453E+02 -0.94393021393E+01 -0.38909419293E+01  0.20561628121E+02  0.00000000000E+00 0.  1.
</event>
<event>
 7    1  0.6316620E-012  0.5930195E+02  0.7816164E-02  0.1266605E+00
        -11   -1    0    0    0    0  0.00000000000E+00  0.00000000000E+00  0.45593999997E+02  0.45594000000E+02  0.51100000000E-03 0. -1.
         11   -1    0    0    0    0 -0.00000000000E+00 -0.00000000000E+00 -0.45593999997E+02  0.45594000000E+02  0.51100000000E-03 0.  1.
    9900012    2    1    2    0    0  0.21851908732E+02 -0.20181296794E+02  0.11486068750E+02  0.59301946139E+02  0.50000003850E+02 0.  0.
         12    1    1    2    0    0 -0.21851908732E+02  0.20181296794E+02 -0.11486068750E+02  0.31886053861E+02  0.00000000000E+00 0. -1.
         11    1    3    3    0    0  0.51736302302E+01 -0.45050114968E+01  0.11156517002E+02  0.13096925220E+02  0.51100000000E-03 0. -1.
        -11    1    3    3    0    0  0.11674159482E+02  0.12201064357E+02 -0.44942057919E+01  0.17474262703E+02  0.51100000000E-03 0.  1.
         12    1    3    3    0    0  0.50041190203E+01 -0.27877349653E+02  0.48237575401E+01  0.28730758216E+02  0.00000000000E+00 0. -1.
</event>
<event>
 7    1  0.6316620E-012  0.5930196E+02  0.7816164E-02  0.1266605E+00
        -11   -1    0    0    0    0  0.00000000000E+00  0.00000000000E+00  0.45593999997E+02  0.45594000000E+02  0.51100000000E-03 0.  1.
         11   -1    0    0    0    0 -0.00000000000E+00 -0.00000000000E+00 -0.45593999997E+02  0.45594000000E+02  0.51100000000E-03 0. -1.
    9900012    2    1    2    0    0  0.22038653016E+02 -0.20326995190E+02  0.10854990605E+02  0.59301956325E+02  0.50000022427E+02 0.  0.
         12    1    1    2    0    0 -0.22038653016E+02  0.20326995190E+02 -0.10854990605E+02  0.31886043675E+02  0.00000000000E+00 0. -1.
         11    1    3    3    0    0  0.22224924175E+02 -0.31585501910E+02  0.66122004847E+01  0.39183062425E+02  0.51100000000E-03 0. -1.
        -11    1    3    3    0    0 -0.81679467753E+00 -0.14027226636E+01 -0.44573424930E+01  0.47436996930E+01  0.51100000000E-03 0.  1.
        -12    1    3    3    0    0  0.63052351811E+00  0.12661229383E+02  0.87001326131E+01  0.15375194206E+02  0.00000000000E+00 0.  1.
</event>
<event>
 7    1  0.6316620E-012  0.5930193E+02  0.7816164E-02  0.1266605E+00
        -11   -1    0    0    0    0  0.00000000000E+00  0.00000000000E+00  0.45593999997E+02  0.45594000000E+02  0.51100000000E-03 0. -1.
         11   -1    0    0    0    0 -0.00000000000E+00 -0.00000000000E+00 -0.45593999997E+02  0.45594000000E+02  0.51100000000E-03 0.  1.
    9900012    2    1    2    0    0 -0.21736848314E+02  0.23092035456E+02 -0.33149775694E+01  0.59301925416E+02  0.49999966056E+02 0.  0.
         12    1    1    2    0    0  0.21736848314E+02 -0.23092035456E+02  0.33149775694E+01  0.31886074584E+02  0.00000000000E+00 0. -1.
         11    1    3    3    0    0 -0.11716068874E+02  0.18426123954E+02 -0.31626551976E+01  0.22063333882E+02  0.51100000000E-03 0. -1.
        -11    1    3    3    0    0 -0.18079117438E+02 -0.73693238961E+01 -0.76019426019E+01  0.20951156379E+02  0.51100000000E-03 0.  1.
         12    1    3    3    0    0  0.80583379975E+01  0.12035235397E+02  0.74496202301E+01  0.16287435155E+02  0.00000000000E+00 0. -1.
</event>
<event>
 7    1  0.6316620E-012  0.5930193E+02  0.7816164E-02  0.1266605E+00
        -11   -1    0    0    0    0  0.00000000000E+00  0.00000000000E+00  0.45593999997E+02  0.45594000000E+02  0.51100000000E-03 0.  1.
         11   -1    0    0    0    0 -0.00000000000E+00 -0.00000000000E+00 -0.45593999997E+02  0.45594000000E+02  0.51100000000E-03 0. -1.
    9900012    2    1    2    0    0  0.11255417412E+02 -0.14332035501E+02  0.26165425538E+02  0.59301934762E+02  0.49999983102E+02 0.  0.
         12    1    1    2    0    0 -0.11255417412E+02  0.14332035501E+02 -0.26165425538E+02  0.31886065238E+02  0.00000000000E+00 0. -1.
         11    1    3    3    0    0 -0.35771291846E+01 -0.13122744716E+01 -0.10014890276E+01  0.39396570949E+01  0.51100000000E-03 0. -1.
        -11    1    3    3    0    0 -0.41734444899E+00 -0.15744668181E+02  0.34721636343E+02  0.38126903665E+02  0.51100000000E-03 0.  1.
         12    1    3    3    0    0  0.15249891045E+02  0.27249071507E+01 -0.75547217770E+01  0.17235374002E+02  0.00000000000E+00 0. -1.
</event>
<event>
 7    1  0.6316620E-012  0.5930196E+02  0.7816164E-02  0.1266605E+00
        -11   -1    0    0    0    0  0.00000000000E+00  0.00000000000E+00  0.45593999997E+02  0.45594000000E+02  0.51100000000E-03 0. -1.
         11   -1    0    0    0    0 -0.00000000000E+00 -0.00000000000E+00 -0.45593999997E+02  0.45594000000E+02  0.51100000000E-03 0.  1.
    9900012    2    1    2    0    0  0.24144421578E+01  0.31756534805E+02 -0.15532770522E+01  0.59301957546E+02  0.50000024654E+02 0.  0.
         12    1    1    2    0    0 -0.24144421578E+01 -0.31756534805E+02  0.15532770522E+01  0.31886042454E+02  0.00000000000E+00 0. -1.
         11    1    3    3    0    0  0.16815658281E+02  0.17171091486E+02  0.14758567852E+02  0.28203334405E+02  0.51100000000E-03 0. -1.
        -11    1    3    3    0    0 -0.63823667222E+00 -0.33540301826E+01 -0.37257561231E+00  0.34344835658E+01  0.51100000000E-03 0.  1.
        -12    1    3    3    0    0 -0.13762979451E+02  0.17939473501E+02 -0.15939269292E+02  0.27664139575E+02  0.00000000000E+00 0.  1.
</event>
<event>
 7    1  0.6316620E-012  0.5930194E+02  0.7816164E-02  0.1266605E+00
        -11   -1    0    0    0    0  0.00000000000E+00  0.00000000000E+00  0.45593999997E+02  0.45594000000E+02  0.51100000000E-03 0. -1.
         11   -1    0    0    0    0 -0.00000000000E+00 -0.00000000000E+00 -0.45593999997E+02  0.45594000000E+02  0.51100000000E-03 0.  1.
    9900012    2    1    2    0    0 -0.22694953434E+02  0.22190179212E+02  0.30422976146E+01  0.59301944433E+02  0.50000000739E+02 0.  0.
         12    1    1    2    0    0  0.22694953434E+02 -0.22190179212E+02 -0.30422976146E+01  0.31886055567E+02  0.00000000000E+00 0. -1.
         11    1    3    3    0    0  0.77330008682E+01  0.11582842319E+02 -0.96037932469E+01  0.16917280621E+02  0.51100000000E-03 0. -1.
        -11    1    3    3    0    0  0.36484510514E+01 -0.19413146641E+01  0.10412549630E+01  0.42619373363E+01  0.51100000000E-03 0.  1.
         12    1    3    3    0    0 -0.34076405354E+02  0.12548651557E+02  0.11604835899E+02  0.38122726476E+02  0.00000000000E+00 0. -1.
</event>
<event>
 7    1  0.6316620E-012  0.5930194E+02  0.7816164E-02  0.1266605E+00
        -11   -1    0    0    0    0  0.00000000000E+00  0.00000000000E+00  0.45593999997E+02  0.45594000000E+02  0.51100000000E-03 0.  1.
         11   -1    0    0    0    0 -0.00000000000E+00 -0.00000000000E+00 -0.45593999997E+02  0.45594000000E+02  0.51100000000E-03 0. -1.
    9900012    2    1    2    0    0 -0.19868640702E+02  0.11220999789E+02  0.22272110988E+02  0.59301942742E+02  0.49999997655E+02 0.  0.
         12    1    1    2    0    0  0.19868640702E+02 -0.11220999789E+02 -0.22272110988E+02  0.31886057258E+02  0.00000000000E+00 0. -1.
         11    1    3    3    0    0 -0.20307918147E+01 -0.44271229876E+01 -0.53454342528E+01  0.72316803687E+01  0.51100000000E-03 0. -1.
        -11    1    3    3    0    0 -0.11563501146E+02  0.23420883575E+02  0.39965744062E+01  0.26423946591E+02  0.51100000000E-03 0.  1.
         12    1    3    3    0    0 -0.62743477414E+01 -0.77727607990E+01  0.23620970835E+02  0.25646315782E+02  0.00000000000E+00 0. -1.
</event>
<event>
 7    1  0.6316620E-012  0.5930193E+02  0.7816164E-02  0.1266605E+00
        -11   -1    0    0    0    0  0.00000000000E+00  0.00000000000E+00  0.45593999997E+02  0.45594000000E+02  0.51100000000E-03 0. -1.
         11   -1    0    0    0    0 -0.00000000000E+00 -0.00000000000E+00 -0.45593999997E+02  0.45594000000E+02  0.51100000000E-03 0.  1.
    9900012    2    1    2    0    0 -0.64523587496E+01  0.42740279139E+00 -0.31223480681E+02  0.59301931687E+02  0.49999977494E+02 0.  0.
         12    1    1    2    0    0  0.64523587496E+01 -0.42740279139E+00  0.31223480681E+02  0.31886068313E+02  0.00000000000E+00 0. -1.
         11    1    3    3    0    0  0.60703850625E+00  0.10326205809E+02 -0.19841600534E+01  0.10532611904E+02  0.51100000000E-03 0. -1.
        -11    1    3    3    0    0  0.11690651380E+02  0.43865226379E+01 -0.19735000324E+02  0.23353439760E+02  0.51100000000E-03 0.  1.
         12    1    3    3    0    0 -0.18750048636E+02 -0.14285325655E+02 -0.95043203035E+01  0.25415880023E+02  0.00000000000E+00 0. -1.
</event>
<event>
 7    1  0.6316620E-012  0.5930195E+02  0.7816164E-02  0.1266605E+00
        -11   -1    0    0    0    0  0.00000000000E+00  0.00000000000E+00  0.45593999997E+02  0.45594000000E+02  0.51100000000E-03 0. -1.
         11   -1    0    0    0    0 -0.00000000000E+00 -0.00000000000E+00 -0.45593999997E+02  0.45594000000E+02  0.51100000000E-03 0.  1.
    9900012    2    1    2    0    0  0.16206414163E+02  0.19544132631E+02  0.19289869799E+02  0.59301951998E+02  0.50000014536E+02 0.  0.
         12    1    1    2    0    0 -0.16206414163E+02 -0.19544132631E+02 -0.19289869799E+02  0.31886048002E+02  0.00000000000E+00 0. -1.
         11    1    3    3    0    0 -0.42272352981E+01  0.56190947033E+01  0.96664816196E+01  0.11953435101E+02  0.51100000000E-03 0. -1.
        -11    1    3    3    0    0  0.25525002757E+02  0.15786282891E+02  0.19704288851E+02  0.35902527663E+02  0.51100000000E-03 0.  1.
         12    1    3    3    0    0 -0.50913532958E+01 -0.18612449635E+01 -0.10080900671E+02  0.11445989234E+02  0.00000000000E+00 0. -1.
</event>
<event>
 7    1  0.6316620E-012  0.5930195E+02  0.7816164E-02  0.1266605E+00
        -11   -1    0    0    0    0  0.00000000000E+00  0.00000000000E+00  0.45593999997E+02  0.45594000000E+02  0.51100000000E-03 0. -1.
         11   -1    0    0    0    0 -0.00000000000E+00 -0.00000000000E+00 -0.45593999997E+02  0.45594000000E+02  0.51100000000E-03 0.  1.
    9900012    2    1    2    0    0  0.31358650314E+02 -0.53150388244E+01 -0.22596175157E+01  0.59301945705E+02  0.50000003058E+02 0.  0.
         12    1    1    2    0    0 -0.31358650314E+02  0.53150388244E+01  0.22596175157E+01  0.31886054295E+02  0.00000000000E+00 0. -1.
         11    1    3    3    0    0  0.20550201993E+02 -0.12418449832E+02 -0.11552256957E+01  0.24038786260E+02  0.51100000000E-03 0.  1.
        -11    1    3    3    0    0 -0.32567284276E+01 -0.27645388480E+01  0.12587941590E+02  0.13293051900E+02  0.51100000000E-03 0. -1.
         12    1    3    3    0    0  0.14065176748E+02  0.98679498556E+01 -0.13692333410E+02  0.21970107544E+02  0.00000000000E+00 0. -1.
</event>
<event>
 7    1  0.6316620E-012  0.5930183E+02  0.7816164E-02  0.1266605E+00
        -11   -1    0    0    0    0  0.00000000000E+00  0.00000000000E+00  0.45593999997E+02  0.45594000000E+02  0.51100000000E-03 0.  1.
         11   -1    0    0    0    0 -0.00000000000E+00 -0.00000000000E+00 -0.45593999997E+02  0.45594000000E+02  0.51100000000E-03 0. -1.
    9900012    2    1    2    0    0  0.18044475704E+02  0.26283360174E+02 -0.55635182398E+00  0.59301832893E+02  0.49999797316E+02 0.  0.
         12    1    1    2    0    0 -0.18044475704E+02 -0.26283360174E+02  0.55635182398E+00  0.31886167107E+02  0.00000000000E+00 0. -1.
         11    1    3    3    0    0 -0.91833730929E+01 -0.44332878493E+00 -0.21784954397E+01  0.94486361141E+01  0.51100000000E-03 0. -1.
        -11    1    3    3    0    0  0.26227080093E+00 -0.59163265972E+01 -0.39923596822E+01  0.71421735117E+01  0.51100000000E-03 0.  1.
        -12    1    3    3    0    0  0.26965577996E+02  0.32643015556E+02  0.56145032979E+01  0.42711023267E+02  0.00000000000E+00 0.  1.
</event>
<event>
 7    1  0.6316620E-012  0.5930197E+02  0.7816164E-02  0.1266605E+00
        -11   -1    0    0    0    0  0.00000000000E+00  0.00000000000E+00  0.45593999997E+02  0.45594000000E+02  0.51100000000E-03 0.  1.
         11   -1    0    0    0    0 -0.00000000000E+00 -0.00000000000E+00 -0.45593999997E+02  0.45594000000E+02  0.51100000000E-03 0. -1.
    9900012    2    1    2    0    0 -0.59061998008E+01  0.24064607199E+02  0.20068149623E+02  0.59301966301E+02  0.50000040622E+02 0.  0.
         12    1    1    2    0    0  0.59061998008E+01 -0.24064607199E+02 -0.20068149623E+02  0.31886033699E+02  0.00000000000E+00 0. -1.
         11    1    3    3    0    0  0.42907017684E+01 -0.79973875349E+01  0.25511472908E+01  0.94274430154E+01  0.51100000000E-03 0.  1.
        -11    1    3    3    0    0 -0.21491400676E+02  0.23370087844E+02  0.15967360835E+02  0.35538682040E+02  0.51100000000E-03 0. -1.
         12    1    3    3    0    0  0.11294499106E+02  0.86919068907E+01  0.15496414967E+01  0.14335841246E+02  0.00000000000E+00 0. -1.
</event>
<event>
 7    1  0.6316620E-012  0.5930201E+02  0.7816164E-02  0.1266605E+00
        -11   -1    0    0    0    0  0.00000000000E+00  0.00000000000E+00  0.45593999997E+02  0.45594000000E+02  0.51100000000E-03 0. -1.
         11   -1    0    0    0    0 -0.00000000000E+00 -0.00000000000E+00 -0.45593999997E+02  0.45594000000E+02  0.51100000000E-03 0.  1.
    9900012    2    1    2    0    0  0.22465283081E+02  0.57613699283E+01 -0.21882273726E+02  0.59302012000E+02  0.50000123965E+02 0.  0.
         12    1    1    2    0    0 -0.22465283081E+02 -0.57613699283E+01  0.21882273726E+02  0.31885988000E+02  0.00000000000E+00 0. -1.
         11    1    3    3    0    0  0.49589990857E+01 -0.70553677616E+01 -0.11166852751E+02  0.14109163222E+02  0.51100000000E-03 0. -1.
        -11    1    3    3    0    0  0.26218342799E+02  0.71120468167E+00  0.96972648026E+00  0.26245907889E+02  0.51100000000E-03 0.  1.
         12    1    3    3    0    0 -0.87120588040E+01  0.12105533008E+02 -0.11685147455E+02  0.18946940889E+02  0.00000000000E+00 0. -1.
</event>
<event>
 7    1  0.6316620E-012  0.5930215E+02  0.7816164E-02  0.1266604E+00
        -11   -1    0    0    0    0  0.00000000000E+00  0.00000000000E+00  0.45593999997E+02  0.45594000000E+02  0.51100000000E-03 0.  1.
         11   -1    0    0    0    0 -0.00000000000E+00 -0.00000000000E+00 -0.45593999997E+02  0.45594000000E+02  0.51100000000E-03 0. -1.
    9900012    2    1    2    0    0 -0.17739128909E+02 -0.22343418043E+02 -0.14240861939E+02  0.59302154032E+02  0.50000382997E+02 0.  0.
         12    1    1    2    0    0  0.17739128909E+02  0.22343418043E+02  0.14240861939E+02  0.31885845968E+02  0.00000000000E+00 0. -1.
         11    1    3    3    0    0 -0.91932633745E+01  0.33334834143E+01 -0.23749820715E+02  0.25684278993E+02  0.51100000000E-03 0. -1.
        -11    1    3    3    0    0  0.37337648177E+01  0.10379575784E-01  0.57624837371E+00  0.37779848992E+01  0.51100000000E-03 0.  1.
        -12    1    3    3    0    0 -0.12279630352E+02 -0.25687281033E+02  0.89327104014E+01  0.29839890140E+02  0.00000000000E+00 0.  1.
</event>
<event>
 7    1  0.6316620E-012  0.5930194E+02  0.7816164E-02  0.1266605E+00
        -11   -1    0    0    0    0  0.00000000000E+00  0.00000000000E+00  0.45593999997E+02  0.45594000000E+02  0.51100000000E-03 0.  1.
         11   -1    0    0    0    0 -0.00000000000E+00 -0.00000000000E+00 -0.45593999997E+02  0.45594000000E+02  0.51100000000E-03 0. -1.
    9900012    2    1    2    0    0 -0.25125431171E+02  0.18183875136E+02  0.74013726564E+01  0.59301938411E+02  0.49999989756E+02 0.  0.
         12    1    1    2    0    0  0.25125431171E+02 -0.18183875136E+02 -0.74013726564E+01  0.31886061589E+02  0.00000000000E+00 0. -1.
         11    1    3    3    0    0 -0.68464196776E+01  0.11323855049E+02 -0.11332186591E+02  0.17421871564E+02  0.51100000000E-03 0. -1.
        -11    1    3    3    0    0 -0.14992772477E+01 -0.32513224489E+01 -0.79837544192E+01  0.87498151306E+01  0.51100000000E-03 0.  1.
        -12    1    3    3    0    0 -0.16779734245E+02  0.10111342536E+02  0.26717313667E+02  0.33130251716E+02  0.00000000000E+00 0.  1.
</event>
<event>
 7    1  0.6316620E-012  0.5930197E+02  0.7816164E-02  0.1266605E+00
        -11   -1    0    0    0    0  0.00000000000E+00  0.00000000000E+00  0.45593999997E+02  0.45594000000E+02  0.51100000000E-03 0.  1.
         11   -1    0    0    0    0 -0.00000000000E+00 -0.00000000000E+00 -0.45593999997E+02  0.45594000000E+02  0.51100000000E-03 0. -1.
    9900012    2    1    2    0    0  0.15154300740E+02 -0.14844043819E+01  0.28015401805E+02  0.59301968174E+02  0.50000044038E+02 0.  0.
         12    1    1    2    0    0 -0.15154300740E+02  0.14844043819E+01 -0.28015401805E+02  0.31886031826E+02  0.00000000000E+00 0. -1.
         11    1    3    3    0    0  0.15614559170E+02 -0.33497435312E+01 -0.15774877173E+01  0.16047545219E+02  0.51100000000E-03 0. -1.
        -11    1    3    3    0    0  0.32564966652E+01  0.39170763873E+01 -0.57359932120E+01  0.76713673060E+01  0.51100000000E-03 0.  1.
        -12    1    3    3    0    0 -0.37167550947E+01 -0.20517372380E+01  0.35328882734E+02  0.35583055650E+02  0.00000000000E+00 0.  1.
</event>
<event>
 7    1  0.6316620E-012  0.5930197E+02  0.7816164E-02  0.1266605E+00
        -11   -1    0    0    0    0  0.00000000000E+00  0.00000000000E+00  0.45593999997E+02  0.45594000000E+02  0.51100000000E-03 0.  1.
         11   -1    0    0    0    0 -0.00000000000E+00 -0.00000000000E+00 -0.45593999997E+02  0.45594000000E+02  0.51100000000E-03 0. -1.
    9900012    2    1    2    0    0 -0.20962285579E+02  0.42122434778E+01  0.23654991150E+02  0.59301968292E+02  0.50000044251E+02 0.  0.
         12    1    1    2    0    0  0.20962285579E+02 -0.42122434778E+01 -0.23654991150E+02  0.31886031708E+02  0.00000000000E+00 0. -1.
         11    1    3    3    0    0 -0.31067635077E+02  0.15793232986E+02  0.13983643858E+02  0.37552183069E+02  0.51100000000E-03 0. -1.
        -11    1    3    3    0    0 -0.95172667256E+00 -0.61302140920E+01  0.20526017539E+00  0.62070476455E+01  0.51100000000E-03 0.  1.
        -12    1    3    3    0    0  0.11057076171E+02 -0.54507754165E+01  0.94660871167E+01  0.15542737577E+02  0.00000000000E+00 0.  1.
</event>
<event>
 7    1  0.6316620E-012  0.5930195E+02  0.7816164E-02  0.1266605E+00
        -11   -1    0    0    0    0  0.00000000000E+00  0.00000000000E+00  0.45593999997E+02  0.45594000000E+02  0.51100000000E-03 0.  1.
         11   -1    0    0    0    0 -0.00000000000E+00 -0.00000000000E+00 -0.45593999997E+02  0.45594000000E+02  0.51100000000E-03 0. -1.
    9900012    2    1    2    0    0  0.16619333045E+02 -0.26174404257E+02  0.74443474945E+01  0.59301953229E+02  0.50000016781E+02 0.  0.
         12    1    1    2    0    0 -0.16619333045E+02  0.26174404257E+02 -0.74443474945E+01  0.31886046771E+02  0.00000000000E+00 0. -1.
         11    1    3    3    0    0  0.28969931809E+01  0.98536404572E+01  0.20688963889E+01  0.10476981067E+02  0.51100000000E-03 0. -1.
        -11    1    3    3    0    0  0.14485936431E+02 -0.19658640283E+02  0.16091980416E+02  0.29244765789E+02  0.51100000000E-03 0.  1.
         12    1    3    3    0    0 -0.76359656718E+00 -0.16369404431E+02 -0.10716529311E+02  0.19580206373E+02  0.00000000000E+00 0. -1.
</event>
<event>
 7    1  0.6316620E-012  0.5930195E+02  0.7816164E-02  0.1266605E+00
        -11   -1    0    0    0    0  0.00000000000E+00  0.00000000000E+00  0.45593999997E+02  0.45594000000E+02  0.51100000000E-03 0.  1.
         11   -1    0    0    0    0 -0.00000000000E+00 -0.00000000000E+00 -0.45593999997E+02  0.45594000000E+02  0.51100000000E-03 0. -1.
    9900012    2    1    2    0    0 -0.19509151028E+02 -0.84209021951E+01  0.23773965557E+02  0.59301952802E+02  0.50000016002E+02 0.  0.
         12    1    1    2    0    0  0.19509151028E+02  0.84209021951E+01 -0.23773965557E+02  0.31886047198E+02  0.00000000000E+00 0. -1.
         11    1    3    3    0    0 -0.33804398343E+02  0.19884721065E+01  0.17490699606E+02  0.38113199047E+02  0.51100000000E-03 0. -1.
        -11    1    3    3    0    0  0.84317567419E+01 -0.49929986758E+01 -0.16471480442E+01  0.99366822668E+01  0.51100000000E-03 0.  1.
        -12    1    3    3    0    0  0.58634905732E+01 -0.54163756259E+01  0.79304139955E+01  0.11252071488E+02  0.00000000000E+00 0.  1.
</event>
<event>
 7    1  0.6316620E-012  0.5930194E+02  0.7816164E-02  0.1266605E+00
        -11   -1    0    0    0    0  0.00000000000E+00  0.00000000000E+00  0.45593999997E+02  0.45594000000E+02  0.51100000000E-03 0.  1.
         11   -1    0    0    0    0 -0.00000000000E+00 -0.00000000000E+00 -0.45593999997E+02  0.45594000000E+02  0.51100000000E-03 0. -1.
    9900012    2    1    2    0    0  0.90899007238E+01 -0.29288421243E+02  0.87340111983E+01  0.59301939320E+02  0.49999991415E+02 0.  0.
         12    1    1    2    0    0 -0.90899007238E+01  0.29288421243E+02 -0.87340111983E+01  0.31886060680E+02  0.00000000000E+00 0. -1.
         11    1    3    3    0    0 -0.95685580482E+01 -0.65673848141E+01  0.46747181641E+01  0.12511628055E+02  0.51100000000E-03 0. -1.
        -11    1    3    3    0    0  0.14155153540E+02 -0.12050415675E+02  0.19857682292E+02  0.27201257985E+02  0.51100000000E-03 0.  1.
        -12    1    3    3    0    0  0.45033052321E+01 -0.10670620753E+02 -0.15798389258E+02  0.19589053280E+02  0.00000000000E+00 0.  1.
</event>
<event>
 7    1  0.6316620E-012  0.5930194E+02  0.7816164E-02  0.1266605E+00
        -11   -1    0    0    0    0  0.00000000000E+00  0.00000000000E+00  0.45593999997E+02  0.45594000000E+02  0.51100000000E-03 0.  1.
         11   -1    0    0    0    0 -0.00000000000E+00 -0.00000000000E+00 -0.45593999997E+02  0.45594000000E+02  0.51100000000E-03 0. -1.
    9900012    2    1    2    0    0 -0.33865914699E+01 -0.30784514486E+02 -0.75871795763E+01  0.59301943050E+02  0.49999998216E+02 0.  0.
         12    1    1    2    0    0  0.33865914699E+01  0.30784514486E+02  0.75871795763E+01  0.31886056950E+02  0.00000000000E+00 0. -1.
         11    1    3    3    0    0  0.11780474849E+02 -0.12643140952E+02 -0.10625111485E+01  0.17313507183E+02  0.51100000000E-03 0. -1.
        -11    1    3    3    0    0  0.73387671041E+01 -0.16133273219E+02  0.20045386043E+01  0.17836989170E+02  0.51100000000E-03 0.  1.
         12    1    3    3    0    0 -0.22505833423E+02 -0.20081003157E+01 -0.85292070321E+01  0.24151446697E+02  0.00000000000E+00 0. -1.
</event>
<event>
 7    1  0.6316620E-012  0.5930195E+02  0.7816164E-02  0.1266605E+00
        -11   -1    0    0    0    0  0.00000000000E+00  0.00000000000E+00  0.45593999997E+02  0.45594000000E+02  0.51100000000E-03 0.  1.
         11   -1    0    0    0    0 -0.00000000000E+00 -0.00000000000E+00 -0.45593999997E+02  0.45594000000E+02  0.51100000000E-03 0. -1.
    9900012    2    1    2    0    0 -0.14785212476E+02 -0.18635648211E+02  0.21232767236E+02  0.59301948242E+02  0.50000007686E+02 0.  0.
         12    1    1    2    0    0  0.14785212476E+02  0.18635648211E+02 -0.21232767236E+02  0.31886051758E+02  0.00000000000E+00 0. -1.
         11    1    3    3    0    0 -0.12060693535E+01  0.50722542533E+01  0.55137184015E+01  0.75883764645E+01  0.51100000000E-03 0. -1.
        -11    1    3    3    0    0 -0.19763539767E+02  0.23631385643E+01  0.14975429482E+02  0.24908741767E+02  0.51100000000E-03 0.  1.
         12    1    3    3    0    0  0.61843966442E+01 -0.26071041028E+02  0.74361935285E+00  0.26804830011E+02  0.00000000000E+00 0. -1.
</event>
<event>
 7    1  0.6316620E-012  0.5930193E+02  0.7816164E-02  0.1266605E+00
        -11   -1    0    0    0    0  0.00000000000E+00  0.00000000000E+00  0.45593999997E+02  0.45594000000E+02  0.51100000000E-03 0.  1.
         11   -1    0    0    0    0 -0.00000000000E+00 -0.00000000000E+00 -0.45593999997E+02  0.45594000000E+02  0.51100000000E-03 0. -1.
    9900012    2    1    2    0    0  0.27797276349E+02 -0.23493604063E+01  0.15443888150E+02  0.59301925486E+02  0.49999966184E+02 0.  0.
         12    1    1    2    0    0 -0.27797276349E+02  0.23493604063E+01 -0.15443888150E+02  0.31886074514E+02  0.00000000000E+00 0. -1.
         11    1    3    3    0    0  0.11639479197E+02  0.81014811844E+01  0.13806449457E+02  0.19792158048E+02  0.51100000000E-03 0. -1.
        -11    1    3    3    0    0  0.19736685706E+02 -0.14804384429E+02  0.12210691529E+02  0.27528304503E+02  0.51100000000E-03 0.  1.
        -12    1    3    3    0    0 -0.35788885537E+01  0.43535428385E+01 -0.10573252835E+02  0.11981462934E+02  0.00000000000E+00 0.  1.
</event>
<event>
 7    1  0.6316620E-012  0.5930196E+02  0.7816164E-02  0.1266605E+00
        -11   -1    0    0    0    0  0.00000000000E+00  0.00000000000E+00  0.45593999997E+02  0.45594000000E+02  0.51100000000E-03 0.  1.
         11   -1    0    0    0    0 -0.00000000000E+00 -0.00000000000E+00 -0.45593999997E+02  0.45594000000E+02  0.51100000000E-03 0. -1.
    9900012    2    1    2    0    0 -0.88650145247E+01 -0.28292939080E+02  0.11732039611E+02  0.59301958575E+02  0.50000026531E+02 0.  0.
         12    1    1    2    0    0  0.88650145247E+01  0.28292939080E+02 -0.11732039611E+02  0.31886041425E+02  0.00000000000E+00 0. -1.
         11    1    3    3    0    0 -0.40966393257E+01 -0.48865681241E+01 -0.83516847876E+01  0.10507694364E+02  0.51100000000E-03 0. -1.
        -11    1    3    3    0    0 -0.13211231832E+01 -0.25195129570E+02 -0.29806450977E+01  0.25405199585E+02  0.51100000000E-03 0.  1.
        -12    1    3    3    0    0 -0.34472520158E+01  0.17887586140E+01  0.23064369496E+02  0.23389064626E+02  0.00000000000E+00 0.  1.
</event>
<event>
 7    1  0.6316620E-012  0.5930195E+02  0.7816164E-02  0.1266605E+00
        -11   -1    0    0    0    0  0.00000000000E+00  0.00000000000E+00  0.45593999997E+02  0.45594000000E+02  0.51100000000E-03 0.  1.
         11   -1    0    0    0    0 -0.00000000000E+00 -0.00000000000E+00 -0.45593999997E+02  0.45594000000E+02  0.51100000000E-03 0. -1.
    9900012    2    1    2    0    0 -0.79580000707E+01  0.27119496704E+02 -0.14762222175E+02  0.59301951795E+02  0.50000014166E+02 0.  0.
         12    1    1    2    0    0  0.79580000707E+01 -0.27119496704E+02  0.14762222175E+02  0.31886048205E+02  0.00000000000E+00 0. -1.
         11    1    3    3    0    0  0.13646429924E+01  0.56652287224E+01  0.94336232282E+01  0.11088296282E+02  0.51100000000E-03 0. -1.
        -11    1    3    3    0    0 -0.19917058995E+02  0.29237579220E+01 -0.92370671961E+01  0.22148611921E+02  0.51100000000E-03 0.  1.
         12    1    3    3    0    0  0.10594415931E+02  0.18530510060E+02 -0.14958778207E+02  0.26065043592E+02  0.00000000000E+00 0. -1.
</event>
<event>
 7    1  0.6316620E-012  0.5930192E+02  0.7816164E-02  0.1266605E+00
        -11   -1    0    0    0    0  0.00000000000E+00  0.00000000000E+00  0.45593999997E+02  0.45594000000E+02  0.51100000000E-03 0.  1.
         11   -1    0    0    0    0 -0.00000000000E+00 -0.00000000000E+00 -0.45593999997E+02  0.45594000000E+02  0.51100000000E-03 0. -1.
    9900012    2    1    2    0    0 -0.14970402816E+02  0.17595208624E+02  0.21977658554E+02  0.59301924630E+02  0.49999964623E+02 0.  0.
         12    1    1    2    0    0  0.14970402816E+02 -0.17595208624E+02 -0.21977658554E+02  0.31886075370E+02  0.00000000000E+00 0. -1.
         11    1    3    3    0    0  0.44448455968E+01 -0.63759851347E+00  0.56239991401E+01  0.71967041646E+01  0.51100000000E-03 0. -1.
        -11    1    3    3    0    0 -0.71236184133E+00  0.15105767445E+02  0.26565212758E+02  0.30567993043E+02  0.51100000000E-03 0.  1.
         12    1    3    3    0    0 -0.18702886571E+02  0.31270396923E+01 -0.10211553345E+02  0.21537227422E+02  0.00000000000E+00 0. -1.
</event>
<event>
 7    1  0.6316620E-012  0.5930194E+02  0.7816164E-02  0.1266605E+00
        -11   -1    0    0    0    0  0.00000000000E+00  0.00000000000E+00  0.45593999997E+02  0.45594000000E+02  0.51100000000E-03 0.  1.
         11   -1    0    0    0    0 -0.00000000000E+00 -0.00000000000E+00 -0.45593999997E+02  0.45594000000E+02  0.51100000000E-03 0. -1.
    9900012    2    1    2    0    0 -0.12175407256E+02 -0.88487714132E+01  0.28110136226E+02  0.59301936336E+02  0.49999985972E+02 0.  0.
         12    1    1    2    0    0  0.12175407256E+02  0.88487714132E+01 -0.28110136226E+02  0.31886063664E+02  0.00000000000E+00 0. -1.
         11    1    3    3    0    0  0.45283844269E+01 -0.11744860858E+01 -0.19506147619E+01  0.50685877021E+01  0.51100000000E-03 0. -1.
        -11    1    3    3    0    0  0.10647920731E+02 -0.91529444820E+01  0.21230322653E+02  0.25453510736E+02  0.51100000000E-03 0.  1.
         12    1    3    3    0    0 -0.27351712413E+02  0.14786591545E+01  0.88304283351E+01  0.28779837898E+02  0.00000000000E+00 0. -1.
</event>
<event>
 7    1  0.6316620E-012  0.5930196E+02  0.7816164E-02  0.1266605E+00
        -11   -1    0    0    0    0  0.00000000000E+00  0.00000000000E+00  0.45593999997E+02  0.45594000000E+02  0.51100000000E-03 0.  1.
         11   -1    0    0    0    0 -0.00000000000E+00 -0.00000000000E+00 -0.45593999997E+02  0.45594000000E+02  0.51100000000E-03 0. -1.
    9900012    2    1    2    0    0  0.98388393572E+01 -0.18702650189E+02  0.23877348234E+02  0.59301958497E+02  0.50000026389E+02 0.  0.
         12    1    1    2    0    0 -0.98388393572E+01  0.18702650189E+02 -0.23877348234E+02  0.31886041503E+02  0.00000000000E+00 0. -1.
         11    1    3    3    0    0 -0.35043785303E+00 -0.18398232610E+02  0.22505643280E+02  0.29070977789E+02  0.51100000000E-03 0. -1.
        -11    1    3    3    0    0 -0.13896565141E+01 -0.12799316480E+02  0.26628589825E+01  0.13147032586E+02  0.51100000000E-03 0.  1.
         12    1    3    3    0    0  0.11578933724E+02  0.12494898901E+02 -0.12911540281E+01  0.17083948123E+02  0.00000000000E+00 0. -1.
</event>
<event>
 7    1  0.6316620E-012  0.5930195E+02  0.7816164E-02  0.1266605E+00
        -11   -1    0    0    0    0  0.00000000000E+00  0.00000000000E+00  0.45593999997E+02  0.45594000000E+02  0.51100000000E-03 0.  1.
         11   -1    0    0    0    0 -0.00000000000E+00 -0.00000000000E+00 -0.45593999997E+02  0.45594000000E+02  0.51100000000E-03 0. -1.
    9900012    2    1    2    0    0 -0.26900523838E+02 -0.13892480108E+02 -0.10004054505E+02  0.59301948302E+02  0.50000007796E+02 0.  0.
         12    1    1    2    0    0  0.26900523838E+02  0.13892480108E+02  0.10004054505E+02  0.31886051698E+02  0.00000000000E+00 0. -1.
         11    1    3    3    0    0 -0.53073316337E+00 -0.38036699269E+00 -0.11099337139E+02  0.11118526967E+02  0.51100000000E-03 0. -1.
        -11    1    3    3    0    0 -0.24504012936E+02 -0.25220260601E+02 -0.37752428305E+01  0.35366094687E+02  0.51100000000E-03 0.  1.
         12    1    3    3    0    0 -0.18657777391E+01  0.11708147485E+02  0.48705254641E+01  0.12817326648E+02  0.00000000000E+00 0. -1.
</event>
<event>
 7    1  0.6316620E-012  0.5930198E+02  0.7816164E-02  0.1266605E+00
        -11   -1    0    0    0    0  0.00000000000E+00  0.00000000000E+00  0.45593999997E+02  0.45594000000E+02  0.51100000000E-03 0. -1.
         11   -1    0    0    0    0 -0.00000000000E+00 -0.00000000000E+00 -0.45593999997E+02  0.45594000000E+02  0.51100000000E-03 0.  1.
    9900012    2    1    2    0    0 -0.17211970726E+02  0.26130124453E+02  0.61386197853E+01  0.59301984365E+02  0.50000073565E+02 0.  0.
         12    1    1    2    0    0  0.17211970726E+02 -0.26130124453E+02 -0.61386197853E+01  0.31886015635E+02  0.00000000000E+00 0. -1.
         11    1    3    3    0    0 -0.50630344338E+01  0.18222865196E+02  0.11573887475E+02  0.22173452712E+02  0.51100000000E-03 0.  1.
        -11    1    3    3    0    0 -0.17723777212E+02  0.17952995953E+02 -0.41701674049E+01  0.25570151326E+02  0.51100000000E-03 0. -1.
        -12    1    3    3    0    0  0.55748409193E+01 -0.10045736697E+02 -0.12651002850E+01  0.11558380327E+02  0.00000000000E+00 0.  1.
</event>
<event>
 7    1  0.6316620E-012  0.5930195E+02  0.7816164E-02  0.1266605E+00
        -11   -1    0    0    0    0  0.00000000000E+00  0.00000000000E+00  0.45593999997E+02  0.45594000000E+02  0.51100000000E-03 0.  1.
         11   -1    0    0    0    0 -0.00000000000E+00 -0.00000000000E+00 -0.45593999997E+02  0.45594000000E+02  0.51100000000E-03 0. -1.
    9900012    2    1    2    0    0  0.39733749738E+01  0.25569085394E+02  0.18632085711E+02  0.59301945767E+02  0.50000003173E+02 0.  0.
         12    1    1    2    0    0 -0.39733749738E+01 -0.25569085394E+02 -0.18632085711E+02  0.31886054233E+02  0.00000000000E+00 0. -1.
         11    1    3    3    0    0  0.20204071358E+02  0.15941864968E+02  0.10527914494E+02  0.27806196108E+02  0.51100000000E-03 0. -1.
        -11    1    3    3    0    0  0.42673890809E+01  0.37520258475E+01 -0.40255699335E+01  0.69637289636E+01  0.51100000000E-03 0.  1.
        -12    1    3    3    0    0 -0.20498085465E+02  0.58751945785E+01  0.12129741150E+02  0.24532020696E+02  0.00000000000E+00 0.  1.
</event>
<event>
 7    1  0.6316620E-012  0.5930194E+02  0.7816164E-02  0.1266605E+00
        -11   -1    0    0    0    0  0.00000000000E+00  0.00000000000E+00  0.45593999997E+02  0.45594000000E+02  0.51100000000E-03 0. -1.
         11   -1    0    0    0    0 -0.00000000000E+00 -0.00000000000E+00 -0.45593999997E+02  0.45594000000E+02  0.51100000000E-03 0.  1.
    9900012    2    1    2    0    0 -0.14015118305E+02  0.19985816687E+02 -0.20514986184E+02  0.59301936149E+02  0.49999985631E+02 0.  0.
         12    1    1    2    0    0  0.14015118305E+02 -0.19985816687E+02  0.20514986184E+02  0.31886063851E+02  0.00000000000E+00 0. -1.
         11    1    3    3    0    0  0.55120810229E+01 -0.16211341464E+01 -0.24967392353E+02  0.25619949147E+02  0.51100000000E-03 0. -1.
        -11    1    3    3    0    0  0.39290148465E+00  0.78594193173E+01 -0.28998241689E+01  0.83865263401E+01  0.51100000000E-03 0.  1.
         12    1    3    3    0    0 -0.19920100813E+02  0.13747531516E+02  0.73522303375E+01  0.25295460662E+02  0.00000000000E+00 0. -1.
</event>
<event>
 7    1  0.6316620E-012  0.5930196E+02  0.7816164E-02  0.1266605E+00
        -11   -1    0    0    0    0  0.00000000000E+00  0.00000000000E+00  0.45593999997E+02  0.45594000000E+02  0.51100000000E-03 0. -1.
         11   -1    0    0    0    0 -0.00000000000E+00 -0.00000000000E+00 -0.45593999997E+02  0.45594000000E+02  0.51100000000E-03 0.  1.
    9900012    2    1    2    0    0  0.28242857821E+02  0.10372476171E+02  0.10558043404E+02  0.59301959790E+02  0.50000028746E+02 0.  0.
         12    1    1    2    0    0 -0.28242857821E+02 -0.10372476171E+02 -0.10558043404E+02  0.31886040210E+02  0.00000000000E+00 0. -1.
         11    1    3    3    0    0 -0.53760198093E+01  0.13064347957E+02 -0.96574972649E+00  0.14160206543E+02  0.51100000000E-03 0. -1.
        -11    1    3    3    0    0  0.13938944647E+02  0.11950665331E+02  0.82136760982E+00  0.18378988676E+02  0.51100000000E-03 0.  1.
        -12    1    3    3    0    0  0.19679932983E+02 -0.14642537118E+02  0.10702425520E+02  0.26762764571E+02  0.00000000000E+00 0.  1.
</event>
<event>
 7    1  0.6316620E-012  0.5930196E+02  0.7816164E-02  0.1266605E+00
        -11   -1    0    0    0    0  0.00000000000E+00  0.00000000000E+00  0.45593999997E+02  0.45594000000E+02  0.51100000000E-03 0.  1.
         11   -1    0    0    0    0 -0.00000000000E+00 -0.00000000000E+00 -0.45593999997E+02  0.45594000000E+02  0.51100000000E-03 0. -1.
    9900012    2    1    2    0    0  0.12236169836E+02 -0.21354344822E+02  0.20272832385E+02  0.59301958729E+02  0.50000026812E+02 0.  0.
         12    1    1    2    0    0 -0.12236169836E+02  0.21354344822E+02 -0.20272832385E+02  0.31886041271E+02  0.00000000000E+00 0. -1.
         11    1    3    3    0    0 -0.80820263769E+01 -0.53243919432E+01  0.26111977096E+02  0.27847866131E+02  0.51100000000E-03 0. -1.
        -11    1    3    3    0    0  0.11042890723E+02 -0.11341304977E+01  0.34169228452E+01  0.11614949397E+02  0.51100000000E-03 0.  1.
        -12    1    3    3    0    0  0.92753054895E+01 -0.14895822381E+02 -0.92560675565E+01  0.19839143201E+02  0.00000000000E+00 0.  1.
</event>
<event>
 7    1  0.6316620E-012  0.5930191E+02  0.7816164E-02  0.1266605E+00
        -11   -1    0    0    0    0  0.00000000000E+00  0.00000000000E+00  0.45593999997E+02  0.45594000000E+02  0.51100000000E-03 0.  1.
         11   -1    0    0    0    0 -0.00000000000E+00 -0.00000000000E+00 -0.45593999997E+02  0.45594000000E+02  0.51100000000E-03 0. -1.
    9900012    2    1    2    0    0  0.28139347430E+02  0.99464419641E+01  0.11223540063E+02  0.59301914742E+02  0.49999946590E+02 0.  0.
         12    1    1    2    0    0 -0.28139347430E+02 -0.99464419641E+01 -0.11223540063E+02  0.31886085258E+02  0.00000000000E+00 0. -1.
         11    1    3    3    0    0 -0.29313095400E+01  0.54588165747E+01 -0.43122832428E+01  0.75489761586E+01  0.51100000000E-03 0. -1.
        -11    1    3    3    0    0 -0.41395540566E+01  0.46602166861E+00 -0.81322487842E+01  0.91370977083E+01  0.51100000000E-03 0.  1.
        -12    1    3    3    0    0  0.35210211027E+02  0.40216037208E+01  0.23668072090E+02  0.42615840875E+02  0.00000000000E+00 0.  1.
</event>
<event>
 7    1  0.6316620E-012  0.5930196E+02  0.7816164E-02  0.1266605E+00
        -11   -1    0    0    0    0  0.00000000000E+00  0.00000000000E+00  0.45593999997E+02  0.45594000000E+02  0.51100000000E-03 0. -1.
         11   -1    0    0    0    0 -0.00000000000E+00 -0.00000000000E+00 -0.45593999997E+02  0.45594000000E+02  0.51100000000E-03 0.  1.
    9900012    2    1    2    0    0  0.28153044622E+02 -0.84939483182E+01  0.12327949181E+02  0.59301962138E+02  0.50000033029E+02 0.  0.
         12    1    1    2    0    0 -0.28153044622E+02  0.84939483182E+01 -0.12327949181E+02  0.31886037862E+02  0.00000000000E+00 0. -1.
         11    1    3    3    0    0  0.22128107951E+00 -0.50195972154E+01 -0.76786998594E+01  0.91764782630E+01  0.51100000000E-03 0. -1.
        -11    1    3    3    0    0 -0.77555963994E+01  0.91807622779E+00 -0.18781733805E+01  0.80324140194E+01  0.51100000000E-03 0.  1.
        -12    1    3    3    0    0  0.35687359942E+02 -0.43924273306E+01  0.21884822421E+02  0.42093069856E+02  0.00000000000E+00 0.  1.
</event>
<event>
 7    1  0.6316620E-012  0.5930191E+02  0.7816164E-02  0.1266605E+00
        -11   -1    0    0    0    0  0.00000000000E+00  0.00000000000E+00  0.45593999997E+02  0.45594000000E+02  0.51100000000E-03 0. -1.
         11   -1    0    0    0    0 -0.00000000000E+00 -0.00000000000E+00 -0.45593999997E+02  0.45594000000E+02  0.51100000000E-03 0.  1.
    9900012    2    1    2    0    0  0.19243333725E+02  0.18095235796E+02 -0.17859998017E+02  0.59301906158E+02  0.49999930934E+02 0.  0.
         12    1    1    2    0    0 -0.19243333725E+02 -0.18095235796E+02  0.17859998017E+02  0.31886093842E+02  0.00000000000E+00 0. -1.
         11    1    3    3    0    0  0.16489979922E+00  0.11195352981E+02  0.50949863670E+01  0.12301301015E+02  0.51100000000E-03 0. -1.
        -11    1    3    3    0    0  0.60246532598E+00 -0.13406284646E+02 -0.57388618515E+01  0.14595409145E+02  0.51100000000E-03 0.  1.
        -12    1    3    3    0    0  0.18475968600E+02  0.20306167461E+02 -0.17216122532E+02  0.32405195999E+02  0.00000000000E+00 0.  1.
</event>
<event>
 7    1  0.6316620E-012  0.5930195E+02  0.7816164E-02  0.1266605E+00
        -11   -1    0    0    0    0  0.00000000000E+00  0.00000000000E+00  0.45593999997E+02  0.45594000000E+02  0.51100000000E-03 0.  1.
         11   -1    0    0    0    0 -0.00000000000E+00 -0.00000000000E+00 -0.45593999997E+02  0.45594000000E+02  0.51100000000E-03 0. -1.
    9900012    2    1    2    0    0  0.92601963394E+01  0.18320550389E+02  0.24399316136E+02  0.59301946141E+02  0.50000003853E+02 0.  0.
         12    1    1    2    0    0 -0.92601963394E+01 -0.18320550389E+02 -0.24399316136E+02  0.31886053859E+02  0.00000000000E+00 0. -1.
         11    1    3    3    0    0  0.14358454355E+01  0.44714855416E+01 -0.62671736013E+01  0.78315579723E+01  0.51100000000E-03 0. -1.
        -11    1    3    3    0    0 -0.15212621852E+02  0.93637485342E+01  0.13617758217E+02  0.22462123438E+02  0.51100000000E-03 0.  1.
         12    1    3    3    0    0  0.23036972756E+02  0.44853163133E+01  0.17048731521E+02  0.29008264730E+02  0.00000000000E+00 0. -1.
</event>
<event>
 7    1  0.6316620E-012  0.5930200E+02  0.7816164E-02  0.1266605E+00
        -11   -1    0    0    0    0  0.00000000000E+00  0.00000000000E+00  0.45593999997E+02  0.45594000000E+02  0.51100000000E-03 0.  1.
         11   -1    0    0    0    0 -0.00000000000E+00 -0.00000000000E+00 -0.45593999997E+02  0.45594000000E+02  0.51100000000E-03 0. -1.
    9900012    2    1    2    0    0 -0.22905053153E+01 -0.11403194604E+02  0.29689011778E+02  0.59302004921E+02  0.50000111055E+02 0.  0.
         12    1    1    2    0    0  0.22905053153E+01  0.11403194604E+02 -0.29689011778E+02  0.31885995079E+02  0.00000000000E+00 0. -1.
         11    1    3    3    0    0 -0.64496237748E+01 -0.51960307516E+01 -0.54404274192E+01  0.99093205202E+01  0.51100000000E-03 0. -1.
        -11    1    3    3    0    0 -0.13689512364E+02 -0.36558688888E-01  0.23551121170E+02  0.27240767132E+02  0.51100000000E-03 0.  1.
         12    1    3    3    0    0  0.17848630823E+02 -0.61706051639E+01  0.11578318027E+02  0.22151917269E+02  0.00000000000E+00 0. -1.
</event>
<event>
 7    1  0.6316620E-012  0.5930199E+02  0.7816164E-02  0.1266605E+00
        -11   -1    0    0    0    0  0.00000000000E+00  0.00000000000E+00  0.45593999997E+02  0.45594000000E+02  0.51100000000E-03 0.  1.
         11   -1    0    0    0    0 -0.00000000000E+00 -0.00000000000E+00 -0.45593999997E+02  0.45594000000E+02  0.51100000000E-03 0. -1.
    9900012    2    1    2    0    0 -0.22815752425E+02 -0.91967392467E+01  0.20287406388E+02  0.59301993203E+02  0.50000089684E+02 0.  0.
         12    1    1    2    0    0  0.22815752425E+02  0.91967392467E+01 -0.20287406388E+02  0.31886006797E+02  0.00000000000E+00 0. -1.
         11    1    3    3    0    0 -0.14542252067E+02  0.47798179537E+00  0.83846584279E+01  0.16793095575E+02  0.51100000000E-03 0. -1.
        -11    1    3    3    0    0 -0.61339248172E-01  0.12633625755E+02  0.13740812340E+02  0.18666070455E+02  0.51100000000E-03 0.  1.
         12    1    3    3    0    0 -0.82121611106E+01 -0.22308346798E+02 -0.18380643798E+01  0.23842827173E+02  0.00000000000E+00 0. -1.
</event>
<event>
 7    1  0.6316620E-012  0.5930194E+02  0.7816164E-02  0.1266605E+00
        -11   -1    0    0    0    0  0.00000000000E+00  0.00000000000E+00  0.45593999997E+02  0.45594000000E+02  0.51100000000E-03 0.  1.
         11   -1    0    0    0    0 -0.00000000000E+00 -0.00000000000E+00 -0.45593999997E+02  0.45594000000E+02  0.51100000000E-03 0. -1.
    9900012    2    1    2    0    0 -0.23535453488E+02  0.88456451689E+01  0.19610152955E+02  0.59301935516E+02  0.49999984477E+02 0.  0.
         12    1    1    2    0    0  0.23535453488E+02 -0.88456451689E+01 -0.19610152955E+02  0.31886064484E+02  0.00000000000E+00 0. -1.
         11    1    3    3    0    0 -0.20309629920E+02  0.89538127915E+01 -0.13872419577E+01  0.22239070832E+02  0.51100000000E-03 0. -1.
        -11    1    3    3    0    0 -0.14699487058E+02 -0.72443652480E+01  0.77045530337E+01  0.18108447899E+02  0.51100000000E-03 0.  1.
        -12    1    3    3    0    0  0.11473663489E+02  0.71361976254E+01  0.13292841879E+02  0.18954416785E+02  0.00000000000E+00 0.  1.
</event>
<event>
 7    1  0.6316620E-012  0.5930194E+02  0.7816164E-02  0.1266605E+00
        -11   -1    0    0    0    0  0.00000000000E+00  0.00000000000E+00  0.45593999997E+02  0.45594000000E+02  0.51100000000E-03 0.  1.
         11   -1    0    0    0    0 -0.00000000000E+00 -0.00000000000E+00 -0.45593999997E+02  0.45594000000E+02  0.51100000000E-03 0. -1.
    9900012    2    1    2    0    0 -0.59473126093E+01 -0.31090582268E+02  0.38374810454E+01  0.59301935743E+02  0.49999984890E+02 0.  0.
         12    1    1    2    0    0  0.59473126093E+01  0.31090582268E+02 -0.38374810454E+01  0.31886064257E+02  0.00000000000E+00 0. -1.
         11    1    3    3    0    0  0.10402813858E+02 -0.48377885489E+01  0.14514851228E+02  0.18501449690E+02  0.51100000000E-03 0. -1.
        -11    1    3    3    0    0 -0.81425751291E+00 -0.20131556389E+02  0.13935015577E+01  0.20196148761E+02  0.51100000000E-03 0.  1.
         12    1    3    3    0    0 -0.15535868955E+02 -0.61212373307E+01 -0.12070871740E+02  0.20604337291E+02  0.00000000000E+00 0. -1.
</event>
<event>
 7    1  0.6316620E-012  0.5930197E+02  0.7816164E-02  0.1266605E+00
        -11   -1    0    0    0    0  0.00000000000E+00  0.00000000000E+00  0.45593999997E+02  0.45594000000E+02  0.51100000000E-03 0. -1.
         11   -1    0    0    0    0 -0.00000000000E+00 -0.00000000000E+00 -0.45593999997E+02  0.45594000000E+02  0.51100000000E-03 0.  1.
    9900012    2    1    2    0    0 -0.27979792272E+02 -0.23593104334E+01 -0.15109053679E+02  0.59301974465E+02  0.50000055511E+02 0.  0.
         12    1    1    2    0    0  0.27979792272E+02  0.23593104334E+01  0.15109053679E+02  0.31886025535E+02  0.00000000000E+00 0. -1.
         11    1    3    3    0    0 -0.20787468206E+02  0.13382888055E+00 -0.14012195700E+02  0.25069470940E+02  0.51100000000E-03 0. -1.
        -11    1    3    3    0    0 -0.10521023998E+02  0.13463691710E+02 -0.43017398583E+01  0.17620099503E+02  0.51100000000E-03 0.  1.
         12    1    3    3    0    0  0.33286999322E+01 -0.15956831023E+02  0.32048818792E+01  0.16612404023E+02  0.00000000000E+00 0. -1.
</event>
<event>
 7    1  0.6316620E-012  0.5930194E+02  0.7816164E-02  0.1266605E+00
        -11   -1    0    0    0    0  0.00000000000E+00  0.00000000000E+00  0.45593999997E+02  0.45594000000E+02  0.51100000000E-03 0.  1.
         11   -1    0    0    0    0 -0.00000000000E+00 -0.00000000000E+00 -0.45593999997E+02  0.45594000000E+02  0.51100000000E-03 0. -1.
    9900012    2    1    2    0    0 -0.31848480182E+02  0.15394561361E+01 -0.15799733876E+00  0.59301943827E+02  0.49999999635E+02 0.  0.
         12    1    1    2    0    0  0.31848480182E+02 -0.15394561361E+01  0.15799733876E+00  0.31886056173E+02  0.00000000000E+00 0. -1.
         11    1    3    3    0    0 -0.31253272929E+02  0.27564918160E+01 -0.23418478050E+01  0.31461874822E+02  0.51100000000E-03 0. -1.
        -11    1    3    3    0    0 -0.50963476756E+01  0.12383281481E+02  0.33235086040E+00  0.13395106466E+02  0.51100000000E-03 0.  1.
        -12    1    3    3    0    0  0.45011404225E+01 -0.13600317161E+02  0.18514996059E+01  0.14444962540E+02  0.00000000000E+00 0.  1.
</event>
<event>
 7    1  0.6316620E-012  0.5930195E+02  0.7816164E-02  0.1266605E+00
        -11   -1    0    0    0    0  0.00000000000E+00  0.00000000000E+00  0.45593999997E+02  0.45594000000E+02  0.51100000000E-03 0.  1.
         11   -1    0    0    0    0 -0.00000000000E+00 -0.00000000000E+00 -0.45593999997E+02  0.45594000000E+02  0.51100000000E-03 0. -1.
    9900012    2    1    2    0    0  0.20541752874E+02  0.24235623385E+02 -0.27186882897E+01  0.59301947908E+02  0.50000007077E+02 0.  0.
         12    1    1    2    0    0 -0.20541752874E+02 -0.24235623385E+02  0.27186882897E+01  0.31886052092E+02  0.00000000000E+00 0. -1.
         11    1    3    3    0    0 -0.96717680130E+01 -0.28115151937E+01 -0.49726740345E+01  0.11232773544E+02  0.51100000000E-03 0. -1.
        -11    1    3    3    0    0  0.21830919959E+02  0.71732613893E+01 -0.78063346710E+01  0.24268984454E+02  0.51100000000E-03 0.  1.
        -12    1    3    3    0    0  0.83826009283E+01  0.19873877189E+02  0.10060320416E+02  0.23800189909E+02  0.00000000000E+00 0.  1.
</event>
<event>
 7    1  0.6316620E-012  0.5930221E+02  0.7816164E-02  0.1266604E+00
        -11   -1    0    0    0    0  0.00000000000E+00  0.00000000000E+00  0.45593999997E+02  0.45594000000E+02  0.51100000000E-03 0. -1.
         11   -1    0    0    0    0 -0.00000000000E+00 -0.00000000000E+00 -0.45593999997E+02  0.45594000000E+02  0.51100000000E-03 0.  1.
    9900012    2    1    2    0    0  0.27947840360E+02 -0.97091638815E+01 -0.11889248531E+02  0.59302205754E+02  0.50000477324E+02 0.  0.
         12    1    1    2    0    0 -0.27947840360E+02  0.97091638815E+01  0.11889248531E+02  0.31885794246E+02  0.00000000000E+00 0. -1.
         11    1    3    3    0    0 -0.75148423178E+01 -0.42625449185E+01 -0.31605520392E+01  0.91995235581E+01  0.51100000000E-03 0. -1.
        -11    1    3    3    0    0  0.20595513755E+02  0.13210478583E+02 -0.94650771888E+01  0.26235083717E+02  0.51100000000E-03 0.  1.
         12    1    3    3    0    0  0.14867168923E+02 -0.18657097546E+02  0.73638069740E+00  0.23867598479E+02  0.00000000000E+00 0. -1.
</event>
<event>
 7    1  0.6316620E-012  0.5930206E+02  0.7816164E-02  0.1266604E+00
        -11   -1    0    0    0    0  0.00000000000E+00  0.00000000000E+00  0.45593999997E+02  0.45594000000E+02  0.51100000000E-03 0. -1.
         11   -1    0    0    0    0 -0.00000000000E+00 -0.00000000000E+00 -0.45593999997E+02  0.45594000000E+02  0.51100000000E-03 0.  1.
    9900012    2    1    2    0    0  0.23326421220E+02  0.44132503248E+01 -0.21286490224E+02  0.59302056836E+02  0.50000205736E+02 0.  0.
         12    1    1    2    0    0 -0.23326421220E+02 -0.44132503248E+01  0.21286490224E+02  0.31885943164E+02  0.00000000000E+00 0. -1.
         11    1    3    3    0    0 -0.11385059436E+02  0.97633486485E+01  0.30355073793E+01  0.15302184828E+02  0.51100000000E-03 0. -1.
        -11    1    3    3    0    0  0.33796078544E+01 -0.30152390071E+01 -0.47098463637E+00  0.45535966343E+01  0.51100000000E-03 0.  1.
        -12    1    3    3    0    0  0.31331872802E+02 -0.23348593167E+01 -0.23851012967E+02  0.39446275374E+02  0.00000000000E+00 0.  1.
</event>
<event>
 7    1  0.6316620E-012  0.5930194E+02  0.7816164E-02  0.1266605E+00
        -11   -1    0    0    0    0  0.00000000000E+00  0.00000000000E+00  0.45593999997E+02  0.45594000000E+02  0.51100000000E-03 0. -1.
         11   -1    0    0    0    0 -0.00000000000E+00 -0.00000000000E+00 -0.45593999997E+02  0.45594000000E+02  0.51100000000E-03 0.  1.
    9900012    2    1    2    0    0 -0.17229038930E+01  0.11437640883E+02 -0.29714180018E+02  0.59301944726E+02  0.50000001273E+02 0.  0.
         12    1    1    2    0    0  0.17229038930E+01 -0.11437640883E+02  0.29714180018E+02  0.31886055274E+02  0.00000000000E+00 0. -1.
         11    1    3    3    0    0 -0.12670029932E+02 -0.98105290807E+00 -0.73720778820E+01  0.14691482425E+02  0.51100000000E-03 0. -1.
        -11    1    3    3    0    0  0.14138591753E+02  0.35427344097E+01 -0.29410090696E+02  0.32823835530E+02  0.51100000000E-03 0.  1.
         12    1    3    3    0    0 -0.31914657138E+01  0.88759593818E+01  0.70679885596E+01  0.11786626771E+02  0.00000000000E+00 0. -1.
</event>
<event>
 7    1  0.6316620E-012  0.5930193E+02  0.7816164E-02  0.1266605E+00
        -11   -1    0    0    0    0  0.00000000000E+00  0.00000000000E+00  0.45593999997E+02  0.45594000000E+02  0.51100000000E-03 0.  1.
         11   -1    0    0    0    0 -0.00000000000E+00 -0.00000000000E+00 -0.45593999997E+02  0.45594000000E+02  0.51100000000E-03 0. -1.
    9900012    2    1    2    0    0  0.22444699927E+02 -0.15933825374E+02  0.16095654801E+02  0.59301930168E+02  0.49999974724E+02 0.  0.
         12    1    1    2    0    0 -0.22444699927E+02  0.15933825374E+02 -0.16095654801E+02  0.31886069832E+02  0.00000000000E+00 0. -1.
         11    1    3    3    0    0  0.11902081895E+02 -0.25697440058E+02  0.99578903017E+01  0.30019619560E+02  0.51100000000E-03 0. -1.
        -11    1    3    3    0    0  0.10657324231E+02 -0.57961954408E+01  0.64075576410E+01  0.13719738939E+02  0.51100000000E-03 0.  1.
         12    1    3    3    0    0 -0.11470619965E+00  0.15559810125E+02 -0.26979314175E+00  0.15562571670E+02  0.00000000000E+00 0. -1.
</event>
<event>
 7    1  0.6316620E-012  0.5930194E+02  0.7816164E-02  0.1266605E+00
        -11   -1    0    0    0    0  0.00000000000E+00  0.00000000000E+00  0.45593999997E+02  0.45594000000E+02  0.51100000000E-03 0.  1.
         11   -1    0    0    0    0 -0.00000000000E+00 -0.00000000000E+00 -0.45593999997E+02  0.45594000000E+02  0.51100000000E-03 0. -1.
    9900012    2    1    2    0    0 -0.19980820558E+02  0.13710865283E+02  0.20724379817E+02  0.59301938221E+02  0.49999989410E+02 0.  0.
         12    1    1    2    0    0  0.19980820558E+02 -0.13710865283E+02 -0.20724379817E+02  0.31886061779E+02  0.00000000000E+00 0. -1.
         11    1    3    3    0    0  0.14258162803E+02 -0.46393032853E+00  0.25903522553E+01  0.14498977997E+02  0.51100000000E-03 0. -1.
        -11    1    3    3    0    0 -0.11499989496E+02  0.98902550023E+01 -0.37384429543E+00  0.15172562811E+02  0.51100000000E-03 0.  1.
        -12    1    3    3    0    0 -0.22738993865E+02  0.42845406091E+01  0.18507871857E+02  0.29630397414E+02  0.00000000000E+00 0.  1.
</event>
<event>
 7    1  0.6316620E-012  0.5930194E+02  0.7816164E-02  0.1266605E+00
        -11   -1    0    0    0    0  0.00000000000E+00  0.00000000000E+00  0.45593999997E+02  0.45594000000E+02  0.51100000000E-03 0.  1.
         11   -1    0    0    0    0 -0.00000000000E+00 -0.00000000000E+00 -0.45593999997E+02  0.45594000000E+02  0.51100000000E-03 0. -1.
    9900012    2    1    2    0    0  0.21768302351E+02 -0.17983693725E+01  0.23229894796E+02  0.59301935146E+02  0.49999983802E+02 0.  0.
         12    1    1    2    0    0 -0.21768302351E+02  0.17983693725E+01 -0.23229894796E+02  0.31886064854E+02  0.00000000000E+00 0. -1.
         11    1    3    3    0    0 -0.91660745470E+01 -0.31358766124E+01  0.13517187623E+02  0.16630243721E+02  0.51100000000E-03 0. -1.
        -11    1    3    3    0    0 -0.23454529379E+01 -0.28871647295E+01 -0.48399765052E+01  0.61042806694E+01  0.51100000000E-03 0.  1.
        -12    1    3    3    0    0  0.33279829836E+02  0.42246719695E+01  0.14552683678E+02  0.36567410756E+02  0.00000000000E+00 0.  1.
</event>
<event>
 7    1  0.6316620E-012  0.5930177E+02  0.7816164E-02  0.1266605E+00
        -11   -1    0    0    0    0  0.00000000000E+00  0.00000000000E+00  0.45593999997E+02  0.45594000000E+02  0.51100000000E-03 0.  1.
         11   -1    0    0    0    0 -0.00000000000E+00 -0.00000000000E+00 -0.45593999997E+02  0.45594000000E+02  0.51100000000E-03 0. -1.
    9900012    2    1    2    0    0 -0.84493714040E+00  0.23971026061E+02  0.21009698452E+02  0.59301773535E+02  0.49999689060E+02 0.  0.
         12    1    1    2    0    0  0.84493714040E+00 -0.23971026061E+02 -0.21009698452E+02  0.31886226465E+02  0.00000000000E+00 0. -1.
         11    1    3    3    0    0  0.37498838474E+01  0.17486764461E+02  0.15089200956E+02  0.23399413367E+02  0.51100000000E-03 0.  1.
        -11    1    3    3    0    0 -0.10487207950E+00 -0.25582730234E+01  0.19116529974E+02  0.19287236130E+02  0.51100000000E-03 0. -1.
         12    1    3    3    0    0 -0.44899489083E+01  0.90425346235E+01 -0.13196032478E+02  0.16615124038E+02  0.00000000000E+00 0. -1.
</event>
<event>
 7    1  0.6316620E-012  0.5930193E+02  0.7816164E-02  0.1266605E+00
        -11   -1    0    0    0    0  0.00000000000E+00  0.00000000000E+00  0.45593999997E+02  0.45594000000E+02  0.51100000000E-03 0.  1.
         11   -1    0    0    0    0 -0.00000000000E+00 -0.00000000000E+00 -0.45593999997E+02  0.45594000000E+02  0.51100000000E-03 0. -1.
    9900012    2    1    2    0    0  0.19420731876E+02  0.19778309906E+02  0.15759921437E+02  0.59301929483E+02  0.49999973473E+02 0.  0.
         12    1    1    2    0    0 -0.19420731876E+02 -0.19778309906E+02 -0.15759921437E+02  0.31886070517E+02  0.00000000000E+00 0. -1.
         11    1    3    3    0    0 -0.72885945147E+01 -0.61403671755E+01  0.10000774588E+01  0.95826861700E+01  0.51100000000E-03 0. -1.
        -11    1    3    3    0    0 -0.45809250851E+01  0.77345403588E+01 -0.29059827307E+01  0.94473660397E+01  0.51100000000E-03 0.  1.
        -12    1    3    3    0    0  0.31290251475E+02  0.18184136723E+02  0.17665826709E+02  0.40271877273E+02  0.00000000000E+00 0.  1.
</event>
<event>
 7    1  0.6316620E-012  0.5930195E+02  0.7816164E-02  0.1266605E+00
        -11   -1    0    0    0    0  0.00000000000E+00  0.00000000000E+00  0.45593999997E+02  0.45594000000E+02  0.51100000000E-03 0. -1.
         11   -1    0    0    0    0 -0.00000000000E+00 -0.00000000000E+00 -0.45593999997E+02  0.45594000000E+02  0.51100000000E-03 0.  1.
    9900012    2    1    2    0    0  0.50261339228E+01  0.30412425295E+02 -0.81573653020E+01  0.59301949081E+02  0.50000009216E+02 0.  0.
         12    1    1    2    0    0 -0.50261339228E+01 -0.30412425295E+02  0.81573653020E+01  0.31886050919E+02  0.00000000000E+00 0. -1.
         11    1    3    3    0    0 -0.14140037726E+01  0.11279774047E+02 -0.20368661681E+02  0.23326274630E+02  0.51100000000E-03 0. -1.
        -11    1    3    3    0    0 -0.58109371860E+01  0.15687877206E+02 -0.20582544213E+01  0.16855648719E+02  0.51100000000E-03 0.  1.
         12    1    3    3    0    0  0.12251074881E+02  0.34447740425E+01  0.14269550800E+02  0.19120025732E+02  0.00000000000E+00 0. -1.
</event>
<event>
 7    1  0.6316620E-012  0.5930194E+02  0.7816164E-02  0.1266605E+00
        -11   -1    0    0    0    0  0.00000000000E+00  0.00000000000E+00  0.45593999997E+02  0.45594000000E+02  0.51100000000E-03 0.  1.
         11   -1    0    0    0    0 -0.00000000000E+00 -0.00000000000E+00 -0.45593999997E+02  0.45594000000E+02  0.51100000000E-03 0. -1.
    9900012    2    1    2    0    0 -0.23073005148E+01 -0.83398388414E+01  0.30689485061E+02  0.59301936572E+02  0.49999986403E+02 0.  0.
         12    1    1    2    0    0  0.23073005148E+01  0.83398388414E+01 -0.30689485061E+02  0.31886063428E+02  0.00000000000E+00 0. -1.
         11    1    3    3    0    0 -0.66605135916E+01 -0.12337533103E+02 -0.88176978105E+00  0.14048298209E+02  0.51100000000E-03 0. -1.
        -11    1    3    3    0    0  0.52533977394E+01 -0.24588068845E+01 -0.52719222621E+01  0.78381811476E+01  0.51100000000E-03 0.  1.
        -12    1    3    3    0    0 -0.90018466257E+00  0.64565011462E+01  0.36843177105E+02  0.37415457215E+02  0.00000000000E+00 0.  1.
</event>
<event>
 7    1  0.6316620E-012  0.5930193E+02  0.7816164E-02  0.1266605E+00
        -11   -1    0    0    0    0  0.00000000000E+00  0.00000000000E+00  0.45593999997E+02  0.45594000000E+02  0.51100000000E-03 0.  1.
         11   -1    0    0    0    0 -0.00000000000E+00 -0.00000000000E+00 -0.45593999997E+02  0.45594000000E+02  0.51100000000E-03 0. -1.
    9900012    2    1    2    0    0  0.28056220764E+02  0.10401697241E+02  0.11017016351E+02  0.59301929713E+02  0.49999973894E+02 0.  0.
         12    1    1    2    0    0 -0.28056220764E+02 -0.10401697241E+02 -0.11017016351E+02  0.31886070287E+02  0.00000000000E+00 0. -1.
         11    1    3    3    0    0  0.15526917900E+02  0.17165178957E+02 -0.11333472064E+02  0.25771614955E+02  0.51100000000E-03 0. -1.
        -11    1    3    3    0    0  0.13478995691E+02  0.13434140091E+01  0.51506336926E+01  0.14491967214E+02  0.51100000000E-03 0.  1.
        -12    1    3    3    0    0 -0.94969282641E+00 -0.81068957253E+01  0.17199854722E+02  0.19038347544E+02  0.00000000000E+00 0.  1.
</event>
<event>
 7    1  0.6316620E-012  0.5930197E+02  0.7816164E-02  0.1266605E+00
        -11   -1    0    0    0    0  0.00000000000E+00  0.00000000000E+00  0.45593999997E+02  0.45594000000E+02  0.51100000000E-03 0.  1.
         11   -1    0    0    0    0 -0.00000000000E+00 -0.00000000000E+00 -0.45593999997E+02  0.45594000000E+02  0.51100000000E-03 0. -1.
    9900012    2    1    2    0    0  0.30133524805E+02 -0.64141378248E+01 -0.82187737629E+01  0.59301972913E+02  0.50000052680E+02 0.  0.
         12    1    1    2    0    0 -0.30133524805E+02  0.64141378248E+01  0.82187737629E+01  0.31886027087E+02  0.00000000000E+00 0. -1.
         11    1    3    3    0    0  0.29219284597E+02 -0.55801740874E+01  0.56651840948E+01  0.30281995415E+02  0.51100000000E-03 0. -1.
        -11    1    3    3    0    0  0.13033949323E+02  0.15494507086E+01 -0.68471036790E+01  0.14804305506E+02  0.51100000000E-03 0.  1.
         12    1    3    3    0    0 -0.12119709115E+02 -0.23834144460E+01 -0.70368541788E+01  0.14215671993E+02  0.00000000000E+00 0. -1.
</event>
<event>
 7    1  0.6316620E-012  0.5930193E+02  0.7816164E-02  0.1266605E+00
        -11   -1    0    0    0    0  0.00000000000E+00  0.00000000000E+00  0.45593999997E+02  0.45594000000E+02  0.51100000000E-03 0.  1.
         11   -1    0    0    0    0 -0.00000000000E+00 -0.00000000000E+00 -0.45593999997E+02  0.45594000000E+02  0.51100000000E-03 0. -1.
    9900012    2    1    2    0    0 -0.73850815189E+01  0.28646063435E+02  0.11898952080E+02  0.59301930314E+02  0.49999974990E+02 0.  0.
         12    1    1    2    0    0  0.73850815189E+01 -0.28646063435E+02 -0.11898952080E+02  0.31886069686E+02  0.00000000000E+00 0. -1.
         11    1    3    3    0    0 -0.21918331120E+02  0.12882039410E+02  0.21918506621E+02  0.33567560399E+02  0.51100000000E-03 0.  1.
        -11    1    3    3    0    0  0.43804052720E+01  0.12167722795E+02 -0.53775673506E+01  0.14005700955E+02  0.51100000000E-03 0. -1.
        -12    1    3    3    0    0  0.10152844329E+02  0.35963012309E+01 -0.46419871899E+01  0.11728668960E+02  0.00000000000E+00 0.  1.
</event>
<event>
 7    1  0.6316620E-012  0.5930198E+02  0.7816164E-02  0.1266605E+00
        -11   -1    0    0    0    0  0.00000000000E+00  0.00000000000E+00  0.45593999997E+02  0.45594000000E+02  0.51100000000E-03 0. -1.
         11   -1    0    0    0    0 -0.00000000000E+00 -0.00000000000E+00 -0.45593999997E+02  0.45594000000E+02  0.51100000000E-03 0.  1.
    9900012    2    1    2    0    0 -0.26105345285E+02  0.12600074567E+02 -0.13284099656E+02  0.59301980568E+02  0.50000066641E+02 0.  0.
         12    1    1    2    0    0  0.26105345285E+02 -0.12600074567E+02  0.13284099656E+02  0.31886019432E+02  0.00000000000E+00 0. -1.
         11    1    3    3    0    0 -0.15901500280E+01  0.24403114531E+01  0.75584612797E+01  0.81002490256E+01  0.51100000000E-03 0. -1.
        -11    1    3    3    0    0  0.26952130804E+01  0.12706744402E+02 -0.20014141067E+02  0.23859827530E+02  0.51100000000E-03 0.  1.
         12    1    3    3    0    0 -0.27210408337E+02 -0.25469812877E+01 -0.82841986789E+00  0.27341904013E+02  0.00000000000E+00 0. -1.
</event>
<event>
 7    1  0.6316620E-012  0.5930212E+02  0.7816164E-02  0.1266604E+00
        -11   -1    0    0    0    0  0.00000000000E+00  0.00000000000E+00  0.45593999997E+02  0.45594000000E+02  0.51100000000E-03 0.  1.
         11   -1    0    0    0    0 -0.00000000000E+00 -0.00000000000E+00 -0.45593999997E+02  0.45594000000E+02  0.51100000000E-03 0. -1.
    9900012    2    1    2    0    0  0.28390772880E+02  0.64455687961E+01  0.13004917750E+02  0.59302121817E+02  0.50000324243E+02 0.  0.
         12    1    1    2    0    0 -0.28390772880E+02 -0.64455687961E+01 -0.13004917750E+02  0.31885878183E+02  0.00000000000E+00 0. -1.
         11    1    3    3    0    0 -0.18434308006E+01 -0.39096015975E+01  0.59423801894E+01  0.73481361137E+01  0.51100000000E-03 0.  1.
        -11    1    3    3    0    0  0.20486256745E+01 -0.84118889225E+01  0.14867116071E+02  0.17204298385E+02  0.51100000000E-03 0. -1.
         12    1    3    3    0    0  0.28185578006E+02  0.18767059316E+02 -0.78045785111E+01  0.34749687318E+02  0.00000000000E+00 0. -1.
</event>
<event>
 7    1  0.6316620E-012  0.5930194E+02  0.7816164E-02  0.1266605E+00
        -11   -1    0    0    0    0  0.00000000000E+00  0.00000000000E+00  0.45593999997E+02  0.45594000000E+02  0.51100000000E-03 0.  1.
         11   -1    0    0    0    0 -0.00000000000E+00 -0.00000000000E+00 -0.45593999997E+02  0.45594000000E+02  0.51100000000E-03 0. -1.
    9900012    2    1    2    0    0 -0.54485375755E+01 -0.21101088157E+02  0.23276130304E+02  0.59301941526E+02  0.49999995437E+02 0.  0.
         12    1    1    2    0    0  0.54485375755E+01  0.21101088157E+02 -0.23276130304E+02  0.31886058474E+02  0.00000000000E+00 0. -1.
         11    1    3    3    0    0  0.67920364183E+01 -0.17847400707E+02  0.24884216422E+02  0.31366952321E+02  0.51100000000E-03 0.  1.
        -11    1    3    3    0    0  0.41012981711E+01  0.34480399438E+00 -0.88050980485E+01  0.97195312844E+01  0.51100000000E-03 0. -1.
        -12    1    3    3    0    0 -0.16341872165E+02 -0.35984914446E+01  0.71970119300E+01  0.18215457920E+02  0.00000000000E+00 0.  1.
</event>
<event>
 7    1  0.6316620E-012  0.5930190E+02  0.7816164E-02  0.1266605E+00
        -11   -1    0    0    0    0  0.00000000000E+00  0.00000000000E+00  0.45593999997E+02  0.45594000000E+02  0.51100000000E-03 0.  1.
         11   -1    0    0    0    0 -0.00000000000E+00 -0.00000000000E+00 -0.45593999997E+02  0.45594000000E+02  0.51100000000E-03 0. -1.
    9900012    2    1    2    0    0 -0.25189255163E+01 -0.34346321701E+01  0.31600341465E+02  0.59301901703E+02  0.49999922809E+02 0.  0.
         12    1    1    2    0    0  0.25189255163E+01  0.34346321701E+01 -0.31600341465E+02  0.31886098297E+02  0.00000000000E+00 0. -1.
         11    1    3    3    0    0  0.93903396556E+01 -0.14457276185E+02  0.10959395560E+02  0.20427913864E+02  0.51100000000E-03 0. -1.
        -11    1    3    3    0    0  0.93848819152E+01  0.21693202341E+01  0.39718417352E+01  0.10419092373E+02  0.51100000000E-03 0.  1.
        -12    1    3    3    0    0 -0.21294147087E+02  0.88533237811E+01  0.16669104170E+02  0.28454895466E+02  0.00000000000E+00 0.  1.
</event>
<event>
 7    1  0.6316620E-012  0.5930187E+02  0.7816164E-02  0.1266605E+00
        -11   -1    0    0    0    0  0.00000000000E+00  0.00000000000E+00  0.45593999997E+02  0.45594000000E+02  0.51100000000E-03 0.  1.
         11   -1    0    0    0    0 -0.00000000000E+00 -0.00000000000E+00 -0.45593999997E+02  0.45594000000E+02  0.51100000000E-03 0. -1.
    9900012    2    1    2    0    0 -0.37380982789E+01 -0.34851089458E+01  0.31473894924E+02  0.59301867829E+02  0.49999861032E+02 0.  0.
         12    1    1    2    0    0  0.37380982789E+01  0.34851089458E+01 -0.31473894924E+02  0.31886132171E+02  0.00000000000E+00 0. -1.
         11    1    3    3    0    0  0.77773978512E+01  0.69580832989E+01  0.44220981328E+01  0.11333922211E+02  0.51100000000E-03 0. -1.
        -11    1    3    3    0    0  0.31430474609E+01  0.10293049207E+02  0.18070030280E+02  0.21032156426E+02  0.51100000000E-03 0.  1.
        -12    1    3    3    0    0 -0.14658543591E+02 -0.20736241452E+02  0.89817665111E+01  0.26935789192E+02  0.00000000000E+00 0.  1.
</event>
<event>
 7    1  0.6316620E-012  0.5930192E+02  0.7816164E-02  0.1266605E+00
        -11   -1    0    0    0    0  0.00000000000E+00  0.00000000000E+00  0.45593999997E+02  0.45594000000E+02  0.51100000000E-03 0.  1.
         11   -1    0    0    0    0 -0.00000000000E+00 -0.00000000000E+00 -0.45593999997E+02  0.45594000000E+02  0.51100000000E-03 0. -1.
    9900012    2    1    2    0    0 -0.29406129207E+02 -0.86371465124E+01  0.87978058084E+01  0.59301919622E+02  0.49999955489E+02 0.  0.
         12    1    1    2    0    0  0.29406129207E+02  0.86371465124E+01 -0.87978058084E+01  0.31886080378E+02  0.00000000000E+00 0. -1.
         11    1    3    3    0    0  0.29499901692E+01 -0.53509459092E+01 -0.12075683197E+02  0.13533557886E+02  0.51100000000E-03 0. -1.
        -11    1    3    3    0    0 -0.53069808167E+01  0.36719130218E+01 -0.46330891686E+01  0.79443379921E+01  0.51100000000E-03 0.  1.
        -12    1    3    3    0    0 -0.27049138560E+02 -0.69581136250E+01  0.25506578174E+02  0.37824023744E+02  0.00000000000E+00 0.  1.
</event>
<event>
 7    1  0.6316620E-012  0.5930196E+02  0.7816164E-02  0.1266605E+00
        -11   -1    0    0    0    0  0.00000000000E+00  0.00000000000E+00  0.45593999997E+02  0.45594000000E+02  0.51100000000E-03 0. -1.
         11   -1    0    0    0    0 -0.00000000000E+00 -0.00000000000E+00 -0.45593999997E+02  0.45594000000E+02  0.51100000000E-03 0.  1.
    9900012    2    1    2    0    0  0.17886958700E+02 -0.24816818791E+02 -0.89945506358E+01  0.59301957166E+02  0.50000023962E+02 0.  0.
         12    1    1    2    0    0 -0.17886958700E+02  0.24816818791E+02  0.89945506358E+01  0.31886042834E+02  0.00000000000E+00 0. -1.
         11    1    3    3    0    0  0.24294738733E+02 -0.12205324477E+02 -0.63890996471E+00  0.27195817361E+02  0.51100000000E-03 0. -1.
        -11    1    3    3    0    0  0.56497790196E+01 -0.11209402835E+02  0.54830626464E+01  0.13697981279E+02  0.51100000000E-03 0.  1.
         12    1    3    3    0    0 -0.12057559053E+02 -0.14020914791E+01 -0.13838703317E+02  0.18408158526E+02  0.00000000000E+00 0. -1.
</event>
<event>
 7    1  0.6316620E-012  0.5930193E+02  0.7816164E-02  0.1266605E+00
        -11   -1    0    0    0    0  0.00000000000E+00  0.00000000000E+00  0.45593999997E+02  0.45594000000E+02  0.51100000000E-03 0.  1.
         11   -1    0    0    0    0 -0.00000000000E+00 -0.00000000000E+00 -0.45593999997E+02  0.45594000000E+02  0.51100000000E-03 0. -1.
    9900012    2    1    2    0    0  0.17544509596E+02  0.18496209587E+02  0.19152080593E+02  0.59301925028E+02  0.49999965349E+02 0.  0.
         12    1    1    2    0    0 -0.17544509596E+02 -0.18496209587E+02 -0.19152080593E+02  0.31886074972E+02  0.00000000000E+00 0. -1.
         11    1    3    3    0    0  0.10389483077E+02  0.18841111625E+02  0.26157664028E+02  0.33869635864E+02  0.51100000000E-03 0.  1.
        -11    1    3    3    0    0  0.82718381361E+01 -0.67627081338E+01  0.49821342982E+01  0.11788943544E+02  0.51100000000E-03 0. -1.
         12    1    3    3    0    0 -0.11168116172E+01  0.64178060963E+01 -0.11987717733E+02  0.13643345621E+02  0.00000000000E+00 0. -1.
</event>
<event>
 7    1  0.6316620E-012  0.5930196E+02  0.7816164E-02  0.1266605E+00
        -11   -1    0    0    0    0  0.00000000000E+00  0.00000000000E+00  0.45593999997E+02  0.45594000000E+02  0.51100000000E-03 0. -1.
         11   -1    0    0    0    0 -0.00000000000E+00 -0.00000000000E+00 -0.45593999997E+02  0.45594000000E+02  0.51100000000E-03 0.  1.
    9900012    2    1    2    0    0  0.24346306194E+02 -0.30341793469E+01 -0.20365918272E+02  0.59301960787E+02  0.50000030565E+02 0.  0.
         12    1    1    2    0    0 -0.24346306194E+02  0.30341793469E+01  0.20365918272E+02  0.31886039213E+02  0.00000000000E+00 0. -1.
         11    1    3    3    0    0  0.37517326724E+01 -0.13586530476E+02 -0.37642143453E+01  0.14588989626E+02  0.51100000000E-03 0. -1.
        -11    1    3    3    0    0  0.48275732694E+01  0.99889516731E+01 -0.24628076770E+02  0.27011604633E+02  0.51100000000E-03 0.  1.
         12    1    3    3    0    0  0.15767000252E+02  0.56339945601E+00  0.80263728434E+01  0.17701366527E+02  0.00000000000E+00 0. -1.
</event>
<event>
 7    1  0.6316620E-012  0.5930196E+02  0.7816164E-02  0.1266605E+00
        -11   -1    0    0    0    0  0.00000000000E+00  0.00000000000E+00  0.45593999997E+02  0.45594000000E+02  0.51100000000E-03 0.  1.
         11   -1    0    0    0    0 -0.00000000000E+00 -0.00000000000E+00 -0.45593999997E+02  0.45594000000E+02  0.51100000000E-03 0. -1.
    9900012    2    1    2    0    0  0.25848388155E+01  0.31253464321E+02  0.57670898148E+01  0.59301956836E+02  0.50000023359E+02 0.  0.
         12    1    1    2    0    0 -0.25848388155E+01 -0.31253464321E+02 -0.57670898148E+01  0.31886043164E+02  0.00000000000E+00 0. -1.
         11    1    3    3    0    0  0.14908498772E+02  0.14401703235E+02 -0.78562715563E+01  0.22167394857E+02  0.51100000000E-03 0. -1.
        -11    1    3    3    0    0  0.46671120801E+01  0.16373797770E+02  0.10032399577E+02  0.19761888324E+02  0.51100000000E-03 0.  1.
         12    1    3    3    0    0 -0.16990772037E+02  0.47796331599E+00  0.35909617937E+01  0.17372673655E+02  0.00000000000E+00 0. -1.
</event>
<event>
 7    1  0.6316620E-012  0.5930208E+02  0.7816164E-02  0.1266604E+00
        -11   -1    0    0    0    0  0.00000000000E+00  0.00000000000E+00  0.45593999997E+02  0.45594000000E+02  0.51100000000E-03 0.  1.
         11   -1    0    0    0    0 -0.00000000000E+00 -0.00000000000E+00 -0.45593999997E+02  0.45594000000E+02  0.51100000000E-03 0. -1.
    9900012    2    1    2    0    0 -0.17635912738E+02 -0.11317527987E+02  0.24033305990E+02  0.59302083758E+02  0.50000254833E+02 0.  0.
         12    1    1    2    0    0  0.17635912738E+02  0.11317527987E+02 -0.24033305990E+02  0.31885916242E+02  0.00000000000E+00 0. -1.
         11    1    3    3    0    0 -0.19282968824E+02 -0.73411381280E+01  0.72580964141E+01  0.21872474929E+02  0.51100000000E-03 0. -1.
        -11    1    3    3    0    0 -0.13744305153E+02  0.60567308332E+01  0.63661029160E+01  0.16313098391E+02  0.51100000000E-03 0.  1.
        -12    1    3    3    0    0  0.15391361239E+02 -0.10033120692E+02  0.10409106660E+02  0.21116510438E+02  0.00000000000E+00 0.  1.
</event>
<event>
 7    1  0.6316620E-012  0.5930193E+02  0.7816164E-02  0.1266605E+00
        -11   -1    0    0    0    0  0.00000000000E+00  0.00000000000E+00  0.45593999997E+02  0.45594000000E+02  0.51100000000E-03 0. -1.
         11   -1    0    0    0    0 -0.00000000000E+00 -0.00000000000E+00 -0.45593999997E+02  0.45594000000E+02  0.51100000000E-03 0.  1.
    9900012    2    1    2    0    0  0.91112287546E+01  0.28696602440E+02 -0.10498178020E+02  0.59301933721E+02  0.49999981202E+02 0.  0.
         12    1    1    2    0    0 -0.91112287546E+01 -0.28696602440E+02  0.10498178020E+02  0.31886066279E+02  0.00000000000E+00 0. -1.
         11    1    3    3    0    0  0.89282553089E+01  0.25213723318E+02 -0.97333552408E+01  0.28463727636E+02  0.51100000000E-03 0. -1.
        -11    1    3    3    0    0 -0.70447071969E+01  0.15210461920E+02 -0.25197694179E+01  0.16950967214E+02  0.51100000000E-03 0.  1.
         12    1    3    3    0    0  0.72276806426E+01 -0.11727582798E+02  0.17549466385E+01  0.13887238871E+02  0.00000000000E+00 0. -1.
</event>
<event>
 7    1  0.6316620E-012  0.5930194E+02  0.7816164E-02  0.1266605E+00
        -11   -1    0    0    0    0  0.00000000000E+00  0.00000000000E+00  0.45593999997E+02  0.45594000000E+02  0.51100000000E-03 0.  1.
         11   -1    0    0    0    0 -0.00000000000E+00 -0.00000000000E+00 -0.45593999997E+02  0.45594000000E+02  0.51100000000E-03 0. -1.
    9900012    2    1    2    0    0  0.16700523063E+02 -0.43848850003E+00  0.27159176810E+02  0.59301943051E+02  0.49999998219E+02 0.  0.
         12    1    1    2    0    0 -0.16700523063E+02  0.43848850003E+00 -0.27159176810E+02  0.31886056949E+02  0.00000000000E+00 0. -1.
         11    1    3    3    0    0 -0.42505785349E+01 -0.10216156162E+02  0.11379612403E+02  0.15872392489E+02  0.51100000000E-03 0. -1.
        -11    1    3    3    0    0 -0.83610231193E+01  0.61456195307E+01  0.10658177312E+01  0.10431266209E+02  0.51100000000E-03 0.  1.
         12    1    3    3    0    0  0.29312124718E+02  0.36320481314E+01  0.14713746676E+02  0.32998284354E+02  0.00000000000E+00 0. -1.
</event>
<event>
 7    1  0.6316620E-012  0.5930195E+02  0.7816164E-02  0.1266605E+00
        -11   -1    0    0    0    0  0.00000000000E+00  0.00000000000E+00  0.45593999997E+02  0.45594000000E+02  0.51100000000E-03 0.  1.
         11   -1    0    0    0    0 -0.00000000000E+00 -0.00000000000E+00 -0.45593999997E+02  0.45594000000E+02  0.51100000000E-03 0. -1.
    9900012    2    1    2    0    0 -0.85326146741E+01  0.19755983116E+02  0.23529045666E+02  0.59301947061E+02  0.50000005532E+02 0.  0.
         12    1    1    2    0    0  0.85326146741E+01 -0.19755983116E+02 -0.23529045666E+02  0.31886052939E+02  0.00000000000E+00 0. -1.
         11    1    3    3    0    0 -0.58403844988E+01 -0.71780653516E+01  0.10390093601E+02  0.13913617739E+02  0.51100000000E-03 0. -1.
        -11    1    3    3    0    0 -0.84819274532E+01  0.22795115321E+01 -0.83919479184E+01  0.12147594670E+02  0.51100000000E-03 0.  1.
         12    1    3    3    0    0  0.57896972779E+01  0.24654536936E+02  0.21530899984E+02  0.33240734652E+02  0.00000000000E+00 0. -1.
</event>
<event>
 7    1  0.6316620E-012  0.5930203E+02  0.7816164E-02  0.1266604E+00
        -11   -1    0    0    0    0  0.00000000000E+00  0.00000000000E+00  0.45593999997E+02  0.45594000000E+02  0.51100000000E-03 0.  1.
         11   -1    0    0    0    0 -0.00000000000E+00 -0.00000000000E+00 -0.45593999997E+02  0.45594000000E+02  0.51100000000E-03 0. -1.
    9900012    2    1    2    0    0  0.20050872084E+02 -0.12212105217E+02  0.21576423732E+02  0.59302030574E+02  0.50000157839E+02 0.  0.
         12    1    1    2    0    0 -0.20050872084E+02  0.12212105217E+02 -0.21576423732E+02  0.31885969426E+02  0.00000000000E+00 0. -1.
         11    1    3    3    0    0 -0.81595550885E+01 -0.57829786862E+01  0.89104187099E+01  0.13394653544E+02  0.51100000000E-03 0. -1.
        -11    1    3    3    0    0 -0.29769974782E+01 -0.75524865518E+01 -0.54922785940E+01  0.98014127306E+01  0.51100000000E-03 0.  1.
        -12    1    3    3    0    0  0.31187424651E+02  0.11233600210E+01  0.18158283616E+02  0.36105964299E+02  0.00000000000E+00 0.  1.
</event>
<event>
 7    1  0.6316620E-012  0.5930198E+02  0.7816164E-02  0.1266605E+00
        -11   -1    0    0    0    0  0.00000000000E+00  0.00000000000E+00  0.45593999997E+02  0.45594000000E+02  0.51100000000E-03 0. -1.
         11   -1    0    0    0    0 -0.00000000000E+00 -0.00000000000E+00 -0.45593999997E+02  0.45594000000E+02  0.51100000000E-03 0.  1.
    9900012    2    1    2    0    0  0.17120424995E+02 -0.10021400751E+02 -0.24963590715E+02  0.59301979765E+02  0.50000065176E+02 0.  0.
         12    1    1    2    0    0 -0.17120424995E+02  0.10021400751E+02  0.24963590715E+02  0.31886020235E+02  0.00000000000E+00 0. -1.
         11    1    3    3    0    0 -0.98734306903E+01 -0.51478673355E+01  0.50659863089E+01  0.12233126716E+02  0.51100000000E-03 0. -1.
        -11    1    3    3    0    0 -0.35131156557E+01  0.14637879108E+00 -0.90404785745E+01  0.97001887342E+01  0.51100000000E-03 0.  1.
         12    1    3    3    0    0  0.30506971341E+02 -0.50199122065E+01 -0.20989098450E+02  0.37368664315E+02  0.00000000000E+00 0. -1.
</event>
<event>
 7    1  0.6316620E-012  0.5930193E+02  0.7816164E-02  0.1266605E+00
        -11   -1    0    0    0    0  0.00000000000E+00  0.00000000000E+00  0.45593999997E+02  0.45594000000E+02  0.51100000000E-03 0.  1.
         11   -1    0    0    0    0 -0.00000000000E+00 -0.00000000000E+00 -0.45593999997E+02  0.45594000000E+02  0.51100000000E-03 0. -1.
    9900012    2    1    2    0    0  0.26034765453E+02 -0.13602923022E+02  0.12404564571E+02  0.59301925467E+02  0.49999966149E+02 0.  0.
         12    1    1    2    0    0 -0.26034765453E+02  0.13602923022E+02 -0.12404564571E+02  0.31886074533E+02  0.00000000000E+00 0. -1.
         11    1    3    3    0    0 -0.97553286369E+00 -0.43341569895E+01 -0.12377892816E+02  0.13151000419E+02  0.51100000000E-03 0. -1.
        -11    1    3    3    0    0 -0.25963006317E+01  0.51498142833E+01  0.56085165988E+01  0.80446766761E+01  0.51100000000E-03 0.  1.
        -12    1    3    3    0    0  0.29606598949E+02 -0.14418580316E+02  0.19173940789E+02  0.38106248372E+02  0.00000000000E+00 0.  1.
</event>
<event>
 7    1  0.6316620E-012  0.5930200E+02  0.7816164E-02  0.1266605E+00
        -11   -1    0    0    0    0  0.00000000000E+00  0.00000000000E+00  0.45593999997E+02  0.45594000000E+02  0.51100000000E-03 0.  1.
         11   -1    0    0    0    0 -0.00000000000E+00 -0.00000000000E+00 -0.45593999997E+02  0.45594000000E+02  0.51100000000E-03 0. -1.
    9900012    2    1    2    0    0  0.71545481460E+01  0.13492591364E+02  0.27990706586E+02  0.59301996236E+02  0.50000095215E+02 0.  0.
         12    1    1    2    0    0 -0.71545481460E+01 -0.13492591364E+02 -0.27990706586E+02  0.31886003764E+02  0.00000000000E+00 0. -1.
         11    1    3    3    0    0  0.21060790354E+02 -0.57992963446E+01  0.13836389364E+02  0.25857965878E+02  0.51100000000E-03 0. -1.
        -11    1    3    3    0    0 -0.32642538453E+01 -0.27455333561E+01  0.65518361788E+01  0.78179194259E+01  0.51100000000E-03 0.  1.
        -12    1    3    3    0    0 -0.10641988363E+02  0.22037421065E+02  0.76024810429E+01  0.25626110932E+02  0.00000000000E+00 0.  1.
</event>
<event>
 7    1  0.6316620E-012  0.5930194E+02  0.7816164E-02  0.1266605E+00
        -11   -1    0    0    0    0  0.00000000000E+00  0.00000000000E+00  0.45593999997E+02  0.45594000000E+02  0.51100000000E-03 0. -1.
         11   -1    0    0    0    0 -0.00000000000E+00 -0.00000000000E+00 -0.45593999997E+02  0.45594000000E+02  0.51100000000E-03 0.  1.
    9900012    2    1    2    0    0  0.26222101128E+02  0.17998574050E+02  0.22745133286E+01  0.59301942447E+02  0.49999997118E+02 0.  0.
         12    1    1    2    0    0 -0.26222101128E+02 -0.17998574050E+02 -0.22745133286E+01  0.31886057553E+02  0.00000000000E+00 0. -1.
         11    1    3    3    0    0 -0.25209160354E+01 -0.23421382747E+01 -0.42640140379E+01  0.54792741611E+01  0.51100000000E-03 0. -1.
        -11    1    3    3    0    0  0.60939858836E+01  0.23470780478E+02 -0.93400099726E+01  0.25985572666E+02  0.51100000000E-03 0.  1.
        -12    1    3    3    0    0  0.22649031280E+02 -0.31300681538E+01  0.15878537339E+02  0.27837095620E+02  0.00000000000E+00 0.  1.
</event>
<event>
 7    1  0.6316620E-012  0.5930189E+02  0.7816164E-02  0.1266605E+00
        -11   -1    0    0    0    0  0.00000000000E+00  0.00000000000E+00  0.45593999997E+02  0.45594000000E+02  0.51100000000E-03 0.  1.
         11   -1    0    0    0    0 -0.00000000000E+00 -0.00000000000E+00 -0.45593999997E+02  0.45594000000E+02  0.51100000000E-03 0. -1.
    9900012    2    1    2    0    0 -0.14177670683E+02 -0.28530061367E+02 -0.13241394429E+01  0.59301888716E+02  0.49999899124E+02 0.  0.
         12    1    1    2    0    0  0.14177670683E+02  0.28530061367E+02  0.13241394429E+01  0.31886111284E+02  0.00000000000E+00 0. -1.
         11    1    3    3    0    0  0.25580356807E+01 -0.10975035241E+02 -0.86942498104E+01  0.14233233122E+02  0.51100000000E-03 0.  1.
        -11    1    3    3    0    0 -0.56668550699E+00 -0.68235400030E-01 -0.13433510095E+02  0.13445630601E+02  0.51100000000E-03 0. -1.
        -12    1    3    3    0    0 -0.16169020856E+02 -0.17486790725E+02  0.20803620462E+02  0.31623024992E+02  0.00000000000E+00 0.  1.
</event>
<event>
 7    1  0.6316620E-012  0.5930194E+02  0.7816164E-02  0.1266605E+00
        -11   -1    0    0    0    0  0.00000000000E+00  0.00000000000E+00  0.45593999997E+02  0.45594000000E+02  0.51100000000E-03 0. -1.
         11   -1    0    0    0    0 -0.00000000000E+00 -0.00000000000E+00 -0.45593999997E+02  0.45594000000E+02  0.51100000000E-03 0.  1.
    9900012    2    1    2    0    0  0.16135856227E+02  0.27501591958E+02 -0.13158529225E+00  0.59301941430E+02  0.49999995263E+02 0.  0.
         12    1    1    2    0    0 -0.16135856227E+02 -0.27501591958E+02  0.13158529225E+00  0.31886058570E+02  0.00000000000E+00 0. -1.
         11    1    3    3    0    0  0.91345488950E+00  0.30634649706E+02 -0.16186364414E+01  0.30690978262E+02  0.51100000000E-03 0. -1.
        -11    1    3    3    0    0  0.61091791002E+01  0.59467338165E+01  0.10033403722E+02  0.13166430909E+02  0.51100000000E-03 0.  1.
         12    1    3    3    0    0  0.91132222377E+01 -0.90797915645E+01 -0.85463525732E+01  0.15444532259E+02  0.00000000000E+00 0. -1.
</event>
<event>
 7    1  0.6316620E-012  0.5930192E+02  0.7816164E-02  0.1266605E+00
        -11   -1    0    0    0    0  0.00000000000E+00  0.00000000000E+00  0.45593999997E+02  0.45594000000E+02  0.51100000000E-03 0.  1.
         11   -1    0    0    0    0 -0.00000000000E+00 -0.00000000000E+00 -0.45593999997E+02  0.45594000000E+02  0.51100000000E-03 0. -1.
    9900012    2    1    2    0    0 -0.29794589829E+02  0.11327993983E+02  0.82536696415E+00  0.59301917435E+02  0.49999951501E+02 0.  0.
         12    1    1    2    0    0  0.29794589829E+02 -0.11327993983E+02 -0.82536696415E+00  0.31886082565E+02  0.00000000000E+00 0. -1.
         11    1    3    3    0    0 -0.29905823270E+02  0.10839035906E+01 -0.15566153027E+02  0.33731857832E+02  0.51100000000E-03 0. -1.
        -11    1    3    3    0    0 -0.67047007867E+01  0.33036382972E+01  0.12576659921E+01  0.75794962000E+01  0.51100000000E-03 0.  1.
        -12    1    3    3    0    0  0.68159342282E+01  0.69404520951E+01  0.15133853999E+02  0.17990563403E+02  0.00000000000E+00 0.  1.
</event>
<event>
 7    1  0.6316620E-012  0.5930196E+02  0.7816164E-02  0.1266605E+00
        -11   -1    0    0    0    0  0.00000000000E+00  0.00000000000E+00  0.45593999997E+02  0.45594000000E+02  0.51100000000E-03 0.  1.
         11   -1    0    0    0    0 -0.00000000000E+00 -0.00000000000E+00 -0.45593999997E+02  0.45594000000E+02  0.51100000000E-03 0. -1.
    9900012    2    1    2    0    0  0.27623752938E+02 -0.10952819372E+01  0.15888626044E+02  0.59301955930E+02  0.50000021706E+02 0.  0.
         12    1    1    2    0    0 -0.27623752938E+02  0.10952819372E+01 -0.15888626044E+02  0.31886044070E+02  0.00000000000E+00 0. -1.
         11    1    3    3    0    0 -0.73673205128E+01  0.10881829975E+02  0.59089693210E+01  0.14408593056E+02  0.51100000000E-03 0. -1.
        -11    1    3    3    0    0  0.15231573258E+01  0.60477680493E+00 -0.56417726331E+01  0.58749776108E+01  0.51100000000E-03 0.  1.
        -12    1    3    3    0    0  0.33467916125E+02 -0.12581888717E+02  0.15621429356E+02  0.39018385263E+02  0.00000000000E+00 0.  1.
</event>
<event>
 7    1  0.6316620E-012  0.5930194E+02  0.7816164E-02  0.1266605E+00
        -11   -1    0    0    0    0  0.00000000000E+00  0.00000000000E+00  0.45593999997E+02  0.45594000000E+02  0.51100000000E-03 0. -1.
         11   -1    0    0    0    0 -0.00000000000E+00 -0.00000000000E+00 -0.45593999997E+02  0.45594000000E+02  0.51100000000E-03 0.  1.
    9900012    2    1    2    0    0 -0.26441981956E+02  0.57109044184E+01 -0.16879810976E+02  0.59301939446E+02  0.49999991644E+02 0.  0.
         12    1    1    2    0    0  0.26441981956E+02 -0.57109044184E+01  0.16879810976E+02  0.31886060554E+02  0.00000000000E+00 0. -1.
         11    1    3    3    0    0  0.38399271678E+01 -0.65385375280E+01  0.22783163696E+01  0.79175905047E+01  0.51100000000E-03 0. -1.
        -11    1    3    3    0    0  0.24716836575E+00  0.16002438917E+02 -0.11437829909E+02  0.19671377602E+02  0.51100000000E-03 0.  1.
        -12    1    3    3    0    0 -0.30529077490E+02 -0.37529969705E+01 -0.77202974365E+01  0.31712971339E+02  0.00000000000E+00 0.  1.
</event>
<event>
 7    1  0.6316620E-012  0.5930195E+02  0.7816164E-02  0.1266605E+00
        -11   -1    0    0    0    0  0.00000000000E+00  0.00000000000E+00  0.45593999997E+02  0.45594000000E+02  0.51100000000E-03 0. -1.
         11   -1    0    0    0    0 -0.00000000000E+00 -0.00000000000E+00 -0.45593999997E+02  0.45594000000E+02  0.51100000000E-03 0.  1.
    9900012    2    1    2    0    0 -0.10643083440E+02  0.28289210811E+02  0.10157043754E+02  0.59301949582E+02  0.50000010130E+02 0.  0.
         12    1    1    2    0    0  0.10643083440E+02 -0.28289210811E+02 -0.10157043754E+02  0.31886050418E+02  0.00000000000E+00 0. -1.
         11    1    3    3    0    0 -0.20801218694E+02  0.90909430450E+01  0.54221823500E+01  0.23339580251E+02  0.51100000000E-03 0. -1.
        -11    1    3    3    0    0 -0.73440122946E+01  0.15427360144E+02 -0.11272427858E+01  0.17123335953E+02  0.51100000000E-03 0.  1.
        -12    1    3    3    0    0  0.17502147548E+02  0.37709076223E+01  0.58621041895E+01  0.18839033378E+02  0.00000000000E+00 0.  1.
</event>
<event>
 7    1  0.6316620E-012  0.5930193E+02  0.7816164E-02  0.1266605E+00
        -11   -1    0    0    0    0  0.00000000000E+00  0.00000000000E+00  0.45593999997E+02  0.45594000000E+02  0.51100000000E-03 0.  1.
         11   -1    0    0    0    0 -0.00000000000E+00 -0.00000000000E+00 -0.45593999997E+02  0.45594000000E+02  0.51100000000E-03 0. -1.
    9900012    2    1    2    0    0  0.23790751478E+02  0.14174766373E+02  0.15804993293E+02  0.59301926698E+02  0.49999968395E+02 0.  0.
         12    1    1    2    0    0 -0.23790751478E+02 -0.14174766373E+02 -0.15804993293E+02  0.31886073302E+02  0.00000000000E+00 0. -1.
         11    1    3    3    0    0 -0.22292388917E+01 -0.15612705935E+01  0.38554838691E+01  0.47193037653E+01  0.51100000000E-03 0. -1.
        -11    1    3    3    0    0  0.67354971237E+00  0.20970641890E+02  0.18403227854E+02  0.27908785109E+02  0.51100000000E-03 0.  1.
        -12    1    3    3    0    0  0.25346440657E+02 -0.52346049237E+01 -0.64537184309E+01  0.26673837825E+02  0.00000000000E+00 0.  1.
</event>
<event>
 7    1  0.6316620E-012  0.5930197E+02  0.7816164E-02  0.1266605E+00
        -11   -1    0    0    0    0  0.00000000000E+00  0.00000000000E+00  0.45593999997E+02  0.45594000000E+02  0.51100000000E-03 0. -1.
         11   -1    0    0    0    0 -0.00000000000E+00 -0.00000000000E+00 -0.45593999997E+02  0.45594000000E+02  0.51100000000E-03 0.  1.
    9900012    2    1    2    0    0  0.10948969590E+02  0.21938657104E+02 -0.20384661851E+02  0.59301967801E+02  0.50000043356E+02 0.  0.
         12    1    1    2    0    0 -0.10948969590E+02 -0.21938657104E+02  0.20384661851E+02  0.31886032199E+02  0.00000000000E+00 0. -1.
         11    1    3    3    0    0 -0.51315399765E+01  0.13883945299E+02 -0.82107731066E+01  0.16926707739E+02  0.51100000000E-03 0. -1.
        -11    1    3    3    0    0 -0.43771021319E+01  0.17331070217E+02 -0.77414222148E+01  0.19479595378E+02  0.51100000000E-03 0.  1.
         12    1    3    3    0    0  0.20457611698E+02 -0.92763584117E+01 -0.44324665300E+01  0.22895664684E+02  0.00000000000E+00 0. -1.
</event>
<event>
 7    1  0.6316620E-012  0.5930194E+02  0.7816164E-02  0.1266605E+00
        -11   -1    0    0    0    0  0.00000000000E+00  0.00000000000E+00  0.45593999997E+02  0.45594000000E+02  0.51100000000E-03 0.  1.
         11   -1    0    0    0    0 -0.00000000000E+00 -0.00000000000E+00 -0.45593999997E+02  0.45594000000E+02  0.51100000000E-03 0. -1.
    9900012    2    1    2    0    0 -0.80875404236E+01 -0.16450057927E+02  0.26090385253E+02  0.59301938491E+02  0.49999989902E+02 0.  0.
         12    1    1    2    0    0  0.80875404236E+01  0.16450057927E+02 -0.26090385253E+02  0.31886061509E+02  0.00000000000E+00 0. -1.
         11    1    3    3    0    0 -0.58416426006E+01 -0.14936422085E+02  0.30202642079E+02  0.34196799291E+02  0.51100000000E-03 0. -1.
        -11    1    3    3    0    0  0.96226516035E+01 -0.11472514650E+01  0.42501360453E+01  0.10581836630E+02  0.51100000000E-03 0.  1.
         12    1    3    3    0    0 -0.11868549426E+02 -0.36638437734E+00 -0.83623928709E+01  0.14523302570E+02  0.00000000000E+00 0. -1.
</event>
<event>
 7    1  0.6316620E-012  0.5930193E+02  0.7816164E-02  0.1266605E+00
        -11   -1    0    0    0    0  0.00000000000E+00  0.00000000000E+00  0.45593999997E+02  0.45594000000E+02  0.51100000000E-03 0. -1.
         11   -1    0    0    0    0 -0.00000000000E+00 -0.00000000000E+00 -0.45593999997E+02  0.45594000000E+02  0.51100000000E-03 0.  1.
    9900012    2    1    2    0    0 -0.11930683467E+02 -0.20951992645E+02 -0.20866105060E+02  0.59301928680E+02  0.49999972010E+02 0.  0.
         12    1    1    2    0    0  0.11930683467E+02  0.20951992645E+02  0.20866105060E+02  0.31886071320E+02  0.00000000000E+00 0. -1.
         11    1    3    3    0    0 -0.15705066875E+02 -0.21666527474E+02 -0.60628276487E+01  0.27438028677E+02  0.51100000000E-03 0. -1.
        -11    1    3    3    0    0  0.11818042238E+01 -0.12907084194E+01  0.83237755401E+01  0.85057526975E+01  0.51100000000E-03 0.  1.
        -12    1    3    3    0    0  0.25925791837E+01  0.20052432480E+01 -0.23127052952E+02  0.23358147306E+02  0.00000000000E+00 0.  1.
</event>
<event>
 7    1  0.6316620E-012  0.5930196E+02  0.7816164E-02  0.1266605E+00
        -11   -1    0    0    0    0  0.00000000000E+00  0.00000000000E+00  0.45593999997E+02  0.45594000000E+02  0.51100000000E-03 0.  1.
         11   -1    0    0    0    0 -0.00000000000E+00 -0.00000000000E+00 -0.45593999997E+02  0.45594000000E+02  0.51100000000E-03 0. -1.
    9900012    2    1    2    0    0 -0.73763400807E+01 -0.27249443255E+02  0.14824871663E+02  0.59301962765E+02  0.50000034173E+02 0.  0.
         12    1    1    2    0    0  0.73763400807E+01  0.27249443255E+02 -0.14824871663E+02  0.31886037235E+02  0.00000000000E+00 0. -1.
         11    1    3    3    0    0 -0.10587163039E+02  0.44758933608E+01 -0.16873511178E+01  0.11617607182E+02  0.51100000000E-03 0. -1.
        -11    1    3    3    0    0 -0.88369515308E+01 -0.28795188328E+01  0.13346435784E+02  0.16263784598E+02  0.51100000000E-03 0.  1.
         12    1    3    3    0    0  0.12047774489E+02 -0.28845817783E+02  0.31657869974E+01  0.31420570985E+02  0.00000000000E+00 0. -1.
</event>
<event>
 7    1  0.6316620E-012  0.5930195E+02  0.7816164E-02  0.1266605E+00
        -11   -1    0    0    0    0  0.00000000000E+00  0.00000000000E+00  0.45593999997E+02  0.45594000000E+02  0.51100000000E-03 0. -1.
         11   -1    0    0    0    0 -0.00000000000E+00 -0.00000000000E+00 -0.45593999997E+02  0.45594000000E+02  0.51100000000E-03 0.  1.
    9900012    2    1    2    0    0  0.38059246886E+01  0.10676216412E+02 -0.29803584164E+02  0.59301948368E+02  0.50000007916E+02 0.  0.
         12    1    1    2    0    0 -0.38059246886E+01 -0.10676216412E+02  0.29803584164E+02  0.31886051632E+02  0.00000000000E+00 0. -1.
         11    1    3    3    0    0 -0.88357185415E+01 -0.95605077127E+01 -0.61276248541E+01  0.14388224925E+02  0.51100000000E-03 0. -1.
        -11    1    3    3    0    0 -0.65525349207E+01  0.12680454911E+02 -0.10740788408E+01  0.14313745011E+02  0.51100000000E-03 0.  1.
        -12    1    3    3    0    0  0.19194178151E+02  0.75562692141E+01 -0.22601880469E+02  0.30599978432E+02  0.00000000000E+00 0.  1.
</event>
<event>
 7    1  0.6316620E-012  0.5930192E+02  0.7816164E-02  0.1266605E+00
        -11   -1    0    0    0    0  0.00000000000E+00  0.00000000000E+00  0.45593999997E+02  0.45594000000E+02  0.51100000000E-03 0. -1.
         11   -1    0    0    0    0 -0.00000000000E+00 -0.00000000000E+00 -0.45593999997E+02  0.45594000000E+02  0.51100000000E-03 0.  1.
    9900012    2    1    2    0    0  0.24975372873E+02 -0.16521187039E+02 -0.10954600072E+02  0.59301919431E+02  0.49999955142E+02 0.  0.
         12    1    1    2    0    0 -0.24975372873E+02  0.16521187039E+02  0.10954600072E+02  0.31886080569E+02  0.00000000000E+00 0. -1.
         11    1    3    3    0    0  0.73243453830E+01 -0.16294896850E+02 -0.15789197147E+02  0.23842576318E+02  0.51100000000E-03 0.  1.
        -11    1    3    3    0    0 -0.63163008310E+01  0.51893402444E+01  0.70410041514E+01  0.10788913202E+02  0.51100000000E-03 0. -1.
         12    1    3    3    0    0  0.23967328321E+02 -0.54156304330E+01 -0.22064070763E+01  0.24670429911E+02  0.00000000000E+00 0. -1.
</event>
<event>
 7    1  0.6316620E-012  0.5930195E+02  0.7816164E-02  0.1266605E+00
        -11   -1    0    0    0    0  0.00000000000E+00  0.00000000000E+00  0.45593999997E+02  0.45594000000E+02  0.51100000000E-03 0. -1.
         11   -1    0    0    0    0 -0.00000000000E+00 -0.00000000000E+00 -0.45593999997E+02  0.45594000000E+02  0.51100000000E-03 0.  1.
    9900012    2    1    2    0    0 -0.30500326333E+02 -0.71139089053E+01 -0.59868445837E+01  0.59301954237E+02  0.50000018619E+02 0.  0.
         12    1    1    2    0    0  0.30500326333E+02  0.71139089053E+01  0.59868445837E+01  0.31886045763E+02  0.00000000000E+00 0. -1.
         11    1    3    3    0    0  0.54057480216E+01  0.11625729267E+02 -0.18367959539E+01  0.12951969437E+02  0.51100000000E-03 0. -1.
        -11    1    3    3    0    0 -0.70809464414E+01 -0.13105376749E+02  0.47928281544E+01  0.15648063913E+02  0.51100000000E-03 0.  1.
        -12    1    3    3    0    0 -0.28825127913E+02 -0.56342614231E+01 -0.89428767842E+01  0.30701920887E+02  0.00000000000E+00 0.  1.
</event>
<event>
 7    1  0.6316620E-012  0.5930193E+02  0.7816164E-02  0.1266605E+00
        -11   -1    0    0    0    0  0.00000000000E+00  0.00000000000E+00  0.45593999997E+02  0.45594000000E+02  0.51100000000E-03 0. -1.
         11   -1    0    0    0    0 -0.00000000000E+00 -0.00000000000E+00 -0.45593999997E+02  0.45594000000E+02  0.51100000000E-03 0.  1.
    9900012    2    1    2    0    0  0.15389508779E+02  0.18063288085E+02 -0.21297934465E+02  0.59301931421E+02  0.49999977009E+02 0.  0.
         12    1    1    2    0    0 -0.15389508779E+02 -0.18063288085E+02  0.21297934465E+02  0.31886068579E+02  0.00000000000E+00 0. -1.
         11    1    3    3    0    0  0.10244853312E+01 -0.24469712628E+01  0.39037461612E+01  0.47197958544E+01  0.51100000000E-03 0. -1.
        -11    1    3    3    0    0  0.14617824511E+02  0.25262405134E+02 -0.25738066322E+00  0.29187945314E+02  0.51100000000E-03 0.  1.
        -12    1    3    3    0    0 -0.25280106284E+00 -0.47521457862E+01 -0.24944299963E+02  0.25394190253E+02  0.00000000000E+00 0.  1.
</event>
<event>
 7    1  0.6316620E-012  0.5930195E+02  0.7816164E-02  0.1266605E+00
        -11   -1    0    0    0    0  0.00000000000E+00  0.00000000000E+00  0.45593999997E+02  0.45594000000E+02  0.51100000000E-03 0. -1.
         11   -1    0    0    0    0 -0.00000000000E+00 -0.00000000000E+00 -0.45593999997E+02  0.45594000000E+02  0.51100000000E-03 0.  1.
    9900012    2    1    2    0    0 -0.23486036841E+02 -0.42415841614E+01 -0.21145578642E+02  0.59301945700E+02  0.50000003050E+02 0.  0.
         12    1    1    2    0    0  0.23486036841E+02  0.42415841614E+01  0.21145578642E+02  0.31886054300E+02  0.00000000000E+00 0. -1.
         11    1    3    3    0    0 -0.14125100044E+02 -0.24211107869E+00  0.80101058383E+01  0.16240038941E+02  0.51100000000E-03 0. -1.
        -11    1    3    3    0    0  0.93297091067E+00  0.15514945957E+01  0.58660259296E+01  0.61390415106E+01  0.51100000000E-03 0.  1.
        -12    1    3    3    0    0 -0.10293907708E+02 -0.55509676784E+01 -0.35021710410E+02  0.36922865248E+02  0.00000000000E+00 0.  1.
</event>
<event>
 7    1  0.6316620E-012  0.5930197E+02  0.7816164E-02  0.1266605E+00
        -11   -1    0    0    0    0  0.00000000000E+00  0.00000000000E+00  0.45593999997E+02  0.45594000000E+02  0.51100000000E-03 0.  1.
         11   -1    0    0    0    0 -0.00000000000E+00 -0.00000000000E+00 -0.45593999997E+02  0.45594000000E+02  0.51100000000E-03 0. -1.
    9900012    2    1    2    0    0 -0.22254660291E+02 -0.28899637516E+01  0.22651646247E+02  0.59301970569E+02  0.50000048405E+02 0.  0.
         12    1    1    2    0    0  0.22254660291E+02  0.28899637516E+01 -0.22651646247E+02  0.31886029431E+02  0.00000000000E+00 0. -1.
         11    1    3    3    0    0  0.17740075614E+00  0.45306333799E+01  0.93666485805E+01  0.10406354585E+02  0.51100000000E-03 0. -1.
        -11    1    3    3    0    0  0.11039899560E+02  0.24699750758E+01  0.73529448722E+01  0.13492440762E+02  0.51100000000E-03 0.  1.
         12    1    3    3    0    0 -0.33471960607E+02 -0.98905722073E+01  0.59320527946E+01  0.35403175222E+02  0.00000000000E+00 0. -1.
</event>
<event>
 7    1  0.6316620E-012  0.5930195E+02  0.7816164E-02  0.1266605E+00
        -11   -1    0    0    0    0  0.00000000000E+00  0.00000000000E+00  0.45593999997E+02  0.45594000000E+02  0.51100000000E-03 0.  1.
         11   -1    0    0    0    0 -0.00000000000E+00 -0.00000000000E+00 -0.45593999997E+02  0.45594000000E+02  0.51100000000E-03 0. -1.
    9900012    2    1    2    0    0 -0.39874914308E+01 -0.14192453579E+02  0.28273557386E+02  0.59301954874E+02  0.50000019781E+02 0.  0.
         12    1    1    2    0    0  0.39874914308E+01  0.14192453579E+02 -0.28273557386E+02  0.31886045126E+02  0.00000000000E+00 0. -1.
         11    1    3    3    0    0 -0.84202802343E-01  0.72693074417E+01 -0.66108644473E+01  0.98261614985E+01  0.51100000000E-03 0. -1.
        -11    1    3    3    0    0 -0.11591059386E+02 -0.59419959915E+01  0.32723013664E+01  0.13430112827E+02  0.51100000000E-03 0.  1.
         12    1    3    3    0    0  0.76877707576E+01 -0.15519765029E+02  0.31612120467E+02  0.36045680549E+02  0.00000000000E+00 0. -1.
</event>
<event>
 7    1  0.6316620E-012  0.5930195E+02  0.7816164E-02  0.1266605E+00
        -11   -1    0    0    0    0  0.00000000000E+00  0.00000000000E+00  0.45593999997E+02  0.45594000000E+02  0.51100000000E-03 0.  1.
         11   -1    0    0    0    0 -0.00000000000E+00 -0.00000000000E+00 -0.45593999997E+02  0.45594000000E+02  0.51100000000E-03 0. -1.
    9900012    2    1    2    0    0 -0.29217098147E+02 -0.12557177376E+02  0.23235486502E+01  0.59301946527E+02  0.50000004558E+02 0.  0.
         12    1    1    2    0    0  0.29217098147E+02  0.12557177376E+02 -0.23235486502E+01  0.31886053473E+02  0.00000000000E+00 0. -1.
         11    1    3    3    0    0 -0.79438092312E+01 -0.17422961363E+02  0.24321989133E+01  0.19302312804E+02  0.51100000000E-03 0. -1.
        -11    1    3    3    0    0 -0.27941614459E+02 -0.14868591816E+01 -0.65788452934E+01  0.28744143307E+02  0.51100000000E-03 0.  1.
         12    1    3    3    0    0  0.66683255433E+01  0.63526431691E+01  0.64701950304E+01  0.11255490417E+02  0.00000000000E+00 0. -1.
</event>
<event>
 7    1  0.6316620E-012  0.5930199E+02  0.7816164E-02  0.1266605E+00
        -11   -1    0    0    0    0  0.00000000000E+00  0.00000000000E+00  0.45593999997E+02  0.45594000000E+02  0.51100000000E-03 0.  1.
         11   -1    0    0    0    0 -0.00000000000E+00 -0.00000000000E+00 -0.45593999997E+02  0.45594000000E+02  0.51100000000E-03 0. -1.
    9900012    2    1    2    0    0 -0.15174091580E+02 -0.14646577931E+02  0.23915311846E+02  0.59301993021E+02  0.50000089352E+02 0.  0.
         12    1    1    2    0    0  0.15174091580E+02  0.14646577931E+02 -0.23915311846E+02  0.31886006979E+02  0.00000000000E+00 0. -1.
         11    1    3    3    0    0 -0.39525011671E+01  0.16353968118E+01 -0.11466579350E+00  0.42790111840E+01  0.51100000000E-03 0. -1.
        -11    1    3    3    0    0 -0.28209892178E+02 -0.14859684768E+02  0.19534127920E+02  0.37392384277E+02  0.51100000000E-03 0.  1.
        -12    1    3    3    0    0  0.16988301764E+02 -0.14222899742E+01  0.44958497197E+01  0.17630597560E+02  0.00000000000E+00 0.  1.
</event>
<event>
 7    1  0.6316620E-012  0.5930195E+02  0.7816164E-02  0.1266605E+00
        -11   -1    0    0    0    0  0.00000000000E+00  0.00000000000E+00  0.45593999997E+02  0.45594000000E+02  0.51100000000E-03 0.  1.
         11   -1    0    0    0    0 -0.00000000000E+00 -0.00000000000E+00 -0.45593999997E+02  0.45594000000E+02  0.51100000000E-03 0. -1.
    9900012    2    1    2    0    0  0.14579983417E+02  0.18662472437E+02  0.21350786881E+02  0.59301954552E+02  0.50000019193E+02 0.  0.
         12    1    1    2    0    0 -0.14579983417E+02 -0.18662472437E+02 -0.21350786881E+02  0.31886045448E+02  0.00000000000E+00 0. -1.
         11    1    3    3    0    0  0.97128354575E+01 -0.12782386813E+02 -0.22675326359E+01  0.16213275110E+02  0.51100000000E-03 0. -1.
        -11    1    3    3    0    0 -0.17587750148E+01  0.19082405167E+02  0.50487582845E+01  0.19817200533E+02  0.51100000000E-03 0.  1.
        -12    1    3    3    0    0  0.66259229746E+01  0.12362454083E+02  0.18569561233E+02  0.23271478908E+02  0.00000000000E+00 0.  1.
</event>
<event>
 7    1  0.6316620E-012  0.5930195E+02  0.7816164E-02  0.1266605E+00
        -11   -1    0    0    0    0  0.00000000000E+00  0.00000000000E+00  0.45593999997E+02  0.45594000000E+02  0.51100000000E-03 0. -1.
         11   -1    0    0    0    0 -0.00000000000E+00 -0.00000000000E+00 -0.45593999997E+02  0.45594000000E+02  0.51100000000E-03 0.  1.
    9900012    2    1    2    0    0 -0.27489973538E+02  0.67995567538E+01 -0.14655622576E+02  0.59301954615E+02  0.50000019309E+02 0.  0.
         12    1    1    2    0    0  0.27489973538E+02 -0.67995567538E+01  0.14655622576E+02  0.31886045385E+02  0.00000000000E+00 0. -1.
         11    1    3    3    0    0 -0.10763684673E+02 -0.94541327138E+01  0.96005762263E+01  0.17245538474E+02  0.51100000000E-03 0. -1.
        -11    1    3    3    0    0  0.42924065008E+01 -0.34799337350E+01 -0.39614096972E+01  0.67990778359E+01  0.51100000000E-03 0.  1.
        -12    1    3    3    0    0 -0.21018695365E+02  0.19733623203E+02 -0.20294789105E+02  0.35257338306E+02  0.00000000000E+00 0.  1.
</event>
<event>
 7    1  0.6316620E-012  0.5930195E+02  0.7816164E-02  0.1266605E+00
        -11   -1    0    0    0    0  0.00000000000E+00  0.00000000000E+00  0.45593999997E+02  0.45594000000E+02  0.51100000000E-03 0. -1.
         11   -1    0    0    0    0 -0.00000000000E+00 -0.00000000000E+00 -0.45593999997E+02  0.45594000000E+02  0.51100000000E-03 0.  1.
    9900012    2    1    2    0    0  0.27776287349E+02  0.81586166554E+01 -0.13365429342E+02  0.59301954994E+02  0.50000020000E+02 0.  0.
         12    1    1    2    0    0 -0.27776287349E+02 -0.81586166554E+01  0.13365429342E+02  0.31886045006E+02  0.00000000000E+00 0. -1.
         11    1    3    3    0    0  0.14659156601E+02 -0.15638262625E+02  0.14945664620E+01  0.21486736824E+02  0.51100000000E-03 0. -1.
        -11    1    3    3    0    0  0.29656152759E+01  0.25982180638E+01 -0.13729121360E+02  0.14284060510E+02  0.51100000000E-03 0.  1.
        -12    1    3    3    0    0  0.10151515473E+02  0.21198661217E+02 -0.11308744432E+01  0.23531157659E+02  0.00000000000E+00 0.  1.
</event>
<event>
 7    1  0.6316620E-012  0.5930192E+02  0.7816164E-02  0.1266605E+00
        -11   -1    0    0    0    0  0.00000000000E+00  0.00000000000E+00  0.45593999997E+02  0.45594000000E+02  0.51100000000E-03 0.  1.
         11   -1    0    0    0    0 -0.00000000000E+00 -0.00000000000E+00 -0.45593999997E+02  0.45594000000E+02  0.51100000000E-03 0. -1.
    9900012    2    1    2    0    0  0.28910747996E+02 -0.11574698664E+02  0.68495882581E+01  0.59301923758E+02  0.49999963032E+02 0.  0.
         12    1    1    2    0    0 -0.28910747996E+02  0.11574698664E+02 -0.68495882581E+01  0.31886076242E+02  0.00000000000E+00 0. -1.
         11    1    3    3    0    0 -0.48793455149E+01 -0.11106507859E+02 -0.14656205036E+01  0.12219270568E+02  0.51100000000E-03 0.  1.
        -11    1    3    3    0    0  0.26198562742E+01 -0.10567419548E+02 -0.46585090896E+01  0.11842115943E+02  0.51100000000E-03 0. -1.
        -12    1    3    3    0    0  0.31170237236E+02  0.10099228743E+02  0.12973717851E+02  0.35240537247E+02  0.00000000000E+00 0.  1.
</event>
<event>
 7    1  0.6316620E-012  0.5930193E+02  0.7816164E-02  0.1266605E+00
        -11   -1    0    0    0    0  0.00000000000E+00  0.00000000000E+00  0.45593999997E+02  0.45594000000E+02  0.51100000000E-03 0.  1.
         11   -1    0    0    0    0 -0.00000000000E+00 -0.00000000000E+00 -0.45593999997E+02  0.45594000000E+02  0.51100000000E-03 0. -1.
    9900012    2    1    2    0    0 -0.25202245514E+02  0.19397666106E+02 -0.23019341019E+01  0.59301928904E+02  0.49999972418E+02 0.  0.
         12    1    1    2    0    0  0.25202245514E+02 -0.19397666106E+02  0.23019341019E+01  0.31886071096E+02  0.00000000000E+00 0. -1.
         11    1    3    3    0    0 -0.47691836725E+00 -0.16175541969E+01 -0.95922598913E+01  0.97393728130E+01  0.51100000000E-03 0. -1.
        -11    1    3    3    0    0 -0.10010309674E+02  0.14059897513E+01  0.19656884973E+02  0.22103760632E+02  0.51100000000E-03 0.  1.
         12    1    3    3    0    0 -0.14715017472E+02  0.19609230552E+02 -0.12366559184E+02  0.27458795459E+02  0.00000000000E+00 0. -1.
</event>
<event>
 7    1  0.6316620E-012  0.5930194E+02  0.7816164E-02  0.1266605E+00
        -11   -1    0    0    0    0  0.00000000000E+00  0.00000000000E+00  0.45593999997E+02  0.45594000000E+02  0.51100000000E-03 0. -1.
         11   -1    0    0    0    0 -0.00000000000E+00 -0.00000000000E+00 -0.45593999997E+02  0.45594000000E+02  0.51100000000E-03 0.  1.
    9900012    2    1    2    0    0 -0.84733818157E+00  0.42570150216E+01 -0.31589251832E+02  0.59301937367E+02  0.49999987853E+02 0.  0.
         12    1    1    2    0    0  0.84733818157E+00 -0.42570150216E+01  0.31589251832E+02  0.31886062633E+02  0.00000000000E+00 0. -1.
         11    1    3    3    0    0 -0.14763266643E+00 -0.12265205316E+02  0.50656943299E+01  0.13270957620E+02  0.51100000000E-03 0. -1.
        -11    1    3    3    0    0  0.54887108399E+01 -0.35926032010E+01 -0.63077605489E+01  0.91005817313E+01  0.51100000000E-03 0.  1.
        -12    1    3    3    0    0 -0.61884163550E+01  0.20114823538E+02 -0.30347185613E+02  0.36930398016E+02  0.00000000000E+00 0.  1.
</event>
<event>
 7    1  0.6316620E-012  0.5930193E+02  0.7816164E-02  0.1266605E+00
        -11   -1    0    0    0    0  0.00000000000E+00  0.00000000000E+00  0.45593999997E+02  0.45594000000E+02  0.51100000000E-03 0. -1.
         11   -1    0    0    0    0 -0.00000000000E+00 -0.00000000000E+00 -0.45593999997E+02  0.45594000000E+02  0.51100000000E-03 0.  1.
    9900012    2    1    2    0    0  0.11514955215E+02 -0.51392634276E+01 -0.29286775968E+02  0.59301929863E+02  0.49999974167E+02 0.  0.
         12    1    1    2    0    0 -0.11514955215E+02  0.51392634276E+01  0.29286775968E+02  0.31886070137E+02  0.00000000000E+00 0. -1.
         11    1    3    3    0    0  0.40668305099E+01  0.12012592536E+02 -0.33345503534E+01  0.13113379281E+02  0.51100000000E-03 0. -1.
        -11    1    3    3    0    0 -0.85110984759E+01  0.63455174502E+00 -0.19727296753E+02  0.21494364160E+02  0.51100000000E-03 0.  1.
        -12    1    3    3    0    0  0.15959223181E+02 -0.17786407709E+02 -0.62249288610E+01  0.24694186423E+02  0.00000000000E+00 0.  1.
</event>
<event>
 7    1  0.6316620E-012  0.5930193E+02  0.7816164E-02  0.1266605E+00
        -11   -1    0    0    0    0  0.00000000000E+00  0.00000000000E+00  0.45593999997E+02  0.45594000000E+02  0.51100000000E-03 0.  1.
         11   -1    0    0    0    0 -0.00000000000E+00 -0.00000000000E+00 -0.45593999997E+02  0.45594000000E+02  0.51100000000E-03 0. -1.
    9900012    2    1    2    0    0 -0.16666211727E+02 -0.24728583078E+02  0.11289628521E+02  0.59301934916E+02  0.49999983382E+02 0.  0.
         12    1    1    2    0    0  0.16666211727E+02  0.24728583078E+02 -0.11289628521E+02  0.31886065084E+02  0.00000000000E+00 0. -1.
         11    1    3    3    0    0  0.22968069145E+01 -0.30137674565E+01 -0.91657847324E+01  0.99181513553E+01  0.51100000000E-03 0. -1.
        -11    1    3    3    0    0 -0.13796926242E+02 -0.12048967990E+02 -0.71645227672E+01  0.19668838046E+02  0.51100000000E-03 0.  1.
        -12    1    3    3    0    0 -0.51660923997E+01 -0.96658476315E+01  0.27619936021E+02  0.29714945514E+02  0.00000000000E+00 0.  1.
</event>
<event>
 7    1  0.6316620E-012  0.5930197E+02  0.7816164E-02  0.1266605E+00
        -11   -1    0    0    0    0  0.00000000000E+00  0.00000000000E+00  0.45593999997E+02  0.45594000000E+02  0.51100000000E-03 0. -1.
         11   -1    0    0    0    0 -0.00000000000E+00 -0.00000000000E+00 -0.45593999997E+02  0.45594000000E+02  0.51100000000E-03 0.  1.
    9900012    2    1    2    0    0 -0.12388522644E+01 -0.24227046976E+02 -0.20693825160E+02  0.59301969205E+02  0.50000045917E+02 0.  0.
         12    1    1    2    0    0  0.12388522644E+01  0.24227046976E+02  0.20693825160E+02  0.31886030795E+02  0.00000000000E+00 0. -1.
         11    1    3    3    0    0  0.93019711312E-01  0.53656025014E+01 -0.11612433263E+02  0.12792456739E+02  0.51100000000E-03 0. -1.
        -11    1    3    3    0    0 -0.49474790593E+01 -0.92056390819E+01 -0.20393730612E+02  0.22915618877E+02  0.51100000000E-03 0.  1.
         12    1    3    3    0    0  0.36156070836E+01 -0.20387010396E+02  0.11312338716E+02  0.23593893589E+02  0.00000000000E+00 0. -1.
</event>
<event>
 7    1  0.6316620E-012  0.5930194E+02  0.7816164E-02  0.1266605E+00
        -11   -1    0    0    0    0  0.00000000000E+00  0.00000000000E+00  0.45593999997E+02  0.45594000000E+02  0.51100000000E-03 0.  1.
         11   -1    0    0    0    0 -0.00000000000E+00 -0.00000000000E+00 -0.45593999997E+02  0.45594000000E+02  0.51100000000E-03 0. -1.
    9900012    2    1    2    0    0 -0.14934495901E+02  0.15707631411E+02  0.23387000425E+02  0.59301942840E+02  0.49999997833E+02 0.  0.
         12    1    1    2    0    0  0.14934495901E+02 -0.15707631411E+02 -0.23387000425E+02  0.31886057160E+02  0.00000000000E+00 0. -1.
         11    1    3    3    0    0 -0.12526259557E+02  0.69693080473E+01 -0.75081931004E+01  0.16181823044E+02  0.51100000000E-03 0. -1.
        -11    1    3    3    0    0 -0.82939128037E+01  0.10980591949E+02  0.24391661335E+01  0.13975404138E+02  0.51100000000E-03 0.  1.
        -12    1    3    3    0    0  0.58856764593E+01 -0.22422685853E+01  0.28456027392E+02  0.29144715657E+02  0.00000000000E+00 0.  1.
</event>
<event>
 7    1  0.6316620E-012  0.5930193E+02  0.7816164E-02  0.1266605E+00
        -11   -1    0    0    0    0  0.00000000000E+00  0.00000000000E+00  0.45593999997E+02  0.45594000000E+02  0.51100000000E-03 0. -1.
         11   -1    0    0    0    0 -0.00000000000E+00 -0.00000000000E+00 -0.45593999997E+02  0.45594000000E+02  0.51100000000E-03 0.  1.
    9900012    2    1    2    0    0  0.21147244714E+02  0.22472216554E+02 -0.80321227687E+01  0.59301929812E+02  0.49999974075E+02 0.  0.
         12    1    1    2    0    0 -0.21147244714E+02 -0.22472216554E+02  0.80321227687E+01  0.31886070188E+02  0.00000000000E+00 0. -1.
         11    1    3    3    0    0 -0.48228705713E+01  0.16239214602E+02  0.54918103515E+01  0.17808204644E+02  0.51100000000E-03 0. -1.
        -11    1    3    3    0    0 -0.56074107605E+01  0.92722826932E+00 -0.66430156166E+01  0.87425662390E+01  0.51100000000E-03 0.  1.
        -12    1    3    3    0    0  0.31577526046E+02  0.53057736828E+01 -0.68809175036E+01  0.32751158930E+02  0.00000000000E+00 0.  1.
</event>
<event>
 7    1  0.6316620E-012  0.5930198E+02  0.7816164E-02  0.1266605E+00
        -11   -1    0    0    0    0  0.00000000000E+00  0.00000000000E+00  0.45593999997E+02  0.45594000000E+02  0.51100000000E-03 0. -1.
         11   -1    0    0    0    0 -0.00000000000E+00 -0.00000000000E+00 -0.45593999997E+02  0.45594000000E+02  0.51100000000E-03 0.  1.
    9900012    2    1    2    0    0  0.27135794071E+02  0.97941666878E+01 -0.13580925840E+02  0.59301975356E+02  0.50000057135E+02 0.  0.
         12    1    1    2    0    0 -0.27135794071E+02 -0.97941666878E+01  0.13580925840E+02  0.31886024644E+02  0.00000000000E+00 0. -1.
         11    1    3    3    0    0 -0.15749556186E+01 -0.95146101522E+01 -0.13464560687E+01  0.97376196145E+01  0.51100000000E-03 0. -1.
        -11    1    3    3    0    0 -0.69676908994E+01  0.56443206176E+01 -0.61596515749E+01  0.10878804139E+02  0.51100000000E-03 0.  1.
         12    1    3    3    0    0  0.35678440589E+02  0.13664456222E+02 -0.60748181960E+01  0.38685551603E+02  0.00000000000E+00 0. -1.
</event>
<event>
 7    1  0.6316620E-012  0.5930191E+02  0.7816164E-02  0.1266605E+00
        -11   -1    0    0    0    0  0.00000000000E+00  0.00000000000E+00  0.45593999997E+02  0.45594000000E+02  0.51100000000E-03 0.  1.
         11   -1    0    0    0    0 -0.00000000000E+00 -0.00000000000E+00 -0.45593999997E+02  0.45594000000E+02  0.51100000000E-03 0. -1.
    9900012    2    1    2    0    0 -0.31543012664E+02  0.40452955886E+01 -0.23231196626E+01  0.59301906647E+02  0.49999931826E+02 0.  0.
         12    1    1    2    0    0  0.31543012664E+02 -0.40452955886E+01  0.23231196626E+01  0.31886093353E+02  0.00000000000E+00 0. -1.
         11    1    3    3    0    0 -0.10884909827E+02  0.97453210370E+01  0.56793324893E+01  0.15675055402E+02  0.51100000000E-03 0. -1.
        -11    1    3    3    0    0 -0.16102085018E+02 -0.64891874819E+01  0.13274015376E+02  0.21853745230E+02  0.51100000000E-03 0.  1.
         12    1    3    3    0    0 -0.45560178199E+01  0.78916203350E+00 -0.21276467528E+02  0.21773106016E+02  0.00000000000E+00 0. -1.
</event>
<event>
 7    1  0.6316620E-012  0.5930191E+02  0.7816164E-02  0.1266605E+00
        -11   -1    0    0    0    0  0.00000000000E+00  0.00000000000E+00  0.45593999997E+02  0.45594000000E+02  0.51100000000E-03 0.  1.
         11   -1    0    0    0    0 -0.00000000000E+00 -0.00000000000E+00 -0.45593999997E+02  0.45594000000E+02  0.51100000000E-03 0. -1.
    9900012    2    1    2    0    0 -0.56255590080E+01 -0.11648246531E+02  0.29144363391E+02  0.59301914024E+02  0.49999945281E+02 0.  0.
         12    1    1    2    0    0  0.56255590080E+01  0.11648246531E+02 -0.29144363391E+02  0.31886085976E+02  0.00000000000E+00 0. -1.
         11    1    3    3    0    0  0.12381766120E+02  0.10743014389E+02  0.49146590376E+01  0.17113572513E+02  0.51100000000E-03 0. -1.
        -11    1    3    3    0    0 -0.22650552535E+01 -0.17941451575E+02  0.14268724563E+02  0.23035248226E+02  0.51100000000E-03 0.  1.
        -12    1    3    3    0    0 -0.15742269875E+02 -0.44498093456E+01  0.99609797895E+01  0.19153093285E+02  0.00000000000E+00 0.  1.
</event>
<event>
 7    1  0.6316620E-012  0.5930194E+02  0.7816164E-02  0.1266605E+00
        -11   -1    0    0    0    0  0.00000000000E+00  0.00000000000E+00  0.45593999997E+02  0.45594000000E+02  0.51100000000E-03 0. -1.
         11   -1    0    0    0    0 -0.00000000000E+00 -0.00000000000E+00 -0.45593999997E+02  0.45594000000E+02  0.51100000000E-03 0.  1.
    9900012    2    1    2    0    0 -0.13319491711E+02 -0.18057970859E+02 -0.22654394156E+02  0.59301941204E+02  0.49999994849E+02 0.  0.
         12    1    1    2    0    0  0.13319491711E+02  0.18057970859E+02  0.22654394156E+02  0.31886058796E+02  0.00000000000E+00 0. -1.
         11    1    3    3    0    0 -0.82050611820E+01 -0.22681981522E+02  0.56878627327E+01  0.24781991395E+02  0.51100000000E-03 0. -1.
        -11    1    3    3    0    0  0.12206327440E+01  0.13733611405E+01  0.23667517813E+01  0.29962608988E+01  0.51100000000E-03 0.  1.
        -12    1    3    3    0    0 -0.63350632729E+01  0.32506495222E+01 -0.30709008670E+02  0.31523688910E+02  0.00000000000E+00 0.  1.
</event>
<event>
 7    1  0.6316620E-012  0.5930193E+02  0.7816164E-02  0.1266605E+00
        -11   -1    0    0    0    0  0.00000000000E+00  0.00000000000E+00  0.45593999997E+02  0.45594000000E+02  0.51100000000E-03 0.  1.
         11   -1    0    0    0    0 -0.00000000000E+00 -0.00000000000E+00 -0.45593999997E+02  0.45594000000E+02  0.51100000000E-03 0. -1.
    9900012    2    1    2    0    0 -0.14198037263E+02  0.25824261508E+02  0.12175570900E+02  0.59301932960E+02  0.49999979815E+02 0.  0.
         12    1    1    2    0    0  0.14198037263E+02 -0.25824261508E+02 -0.12175570900E+02  0.31886067040E+02  0.00000000000E+00 0. -1.
         11    1    3    3    0    0 -0.17647418025E+02  0.21486984327E+02  0.31697960669E+00  0.27806875674E+02  0.51100000000E-03 0. -1.
        -11    1    3    3    0    0  0.21782812944E+00  0.51261840482E+01 -0.90070554246E+01  0.10365918178E+02  0.51100000000E-03 0.  1.
        -12    1    3    3    0    0  0.32315526325E+01 -0.78890686740E+00  0.20865646718E+02  0.21129139108E+02  0.00000000000E+00 0.  1.
</event>
<event>
 7    1  0.6316620E-012  0.5930194E+02  0.7816164E-02  0.1266605E+00
        -11   -1    0    0    0    0  0.00000000000E+00  0.00000000000E+00  0.45593999997E+02  0.45594000000E+02  0.51100000000E-03 0.  1.
         11   -1    0    0    0    0 -0.00000000000E+00 -0.00000000000E+00 -0.45593999997E+02  0.45594000000E+02  0.51100000000E-03 0. -1.
    9900012    2    1    2    0    0 -0.12889745020E+01 -0.14740741257E+01  0.31825873149E+02  0.59301944246E+02  0.50000000399E+02 0.  0.
         12    1    1    2    0    0  0.12889745020E+01  0.14740741257E+01 -0.31825873149E+02  0.31886055754E+02  0.00000000000E+00 0. -1.
         11    1    3    3    0    0  0.33017640467E+00  0.51395935642E+01  0.24588570839E+02  0.25122146696E+02  0.51100000000E-03 0. -1.
        -11    1    3    3    0    0 -0.80603833493E+01 -0.11183315195E+02  0.16829521601E+02  0.21754749276E+02  0.51100000000E-03 0.  1.
         12    1    3    3    0    0  0.64412324426E+01  0.45696475053E+01 -0.95922192902E+01  0.12425048274E+02  0.00000000000E+00 0. -1.
</event>
<event>
 7    1  0.6316620E-012  0.5930194E+02  0.7816164E-02  0.1266605E+00
        -11   -1    0    0    0    0  0.00000000000E+00  0.00000000000E+00  0.45593999997E+02  0.45594000000E+02  0.51100000000E-03 0. -1.
         11   -1    0    0    0    0 -0.00000000000E+00 -0.00000000000E+00 -0.45593999997E+02  0.45594000000E+02  0.51100000000E-03 0.  1.
    9900012    2    1    2    0    0 -0.12656552980E+02 -0.17560368977E+02 -0.23412945272E+02  0.59301938810E+02  0.49999990483E+02 0.  0.
         12    1    1    2    0    0  0.12656552980E+02  0.17560368977E+02  0.23412945272E+02  0.31886061190E+02  0.00000000000E+00 0. -1.
         11    1    3    3    0    0 -0.18932007169E+02 -0.86724387794E+01  0.36624841351E+01  0.21143459512E+02  0.51100000000E-03 0. -1.
        -11    1    3    3    0    0 -0.61737169016E+01 -0.91792227402E+01 -0.36850540111E+01  0.11659868516E+02  0.51100000000E-03 0.  1.
        -12    1    3    3    0    0  0.12449171091E+02  0.29129254226E+00 -0.23390375396E+02  0.26498610781E+02  0.00000000000E+00 0.  1.
</event>
<event>
 7    1  0.6316620E-012  0.5930191E+02  0.7816164E-02  0.1266605E+00
        -11   -1    0    0    0    0  0.00000000000E+00  0.00000000000E+00  0.45593999997E+02  0.45594000000E+02  0.51100000000E-03 0. -1.
         11   -1    0    0    0    0 -0.00000000000E+00 -0.00000000000E+00 -0.45593999997E+02  0.45594000000E+02  0.51100000000E-03 0.  1.
    9900012    2    1    2    0    0  0.17479397010E+02  0.55222255348E+01 -0.26090193080E+02  0.59301914169E+02  0.49999945544E+02 0.  0.
         12    1    1    2    0    0 -0.17479397010E+02 -0.55222255348E+01  0.26090193080E+02  0.31886085831E+02  0.00000000000E+00 0. -1.
         11    1    3    3    0    0 -0.13668048794E+01 -0.33961254915E+01  0.31645468011E+01  0.48390268288E+01  0.51100000000E-03 0. -1.
        -11    1    3    3    0    0  0.27539021360E+02 -0.63720650353E+01 -0.19616678032E+02  0.34406612265E+02  0.51100000000E-03 0.  1.
         12    1    3    3    0    0 -0.86928194704E+01  0.15290416062E+02 -0.96380618494E+01  0.20056275075E+02  0.00000000000E+00 0. -1.
</event>
<event>
 7    1  0.6316620E-012  0.5930195E+02  0.7816164E-02  0.1266605E+00
        -11   -1    0    0    0    0  0.00000000000E+00  0.00000000000E+00  0.45593999997E+02  0.45594000000E+02  0.51100000000E-03 0. -1.
         11   -1    0    0    0    0 -0.00000000000E+00 -0.00000000000E+00 -0.45593999997E+02  0.45594000000E+02  0.51100000000E-03 0.  1.
    9900012    2    1    2    0    0 -0.17387846869E+02  0.25575489842E+02 -0.77638576425E+01  0.59301946859E+02  0.50000005164E+02 0.  0.
         12    1    1    2    0    0  0.17387846869E+02 -0.25575489842E+02  0.77638576425E+01  0.31886053141E+02  0.00000000000E+00 0. -1.
         11    1    3    3    0    0 -0.17699184467E+02  0.48515647508E+01 -0.52333803098E+01  0.19083686254E+02  0.51100000000E-03 0. -1.
        -11    1    3    3    0    0 -0.40178049187E+01 -0.71959562118E+01 -0.79483987011E+01  0.11449960015E+02  0.51100000000E-03 0.  1.
        -12    1    3    3    0    0  0.43291425167E+01  0.27919881303E+02  0.54179213684E+01  0.28768300590E+02  0.00000000000E+00 0.  1.
</event>
<event>
 7    1  0.6316620E-012  0.5930195E+02  0.7816164E-02  0.1266605E+00
        -11   -1    0    0    0    0  0.00000000000E+00  0.00000000000E+00  0.45593999997E+02  0.45594000000E+02  0.51100000000E-03 0.  1.
         11   -1    0    0    0    0 -0.00000000000E+00 -0.00000000000E+00 -0.45593999997E+02  0.45594000000E+02  0.51100000000E-03 0. -1.
    9900012    2    1    2    0    0  0.39004922577E+01  0.25683373281E+02  0.18489751024E+02  0.59301946687E+02  0.50000004849E+02 0.  0.
         12    1    1    2    0    0 -0.39004922577E+01 -0.25683373281E+02 -0.18489751024E+02  0.31886053313E+02  0.00000000000E+00 0. -1.
         11    1    3    3    0    0  0.10580223933E+02 -0.51593228534E+01  0.15214580324E+02  0.19236507102E+02  0.51100000000E-03 0. -1.
        -11    1    3    3    0    0 -0.23739471484E+01  0.81801504406E+01  0.12579347530E+02  0.15191789587E+02  0.51100000000E-03 0.  1.
         12    1    3    3    0    0 -0.43057845271E+01  0.22662545694E+02 -0.93041768306E+01  0.24873649998E+02  0.00000000000E+00 0. -1.
</event>
<event>
 7    1  0.6316620E-012  0.5930195E+02  0.7816164E-02  0.1266605E+00
        -11   -1    0    0    0    0  0.00000000000E+00  0.00000000000E+00  0.45593999997E+02  0.45594000000E+02  0.51100000000E-03 0.  1.
         11   -1    0    0    0    0 -0.00000000000E+00 -0.00000000000E+00 -0.45593999997E+02  0.45594000000E+02  0.51100000000E-03 0. -1.
    9900012    2    1    2    0    0  0.11182104718E+02  0.32860528320E+00  0.29859210493E+02  0.59301954484E+02  0.50000019070E+02 0.  0.
         12    1    1    2    0    0 -0.11182104718E+02 -0.32860528320E+00 -0.29859210493E+02  0.31886045516E+02  0.00000000000E+00 0. -1.
         11    1    3    3    0    0 -0.37733693088E+01 -0.51965991825E+01  0.56722090579E+01  0.85683671059E+01  0.51100000000E-03 0. -1.
        -11    1    3    3    0    0  0.16473405228E+02 -0.15916142845E+02  0.10102149967E+02  0.25034977873E+02  0.51100000000E-03 0.  1.
         12    1    3    3    0    0 -0.15179312011E+01  0.21441347311E+02  0.14084851468E+02  0.25698609505E+02  0.00000000000E+00 0. -1.
</event>
<event>
 7    1  0.6316620E-012  0.5930195E+02  0.7816164E-02  0.1266605E+00
        -11   -1    0    0    0    0  0.00000000000E+00  0.00000000000E+00  0.45593999997E+02  0.45594000000E+02  0.51100000000E-03 0.  1.
         11   -1    0    0    0    0 -0.00000000000E+00 -0.00000000000E+00 -0.45593999997E+02  0.45594000000E+02  0.51100000000E-03 0. -1.
    9900012    2    1    2    0    0 -0.23269931982E+02  0.16203856913E+02  0.14583046068E+02  0.59301953743E+02  0.50000017718E+02 0.  0.
         12    1    1    2    0    0  0.23269931982E+02 -0.16203856913E+02 -0.14583046068E+02  0.31886046257E+02  0.00000000000E+00 0. -1.
         11    1    3    3    0    0 -0.20940563949E+01  0.21309372486E+01 -0.14035320343E+02  0.14349779898E+02  0.51100000000E-03 0. -1.
        -11    1    3    3    0    0  0.47880440508E+01  0.30195327887E+01  0.15954128137E+01  0.58811806979E+01  0.51100000000E-03 0.  1.
        -12    1    3    3    0    0 -0.25963919638E+02  0.11053386876E+02  0.27022953597E+02  0.39070993147E+02  0.00000000000E+00 0.  1.
</event>
<event>
 7    1  0.6316620E-012  0.5930195E+02  0.7816164E-02  0.1266605E+00
        -11   -1    0    0    0    0  0.00000000000E+00  0.00000000000E+00  0.45593999997E+02  0.45594000000E+02  0.51100000000E-03 0.  1.
         11   -1    0    0    0    0 -0.00000000000E+00 -0.00000000000E+00 -0.45593999997E+02  0.45594000000E+02  0.51100000000E-03 0. -1.
    9900012    2    1    2    0    0 -0.19986220273E+02 -0.24370391652E+02  0.48327047583E+01  0.59301952497E+02  0.50000015445E+02 0.  0.
         12    1    1    2    0    0  0.19986220273E+02  0.24370391652E+02 -0.48327047583E+01  0.31886047503E+02  0.00000000000E+00 0. -1.
         11    1    3    3    0    0 -0.11860744903E+02  0.98563884793E+01 -0.37893209359E+01  0.15880321689E+02  0.51100000000E-03 0. -1.
        -11    1    3    3    0    0 -0.28643451534E+01  0.20782240695E+01  0.55851484646E+01  0.66119113783E+01  0.51100000000E-03 0.  1.
        -12    1    3    3    0    0 -0.52611302168E+01 -0.36305004201E+02  0.30368772296E+01  0.36809719430E+02  0.00000000000E+00 0.  1.
</event>
<event>
 7    1  0.6316620E-012  0.5930212E+02  0.7816164E-02  0.1266604E+00
        -11   -1    0    0    0    0  0.00000000000E+00  0.00000000000E+00  0.45593999997E+02  0.45594000000E+02  0.51100000000E-03 0.  1.
         11   -1    0    0    0    0 -0.00000000000E+00 -0.00000000000E+00 -0.45593999997E+02  0.45594000000E+02  0.51100000000E-03 0. -1.
    9900012    2    1    2    0    0 -0.23788417009E+02 -0.21706623384E+01  0.21121281221E+02  0.59302124143E+02  0.50000328486E+02 0.  0.
         12    1    1    2    0    0  0.23788417009E+02  0.21706623384E+01 -0.21121281221E+02  0.31885875857E+02  0.00000000000E+00 0. -1.
         11    1    3    3    0    0 -0.15057031871E+02  0.44755970541E+01 -0.88503247107E+00  0.15733037231E+02  0.51100000000E-03 0. -1.
        -11    1    3    3    0    0  0.47082750257E+01  0.99187712610E+01  0.19113405105E+02  0.22042507390E+02  0.51100000000E-03 0.  1.
         12    1    3    3    0    0 -0.13439660163E+02 -0.16565030653E+02  0.28929085867E+01  0.21526579522E+02  0.00000000000E+00 0. -1.
</event>
<event>
 7    1  0.6316620E-012  0.5930197E+02  0.7816164E-02  0.1266605E+00
        -11   -1    0    0    0    0  0.00000000000E+00  0.00000000000E+00  0.45593999997E+02  0.45594000000E+02  0.51100000000E-03 0. -1.
         11   -1    0    0    0    0 -0.00000000000E+00 -0.00000000000E+00 -0.45593999997E+02  0.45594000000E+02  0.51100000000E-03 0.  1.
    9900012    2    1    2    0    0 -0.28179494597E+02  0.51007575489E+01 -0.14022034834E+02  0.59301966942E+02  0.50000041790E+02 0.  0.
         12    1    1    2    0    0  0.28179494597E+02 -0.51007575489E+01  0.14022034834E+02  0.31886033058E+02  0.00000000000E+00 0. -1.
         11    1    3    3    0    0 -0.35355654170E+01 -0.13952304824E+02  0.21138445212E+01  0.14547693000E+02  0.51100000000E-03 0. -1.
        -11    1    3    3    0    0 -0.26145934634E+02  0.54274141131E+01 -0.15829742788E+02  0.31042671902E+02  0.51100000000E-03 0.  1.
        -12    1    3    3    0    0  0.15020054543E+01  0.13625648260E+02 -0.30613656734E+00  0.13711602039E+02  0.00000000000E+00 0.  1.
</event>
<event>
 7    1  0.6316620E-012  0.5930194E+02  0.7816164E-02  0.1266605E+00
        -11   -1    0    0    0    0  0.00000000000E+00  0.00000000000E+00  0.45593999997E+02  0.45594000000E+02  0.51100000000E-03 0. -1.
         11   -1    0    0    0    0 -0.00000000000E+00 -0.00000000000E+00 -0.45593999997E+02  0.45594000000E+02  0.51100000000E-03 0.  1.
    9900012    2    1    2    0    0  0.28841023100E+02 -0.10578563265E+02 -0.85446149154E+01  0.59301936300E+02  0.49999985907E+02 0.  0.
         12    1    1    2    0    0 -0.28841023100E+02  0.10578563265E+02  0.85446149154E+01  0.31886063700E+02  0.00000000000E+00 0. -1.
         11    1    3    3    0    0  0.20087320349E+02  0.75344118395E+01  0.44271489248E+01  0.21905877030E+02  0.51100000000E-03 0. -1.
        -11    1    3    3    0    0  0.99026918431E+01 -0.36997580236E+01 -0.18990416939E+02  0.21734476091E+02  0.51100000000E-03 0.  1.
         12    1    3    3    0    0 -0.11489890927E+01 -0.14413217081E+02  0.60186530987E+01  0.15661583180E+02  0.00000000000E+00 0. -1.
</event>
<event>
 7    1  0.6316620E-012  0.5930201E+02  0.7816164E-02  0.1266605E+00
        -11   -1    0    0    0    0  0.00000000000E+00  0.00000000000E+00  0.45593999997E+02  0.45594000000E+02  0.51100000000E-03 0. -1.
         11   -1    0    0    0    0 -0.00000000000E+00 -0.00000000000E+00 -0.45593999997E+02  0.45594000000E+02  0.51100000000E-03 0.  1.
    9900012    2    1    2    0    0  0.30005454835E+02 -0.51486700345E+01  0.94805179643E+01  0.59302010226E+02  0.50000120730E+02 0.  0.
         12    1    1    2    0    0 -0.30005454835E+02  0.51486700345E+01 -0.94805179643E+01  0.31885989774E+02  0.00000000000E+00 0. -1.
         11    1    3    3    0    0  0.15676192983E+02  0.47052094160E+01 -0.71750144167E+01  0.17870726181E+02  0.51100000000E-03 0. -1.
        -11    1    3    3    0    0  0.43337637652E+01  0.42726389936E+00 -0.10142625637E+02  0.11037976168E+02  0.51100000000E-03 0.  1.
         12    1    3    3    0    0  0.99954980868E+01 -0.10281143350E+02  0.26798158018E+02  0.30393307877E+02  0.00000000000E+00 0. -1.
</event>
<event>
 7    1  0.6316620E-012  0.5930192E+02  0.7816164E-02  0.1266605E+00
        -11   -1    0    0    0    0  0.00000000000E+00  0.00000000000E+00  0.45593999997E+02  0.45594000000E+02  0.51100000000E-03 0. -1.
         11   -1    0    0    0    0 -0.00000000000E+00 -0.00000000000E+00 -0.45593999997E+02  0.45594000000E+02  0.51100000000E-03 0.  1.
    9900012    2    1    2    0    0  0.19516120580E+02  0.24153505223E+02 -0.72423449074E+01  0.59301916252E+02  0.49999949344E+02 0.  0.
         12    1    1    2    0    0 -0.19516120580E+02 -0.24153505223E+02  0.72423449074E+01  0.31886083748E+02  0.00000000000E+00 0. -1.
         11    1    3    3    0    0  0.75746021993E+00 -0.11357863551E+02 -0.13890433967E+02  0.17958813058E+02  0.51100000000E-03 0.  1.
        -11    1    3    3    0    0  0.97693140380E+01  0.13665917380E+02 -0.14839809894E-01  0.16798720638E+02  0.51100000000E-03 0. -1.
        -12    1    3    3    0    0  0.89893463217E+01  0.21845451394E+02  0.66629288692E+01  0.24544382555E+02  0.00000000000E+00 0.  1.
</event>
<event>
 7    1  0.6316620E-012  0.5930194E+02  0.7816164E-02  0.1266605E+00
        -11   -1    0    0    0    0  0.00000000000E+00  0.00000000000E+00  0.45593999997E+02  0.45594000000E+02  0.51100000000E-03 0. -1.
         11   -1    0    0    0    0 -0.00000000000E+00 -0.00000000000E+00 -0.45593999997E+02  0.45594000000E+02  0.51100000000E-03 0.  1.
    9900012    2    1    2    0    0 -0.18286751790E+02  0.76505671028E+01 -0.24975677648E+02  0.59301938124E+02  0.49999989232E+02 0.  0.
         12    1    1    2    0    0  0.18286751790E+02 -0.76505671028E+01  0.24975677648E+02  0.31886061876E+02  0.00000000000E+00 0. -1.
         11    1    3    3    0    0 -0.97716380319E+01 -0.13873501481E+02  0.16159139489E+01  0.17046117779E+02  0.51100000000E-03 0. -1.
        -11    1    3    3    0    0  0.10298729008E+01 -0.46960713109E+01 -0.53090745921E+01  0.71624016388E+01  0.51100000000E-03 0.  1.
         12    1    3    3    0    0 -0.95449866592E+01  0.26220139895E+02 -0.21282517004E+02  0.35093418706E+02  0.00000000000E+00 0. -1.
</event>
<event>
 7    1  0.6316620E-012  0.5930200E+02  0.7816164E-02  0.1266605E+00
        -11   -1    0    0    0    0  0.00000000000E+00  0.00000000000E+00  0.45593999997E+02  0.45594000000E+02  0.51100000000E-03 0. -1.
         11   -1    0    0    0    0 -0.00000000000E+00 -0.00000000000E+00 -0.45593999997E+02  0.45594000000E+02  0.51100000000E-03 0.  1.
    9900012    2    1    2    0    0 -0.28084592899E+02  0.14868738385E+02  0.26254555243E+01  0.59302003761E+02  0.50000108939E+02 0.  0.
         12    1    1    2    0    0  0.28084592899E+02 -0.14868738385E+02 -0.26254555243E+01  0.31885996239E+02  0.00000000000E+00 0. -1.
         11    1    3    3    0    0 -0.10675779526E+02 -0.56536762827E+01  0.12239195969E+02  0.17196925371E+02  0.51100000000E-03 0. -1.
        -11    1    3    3    0    0 -0.12514772750E+02 -0.60711774232E+01 -0.41821786698E+01  0.14524784025E+02  0.51100000000E-03 0.  1.
        -12    1    3    3    0    0 -0.48940406222E+01  0.26593592091E+02 -0.54315617748E+01  0.27580294364E+02  0.00000000000E+00 0.  1.
</event>
<event>
 7    1  0.6316620E-012  0.5930198E+02  0.7816164E-02  0.1266605E+00
        -11   -1    0    0    0    0  0.00000000000E+00  0.00000000000E+00  0.45593999997E+02  0.45594000000E+02  0.51100000000E-03 0. -1.
         11   -1    0    0    0    0 -0.00000000000E+00 -0.00000000000E+00 -0.45593999997E+02  0.45594000000E+02  0.51100000000E-03 0.  1.
    9900012    2    1    2    0    0 -0.27039183126E+02  0.13393095461E+02 -0.10306581744E+02  0.59301983357E+02  0.50000071726E+02 0.  0.
         12    1    1    2    0    0  0.27039183126E+02 -0.13393095461E+02  0.10306581744E+02  0.31886016643E+02  0.00000000000E+00 0. -1.
         11    1    3    3    0    0 -0.12760405013E+02 -0.54892508909E+01  0.44245181859E+01  0.14578620403E+02  0.51100000000E-03 0. -1.
        -11    1    3    3    0    0 -0.14416855598E+02  0.27926831410E+02 -0.57000151412E+01  0.31941255623E+02  0.51100000000E-03 0.  1.
         12    1    3    3    0    0  0.13807748469E+00 -0.90444850573E+01 -0.90310847883E+01  0.12782107330E+02  0.00000000000E+00 0. -1.
</event>
<event>
 7    1  0.6316620E-012  0.5930184E+02  0.7816164E-02  0.1266605E+00
        -11   -1    0    0    0    0  0.00000000000E+00  0.00000000000E+00  0.45593999997E+02  0.45594000000E+02  0.51100000000E-03 0. -1.
         11   -1    0    0    0    0 -0.00000000000E+00 -0.00000000000E+00 -0.45593999997E+02  0.45594000000E+02  0.51100000000E-03 0.  1.
    9900012    2    1    2    0    0  0.28915240866E+02  0.11072458841E+02 -0.76181924531E+01  0.59301837557E+02  0.49999805822E+02 0.  0.
         12    1    1    2    0    0 -0.28915240866E+02 -0.11072458841E+02  0.76181924531E+01  0.31886162443E+02  0.00000000000E+00 0. -1.
         11    1    3    3    0    0  0.14498344503E+01  0.57941908447E+00  0.13398927191E+01  0.20574399550E+01  0.51100000000E-03 0. -1.
        -11    1    3    3    0    0  0.37002904985E+02  0.49604070790E+01 -0.19387039983E+02  0.42067540162E+02  0.51100000000E-03 0.  1.
        -12    1    3    3    0    0 -0.95374985695E+01  0.55326326770E+01  0.10428954811E+02  0.15176857440E+02  0.00000000000E+00 0.  1.
</event>
<event>
 7    1  0.6316620E-012  0.5930194E+02  0.7816164E-02  0.1266605E+00
        -11   -1    0    0    0    0  0.00000000000E+00  0.00000000000E+00  0.45593999997E+02  0.45594000000E+02  0.51100000000E-03 0.  1.
         11   -1    0    0    0    0 -0.00000000000E+00 -0.00000000000E+00 -0.45593999997E+02  0.45594000000E+02  0.51100000000E-03 0. -1.
    9900012    2    1    2    0    0 -0.25824606052E+00  0.25015117339E+02  0.19771145288E+02  0.59301937645E+02  0.49999988359E+02 0.  0.
         12    1    1    2    0    0  0.25824606052E+00 -0.25015117339E+02 -0.19771145288E+02  0.31886062355E+02  0.00000000000E+00 0. -1.
         11    1    3    3    0    0  0.19316153442E+02  0.56676490711E+01  0.58363101888E+00  0.20138933815E+02  0.51100000000E-03 0. -1.
        -11    1    3    3    0    0 -0.12972994402E+01  0.14489881351E+02  0.45319077211E+01  0.15237382821E+02  0.51100000000E-03 0.  1.
         12    1    3    3    0    0 -0.18277100062E+02  0.48575869172E+01  0.14655606548E+02  0.23925621008E+02  0.00000000000E+00 0. -1.
</event>
<event>
 7    1  0.6316620E-012  0.5930195E+02  0.7816164E-02  0.1266605E+00
        -11   -1    0    0    0    0  0.00000000000E+00  0.00000000000E+00  0.45593999997E+02  0.45594000000E+02  0.51100000000E-03 0. -1.
         11   -1    0    0    0    0 -0.00000000000E+00 -0.00000000000E+00 -0.45593999997E+02  0.45594000000E+02  0.51100000000E-03 0.  1.
    9900012    2    1    2    0    0 -0.20807810625E+02  0.17970589844E+02 -0.16149709076E+02  0.59301949985E+02  0.50000010864E+02 0.  0.
         12    1    1    2    0    0  0.20807810625E+02 -0.17970589844E+02  0.16149709076E+02  0.31886050015E+02  0.00000000000E+00 0. -1.
         11    1    3    3    0    0  0.33070912680E+01  0.12339646571E+02 -0.15785799176E+02  0.20307515506E+02  0.51100000000E-03 0. -1.
        -11    1    3    3    0    0 -0.88437503984E+01 -0.10403726698E+02 -0.76895841487E+01  0.15670965349E+02  0.51100000000E-03 0.  1.
        -12    1    3    3    0    0 -0.15271151495E+02  0.16034669970E+02  0.73256742486E+01  0.23323469129E+02  0.00000000000E+00 0.  1.
</event>
<event>
 7    1  0.6316620E-012  0.5930194E+02  0.7816164E-02  0.1266605E+00
        -11   -1    0    0    0    0  0.00000000000E+00  0.00000000000E+00  0.45593999997E+02  0.45594000000E+02  0.51100000000E-03 0.  1.
         11   -1    0    0    0    0 -0.00000000000E+00 -0.00000000000E+00 -0.45593999997E+02  0.45594000000E+02  0.51100000000E-03 0. -1.
    9900012    2    1    2    0    0  0.27552576082E+02 -0.15579069877E+02  0.38559921318E+01  0.59301944391E+02  0.50000000662E+02 0.  0.
         12    1    1    2    0    0 -0.27552576082E+02  0.15579069877E+02 -0.38559921318E+01  0.31886055609E+02  0.00000000000E+00 0. -1.
         11    1    3    3    0    0  0.20021322162E+02 -0.10443891968E+02 -0.17073169180E+02  0.28309385840E+02  0.51100000000E-03 0. -1.
        -11    1    3    3    0    0  0.43750864885E+01  0.70065583366E+01  0.23745557353E+01  0.85948680448E+01  0.51100000000E-03 0.  1.
        -12    1    3    3    0    0  0.31561674317E+01 -0.12141736246E+02  0.18554605576E+02  0.22397690506E+02  0.00000000000E+00 0.  1.
</event>
<event>
 7    1  0.6316620E-012  0.5930189E+02  0.7816164E-02  0.1266605E+00
        -11   -1    0    0    0    0  0.00000000000E+00  0.00000000000E+00  0.45593999997E+02  0.45594000000E+02  0.51100000000E-03 0.  1.
         11   -1    0    0    0    0 -0.00000000000E+00 -0.00000000000E+00 -0.45593999997E+02  0.45594000000E+02  0.51100000000E-03 0. -1.
    9900012    2    1    2    0    0  0.14388669844E+02 -0.23388639605E+02  0.16206833867E+02  0.59301894147E+02  0.49999909030E+02 0.  0.
         12    1    1    2    0    0 -0.14388669844E+02  0.23388639605E+02 -0.16206833867E+02  0.31886105853E+02  0.00000000000E+00 0. -1.
         11    1    3    3    0    0  0.14881922457E+02  0.10733490854E+00 -0.20333823623E+01  0.15020578580E+02  0.51100000000E-03 0. -1.
        -11    1    3    3    0    0  0.13296646305E+02 -0.37135105608E+01  0.14246850125E+02  0.19838440019E+02  0.51100000000E-03 0.  1.
        -12    1    3    3    0    0 -0.13789898918E+02 -0.19782463953E+02  0.39933661042E+01  0.24442875548E+02  0.00000000000E+00 0.  1.
</event>
<event>
 7    1  0.6316620E-012  0.5930192E+02  0.7816164E-02  0.1266605E+00
        -11   -1    0    0    0    0  0.00000000000E+00  0.00000000000E+00  0.45593999997E+02  0.45594000000E+02  0.51100000000E-03 0. -1.
         11   -1    0    0    0    0 -0.00000000000E+00 -0.00000000000E+00 -0.45593999997E+02  0.45594000000E+02  0.51100000000E-03 0.  1.
    9900012    2    1    2    0    0 -0.45931991483E+01  0.94961955553E+01 -0.30090645208E+02  0.59301919377E+02  0.49999955043E+02 0.  0.
         12    1    1    2    0    0  0.45931991483E+01 -0.94961955553E+01  0.30090645208E+02  0.31886080623E+02  0.00000000000E+00 0. -1.
         11    1    3    3    0    0  0.82322870463E+01  0.35477508665E+01 -0.29296618375E+01  0.94308008656E+01  0.51100000000E-03 0. -1.
        -11    1    3    3    0    0 -0.55510241439E+00 -0.13566669219E+02  0.83749185043E+00  0.13603824655E+02  0.51100000000E-03 0.  1.
        -12    1    3    3    0    0 -0.12270383780E+02  0.19515113908E+02 -0.27998475221E+02  0.36267293856E+02  0.00000000000E+00 0.  1.
</event>
<event>
 7    1  0.6316620E-012  0.5930200E+02  0.7816164E-02  0.1266605E+00
        -11   -1    0    0    0    0  0.00000000000E+00  0.00000000000E+00  0.45593999997E+02  0.45594000000E+02  0.51100000000E-03 0. -1.
         11   -1    0    0    0    0 -0.00000000000E+00 -0.00000000000E+00 -0.45593999997E+02  0.45594000000E+02  0.51100000000E-03 0.  1.
    9900012    2    1    2    0    0 -0.51766624399E+01  0.28377189891E+02 -0.13588759631E+02  0.59301997923E+02  0.50000098293E+02 0.  0.
         12    1    1    2    0    0  0.51766624399E+01 -0.28377189891E+02  0.13588759631E+02  0.31886002077E+02  0.00000000000E+00 0. -1.
         11    1    3    3    0    0 -0.19033740222E+02  0.21094306170E+02 -0.11712346384E+02  0.30731613653E+02  0.51100000000E-03 0. -1.
        -11    1    3    3    0    0  0.33163327257E+00  0.10528002181E+02 -0.81437957005E+01  0.13314286283E+02  0.51100000000E-03 0.  1.
        -12    1    3    3    0    0  0.13525444509E+02 -0.32451184608E+01  0.62673824528E+01  0.15256097988E+02  0.00000000000E+00 0.  1.
</event>
<event>
 7    1  0.6316620E-012  0.5930194E+02  0.7816164E-02  0.1266605E+00
        -11   -1    0    0    0    0  0.00000000000E+00  0.00000000000E+00  0.45593999997E+02  0.45594000000E+02  0.51100000000E-03 0.  1.
         11   -1    0    0    0    0 -0.00000000000E+00 -0.00000000000E+00 -0.45593999997E+02  0.45594000000E+02  0.51100000000E-03 0. -1.
    9900012    2    1    2    0    0  0.26385250585E+02  0.17903574246E+02  0.40816272140E-01  0.59301935878E+02  0.49999985137E+02 0.  0.
         12    1    1    2    0    0 -0.26385250585E+02 -0.17903574246E+02 -0.40816272140E-01  0.31886064122E+02  0.00000000000E+00 0. -1.
         11    1    3    3    0    0  0.24877604825E+02  0.16069117824E+02 -0.58566944149E+01  0.30189611445E+02  0.51100000000E-03 0. -1.
        -11    1    3    3    0    0  0.74859705937E+01 -0.70396696103E+01  0.12773182704E+02  0.16393623779E+02  0.51100000000E-03 0.  1.
         12    1    3    3    0    0 -0.59783248330E+01  0.88741260323E+01 -0.68756720173E+01  0.12718700654E+02  0.00000000000E+00 0. -1.
</event>
<event>
 7    1  0.6316620E-012  0.5930193E+02  0.7816164E-02  0.1266605E+00
        -11   -1    0    0    0    0  0.00000000000E+00  0.00000000000E+00  0.45593999997E+02  0.45594000000E+02  0.51100000000E-03 0.  1.
         11   -1    0    0    0    0 -0.00000000000E+00 -0.00000000000E+00 -0.45593999997E+02  0.45594000000E+02  0.51100000000E-03 0. -1.
    9900012    2    1    2    0    0  0.20087510981E+02 -0.17085913136E+02  0.17924422072E+02  0.59301930444E+02  0.49999975227E+02 0.  0.
         12    1    1    2    0    0 -0.20087510981E+02  0.17085913136E+02 -0.17924422072E+02  0.31886069556E+02  0.00000000000E+00 0. -1.
         11    1    3    3    0    0 -0.31806795000E+01 -0.68573944170E+01  0.10847924971E+02  0.13221877957E+02  0.51100000000E-03 0. -1.
        -11    1    3    3    0    0 -0.53054036305E+01  0.94405186485E+01  0.21944994474E+01  0.11049277267E+02  0.51100000000E-03 0.  1.
         12    1    3    3    0    0  0.28573594111E+02 -0.19669037368E+02  0.48819976532E+01  0.35030775220E+02  0.00000000000E+00 0. -1.
</event>
<event>
 7    1  0.6316620E-012  0.5930194E+02  0.7816164E-02  0.1266605E+00
        -11   -1    0    0    0    0  0.00000000000E+00  0.00000000000E+00  0.45593999997E+02  0.45594000000E+02  0.51100000000E-03 0.  1.
         11   -1    0    0    0    0 -0.00000000000E+00 -0.00000000000E+00 -0.45593999997E+02  0.45594000000E+02  0.51100000000E-03 0. -1.
    9900012    2    1    2    0    0 -0.14032121149E+01  0.21487203222E+02  0.23517055559E+02  0.59301940214E+02  0.49999993044E+02 0.  0.
         12    1    1    2    0    0  0.14032121149E+01 -0.21487203222E+02 -0.23517055559E+02  0.31886059786E+02  0.00000000000E+00 0. -1.
         11    1    3    3    0    0 -0.88617184340E+01  0.42147212408E+01 -0.34599928586E+01  0.10405069898E+02  0.51100000000E-03 0. -1.
        -11    1    3    3    0    0 -0.10989197305E+02  0.19024469335E+02  0.11765153314E+02  0.24922113146E+02  0.51100000000E-03 0.  1.
        -12    1    3    3    0    0  0.18447703624E+02 -0.17519873543E+01  0.15211895103E+02  0.23974757169E+02  0.00000000000E+00 0.  1.
</event>
<event>
 7    1  0.6316620E-012  0.5930198E+02  0.7816164E-02  0.1266605E+00
        -11   -1    0    0    0    0  0.00000000000E+00  0.00000000000E+00  0.45593999997E+02  0.45594000000E+02  0.51100000000E-03 0.  1.
         11   -1    0    0    0    0 -0.00000000000E+00 -0.00000000000E+00 -0.45593999997E+02  0.45594000000E+02  0.51100000000E-03 0. -1.
    9900012    2    1    2    0    0 -0.30965766660E+02 -0.63610335997E+01  0.41685157469E+01  0.59301984620E+02  0.50000074030E+02 0.  0.
         12    1    1    2    0    0  0.30965766660E+02  0.63610335997E+01 -0.41685157469E+01  0.31886015380E+02  0.00000000000E+00 0. -1.
         11    1    3    3    0    0 -0.24141070965E+02 -0.17266706113E+02  0.89210561712E+01  0.30992187577E+02  0.51100000000E-03 0. -1.
        -11    1    3    3    0    0 -0.96886519963E+01 -0.54211144684E+01 -0.36914441470E+01  0.11699795713E+02  0.51100000000E-03 0.  1.
        -12    1    3    3    0    0  0.28639563014E+01  0.16326786982E+02 -0.10610962773E+01  0.16610001329E+02  0.00000000000E+00 0.  1.
</event>
<event>
 7    1  0.6316620E-012  0.5930195E+02  0.7816164E-02  0.1266605E+00
        -11   -1    0    0    0    0  0.00000000000E+00  0.00000000000E+00  0.45593999997E+02  0.45594000000E+02  0.51100000000E-03 0.  1.
         11   -1    0    0    0    0 -0.00000000000E+00 -0.00000000000E+00 -0.45593999997E+02  0.45594000000E+02  0.51100000000E-03 0. -1.
    9900012    2    1    2    0    0  0.38951845544E+01 -0.19808269261E+02  0.24681578594E+02  0.59301947944E+02  0.50000007142E+02 0.  0.
         12    1    1    2    0    0 -0.38951845544E+01  0.19808269261E+02 -0.24681578594E+02  0.31886052056E+02  0.00000000000E+00 0. -1.
         11    1    3    3    0    0 -0.76562081094E+01 -0.90817289605E+01 -0.55357373348E+01  0.13104949890E+02  0.51100000000E-03 0. -1.
        -11    1    3    3    0    0  0.11750730891E+02 -0.19601654855E+02  0.11729369103E+02  0.25688181122E+02  0.51100000000E-03 0.  1.
         12    1    3    3    0    0 -0.19933822678E+00  0.88751145551E+01  0.18487946826E+02  0.20508816932E+02  0.00000000000E+00 0. -1.
</event>
<event>
 7    1  0.6316620E-012  0.5930180E+02  0.7816164E-02  0.1266605E+00
        -11   -1    0    0    0    0  0.00000000000E+00  0.00000000000E+00  0.45593999997E+02  0.45594000000E+02  0.51100000000E-03 0. -1.
         11   -1    0    0    0    0 -0.00000000000E+00 -0.00000000000E+00 -0.45593999997E+02  0.45594000000E+02  0.51100000000E-03 0.  1.
    9900012    2    1    2    0    0  0.17350681889E+02  0.19714115261E+02 -0.18084170286E+02  0.59301800517E+02  0.49999738270E+02 0.  0.
         12    1    1    2    0    0 -0.17350681889E+02 -0.19714115261E+02  0.18084170286E+02  0.31886199483E+02  0.00000000000E+00 0. -1.
         11    1    3    3    0    0 -0.51022751561E+01 -0.50412446300E+01 -0.16953855719E+01  0.73703250733E+01  0.51100000000E-03 0. -1.
        -11    1    3    3    0    0  0.10442408461E+00  0.26826677077E+02 -0.85047878637E+01  0.28142724179E+02  0.51100000000E-03 0.  1.
         12    1    3    3    0    0  0.22348532960E+02 -0.20713171861E+01 -0.78839968507E+01  0.23788751264E+02  0.00000000000E+00 0. -1.
</event>
<event>
 7    1  0.6316620E-012  0.5930195E+02  0.7816164E-02  0.1266605E+00
        -11   -1    0    0    0    0  0.00000000000E+00  0.00000000000E+00  0.45593999997E+02  0.45594000000E+02  0.51100000000E-03 0.  1.
         11   -1    0    0    0    0 -0.00000000000E+00 -0.00000000000E+00 -0.45593999997E+02  0.45594000000E+02  0.51100000000E-03 0. -1.
    9900012    2    1    2    0    0 -0.43334340131E+01 -0.20486209990E+02 -0.24046972963E+02  0.59301947269E+02  0.50000005911E+02 0.  0.
         12    1    1    2    0    0  0.43334340131E+01  0.20486209990E+02  0.24046972963E+02  0.31886052731E+02  0.00000000000E+00 0. -1.
         11    1    3    3    0    0  0.43542253935E+01  0.46476372678E+01 -0.18597766690E+02  0.19657994228E+02  0.51100000000E-03 0.  1.
        -11    1    3    3    0    0  0.50607056486E+01 -0.20414393580E+02 -0.11416360900E+02  0.23930973723E+02  0.51100000000E-03 0. -1.
        -12    1    3    3    0    0 -0.13748365055E+02 -0.47194536784E+01  0.59671546263E+01  0.15712979318E+02  0.00000000000E+00 0.  1.
</event>
<event>
 7    1  0.6316620E-012  0.5930195E+02  0.7816164E-02  0.1266605E+00
        -11   -1    0    0    0    0  0.00000000000E+00  0.00000000000E+00  0.45593999997E+02  0.45594000000E+02  0.51100000000E-03 0.  1.
         11   -1    0    0    0    0 -0.00000000000E+00 -0.00000000000E+00 -0.45593999997E+02  0.45594000000E+02  0.51100000000E-03 0. -1.
    9900012    2    1    2    0    0 -0.32263735272E+00  0.24890478864E+02  0.19926877705E+02  0.59301945242E+02  0.50000002214E+02 0.  0.
         12    1    1    2    0    0  0.32263735272E+00 -0.24890478864E+02 -0.19926877705E+02  0.31886054758E+02  0.00000000000E+00 0. -1.
         11    1    3    3    0    0  0.29884143908E+01  0.30080902124E+02 -0.41136507227E+01  0.30507596033E+02  0.51100000000E-03 0. -1.
        -11    1    3    3    0    0  0.13854460883E+01 -0.21259920161E+00 -0.16747965975E+01  0.21839421211E+01  0.51100000000E-03 0.  1.
        -12    1    3    3    0    0 -0.46964978318E+01 -0.49778240580E+01  0.25715325026E+02  0.26610407088E+02  0.00000000000E+00 0.  1.
</event>
<event>
 7    1  0.6316620E-012  0.5930193E+02  0.7816164E-02  0.1266605E+00
        -11   -1    0    0    0    0  0.00000000000E+00  0.00000000000E+00  0.45593999997E+02  0.45594000000E+02  0.51100000000E-03 0.  1.
         11   -1    0    0    0    0 -0.00000000000E+00 -0.00000000000E+00 -0.45593999997E+02  0.45594000000E+02  0.51100000000E-03 0. -1.
    9900012    2    1    2    0    0  0.28797296521E+02  0.28518358018E+01 -0.13390448153E+02  0.59301931630E+02  0.49999977389E+02 0.  0.
         12    1    1    2    0    0 -0.28797296521E+02 -0.28518358018E+01  0.13390448153E+02  0.31886068370E+02  0.00000000000E+00 0. -1.
         11    1    3    3    0    0  0.83572906759E+01 -0.12573274198E+02 -0.14778628951E+01  0.15169561974E+02  0.51100000000E-03 0. -1.
        -11    1    3    3    0    0  0.28918327755E+02  0.59305778854E+01 -0.10469757685E+02  0.31321833606E+02  0.51100000000E-03 0.  1.
        -12    1    3    3    0    0 -0.84783219096E+01  0.94945321143E+01 -0.14428275737E+01  0.12810536050E+02  0.00000000000E+00 0.  1.
</event>
<event>
 7    1  0.6316620E-012  0.5930193E+02  0.7816164E-02  0.1266605E+00
        -11   -1    0    0    0    0  0.00000000000E+00  0.00000000000E+00  0.45593999997E+02  0.45594000000E+02  0.51100000000E-03 0.  1.
         11   -1    0    0    0    0 -0.00000000000E+00 -0.00000000000E+00 -0.45593999997E+02  0.45594000000E+02  0.51100000000E-03 0. -1.
    9900012    2    1    2    0    0 -0.96877753614E+01  0.45222324820E+01  0.30040269553E+02  0.59301931366E+02  0.49999976909E+02 0.  0.
         12    1    1    2    0    0  0.96877753614E+01 -0.45222324820E+01 -0.30040269553E+02  0.31886068634E+02  0.00000000000E+00 0. -1.
         11    1    3    3    0    0  0.67889791795E+01  0.24688754679E+01 -0.97190515491E+01  0.12109729462E+02  0.51100000000E-03 0. -1.
        -11    1    3    3    0    0 -0.13187110380E+02 -0.70078969404E+01  0.17966448224E+02  0.23362443403E+02  0.51100000000E-03 0.  1.
        -12    1    3    3    0    0 -0.32896441612E+01  0.90612539545E+01  0.21792872878E+02  0.23829758501E+02  0.00000000000E+00 0.  1.
</event>
<event>
 7    1  0.6316620E-012  0.5930194E+02  0.7816164E-02  0.1266605E+00
        -11   -1    0    0    0    0  0.00000000000E+00  0.00000000000E+00  0.45593999997E+02  0.45594000000E+02  0.51100000000E-03 0. -1.
         11   -1    0    0    0    0 -0.00000000000E+00 -0.00000000000E+00 -0.45593999997E+02  0.45594000000E+02  0.51100000000E-03 0.  1.
    9900012    2    1    2    0    0 -0.27790080187E+02 -0.15185975984E+02 -0.37172944816E+01  0.59301941892E+02  0.49999996104E+02 0.  0.
         12    1    1    2    0    0  0.27790080187E+02  0.15185975984E+02  0.37172944816E+01  0.31886058108E+02  0.00000000000E+00 0. -1.
         11    1    3    3    0    0 -0.15176851334E+02 -0.22629632835E+02  0.64083744995E+01  0.27991147933E+02  0.51100000000E-03 0. -1.
        -11    1    3    3    0    0  0.46358236822E+01  0.59506901739E+01  0.43809197755E+01  0.87231893880E+01  0.51100000000E-03 0.  1.
         12    1    3    3    0    0 -0.17249052536E+02  0.14929666763E+01 -0.14506588757E+02  0.22587604571E+02  0.00000000000E+00 0. -1.
</event>
<event>
 7    1  0.6316620E-012  0.5930196E+02  0.7816164E-02  0.1266605E+00
        -11   -1    0    0    0    0  0.00000000000E+00  0.00000000000E+00  0.45593999997E+02  0.45594000000E+02  0.51100000000E-03 0.  1.
         11   -1    0    0    0    0 -0.00000000000E+00 -0.00000000000E+00 -0.45593999997E+02  0.45594000000E+02  0.51100000000E-03 0. -1.
    9900012    2    1    2    0    0  0.11956562128E+02 -0.29174354728E+02  0.47557484755E+01  0.59301960809E+02  0.50000030606E+02 0.  0.
         12    1    1    2    0    0 -0.11956562128E+02  0.29174354728E+02 -0.47557484755E+01  0.31886039191E+02  0.00000000000E+00 0. -1.
         11    1    3    3    0    0 -0.52573352073E+01 -0.86278993574E+01 -0.85368482878E+01  0.13227169000E+02  0.51100000000E-03 0. -1.
        -11    1    3    3    0    0 -0.14181105197E+01 -0.20561151410E+02  0.17426253156E+02  0.26989744053E+02  0.51100000000E-03 0.  1.
         12    1    3    3    0    0  0.18632007855E+02  0.14696039047E-01 -0.41336563931E+01  0.19085047756E+02  0.00000000000E+00 0. -1.
</event>
<event>
 7    1  0.6316620E-012  0.5930215E+02  0.7816164E-02  0.1266604E+00
        -11   -1    0    0    0    0  0.00000000000E+00  0.00000000000E+00  0.45593999997E+02  0.45594000000E+02  0.51100000000E-03 0.  1.
         11   -1    0    0    0    0 -0.00000000000E+00 -0.00000000000E+00 -0.45593999997E+02  0.45594000000E+02  0.51100000000E-03 0. -1.
    9900012    2    1    2    0    0 -0.30723174792E+02  0.65872076090E+01  0.54224390533E+01  0.59302147045E+02  0.50000370253E+02 0.  0.
         12    1    1    2    0    0  0.30723174792E+02 -0.65872076090E+01 -0.54224390533E+01  0.31885852955E+02  0.00000000000E+00 0. -1.
         11    1    3    3    0    0  0.91899758635E+00 -0.11764221990E+01  0.27865860712E+01  0.31612636630E+01  0.51100000000E-03 0. -1.
        -11    1    3    3    0    0 -0.31976877152E+02 -0.28297841538E+01  0.18508250558E+02  0.37055143903E+02  0.51100000000E-03 0.  1.
        -12    1    3    3    0    0  0.33470477325E+00  0.10593413962E+02 -0.15872397576E+02  0.19085739479E+02  0.00000000000E+00 0.  1.
</event>
<event>
 7    1  0.6316620E-012  0.5930194E+02  0.7816164E-02  0.1266605E+00
        -11   -1    0    0    0    0  0.00000000000E+00  0.00000000000E+00  0.45593999997E+02  0.45594000000E+02  0.51100000000E-03 0.  1.
         11   -1    0    0    0    0 -0.00000000000E+00 -0.00000000000E+00 -0.45593999997E+02  0.45594000000E+02  0.51100000000E-03 0. -1.
    9900012    2    1    2    0    0 -0.17793829521E+02 -0.48770028593E+01  0.26006064328E+02  0.59301938661E+02  0.49999990212E+02 0.  0.
         12    1    1    2    0    0  0.17793829521E+02  0.48770028593E+01 -0.26006064328E+02  0.31886061339E+02  0.00000000000E+00 0. -1.
         11    1    3    3    0    0  0.28818428340E+00  0.21107475791E+01 -0.25969112994E+01  0.33589066796E+01  0.51100000000E-03 0. -1.
        -11    1    3    3    0    0 -0.14731482044E+02 -0.22774755664E+02  0.53630129585E+01  0.27649013852E+02  0.51100000000E-03 0.  1.
        -12    1    3    3    0    0 -0.33505317604E+01  0.15787005225E+02  0.23239962669E+02  0.28294018129E+02  0.00000000000E+00 0.  1.
</event>
<event>
 7    1  0.6316620E-012  0.5930190E+02  0.7816164E-02  0.1266605E+00
        -11   -1    0    0    0    0  0.00000000000E+00  0.00000000000E+00  0.45593999997E+02  0.45594000000E+02  0.51100000000E-03 0.  1.
         11   -1    0    0    0    0 -0.00000000000E+00 -0.00000000000E+00 -0.45593999997E+02  0.45594000000E+02  0.51100000000E-03 0. -1.
    9900012    2    1    2    0    0 -0.28616895227E+02 -0.10863641369E+02  0.89318391152E+01  0.59301903560E+02  0.49999926196E+02 0.  0.
         12    1    1    2    0    0  0.28616895227E+02  0.10863641369E+02 -0.89318391152E+01  0.31886096440E+02  0.00000000000E+00 0. -1.
         11    1    3    3    0    0  0.13367042345E+01 -0.14466326424E+02 -0.83539578985E+01  0.16758579631E+02  0.51100000000E-03 0. -1.
        -11    1    3    3    0    0 -0.58079392963E+01 -0.52021585512E+01  0.14792636209E+02  0.16721743293E+02  0.51100000000E-03 0.  1.
         12    1    3    3    0    0 -0.24145660165E+02  0.88048436068E+01  0.24931608042E+01  0.25821580636E+02  0.00000000000E+00 0. -1.
</event>
<event>
 7    1  0.6316620E-012  0.5930207E+02  0.7816164E-02  0.1266604E+00
        -11   -1    0    0    0    0  0.00000000000E+00  0.00000000000E+00  0.45593999997E+02  0.45594000000E+02  0.51100000000E-03 0. -1.
         11   -1    0    0    0    0 -0.00000000000E+00 -0.00000000000E+00 -0.45593999997E+02  0.45594000000E+02  0.51100000000E-03 0.  1.
    9900012    2    1    2    0    0  0.38311746192E+01 -0.23232111053E+02 -0.21501248997E+02  0.59302069069E+02  0.50000228045E+02 0.  0.
         12    1    1    2    0    0 -0.38311746192E+01  0.23232111053E+02  0.21501248997E+02  0.31885930931E+02  0.00000000000E+00 0. -1.
         11    1    3    3    0    0 -0.93361067999E+00  0.44248354110E+01 -0.12468648399E+02  0.13263407951E+02  0.51100000000E-03 0. -1.
        -11    1    3    3    0    0  0.30615014117E+01 -0.22075905781E+02 -0.22310391910E+02  0.31535250028E+02  0.51100000000E-03 0.  1.
         12    1    3    3    0    0  0.17032838875E+01 -0.55810406830E+01  0.13277791312E+02  0.14503411090E+02  0.00000000000E+00 0. -1.
</event>
<event>
 7    1  0.6316620E-012  0.5930192E+02  0.7816164E-02  0.1266605E+00
        -11   -1    0    0    0    0  0.00000000000E+00  0.00000000000E+00  0.45593999997E+02  0.45594000000E+02  0.51100000000E-03 0.  1.
         11   -1    0    0    0    0 -0.00000000000E+00 -0.00000000000E+00 -0.45593999997E+02  0.45594000000E+02  0.51100000000E-03 0. -1.
    9900012    2    1    2    0    0 -0.87276738828E+01 -0.21187345521E+02  0.22173098783E+02  0.59301918220E+02  0.49999952932E+02 0.  0.
         12    1    1    2    0    0  0.87276738828E+01  0.21187345521E+02 -0.22173098783E+02  0.31886081780E+02  0.00000000000E+00 0. -1.
         11    1    3    3    0    0  0.53309838013E+01 -0.21642779614E+01  0.80671344483E+01  0.99086904206E+01  0.51100000000E-03 0. -1.
        -11    1    3    3    0    0 -0.27183581261E+02 -0.41664939361E+01  0.76623472960E+01  0.28548525851E+02  0.51100000000E-03 0.  1.
         12    1    3    3    0    0  0.13124923577E+02 -0.14856573624E+02  0.64436170391E+01  0.20844701948E+02  0.00000000000E+00 0. -1.
</event>
<event>
 7    1  0.6316620E-012  0.5930194E+02  0.7816164E-02  0.1266605E+00
        -11   -1    0    0    0    0  0.00000000000E+00  0.00000000000E+00  0.45593999997E+02  0.45594000000E+02  0.51100000000E-03 0.  1.
         11   -1    0    0    0    0 -0.00000000000E+00 -0.00000000000E+00 -0.45593999997E+02  0.45594000000E+02  0.51100000000E-03 0. -1.
    9900012    2    1    2    0    0 -0.29227319835E+02 -0.28608940292E+01  0.12421757732E+02  0.59301937143E+02  0.49999987443E+02 0.  0.
         12    1    1    2    0    0  0.29227319835E+02  0.28608940292E+01 -0.12421757732E+02  0.31886062857E+02  0.00000000000E+00 0. -1.
         11    1    3    3    0    0 -0.15061079447E+02  0.67593862337E+00  0.61265272729E+01  0.16273516639E+02  0.51100000000E-03 0. -1.
        -11    1    3    3    0    0 -0.20448509578E+02  0.13433038964E+02  0.33284225230E+01  0.24691425161E+02  0.51100000000E-03 0.  1.
         12    1    3    3    0    0  0.62822691894E+01 -0.16969871616E+02  0.29668079359E+01  0.18336995342E+02  0.00000000000E+00 0. -1.
</event>
<event>
 7    1  0.6316620E-012  0.5930201E+02  0.7816164E-02  0.1266605E+00
        -11   -1    0    0    0    0  0.00000000000E+00  0.00000000000E+00  0.45593999997E+02  0.45594000000E+02  0.51100000000E-03 0.  1.
         11   -1    0    0    0    0 -0.00000000000E+00 -0.00000000000E+00 -0.45593999997E+02  0.45594000000E+02  0.51100000000E-03 0. -1.
    9900012    2    1    2    0    0 -0.14864701662E+02  0.12696901847E+01  0.28180578283E+02  0.59302008389E+02  0.50000117380E+02 0.  0.
         12    1    1    2    0    0  0.14864701662E+02 -0.12696901847E+01 -0.28180578283E+02  0.31885991611E+02  0.00000000000E+00 0. -1.
         11    1    3    3    0    0 -0.82501675531E+01 -0.90887925627E+00 -0.56853946340E-01  0.83002746213E+01  0.51100000000E-03 0. -1.
        -11    1    3    3    0    0 -0.23292019147E+02  0.50781430807E+00  0.24540245230E+02  0.33837843719E+02  0.51100000000E-03 0.  1.
         12    1    3    3    0    0  0.16677485038E+02  0.16707551329E+01  0.36971869988E+01  0.17163890049E+02  0.00000000000E+00 0. -1.
</event>
<event>
 7    1  0.6316620E-012  0.5930194E+02  0.7816164E-02  0.1266605E+00
        -11   -1    0    0    0    0  0.00000000000E+00  0.00000000000E+00  0.45593999997E+02  0.45594000000E+02  0.51100000000E-03 0. -1.
         11   -1    0    0    0    0 -0.00000000000E+00 -0.00000000000E+00 -0.45593999997E+02  0.45594000000E+02  0.51100000000E-03 0.  1.
    9900012    2    1    2    0    0  0.68259306880E+01 -0.30576687790E+02  0.59324089857E+01  0.59301942822E+02  0.49999997802E+02 0.  0.
         12    1    1    2    0    0 -0.68259306880E+01  0.30576687790E+02 -0.59324089857E+01  0.31886057178E+02  0.00000000000E+00 0. -1.
         11    1    3    3    0    0  0.16511544930E+02 -0.76391718773E+01 -0.53794813240E+01  0.18971739048E+02  0.51100000000E-03 0. -1.
        -11    1    3    3    0    0 -0.83336621595E+01 -0.17012201447E+02 -0.76410103629E+01  0.20426697302E+02  0.51100000000E-03 0.  1.
         12    1    3    3    0    0 -0.13519520826E+01 -0.59253144657E+01  0.18952900673E+02  0.19903506471E+02  0.00000000000E+00 0. -1.
</event>
<event>
 7    1  0.6316620E-012  0.5930195E+02  0.7816164E-02  0.1266605E+00
        -11   -1    0    0    0    0  0.00000000000E+00  0.00000000000E+00  0.45593999997E+02  0.45594000000E+02  0.51100000000E-03 0. -1.
         11   -1    0    0    0    0 -0.00000000000E+00 -0.00000000000E+00 -0.45593999997E+02  0.45594000000E+02  0.51100000000E-03 0.  1.
    9900012    2    1    2    0    0 -0.20818675163E+02  0.17522108379E+02 -0.16621631738E+02  0.59301950398E+02  0.50000011617E+02 0.  0.
         12    1    1    2    0    0  0.20818675163E+02 -0.17522108379E+02  0.16621631738E+02  0.31886049602E+02  0.00000000000E+00 0. -1.
         11    1    3    3    0    0  0.61219108650E+01  0.84568404821E+01 -0.20374777272E+00  0.10442100219E+02  0.51100000000E-03 0. -1.
        -11    1    3    3    0    0 -0.96087736520E+01  0.21575222566E+02 -0.13723222239E+02  0.27315665629E+02  0.51100000000E-03 0.  1.
         12    1    3    3    0    0 -0.17331812376E+02 -0.12509954669E+02 -0.26946617270E+01  0.21544184549E+02  0.00000000000E+00 0. -1.
</event>
<event>
 7    1  0.6316620E-012  0.5930197E+02  0.7816164E-02  0.1266605E+00
        -11   -1    0    0    0    0  0.00000000000E+00  0.00000000000E+00  0.45593999997E+02  0.45594000000E+02  0.51100000000E-03 0.  1.
         11   -1    0    0    0    0 -0.00000000000E+00 -0.00000000000E+00 -0.45593999997E+02  0.45594000000E+02  0.51100000000E-03 0. -1.
    9900012    2    1    2    0    0  0.29571552383E+02  0.58920768307E+01  0.10369470606E+02  0.59301965433E+02  0.50000039039E+02 0.  0.
         12    1    1    2    0    0 -0.29571552383E+02 -0.58920768307E+01 -0.10369470606E+02  0.31886034567E+02  0.00000000000E+00 0. -1.
         11    1    3    3    0    0 -0.34581125066E+01  0.10368882754E+02  0.92233236074E+01  0.14301817028E+02  0.51100000000E-03 0. -1.
        -11    1    3    3    0    0  0.11003937192E+02 -0.26769787428E+01 -0.14149850508E+02  0.18123772195E+02  0.51100000000E-03 0.  1.
        -12    1    3    3    0    0  0.22025727698E+02 -0.17998271808E+01  0.15295997506E+02  0.26876376211E+02  0.00000000000E+00 0.  1.
</event>
<event>
 7    1  0.6316620E-012  0.5930195E+02  0.7816164E-02  0.1266605E+00
        -11   -1    0    0    0    0  0.00000000000E+00  0.00000000000E+00  0.45593999997E+02  0.45594000000E+02  0.51100000000E-03 0. -1.
         11   -1    0    0    0    0 -0.00000000000E+00 -0.00000000000E+00 -0.45593999997E+02  0.45594000000E+02  0.51100000000E-03 0.  1.
    9900012    2    1    2    0    0  0.19856265938E+02 -0.63904400632E+01 -0.24116613999E+02  0.59301951452E+02  0.50000013541E+02 0.  0.
         12    1    1    2    0    0 -0.19856265938E+02  0.63904400632E+01  0.24116613999E+02  0.31886048548E+02  0.00000000000E+00 0. -1.
         11    1    3    3    0    0  0.64960168416E+01  0.16051433722E+01 -0.91735196903E+01  0.11354654720E+02  0.51100000000E-03 0. -1.
        -11    1    3    3    0    0  0.11263415853E+02 -0.17951040171E+02 -0.25586784407E+02  0.33223303816E+02  0.51100000000E-03 0.  1.
         12    1    3    3    0    0  0.20968332434E+01  0.99554567354E+01  0.10643690099E+02  0.14723992916E+02  0.00000000000E+00 0. -1.
</event>
<event>
 7    1  0.6316620E-012  0.5930193E+02  0.7816164E-02  0.1266605E+00
        -11   -1    0    0    0    0  0.00000000000E+00  0.00000000000E+00  0.45593999997E+02  0.45594000000E+02  0.51100000000E-03 0.  1.
         11   -1    0    0    0    0 -0.00000000000E+00 -0.00000000000E+00 -0.45593999997E+02  0.45594000000E+02  0.51100000000E-03 0. -1.
    9900012    2    1    2    0    0 -0.31435413546E+02 -0.41029590759E+01  0.34208038820E+01  0.59301930986E+02  0.49999976214E+02 0.  0.
         12    1    1    2    0    0  0.31435413546E+02  0.41029590759E+01 -0.34208038820E+01  0.31886069014E+02  0.00000000000E+00 0. -1.
         11    1    3    3    0    0 -0.19454731393E+02 -0.24131653203E+01 -0.90010218216E+01  0.21571470384E+02  0.51100000000E-03 0.  1.
        -11    1    3    3    0    0  0.34194395482E+01 -0.27358055023E+01  0.20043071922E+02  0.20515894592E+02  0.51100000000E-03 0. -1.
         12    1    3    3    0    0 -0.15400121701E+02  0.10460117468E+01 -0.76212462182E+01  0.17214566009E+02  0.00000000000E+00 0. -1.
</event>
<event>
 7    1  0.6316620E-012  0.5930193E+02  0.7816164E-02  0.1266605E+00
        -11   -1    0    0    0    0  0.00000000000E+00  0.00000000000E+00  0.45593999997E+02  0.45594000000E+02  0.51100000000E-03 0.  1.
         11   -1    0    0    0    0 -0.00000000000E+00 -0.00000000000E+00 -0.45593999997E+02  0.45594000000E+02  0.51100000000E-03 0. -1.
    9900012    2    1    2    0    0 -0.19104324424E+02  0.25189530371E+02  0.41513277361E+01  0.59301934486E+02  0.49999982598E+02 0.  0.
         12    1    1    2    0    0  0.19104324424E+02 -0.25189530371E+02 -0.41513277361E+01  0.31886065514E+02  0.00000000000E+00 0. -1.
         11    1    3    3    0    0 -0.99295460103E+01  0.15425028581E+02 -0.65414989928E+01  0.19476103307E+02  0.51100000000E-03 0. -1.
        -11    1    3    3    0    0 -0.88060918417E+01  0.23238213737E+02  0.77301210643E+01  0.26025306975E+02  0.51100000000E-03 0.  1.
         12    1    3    3    0    0 -0.36868657176E+00 -0.13473711948E+02  0.29627056646E+01  0.13800524203E+02  0.00000000000E+00 0. -1.
</event>
<event>
 7    1  0.6316620E-012  0.5930192E+02  0.7816164E-02  0.1266605E+00
        -11   -1    0    0    0    0  0.00000000000E+00  0.00000000000E+00  0.45593999997E+02  0.45594000000E+02  0.51100000000E-03 0.  1.
         11   -1    0    0    0    0 -0.00000000000E+00 -0.00000000000E+00 -0.45593999997E+02  0.45594000000E+02  0.51100000000E-03 0. -1.
    9900012    2    1    2    0    0  0.21902954389E+02  0.21526383457E+02 -0.85788896248E+01  0.59301922428E+02  0.49999960608E+02 0.  0.
         12    1    1    2    0    0 -0.21902954389E+02 -0.21526383457E+02  0.85788896248E+01  0.31886077572E+02  0.00000000000E+00 0. -1.
         11    1    3    3    0    0  0.30417827970E+01  0.17662218545E+02  0.70426824058E+01  0.19256317983E+02  0.51100000000E-03 0. -1.
        -11    1    3    3    0    0 -0.56722675134E+01  0.39865598354E+01  0.45426364752E+01  0.82887166963E+01  0.51100000000E-03 0.  1.
         12    1    3    3    0    0  0.24533439105E+02 -0.12239492338E+00 -0.20164208506E+02  0.31756887749E+02  0.00000000000E+00 0. -1.
</event>
<event>
 7    1  0.6316620E-012  0.5930195E+02  0.7816164E-02  0.1266605E+00
        -11   -1    0    0    0    0  0.00000000000E+00  0.00000000000E+00  0.45593999997E+02  0.45594000000E+02  0.51100000000E-03 0.  1.
         11   -1    0    0    0    0 -0.00000000000E+00 -0.00000000000E+00 -0.45593999997E+02  0.45594000000E+02  0.51100000000E-03 0. -1.
    9900012    2    1    2    0    0 -0.89464220874E+01  0.29329860329E+02 -0.87430429076E+01  0.59301953297E+02  0.50000016905E+02 0.  0.
         12    1    1    2    0    0  0.89464220874E+01 -0.29329860329E+02  0.87430429076E+01  0.31886046703E+02  0.00000000000E+00 0. -1.
         11    1    3    3    0    0 -0.11301148936E+02  0.11419616645E+02 -0.23979000482E+01  0.16244184698E+02  0.51100000000E-03 0. -1.
        -11    1    3    3    0    0 -0.78718318179E+01  0.14290074926E+02  0.13011809470E+02  0.20868137519E+02  0.51100000000E-03 0.  1.
         12    1    3    3    0    0  0.10226558667E+02  0.36201687577E+01 -0.19356952329E+02  0.22189631080E+02  0.00000000000E+00 0. -1.
</event>
<event>
 7    1  0.6316620E-012  0.5930194E+02  0.7816164E-02  0.1266605E+00
        -11   -1    0    0    0    0  0.00000000000E+00  0.00000000000E+00  0.45593999997E+02  0.45594000000E+02  0.51100000000E-03 0.  1.
         11   -1    0    0    0    0 -0.00000000000E+00 -0.00000000000E+00 -0.45593999997E+02  0.45594000000E+02  0.51100000000E-03 0. -1.
    9900012    2    1    2    0    0 -0.25040882218E+02 -0.12077529380E+02  0.15614361680E+02  0.59301940525E+02  0.49999993611E+02 0.  0.
         12    1    1    2    0    0  0.25040882218E+02  0.12077529380E+02 -0.15614361680E+02  0.31886059475E+02  0.00000000000E+00 0. -1.
         11    1    3    3    0    0 -0.18676872928E+01 -0.33090899443E+01  0.10474617996E+02  0.11142529090E+02  0.51100000000E-03 0. -1.
        -11    1    3    3    0    0  0.14387209301E+01 -0.19345298138E+02 -0.40907625987E+01  0.19825357925E+02  0.51100000000E-03 0.  1.
        -12    1    3    3    0    0 -0.24611915855E+02  0.10576858702E+02  0.92305062824E+01  0.28334053510E+02  0.00000000000E+00 0.  1.
</event>
<event>
 7    1  0.6316620E-012  0.5930194E+02  0.7816164E-02  0.1266605E+00
        -11   -1    0    0    0    0  0.00000000000E+00  0.00000000000E+00  0.45593999997E+02  0.45594000000E+02  0.51100000000E-03 0.  1.
         11   -1    0    0    0    0 -0.00000000000E+00 -0.00000000000E+00 -0.45593999997E+02  0.45594000000E+02  0.51100000000E-03 0. -1.
    9900012    2    1    2    0    0  0.13116690773E+02  0.23617968459E+02  0.16937079296E+02  0.59301942451E+02  0.49999997124E+02 0.  0.
         12    1    1    2    0    0 -0.13116690773E+02 -0.23617968459E+02 -0.16937079296E+02  0.31886057549E+02  0.00000000000E+00 0. -1.
         11    1    3    3    0    0  0.24590676076E+01 -0.55409548028E+01  0.14343069058E+01  0.62294807317E+01  0.51100000000E-03 0. -1.
        -11    1    3    3    0    0  0.19988246030E+02  0.13955965825E+02  0.23192157628E+02  0.33647810288E+02  0.51100000000E-03 0.  1.
         12    1    3    3    0    0 -0.93306228651E+01  0.15202957437E+02 -0.76893852376E+01  0.19424651431E+02  0.00000000000E+00 0. -1.
</event>
<event>
 7    1  0.6316620E-012  0.5930195E+02  0.7816164E-02  0.1266605E+00
        -11   -1    0    0    0    0  0.00000000000E+00  0.00000000000E+00  0.45593999997E+02  0.45594000000E+02  0.51100000000E-03 0. -1.
         11   -1    0    0    0    0 -0.00000000000E+00 -0.00000000000E+00 -0.45593999997E+02  0.45594000000E+02  0.51100000000E-03 0.  1.
    9900012    2    1    2    0    0 -0.25531382240E+02 -0.60854766755E+01 -0.18106229610E+02  0.59301952015E+02  0.50000014566E+02 0.  0.
         12    1    1    2    0    0  0.25531382240E+02  0.60854766755E+01  0.18106229610E+02  0.31886047985E+02  0.00000000000E+00 0. -1.
         11    1    3    3    0    0 -0.94954158444E+01 -0.15629919741E+02 -0.16780640666E+02  0.24820298439E+02  0.51100000000E-03 0. -1.
        -11    1    3    3    0    0 -0.99782223839E+01 -0.99089785489E+01 -0.11030235387E+01  0.14105652733E+02  0.51100000000E-03 0.  1.
         12    1    3    3    0    0 -0.60577440116E+01  0.19453421614E+02 -0.22256540494E+00  0.20376000843E+02  0.00000000000E+00 0. -1.
</event>
<event>
 7    1  0.6316620E-012  0.5930193E+02  0.7816164E-02  0.1266605E+00
        -11   -1    0    0    0    0  0.00000000000E+00  0.00000000000E+00  0.45593999997E+02  0.45594000000E+02  0.51100000000E-03 0.  1.
         11   -1    0    0    0    0 -0.00000000000E+00 -0.00000000000E+00 -0.45593999997E+02  0.45594000000E+02  0.51100000000E-03 0. -1.
    9900012    2    1    2    0    0  0.17991180810E+02  0.13512185652E+02  0.22593356668E+02  0.59301929161E+02  0.49999972886E+02 0.  0.
         12    1    1    2    0    0 -0.17991180810E+02 -0.13512185652E+02 -0.22593356668E+02  0.31886070839E+02  0.00000000000E+00 0. -1.
         11    1    3    3    0    0  0.12985287177E+01 -0.88857454133E+01  0.54570253737E+01  0.10508176558E+02  0.51100000000E-03 0.  1.
        -11    1    3    3    0    0  0.15790278569E+02 -0.58319666678E+01  0.26137917713E+01  0.17034571911E+02  0.51100000000E-03 0. -1.
         12    1    3    3    0    0  0.90237352358E+00  0.28229897733E+02  0.14522539523E+02  0.31759180692E+02  0.00000000000E+00 0. -1.
</event>
<event>
 7    1  0.6316620E-012  0.5930195E+02  0.7816164E-02  0.1266605E+00
        -11   -1    0    0    0    0  0.00000000000E+00  0.00000000000E+00  0.45593999997E+02  0.45594000000E+02  0.51100000000E-03 0.  1.
         11   -1    0    0    0    0 -0.00000000000E+00 -0.00000000000E+00 -0.45593999997E+02  0.45594000000E+02  0.51100000000E-03 0. -1.
    9900012    2    1    2    0    0  0.14597467797E+02  0.66308921418E+01  0.27562022264E+02  0.59301954965E+02  0.50000019948E+02 0.  0.
         12    1    1    2    0    0 -0.14597467797E+02 -0.66308921418E+01 -0.27562022264E+02  0.31886045035E+02  0.00000000000E+00 0. -1.
         11    1    3    3    0    0  0.35409256130E+01  0.23110848430E+00  0.11990907356E+02  0.12504936018E+02  0.51100000000E-03 0. -1.
        -11    1    3    3    0    0 -0.97421021743E+01 -0.72312990380E+00  0.21849206370E+02  0.23933643494E+02  0.51100000000E-03 0.  1.
         12    1    3    3    0    0  0.20798644358E+02  0.71229135613E+01 -0.62780914620E+01  0.22863375454E+02  0.00000000000E+00 0. -1.
</event>
<event>
 7    1  0.6316620E-012  0.5930194E+02  0.7816164E-02  0.1266605E+00
        -11   -1    0    0    0    0  0.00000000000E+00  0.00000000000E+00  0.45593999997E+02  0.45594000000E+02  0.51100000000E-03 0.  1.
         11   -1    0    0    0    0 -0.00000000000E+00 -0.00000000000E+00 -0.45593999997E+02  0.45594000000E+02  0.51100000000E-03 0. -1.
    9900012    2    1    2    0    0 -0.24794809529E+02 -0.11760634428E+02  0.16236551380E+02  0.59301941880E+02  0.49999996083E+02 0.  0.
         12    1    1    2    0    0  0.24794809529E+02  0.11760634428E+02 -0.16236551380E+02  0.31886058120E+02  0.00000000000E+00 0. -1.
         11    1    3    3    0    0 -0.23212526203E+01  0.35181536102E+00 -0.10531437196E+02  0.10789956323E+02  0.51100000000E-03 0. -1.
        -11    1    3    3    0    0 -0.18080885953E+02  0.39798839763E+01  0.19599044052E+01  0.18617173224E+02  0.51100000000E-03 0.  1.
        -12    1    3    3    0    0 -0.43926709556E+01 -0.16092333766E+02  0.24808084172E+02  0.29894812333E+02  0.00000000000E+00 0.  1.
</event>
<event>
 7    1  0.6316620E-012  0.5930195E+02  0.7816164E-02  0.1266605E+00
        -11   -1    0    0    0    0  0.00000000000E+00  0.00000000000E+00  0.45593999997E+02  0.45594000000E+02  0.51100000000E-03 0.  1.
         11   -1    0    0    0    0 -0.00000000000E+00 -0.00000000000E+00 -0.45593999997E+02  0.45594000000E+02  0.51100000000E-03 0. -1.
    9900012    2    1    2    0    0 -0.72626545333E+01 -0.95692015623E+01  0.29536493537E+02  0.59301949447E+02  0.50000009884E+02 0.  0.
         12    1    1    2    0    0  0.72626545333E+01  0.95692015623E+01 -0.29536493537E+02  0.31886050553E+02  0.00000000000E+00 0. -1.
         11    1    3    3    0    0 -0.54639773567E+01  0.32882225443E+01  0.26319542672E+00  0.63825330512E+01  0.51100000000E-03 0. -1.
        -11    1    3    3    0    0  0.13449705467E+02  0.96564949571E+01  0.14300056325E+02  0.21877707448E+02  0.51100000000E-03 0.  1.
        -12    1    3    3    0    0 -0.15248382644E+02 -0.22513919064E+02  0.14973241786E+02  0.31041708948E+02  0.00000000000E+00 0.  1.
</event>
<event>
 7    1  0.6316620E-012  0.5930194E+02  0.7816164E-02  0.1266605E+00
        -11   -1    0    0    0    0  0.00000000000E+00  0.00000000000E+00  0.45593999997E+02  0.45594000000E+02  0.51100000000E-03 0.  1.
         11   -1    0    0    0    0 -0.00000000000E+00 -0.00000000000E+00 -0.45593999997E+02  0.45594000000E+02  0.51100000000E-03 0. -1.
    9900012    2    1    2    0    0 -0.20076000808E+02 -0.98998378297E+01 -0.22708323559E+02  0.59301944171E+02  0.50000000261E+02 0.  0.
         12    1    1    2    0    0  0.20076000808E+02  0.98998378297E+01  0.22708323559E+02  0.31886055829E+02  0.00000000000E+00 0. -1.
         11    1    3    3    0    0  0.30599809007E+01  0.41497763744E+00  0.95729453776E+01  0.10058676504E+02  0.51100000000E-03 0. -1.
        -11    1    3    3    0    0 -0.19871752845E+02 -0.10151450167E+02 -0.64807721422E+01  0.23236585580E+02  0.51100000000E-03 0.  1.
         12    1    3    3    0    0 -0.32642288644E+01 -0.16336529999E+00 -0.25800496794E+02  0.26006682086E+02  0.00000000000E+00 0. -1.
</event>
<event>
 7    1  0.6316620E-012  0.5930196E+02  0.7816164E-02  0.1266605E+00
        -11   -1    0    0    0    0  0.00000000000E+00  0.00000000000E+00  0.45593999997E+02  0.45594000000E+02  0.51100000000E-03 0. -1.
         11   -1    0    0    0    0 -0.00000000000E+00 -0.00000000000E+00 -0.45593999997E+02  0.45594000000E+02  0.51100000000E-03 0.  1.
    9900012    2    1    2    0    0 -0.15486245608E+02 -0.11632914736E+02 -0.25329257811E+02  0.59301955882E+02  0.50000021619E+02 0.  0.
         12    1    1    2    0    0  0.15486245608E+02  0.11632914736E+02  0.25329257811E+02  0.31886044118E+02  0.00000000000E+00 0. -1.
         11    1    3    3    0    0  0.33866083343E+01  0.85604069837E+01  0.41352175035E+01  0.10092061623E+02  0.51100000000E-03 0. -1.
        -11    1    3    3    0    0  0.66292636835E+01 -0.98528714310E+01 -0.81737049864E+01  0.14416506716E+02  0.51100000000E-03 0.  1.
         12    1    3    3    0    0 -0.25502117626E+02 -0.10340450288E+02 -0.21290770328E+02  0.34793387543E+02  0.00000000000E+00 0. -1.
</event>
<event>
 7    1  0.6316620E-012  0.5930197E+02  0.7816164E-02  0.1266605E+00
        -11   -1    0    0    0    0  0.00000000000E+00  0.00000000000E+00  0.45593999997E+02  0.45594000000E+02  0.51100000000E-03 0. -1.
         11   -1    0    0    0    0 -0.00000000000E+00 -0.00000000000E+00 -0.45593999997E+02  0.45594000000E+02  0.51100000000E-03 0.  1.
    9900012    2    1    2    0    0 -0.15860276852E+02  0.72870269960E+01 -0.26684640639E+02  0.59301965592E+02  0.50000039327E+02 0.  0.
         12    1    1    2    0    0  0.15860276852E+02 -0.72870269960E+01  0.26684640639E+02  0.31886034408E+02  0.00000000000E+00 0. -1.
         11    1    3    3    0    0 -0.49338022042E+01  0.24407070749E+02 -0.13913743609E+01  0.24939595618E+02  0.51100000000E-03 0. -1.
        -11    1    3    3    0    0 -0.16287715615E+01 -0.10037516632E+02 -0.60059882809E+01  0.11810018307E+02  0.51100000000E-03 0.  1.
        -12    1    3    3    0    0 -0.92977030865E+01 -0.70825271213E+01 -0.19287277997E+02  0.22552351666E+02  0.00000000000E+00 0.  1.
</event>
<event>
 7    1  0.6316620E-012  0.5930194E+02  0.7816164E-02  0.1266605E+00
        -11   -1    0    0    0    0  0.00000000000E+00  0.00000000000E+00  0.45593999997E+02  0.45594000000E+02  0.51100000000E-03 0. -1.
         11   -1    0    0    0    0 -0.00000000000E+00 -0.00000000000E+00 -0.45593999997E+02  0.45594000000E+02  0.51100000000E-03 0.  1.
    9900012    2    1    2    0    0  0.53352332464E+00  0.21513327948E+02 -0.23528979490E+02  0.59301940313E+02  0.49999993224E+02 0.  0.
         12    1    1    2    0    0 -0.53352332464E+00 -0.21513327948E+02  0.23528979490E+02  0.31886059687E+02  0.00000000000E+00 0. -1.
         11    1    3    3    0    0  0.12443894505E+02 -0.83744913387E+01  0.23589024255E+01  0.15183775438E+02  0.51100000000E-03 0. -1.
        -11    1    3    3    0    0 -0.25076319934E+01  0.31159095698E+01  0.18776065794E+01  0.44184292898E+01  0.51100000000E-03 0.  1.
        -12    1    3    3    0    0 -0.94027391872E+01  0.26771909717E+02 -0.27765488495E+02  0.39699735585E+02  0.00000000000E+00 0.  1.
</event>
<event>
 7    1  0.6316620E-012  0.5930195E+02  0.7816164E-02  0.1266605E+00
        -11   -1    0    0    0    0  0.00000000000E+00  0.00000000000E+00  0.45593999997E+02  0.45594000000E+02  0.51100000000E-03 0.  1.
         11   -1    0    0    0    0 -0.00000000000E+00 -0.00000000000E+00 -0.45593999997E+02  0.45594000000E+02  0.51100000000E-03 0. -1.
    9900012    2    1    2    0    0 -0.74159292842E+01 -0.10807460511E+02  0.29067558574E+02  0.59301950209E+02  0.50000011273E+02 0.  0.
         12    1    1    2    0    0  0.74159292842E+01  0.10807460511E+02 -0.29067558574E+02  0.31886049791E+02  0.00000000000E+00 0. -1.
         11    1    3    3    0    0  0.38341284360E+01  0.14050737463E+02 -0.24838087386E+01  0.14774744337E+02  0.51100000000E-03 0. -1.
        -11    1    3    3    0    0  0.10408007474E+01 -0.47651142770E+01 -0.32999576376E+00  0.48886069318E+01  0.51100000000E-03 0.  1.
        -12    1    3    3    0    0 -0.12290858468E+02 -0.20093083697E+02  0.31881363076E+02  0.39638598940E+02  0.00000000000E+00 0.  1.
</event>
<event>
 7    1  0.6316620E-012  0.5930197E+02  0.7816164E-02  0.1266605E+00
        -11   -1    0    0    0    0  0.00000000000E+00  0.00000000000E+00  0.45593999997E+02  0.45594000000E+02  0.51100000000E-03 0. -1.
         11   -1    0    0    0    0 -0.00000000000E+00 -0.00000000000E+00 -0.45593999997E+02  0.45594000000E+02  0.51100000000E-03 0.  1.
    9900012    2    1    2    0    0 -0.12075163012E+02  0.22158366832E+02 -0.19491430177E+02  0.59301974334E+02  0.50000055272E+02 0.  0.
         12    1    1    2    0    0  0.12075163012E+02 -0.22158366832E+02  0.19491430177E+02  0.31886025666E+02  0.00000000000E+00 0. -1.
         11    1    3    3    0    0 -0.40980547642E+00  0.39911864254E+01  0.32584069732E+01  0.51686290131E+01  0.51100000000E-03 0. -1.
        -11    1    3    3    0    0 -0.24411405102E+02  0.24743887836E+02 -0.15410514519E+02  0.38021844278E+02  0.51100000000E-03 0.  1.
        -12    1    3    3    0    0  0.12746047566E+02 -0.65767074303E+01 -0.73393226306E+01  0.16111501043E+02  0.00000000000E+00 0.  1.
</event>
<event>
 7    1  0.6316620E-012  0.5930191E+02  0.7816164E-02  0.1266605E+00
        -11   -1    0    0    0    0  0.00000000000E+00  0.00000000000E+00  0.45593999997E+02  0.45594000000E+02  0.51100000000E-03 0. -1.
         11   -1    0    0    0    0 -0.00000000000E+00 -0.00000000000E+00 -0.45593999997E+02  0.45594000000E+02  0.51100000000E-03 0.  1.
    9900012    2    1    2    0    0  0.17521893352E+02 -0.10260328652E+02 -0.24585193218E+02  0.59301908734E+02  0.49999935632E+02 0.  0.
         12    1    1    2    0    0 -0.17521893352E+02  0.10260328652E+02  0.24585193218E+02  0.31886091266E+02  0.00000000000E+00 0. -1.
         11    1    3    3    0    0  0.20710028210E+02  0.34062565885E+01 -0.77272073712E+01  0.22365544626E+02  0.51100000000E-03 0. -1.
        -11    1    3    3    0    0 -0.49443677565E+01  0.67411778910E+01 -0.13928432319E+02  0.16244736963E+02  0.51100000000E-03 0.  1.
        -12    1    3    3    0    0  0.17562328990E+01 -0.20407763132E+02 -0.29295535274E+01  0.20691627145E+02  0.00000000000E+00 0.  1.
</event>
<event>
 7    1  0.6316620E-012  0.5930192E+02  0.7816164E-02  0.1266605E+00
        -11   -1    0    0    0    0  0.00000000000E+00  0.00000000000E+00  0.45593999997E+02  0.45594000000E+02  0.51100000000E-03 0.  1.
         11   -1    0    0    0    0 -0.00000000000E+00 -0.00000000000E+00 -0.45593999997E+02  0.45594000000E+02  0.51100000000E-03 0. -1.
    9900012    2    1    2    0    0  0.13858148547E+02  0.17271667847E+02  0.22942612019E+02  0.59301917807E+02  0.49999952179E+02 0.  0.
         12    1    1    2    0    0 -0.13858148547E+02 -0.17271667847E+02 -0.22942612019E+02  0.31886082193E+02  0.00000000000E+00 0. -1.
         11    1    3    3    0    0 -0.64658234377E+01 -0.39746944390E+01  0.15100309808E+02  0.16900426775E+02  0.51100000000E-03 0. -1.
        -11    1    3    3    0    0  0.23213996544E+02  0.35760506116E+01  0.20243595469E+01  0.23574897780E+02  0.51100000000E-03 0.  1.
         12    1    3    3    0    0 -0.28900245594E+01  0.17670311675E+02  0.58179426642E+01  0.18826593252E+02  0.00000000000E+00 0. -1.
</event>
<event>
 7    1  0.6316620E-012  0.5930195E+02  0.7816164E-02  0.1266605E+00
        -11   -1    0    0    0    0  0.00000000000E+00  0.00000000000E+00  0.45593999997E+02  0.45594000000E+02  0.51100000000E-03 0. -1.
         11   -1    0    0    0    0 -0.00000000000E+00 -0.00000000000E+00 -0.45593999997E+02  0.45594000000E+02  0.51100000000E-03 0.  1.
    9900012    2    1    2    0    0 -0.22980816462E+02  0.14403853531E+02 -0.16766978166E+02  0.59301945390E+02  0.50000002484E+02 0.  0.
         12    1    1    2    0    0  0.22980816462E+02 -0.14403853531E+02  0.16766978166E+02  0.31886054610E+02  0.00000000000E+00 0. -1.
         11    1    3    3    0    0 -0.20632407779E+01 -0.65093582217E+01 -0.88237461081E+01  0.11157383323E+02  0.51100000000E-03 0. -1.
        -11    1    3    3    0    0 -0.24095998393E+02 -0.16478930592E+01 -0.77318207433E+01  0.25359687347E+02  0.51100000000E-03 0.  1.
         12    1    3    3    0    0  0.31784227088E+01  0.22561104812E+02 -0.21141131442E+00  0.22784874720E+02  0.00000000000E+00 0. -1.
</event>
<event>
 7    1  0.6316620E-012  0.5930194E+02  0.7816164E-02  0.1266605E+00
        -11   -1    0    0    0    0  0.00000000000E+00  0.00000000000E+00  0.45593999997E+02  0.45594000000E+02  0.51100000000E-03 0.  1.
         11   -1    0    0    0    0 -0.00000000000E+00 -0.00000000000E+00 -0.45593999997E+02  0.45594000000E+02  0.51100000000E-03 0. -1.
    9900012    2    1    2    0    0 -0.12479292709E+02 -0.94192274254E+01  0.27789673072E+02  0.59301944721E+02  0.50000001264E+02 0.  0.
         12    1    1    2    0    0  0.12479292709E+02  0.94192274254E+01 -0.27789673072E+02  0.31886055279E+02  0.00000000000E+00 0. -1.
         11    1    3    3    0    0  0.15458858069E+02 -0.10151669525E+02  0.16554107525E+02  0.24820780874E+02  0.51100000000E-03 0. -1.
        -11    1    3    3    0    0 -0.16502174945E+00 -0.24517983300E+01 -0.23496506072E+01  0.33999125673E+01  0.51100000000E-03 0.  1.
        -12    1    3    3    0    0 -0.27773129029E+02  0.31842404298E+01  0.13585216154E+02  0.31081251280E+02  0.00000000000E+00 0.  1.
</event>
<event>
 7    1  0.6316620E-012  0.5930193E+02  0.7816164E-02  0.1266605E+00
        -11   -1    0    0    0    0  0.00000000000E+00  0.00000000000E+00  0.45593999997E+02  0.45594000000E+02  0.51100000000E-03 0. -1.
         11   -1    0    0    0    0 -0.00000000000E+00 -0.00000000000E+00 -0.45593999997E+02  0.45594000000E+02  0.51100000000E-03 0.  1.
    9900012    2    1    2    0    0 -0.50367747450E+01 -0.29001398978E+02  0.12258507900E+02  0.59301933161E+02  0.49999980182E+02 0.  0.
         12    1    1    2    0    0  0.50367747450E+01  0.29001398978E+02 -0.12258507900E+02  0.31886066839E+02  0.00000000000E+00 0. -1.
         11    1    3    3    0    0 -0.68650009960E+01 -0.31608436502E+01 -0.60124005427E+01  0.96575427414E+01  0.51100000000E-03 0. -1.
        -11    1    3    3    0    0 -0.88773914358E+01 -0.32285081064E+02  0.15228179998E+02  0.36783583353E+02  0.51100000000E-03 0.  1.
         12    1    3    3    0    0  0.10705617687E+02  0.64445257358E+01  0.30427284447E+01  0.12860807066E+02  0.00000000000E+00 0. -1.
</event>
<event>
 7    1  0.6316620E-012  0.5930183E+02  0.7816164E-02  0.1266605E+00
        -11   -1    0    0    0    0  0.00000000000E+00  0.00000000000E+00  0.45593999997E+02  0.45594000000E+02  0.51100000000E-03 0. -1.
         11   -1    0    0    0    0 -0.00000000000E+00 -0.00000000000E+00 -0.45593999997E+02  0.45594000000E+02  0.51100000000E-03 0.  1.
    9900012    2    1    2    0    0  0.56143861674E+00 -0.24191418215E+02 -0.20765066858E+02  0.59301828543E+02  0.49999789384E+02 0.  0.
         12    1    1    2    0    0 -0.56143861674E+00  0.24191418215E+02  0.20765066858E+02  0.31886171457E+02  0.00000000000E+00 0. -1.
         11    1    3    3    0    0  0.69468980631E+01 -0.31513194497E+01 -0.48903410505E+01  0.90612164098E+01  0.51100000000E-03 0. -1.
        -11    1    3    3    0    0  0.11659783030E+02 -0.26382041628E+02 -0.93052340053E+01  0.30307590483E+02  0.51100000000E-03 0.  1.
         12    1    3    3    0    0 -0.18045242476E+02  0.53419428626E+01 -0.65694918020E+01  0.19933021650E+02  0.00000000000E+00 0. -1.
</event>
<event>
 7    1  0.6316620E-012  0.5930195E+02  0.7816164E-02  0.1266605E+00
        -11   -1    0    0    0    0  0.00000000000E+00  0.00000000000E+00  0.45593999997E+02  0.45594000000E+02  0.51100000000E-03 0.  1.
         11   -1    0    0    0    0 -0.00000000000E+00 -0.00000000000E+00 -0.45593999997E+02  0.45594000000E+02  0.51100000000E-03 0. -1.
    9900012    2    1    2    0    0 -0.30550382470E+02 -0.38663671757E+01  0.82731965168E+01  0.59301945919E+02  0.50000003450E+02 0.  0.
         12    1    1    2    0    0  0.30550382470E+02  0.38663671757E+01 -0.82731965168E+01  0.31886054081E+02  0.00000000000E+00 0. -1.
         11    1    3    3    0    0 -0.14204352322E+02 -0.10380724196E+02  0.72651749955E+01  0.19034332867E+02  0.51100000000E-03 0. -1.
        -11    1    3    3    0    0 -0.26288960149E+02  0.11592856756E+02 -0.16906519778E+01  0.28781279642E+02  0.51100000000E-03 0.  1.
        -12    1    3    3    0    0  0.99429300004E+01 -0.50784997347E+01  0.26986734990E+01  0.11486333410E+02  0.00000000000E+00 0.  1.
</event>
<event>
 7    1  0.6316620E-012  0.5930196E+02  0.7816164E-02  0.1266605E+00
        -11   -1    0    0    0    0  0.00000000000E+00  0.00000000000E+00  0.45593999997E+02  0.45594000000E+02  0.51100000000E-03 0. -1.
         11   -1    0    0    0    0 -0.00000000000E+00 -0.00000000000E+00 -0.45593999997E+02  0.45594000000E+02  0.51100000000E-03 0.  1.
    9900012    2    1    2    0    0  0.25940187601E+02  0.85406089115E+01 -0.16458554900E+02  0.59301962887E+02  0.50000034396E+02 0.  0.
         12    1    1    2    0    0 -0.25940187601E+02 -0.85406089115E+01  0.16458554900E+02  0.31886037113E+02  0.00000000000E+00 0. -1.
         11    1    3    3    0    0  0.10292842709E+02 -0.45575114038E+01  0.49408393268E+01  0.12293307722E+02  0.51100000000E-03 0. -1.
        -11    1    3    3    0    0  0.14825223813E+02  0.60362404180E+01 -0.31102406478E+02  0.34979753408E+02  0.51100000000E-03 0.  1.
         12    1    3    3    0    0  0.82212107818E+00  0.70618798974E+01  0.97030122509E+01  0.12028901758E+02  0.00000000000E+00 0. -1.
</event>
<event>
 7    1  0.6316620E-012  0.5930195E+02  0.7816164E-02  0.1266605E+00
        -11   -1    0    0    0    0  0.00000000000E+00  0.00000000000E+00  0.45593999997E+02  0.45594000000E+02  0.51100000000E-03 0. -1.
         11   -1    0    0    0    0 -0.00000000000E+00 -0.00000000000E+00 -0.45593999997E+02  0.45594000000E+02  0.51100000000E-03 0.  1.
    9900012    2    1    2    0    0  0.23827566936E+02 -0.90819477364E+01 -0.19143804502E+02  0.59301953340E+02  0.50000016983E+02 0.  0.
         12    1    1    2    0    0 -0.23827566936E+02  0.90819477364E+01  0.19143804502E+02  0.31886046660E+02  0.00000000000E+00 0. -1.
         11    1    3    3    0    0  0.11792967192E+02 -0.25242844487E+02 -0.15579772558E+02  0.31921851234E+02  0.51100000000E-03 0. -1.
        -11    1    3    3    0    0  0.93084566664E+01 -0.42514686982E+00 -0.48825853208E+01  0.10519874289E+02  0.51100000000E-03 0.  1.
         12    1    3    3    0    0  0.27261430778E+01  0.16586043620E+02  0.13185533768E+01  0.16860227818E+02  0.00000000000E+00 0. -1.
</event>
<event>
 7    1  0.6316620E-012  0.5930194E+02  0.7816164E-02  0.1266605E+00
        -11   -1    0    0    0    0  0.00000000000E+00  0.00000000000E+00  0.45593999997E+02  0.45594000000E+02  0.51100000000E-03 0. -1.
         11   -1    0    0    0    0 -0.00000000000E+00 -0.00000000000E+00 -0.45593999997E+02  0.45594000000E+02  0.51100000000E-03 0.  1.
    9900012    2    1    2    0    0 -0.12425933134E+02 -0.27538186415E+02 -0.10196345177E+02  0.59301937523E+02  0.49999988138E+02 0.  0.
         12    1    1    2    0    0  0.12425933134E+02  0.27538186415E+02  0.10196345177E+02  0.31886062477E+02  0.00000000000E+00 0. -1.
         11    1    3    3    0    0 -0.20451109975E+01 -0.11731681926E+02  0.89622886702E+01  0.14904276510E+02  0.51100000000E-03 0. -1.
        -11    1    3    3    0    0 -0.11206934147E+01 -0.24257694516E+02 -0.38115796808E+01  0.24580883566E+02  0.51100000000E-03 0.  1.
        -12    1    3    3    0    0 -0.92601287223E+01  0.84511900271E+01 -0.15347054166E+02  0.19816777447E+02  0.00000000000E+00 0.  1.
</event>
<event>
 7    1  0.6316620E-012  0.5930194E+02  0.7816164E-02  0.1266605E+00
        -11   -1    0    0    0    0  0.00000000000E+00  0.00000000000E+00  0.45593999997E+02  0.45594000000E+02  0.51100000000E-03 0.  1.
         11   -1    0    0    0    0 -0.00000000000E+00 -0.00000000000E+00 -0.45593999997E+02  0.45594000000E+02  0.51100000000E-03 0. -1.
    9900012    2    1    2    0    0  0.62082150718E+01  0.11831631597E+02  0.28951531887E+02  0.59301942871E+02  0.49999997890E+02 0.  0.
         12    1    1    2    0    0 -0.62082150718E+01 -0.11831631597E+02 -0.28951531887E+02  0.31886057129E+02  0.00000000000E+00 0. -1.
         11    1    3    3    0    0  0.22831301234E+01 -0.14458006959E+01  0.41867131085E+01  0.49831305147E+01  0.51100000000E-03 0. -1.
        -11    1    3    3    0    0  0.32897124676E+01 -0.14237316928E+02 -0.33327403391E+01  0.14987680269E+02  0.51100000000E-03 0.  1.
        -12    1    3    3    0    0  0.63537248076E+00  0.27514749221E+02  0.28097559118E+02  0.39331132087E+02  0.00000000000E+00 0.  1.
</event>
<event>
 7    1  0.6316620E-012  0.5930196E+02  0.7816164E-02  0.1266605E+00
        -11   -1    0    0    0    0  0.00000000000E+00  0.00000000000E+00  0.45593999997E+02  0.45594000000E+02  0.51100000000E-03 0. -1.
         11   -1    0    0    0    0 -0.00000000000E+00 -0.00000000000E+00 -0.45593999997E+02  0.45594000000E+02  0.51100000000E-03 0.  1.
    9900012    2    1    2    0    0 -0.20230439240E+02  0.23725593272E+02  0.66742320498E+01  0.59301955696E+02  0.50000021279E+02 0.  0.
         12    1    1    2    0    0  0.20230439240E+02 -0.23725593272E+02 -0.66742320498E+01  0.31886044304E+02  0.00000000000E+00 0. -1.
         11    1    3    3    0    0 -0.12005194962E+02  0.15394723373E+02  0.23509694524E+02  0.30558598638E+02  0.51100000000E-03 0. -1.
        -11    1    3    3    0    0  0.42765871427E+01  0.80605651525E+00  0.21047579366E+01  0.48341422122E+01  0.51100000000E-03 0.  1.
        -12    1    3    3    0    0 -0.12501831420E+02  0.75248133831E+01 -0.18940220411E+02  0.23909214845E+02  0.00000000000E+00 0.  1.
</event>
<event>
 7    1  0.6316620E-012  0.5930192E+02  0.7816164E-02  0.1266605E+00
        -11   -1    0    0    0    0  0.00000000000E+00  0.00000000000E+00  0.45593999997E+02  0.45594000000E+02  0.51100000000E-03 0.  1.
         11   -1    0    0    0    0 -0.00000000000E+00 -0.00000000000E+00 -0.45593999997E+02  0.45594000000E+02  0.51100000000E-03 0. -1.
    9900012    2    1    2    0    0 -0.12497721626E+02  0.28977876807E+02  0.45619578603E+01  0.59301923891E+02  0.49999963276E+02 0.  0.
         12    1    1    2    0    0  0.12497721626E+02 -0.28977876807E+02 -0.45619578603E+01  0.31886076109E+02  0.00000000000E+00 0. -1.
         11    1    3    3    0    0  0.49897616843E+01  0.21096252878E+02 -0.44997060676E+01  0.22140392095E+02  0.51100000000E-03 0. -1.
        -11    1    3    3    0    0  0.58895495905E+01  0.17311135126E+01 -0.60784691138E+01  0.86389429563E+01  0.51100000000E-03 0.  1.
        -12    1    3    3    0    0 -0.23377032901E+02  0.61505104167E+01  0.15140133042E+02  0.28522588840E+02  0.00000000000E+00 0.  1.
</event>
<event>
 7    1  0.6316620E-012  0.5930197E+02  0.7816164E-02  0.1266605E+00
        -11   -1    0    0    0    0  0.00000000000E+00  0.00000000000E+00  0.45593999997E+02  0.45594000000E+02  0.51100000000E-03 0.  1.
         11   -1    0    0    0    0 -0.00000000000E+00 -0.00000000000E+00 -0.45593999997E+02  0.45594000000E+02  0.51100000000E-03 0. -1.
    9900012    2    1    2    0    0 -0.91070825584E+01 -0.28974055563E+02  0.97100075938E+01  0.59301967071E+02  0.50000042025E+02 0.  0.
         12    1    1    2    0    0  0.91070825584E+01  0.28974055563E+02 -0.97100075938E+01  0.31886032929E+02  0.00000000000E+00 0. -1.
         11    1    3    3    0    0  0.43540210383E+01 -0.75064983503E+01 -0.46621672447E+01  0.98509299238E+01  0.51100000000E-03 0. -1.
        -11    1    3    3    0    0 -0.72923397872E+01 -0.22229376707E+02 -0.91506503865E+01  0.25120864060E+02  0.51100000000E-03 0.  1.
         12    1    3    3    0    0 -0.61687638095E+01  0.76181949469E+00  0.23522825225E+02  0.24330173087E+02  0.00000000000E+00 0. -1.
</event>
<event>
 7    1  0.6316620E-012  0.5930193E+02  0.7816164E-02  0.1266605E+00
        -11   -1    0    0    0    0  0.00000000000E+00  0.00000000000E+00  0.45593999997E+02  0.45594000000E+02  0.51100000000E-03 0.  1.
         11   -1    0    0    0    0 -0.00000000000E+00 -0.00000000000E+00 -0.45593999997E+02  0.45594000000E+02  0.51100000000E-03 0. -1.
    9900012    2    1    2    0    0  0.33897275044E+00 -0.26740288161E+02  0.17365577693E+02  0.59301934045E+02  0.49999981794E+02 0.  0.
         12    1    1    2    0    0 -0.33897275044E+00  0.26740288161E+02 -0.17365577693E+02  0.31886065955E+02  0.00000000000E+00 0. -1.
         11    1    3    3    0    0 -0.16765447546E+02 -0.15353249644E+02 -0.44306986336E-01  0.22733333882E+02  0.51100000000E-03 0. -1.
        -11    1    3    3    0    0 -0.51609243353E+01 -0.66539411602E+01  0.89388928062E+01  0.12280630188E+02  0.51100000000E-03 0.  1.
        -12    1    3    3    0    0  0.22265344632E+02 -0.47330973569E+01  0.84709918736E+01  0.24287969975E+02  0.00000000000E+00 0.  1.
</event>
<event>
 7    1  0.6316620E-012  0.5930193E+02  0.7816164E-02  0.1266605E+00
        -11   -1    0    0    0    0  0.00000000000E+00  0.00000000000E+00  0.45593999997E+02  0.45594000000E+02  0.51100000000E-03 0.  1.
         11   -1    0    0    0    0 -0.00000000000E+00 -0.00000000000E+00 -0.45593999997E+02  0.45594000000E+02  0.51100000000E-03 0. -1.
    9900012    2    1    2    0    0  0.29847835886E+01  0.60636563924E+01  0.31161587186E+02  0.59301931288E+02  0.49999976766E+02 0.  0.
         12    1    1    2    0    0 -0.29847835886E+01 -0.60636563924E+01 -0.31161587186E+02  0.31886068712E+02  0.00000000000E+00 0. -1.
         11    1    3    3    0    0  0.26904018420E+01 -0.23598854185E+01 -0.11705984517E+02  0.12240808594E+02  0.51100000000E-03 0. -1.
        -11    1    3    3    0    0 -0.50753734307E+01  0.23829747350E+01  0.29540890782E+01  0.63375568315E+01  0.51100000000E-03 0.  1.
        -12    1    3    3    0    0  0.53697551773E+01  0.60405670758E+01  0.39913482626E+02  0.40723565863E+02  0.00000000000E+00 0.  1.
</event>
<event>
 7    1  0.6316620E-012  0.5930183E+02  0.7816164E-02  0.1266605E+00
        -11   -1    0    0    0    0  0.00000000000E+00  0.00000000000E+00  0.45593999997E+02  0.45594000000E+02  0.51100000000E-03 0. -1.
         11   -1    0    0    0    0 -0.00000000000E+00 -0.00000000000E+00 -0.45593999997E+02  0.45594000000E+02  0.51100000000E-03 0.  1.
    9900012    2    1    2    0    0 -0.73050487387E+00 -0.30822472916E+02  0.81344731384E+01  0.59301825452E+02  0.49999783746E+02 0.  0.
         12    1    1    2    0    0  0.73050487387E+00  0.30822472916E+02 -0.81344731384E+01  0.31886174548E+02  0.00000000000E+00 0. -1.
         11    1    3    3    0    0  0.16820404708E+01 -0.23853367962E+01  0.16803747882E+02  0.17055352091E+02  0.51100000000E-03 0. -1.
        -11    1    3    3    0    0  0.11783396203E+02 -0.13206478291E+02  0.36256401683E+01  0.18066675450E+02  0.51100000000E-03 0.  1.
        -12    1    3    3    0    0 -0.14195941548E+02 -0.15230657830E+02 -0.12294914912E+02  0.24179797912E+02  0.00000000000E+00 0.  1.
</event>
<event>
 7    1  0.6316620E-012  0.5930204E+02  0.7816164E-02  0.1266604E+00
        -11   -1    0    0    0    0  0.00000000000E+00  0.00000000000E+00  0.45593999997E+02  0.45594000000E+02  0.51100000000E-03 0. -1.
         11   -1    0    0    0    0 -0.00000000000E+00 -0.00000000000E+00 -0.45593999997E+02  0.45594000000E+02  0.51100000000E-03 0.  1.
    9900012    2    1    2    0    0 -0.22657240525E+02 -0.38238625640E+01 -0.22107516430E+02  0.59302035128E+02  0.50000166144E+02 0.  0.
         12    1    1    2    0    0  0.22657240525E+02  0.38238625640E+01  0.22107516430E+02  0.31885964872E+02  0.00000000000E+00 0. -1.
         11    1    3    3    0    0 -0.13462518470E+02  0.98739279711E+01  0.97995671100E+01  0.19358857738E+02  0.51100000000E-03 0. -1.
        -11    1    3    3    0    0 -0.12291952708E+02 -0.87866077589E+01 -0.12265036801E+02  0.19460927657E+02  0.51100000000E-03 0.  1.
        -12    1    3    3    0    0  0.30972306525E+01 -0.49111827762E+01 -0.19642046739E+02  0.20482249732E+02  0.00000000000E+00 0.  1.
</event>
<event>
 7    1  0.6316620E-012  0.5930192E+02  0.7816164E-02  0.1266605E+00
        -11   -1    0    0    0    0  0.00000000000E+00  0.00000000000E+00  0.45593999997E+02  0.45594000000E+02  0.51100000000E-03 0.  1.
         11   -1    0    0    0    0 -0.00000000000E+00 -0.00000000000E+00 -0.45593999997E+02  0.45594000000E+02  0.51100000000E-03 0. -1.
    9900012    2    1    2    0    0  0.11136954284E+02  0.88354734567E+01  0.28541634881E+02  0.59301917400E+02  0.49999951437E+02 0.  0.
         12    1    1    2    0    0 -0.11136954284E+02 -0.88354734567E+01 -0.28541634881E+02  0.31886082600E+02  0.00000000000E+00 0. -1.
         11    1    3    3    0    0  0.20320197794E+01  0.21959191206E+01 -0.13429820863E+02  0.13759042621E+02  0.51100000000E-03 0. -1.
        -11    1    3    3    0    0 -0.29220326843E+01  0.16509907241E+01  0.31759091134E+01  0.46206541027E+01  0.51100000000E-03 0.  1.
        -12    1    3    3    0    0  0.12026967189E+02  0.49885636120E+01  0.38795546631E+02  0.40922220676E+02  0.00000000000E+00 0.  1.
</event>
<event>
 7    1  0.6316620E-012  0.5930194E+02  0.7816164E-02  0.1266605E+00
        -11   -1    0    0    0    0  0.00000000000E+00  0.00000000000E+00  0.45593999997E+02  0.45594000000E+02  0.51100000000E-03 0.  1.
         11   -1    0    0    0    0 -0.00000000000E+00 -0.00000000000E+00 -0.45593999997E+02  0.45594000000E+02  0.51100000000E-03 0. -1.
    9900012    2    1    2    0    0  0.10331007016E+02 -0.22058981838E+02  0.20576502532E+02  0.59301939689E+02  0.49999992088E+02 0.  0.
         12    1    1    2    0    0 -0.10331007016E+02  0.22058981838E+02 -0.20576502532E+02  0.31886060311E+02  0.00000000000E+00 0. -1.
         11    1    3    3    0    0 -0.70879723566E+01 -0.53673044898E+01 -0.81322242093E+01  0.12049082142E+02  0.51100000000E-03 0. -1.
        -11    1    3    3    0    0  0.20444459152E+02 -0.84896945387E+01  0.60242870664E+01  0.22942163331E+02  0.51100000000E-03 0.  1.
         12    1    3    3    0    0 -0.30254797795E+01 -0.82019828093E+01  0.22684439675E+02  0.24310694216E+02  0.00000000000E+00 0. -1.
</event>
<event>
 7    1  0.6316620E-012  0.5930195E+02  0.7816164E-02  0.1266605E+00
        -11   -1    0    0    0    0  0.00000000000E+00  0.00000000000E+00  0.45593999997E+02  0.45594000000E+02  0.51100000000E-03 0.  1.
         11   -1    0    0    0    0 -0.00000000000E+00 -0.00000000000E+00 -0.45593999997E+02  0.45594000000E+02  0.51100000000E-03 0. -1.
    9900012    2    1    2    0    0  0.29033403939E+02 -0.66925251568E+01 -0.11357449615E+02  0.59301951342E+02  0.50000013340E+02 0.  0.
         12    1    1    2    0    0 -0.29033403939E+02  0.66925251568E+01  0.11357449615E+02  0.31886048658E+02  0.00000000000E+00 0. -1.
         11    1    3    3    0    0  0.21303304329E+01  0.14373921517E+02 -0.99647976514E+01  0.17619452886E+02  0.51100000000E-03 0. -1.
        -11    1    3    3    0    0  0.51970071886E+01 -0.25111810019E+01 -0.10267876971E+02  0.11778973278E+02  0.51100000000E-03 0.  1.
        -12    1    3    3    0    0  0.21706066317E+02 -0.18555265672E+02  0.88752250070E+01  0.29903525178E+02  0.00000000000E+00 0.  1.
</event>
<event>
 7    1  0.6316620E-012  0.5930195E+02  0.7816164E-02  0.1266605E+00
        -11   -1    0    0    0    0  0.00000000000E+00  0.00000000000E+00  0.45593999997E+02  0.45594000000E+02  0.51100000000E-03 0. -1.
         11   -1    0    0    0    0 -0.00000000000E+00 -0.00000000000E+00 -0.45593999997E+02  0.45594000000E+02  0.51100000000E-03 0.  1.
    9900012    2    1    2    0    0  0.31331195712E+02  0.58838828962E+01 -0.67553440266E+00  0.59301948984E+02  0.50000009038E+02 0.  0.
         12    1    1    2    0    0 -0.31331195712E+02 -0.58838828962E+01  0.67553440266E+00  0.31886051016E+02  0.00000000000E+00 0. -1.
         11    1    3    3    0    0 -0.70646967598E+01 -0.55553877725E+01  0.52429138401E+01  0.10404826736E+02  0.51100000000E-03 0. -1.
        -11    1    3    3    0    0 -0.25083619607E+01 -0.40788880112E+01 -0.54029095840E+00  0.48188299113E+01  0.51100000000E-03 0.  1.
        -12    1    3    3    0    0  0.40904254433E+02  0.15518158680E+02 -0.53781572844E+01  0.44078292336E+02  0.00000000000E+00 0.  1.
</event>
<event>
 7    1  0.6316620E-012  0.5930198E+02  0.7816164E-02  0.1266605E+00
        -11   -1    0    0    0    0  0.00000000000E+00  0.00000000000E+00  0.45593999997E+02  0.45594000000E+02  0.51100000000E-03 0. -1.
         11   -1    0    0    0    0 -0.00000000000E+00 -0.00000000000E+00 -0.45593999997E+02  0.45594000000E+02  0.51100000000E-03 0.  1.
    9900012    2    1    2    0    0  0.22302461138E+02  0.13379616756E+02 -0.18447339536E+02  0.59301980284E+02  0.50000066123E+02 0.  0.
         12    1    1    2    0    0 -0.22302461138E+02 -0.13379616756E+02  0.18447339536E+02  0.31886019716E+02  0.00000000000E+00 0. -1.
         11    1    3    3    0    0 -0.91383039569E+01  0.56873123237E+01 -0.65532427686E+01  0.12601551957E+02  0.51100000000E-03 0. -1.
        -11    1    3    3    0    0  0.73737761998E+01 -0.11660047950E+02 -0.68698828225E+01  0.15411832594E+02  0.51100000000E-03 0.  1.
         12    1    3    3    0    0  0.24066988895E+02  0.19352352383E+02 -0.50242139447E+01  0.31288595734E+02  0.00000000000E+00 0. -1.
</event>
<event>
 7    1  0.6316620E-012  0.5930198E+02  0.7816164E-02  0.1266605E+00
        -11   -1    0    0    0    0  0.00000000000E+00  0.00000000000E+00  0.45593999997E+02  0.45594000000E+02  0.51100000000E-03 0.  1.
         11   -1    0    0    0    0 -0.00000000000E+00 -0.00000000000E+00 -0.45593999997E+02  0.45594000000E+02  0.51100000000E-03 0. -1.
    9900012    2    1    2    0    0  0.16845573870E+02 -0.13850659136E+02  0.23261649594E+02  0.59301977054E+02  0.50000060231E+02 0.  0.
         12    1    1    2    0    0 -0.16845573870E+02  0.13850659136E+02 -0.23261649594E+02  0.31886022946E+02  0.00000000000E+00 0. -1.
         11    1    3    3    0    0  0.96010081965E+01  0.33899633964E+01  0.43244371940E+00  0.10191085224E+02  0.51100000000E-03 0. -1.
        -11    1    3    3    0    0  0.28352441667E+01 -0.83640199773E+01 -0.10857857191E+02  0.13996017387E+02  0.51100000000E-03 0.  1.
        -12    1    3    3    0    0  0.44093215072E+01 -0.88766025550E+01  0.33687063066E+02  0.35114874442E+02  0.00000000000E+00 0.  1.
</event>
<event>
 7    1  0.6316620E-012  0.5930194E+02  0.7816164E-02  0.1266605E+00
        -11   -1    0    0    0    0  0.00000000000E+00  0.00000000000E+00  0.45593999997E+02  0.45594000000E+02  0.51100000000E-03 0.  1.
         11   -1    0    0    0    0 -0.00000000000E+00 -0.00000000000E+00 -0.45593999997E+02  0.45594000000E+02  0.51100000000E-03 0. -1.
    9900012    2    1    2    0    0  0.11250132213E+02 -0.27659324066E+02  0.11185586280E+02  0.59301936853E+02  0.49999986916E+02 0.  0.
         12    1    1    2    0    0 -0.11250132213E+02  0.27659324066E+02 -0.11185586280E+02  0.31886063147E+02  0.00000000000E+00 0. -1.
         11    1    3    3    0    0 -0.27127284454E+00  0.85751360079E+01  0.26668005721E+01  0.89843403800E+01  0.51100000000E-03 0. -1.
        -11    1    3    3    0    0  0.70628031944E+01  0.16146729040E+01  0.97975229303E+01  0.12185311378E+02  0.51100000000E-03 0.  1.
        -12    1    3    3    0    0  0.44586018629E+01 -0.37849132977E+02 -0.12787372228E+01  0.38132285095E+02  0.00000000000E+00 0.  1.
</event>
<event>
 7    1  0.6316620E-012  0.5930176E+02  0.7816164E-02  0.1266605E+00
        -11   -1    0    0    0    0  0.00000000000E+00  0.00000000000E+00  0.45593999997E+02  0.45594000000E+02  0.51100000000E-03 0. -1.
         11   -1    0    0    0    0 -0.00000000000E+00 -0.00000000000E+00 -0.45593999997E+02  0.45594000000E+02  0.51100000000E-03 0.  1.
    9900012    2    1    2    0    0 -0.27281490130E+02  0.13487515217E+02 -0.95152178497E+01  0.59301762511E+02  0.49999668956E+02 0.  0.
         12    1    1    2    0    0  0.27281490130E+02 -0.13487515217E+02  0.95152178497E+01  0.31886237489E+02  0.00000000000E+00 0. -1.
         11    1    3    3    0    0 -0.27678395354E+02  0.10672488460E+02  0.41938824109E+01  0.29959710100E+02  0.51100000000E-03 0. -1.
        -11    1    3    3    0    0 -0.69383193616E+01 -0.76907219612E+01 -0.12843403635E+02  0.16499712029E+02  0.51100000000E-03 0.  1.
        -12    1    3    3    0    0  0.73352245856E+01  0.10505748718E+02 -0.86569662551E+00  0.12842340383E+02  0.00000000000E+00 0.  1.
</event>
<event>
 7    1  0.6316620E-012  0.5930195E+02  0.7816164E-02  0.1266605E+00
        -11   -1    0    0    0    0  0.00000000000E+00  0.00000000000E+00  0.45593999997E+02  0.45594000000E+02  0.51100000000E-03 0. -1.
         11   -1    0    0    0    0 -0.00000000000E+00 -0.00000000000E+00 -0.45593999997E+02  0.45594000000E+02  0.51100000000E-03 0.  1.
    9900012    2    1    2    0    0  0.19673059984E+02  0.23233906076E+02 -0.94803347616E+01  0.59301946186E+02  0.50000003935E+02 0.  0.
         12    1    1    2    0    0 -0.19673059984E+02 -0.23233906076E+02  0.94803347616E+01  0.31886053814E+02  0.00000000000E+00 0. -1.
         11    1    3    3    0    0 -0.12565685620E+02  0.91191990627E+01  0.43533426099E+01  0.16124758565E+02  0.51100000000E-03 0.  1.
        -11    1    3    3    0    0 -0.17438905686E+01  0.51879011260E+01 -0.16236566033E+00  0.54755671193E+01  0.51100000000E-03 0. -1.
        -12    1    3    3    0    0  0.33982636172E+02  0.89268058873E+01 -0.13671311711E+02  0.37701620501E+02  0.00000000000E+00 0.  1.
</event>
<event>
 7    1  0.6316620E-012  0.5930196E+02  0.7816164E-02  0.1266605E+00
        -11   -1    0    0    0    0  0.00000000000E+00  0.00000000000E+00  0.45593999997E+02  0.45594000000E+02  0.51100000000E-03 0.  1.
         11   -1    0    0    0    0 -0.00000000000E+00 -0.00000000000E+00 -0.45593999997E+02  0.45594000000E+02  0.51100000000E-03 0. -1.
    9900012    2    1    2    0    0  0.23835004915E+02  0.12756450307E+02  0.16908141637E+02  0.59301957013E+02  0.50000023682E+02 0.  0.
         12    1    1    2    0    0 -0.23835004915E+02 -0.12756450307E+02 -0.16908141637E+02  0.31886042987E+02  0.00000000000E+00 0. -1.
         11    1    3    3    0    0  0.28670381498E+01  0.13597457966E+02  0.85901744768E+01  0.16337131593E+02  0.51100000000E-03 0. -1.
        -11    1    3    3    0    0  0.26754523029E+02  0.97166060276E+01  0.11194577393E+02  0.30586524786E+02  0.51100000000E-03 0.  1.
        -12    1    3    3    0    0 -0.57865562639E+01 -0.10557613687E+02 -0.28766102324E+01  0.12378300634E+02  0.00000000000E+00 0.  1.
</event>
<event>
 7    1  0.6316620E-012  0.5930196E+02  0.7816164E-02  0.1266605E+00
        -11   -1    0    0    0    0  0.00000000000E+00  0.00000000000E+00  0.45593999997E+02  0.45594000000E+02  0.51100000000E-03 0.  1.
         11   -1    0    0    0    0 -0.00000000000E+00 -0.00000000000E+00 -0.45593999997E+02  0.45594000000E+02  0.51100000000E-03 0. -1.
    9900012    2    1    2    0    0 -0.23143566926E+02  0.21728003419E+02  0.29981012861E+01  0.59301961771E+02  0.50000032359E+02 0.  0.
         12    1    1    2    0    0  0.23143566926E+02 -0.21728003419E+02 -0.29981012861E+01  0.31886038229E+02  0.00000000000E+00 0. -1.
         11    1    3    3    0    0 -0.26157743784E+02  0.27923737456E+02  0.12908976685E+02  0.40380742350E+02  0.51100000000E-03 0.  1.
        -11    1    3    3    0    0 -0.26963325535E+01  0.11835003777E+01 -0.90892751486E+01  0.95543605422E+01  0.51100000000E-03 0. -1.
        -12    1    3    3    0    0  0.57105094114E+01 -0.73792344150E+01 -0.82160025031E+00  0.93668588791E+01  0.00000000000E+00 0.  1.
</event>
<event>
 7    1  0.6316620E-012  0.5930193E+02  0.7816164E-02  0.1266605E+00
        -11   -1    0    0    0    0  0.00000000000E+00  0.00000000000E+00  0.45593999997E+02  0.45594000000E+02  0.51100000000E-03 0. -1.
         11   -1    0    0    0    0 -0.00000000000E+00 -0.00000000000E+00 -0.45593999997E+02  0.45594000000E+02  0.51100000000E-03 0.  1.
    9900012    2    1    2    0    0 -0.60516744532E+01  0.83877121833E+01 -0.30161977534E+02  0.59301931441E+02  0.49999977045E+02 0.  0.
         12    1    1    2    0    0  0.60516744532E+01 -0.83877121833E+01  0.30161977534E+02  0.31886068559E+02  0.00000000000E+00 0. -1.
         11    1    3    3    0    0  0.72723734681E+01 -0.10653804015E+02 -0.82270748546E+00  0.12925471121E+02  0.51100000000E-03 0. -1.
        -11    1    3    3    0    0 -0.51154853183E+01  0.82637826717E+00  0.46419896465E+01  0.69569504254E+01  0.51100000000E-03 0.  1.
        -12    1    3    3    0    0 -0.82085626030E+01  0.18215137931E+02 -0.33981259695E+02  0.39419509894E+02  0.00000000000E+00 0.  1.
</event>
<event>
 7    1  0.6316620E-012  0.5930187E+02  0.7816164E-02  0.1266605E+00
        -11   -1    0    0    0    0  0.00000000000E+00  0.00000000000E+00  0.45593999997E+02  0.45594000000E+02  0.51100000000E-03 0.  1.
         11   -1    0    0    0    0 -0.00000000000E+00 -0.00000000000E+00 -0.45593999997E+02  0.45594000000E+02  0.51100000000E-03 0. -1.
    9900012    2    1    2    0    0  0.29772722557E+02  0.11049641240E+02  0.28663186633E+01  0.59301868804E+02  0.49999862810E+02 0.  0.
         12    1    1    2    0    0 -0.29772722557E+02 -0.11049641240E+02 -0.28663186633E+01  0.31886131196E+02  0.00000000000E+00 0. -1.
         11    1    3    3    0    0  0.17987166019E+01  0.14647021425E+02  0.24998933308E+01  0.14967300524E+02  0.51100000000E-03 0. -1.
        -11    1    3    3    0    0  0.16189153891E+02  0.15066583886E+02  0.19714318440E+01  0.22203089818E+02  0.51100000000E-03 0.  1.
        -12    1    3    3    0    0  0.11784852064E+02 -0.18663964071E+02 -0.16050065115E+01  0.22131478462E+02  0.00000000000E+00 0.  1.
</event>
<event>
 7    1  0.6316620E-012  0.5930194E+02  0.7816164E-02  0.1266605E+00
        -11   -1    0    0    0    0  0.00000000000E+00  0.00000000000E+00  0.45593999997E+02  0.45594000000E+02  0.51100000000E-03 0.  1.
         11   -1    0    0    0    0 -0.00000000000E+00 -0.00000000000E+00 -0.45593999997E+02  0.45594000000E+02  0.51100000000E-03 0. -1.
    9900012    2    1    2    0    0  0.31231527111E+02  0.45907603753E+01 -0.44985812027E+01  0.59301943496E+02  0.49999999031E+02 0.  0.
         12    1    1    2    0    0 -0.31231527111E+02 -0.45907603753E+01  0.44985812027E+01  0.31886056504E+02  0.00000000000E+00 0. -1.
         11    1    3    3    0    0  0.39031347272E+02  0.62024583145E+01 -0.15795491127E+02  0.42560710746E+02  0.51100000000E-03 0. -1.
        -11    1    3    3    0    0 -0.53234310115E+01 -0.32614684475E+01  0.13884507745E+01  0.63956149027E+01  0.51100000000E-03 0.  1.
        -12    1    3    3    0    0 -0.24763891489E+01  0.16497705083E+01  0.99084591493E+01  0.10345617848E+02  0.00000000000E+00 0.  1.
</event>
<event>
 7    1  0.6316620E-012  0.5930193E+02  0.7816164E-02  0.1266605E+00
        -11   -1    0    0    0    0  0.00000000000E+00  0.00000000000E+00  0.45593999997E+02  0.45594000000E+02  0.51100000000E-03 0. -1.
         11   -1    0    0    0    0 -0.00000000000E+00 -0.00000000000E+00 -0.45593999997E+02  0.45594000000E+02  0.51100000000E-03 0.  1.
    9900012    2    1    2    0    0 -0.24550479233E+02  0.10594619910E+02 -0.17370937670E+02  0.59301929732E+02  0.49999973927E+02 0.  0.
         12    1    1    2    0    0  0.24550479233E+02 -0.10594619910E+02  0.17370937670E+02  0.31886070268E+02  0.00000000000E+00 0. -1.
         11    1    3    3    0    0 -0.16022250987E+01 -0.55208799429E+01 -0.25311840927E+01  0.62812525648E+01  0.51100000000E-03 0. -1.
        -11    1    3    3    0    0 -0.68286134681E+01 -0.14056300887E+02 -0.97939524205E+01  0.18442642457E+02  0.51100000000E-03 0.  1.
         12    1    3    3    0    0 -0.16119640667E+02  0.30171800740E+02 -0.50458011567E+01  0.34578034710E+02  0.00000000000E+00 0. -1.
</event>
<event>
 7    1  0.6316620E-012  0.5930191E+02  0.7816164E-02  0.1266605E+00
        -11   -1    0    0    0    0  0.00000000000E+00  0.00000000000E+00  0.45593999997E+02  0.45594000000E+02  0.51100000000E-03 0.  1.
         11   -1    0    0    0    0 -0.00000000000E+00 -0.00000000000E+00 -0.45593999997E+02  0.45594000000E+02  0.51100000000E-03 0. -1.
    9900012    2    1    2    0    0 -0.24470167784E+01 -0.27268763236E+01  0.31674899784E+02  0.59301905508E+02  0.49999929750E+02 0.  0.
         12    1    1    2    0    0  0.24470167784E+01  0.27268763236E+01 -0.31674899784E+02  0.31886094492E+02  0.00000000000E+00 0. -1.
         11    1    3    3    0    0  0.12124454020E+02  0.14369606465E+02  0.18400478377E+02  0.26307139335E+02  0.51100000000E-03 0. -1.
        -11    1    3    3    0    0 -0.10259277847E+02 -0.30884618929E+01  0.14786640427E+02  0.18260233136E+02  0.51100000000E-03 0.  1.
        -12    1    3    3    0    0 -0.43121929514E+01 -0.14008020895E+02 -0.15122190201E+01  0.14734533037E+02  0.00000000000E+00 0.  1.
</event>
<event>
 7    1  0.6316620E-012  0.5930194E+02  0.7816164E-02  0.1266605E+00
        -11   -1    0    0    0    0  0.00000000000E+00  0.00000000000E+00  0.45593999997E+02  0.45594000000E+02  0.51100000000E-03 0.  1.
         11   -1    0    0    0    0 -0.00000000000E+00 -0.00000000000E+00 -0.45593999997E+02  0.45594000000E+02  0.51100000000E-03 0. -1.
    9900012    2    1    2    0    0  0.14211626090E+02 -0.20256613153E+02  0.20110194973E+02  0.59301942947E+02  0.49999998029E+02 0.  0.
         12    1    1    2    0    0 -0.14211626090E+02  0.20256613153E+02 -0.20110194973E+02  0.31886057053E+02  0.00000000000E+00 0. -1.
         11    1    3    3    0    0  0.42995769799E-01 -0.17877365625E+02  0.55873734191E+01  0.18730210685E+02  0.51100000000E-03 0. -1.
        -11    1    3    3    0    0  0.95422334531E+01 -0.82645119874E+01  0.24817169359E+02  0.27843280570E+02  0.51100000000E-03 0.  1.
        -12    1    3    3    0    0  0.46263968674E+01  0.58852644595E+01 -0.10294347805E+02  0.12728451692E+02  0.00000000000E+00 0.  1.
</event>
<event>
 7    1  0.6316620E-012  0.5930193E+02  0.7816164E-02  0.1266605E+00
        -11   -1    0    0    0    0  0.00000000000E+00  0.00000000000E+00  0.45593999997E+02  0.45594000000E+02  0.51100000000E-03 0.  1.
         11   -1    0    0    0    0 -0.00000000000E+00 -0.00000000000E+00 -0.45593999997E+02  0.45594000000E+02  0.51100000000E-03 0. -1.
    9900012    2    1    2    0    0 -0.97155845959E+01 -0.27558354358E+02  0.12761889562E+02  0.59301932445E+02  0.49999978875E+02 0.  0.
         12    1    1    2    0    0  0.97155845959E+01  0.27558354358E+02 -0.12761889562E+02  0.31886067555E+02  0.00000000000E+00 0. -1.
         11    1    3    3    0    0  0.15925043546E+02 -0.14126417933E+02 -0.23276732448E-01  0.21287631095E+02  0.51100000000E-03 0. -1.
        -11    1    3    3    0    0 -0.84002583060E+01  0.53436765617E+01  0.12449350067E+01  0.10033398339E+02  0.51100000000E-03 0.  1.
        -12    1    3    3    0    0 -0.17240369836E+02 -0.18775612987E+02  0.11540231287E+02  0.27980903011E+02  0.00000000000E+00 0.  1.
</event>
<event>
 7    1  0.6316620E-012  0.5930196E+02  0.7816164E-02  0.1266605E+00
        -11   -1    0    0    0    0  0.00000000000E+00  0.00000000000E+00  0.45593999997E+02  0.45594000000E+02  0.51100000000E-03 0.  1.
         11   -1    0    0    0    0 -0.00000000000E+00 -0.00000000000E+00 -0.45593999997E+02  0.45594000000E+02  0.51100000000E-03 0. -1.
    9900012    2    1    2    0    0  0.66366272098E+01 -0.25125698648E+02  0.18476308732E+02  0.59301960145E+02  0.50000029394E+02 0.  0.
         12    1    1    2    0    0 -0.66366272098E+01  0.25125698648E+02 -0.18476308732E+02  0.31886039855E+02  0.00000000000E+00 0. -1.
         11    1    3    3    0    0 -0.11121334714E+02 -0.17721803986E+02 -0.55539991008E+01  0.21647016622E+02  0.51100000000E-03 0. -1.
        -11    1    3    3    0    0 -0.46109602388E+01 -0.41718299250E+01  0.69496806495E+01  0.93254051192E+01  0.51100000000E-03 0.  1.
        -12    1    3    3    0    0  0.22368922163E+02 -0.32320647370E+01  0.17080627183E+02  0.28329538404E+02  0.00000000000E+00 0.  1.
</event>
<event>
 7    1  0.6316620E-012  0.5930193E+02  0.7816164E-02  0.1266605E+00
        -11   -1    0    0    0    0  0.00000000000E+00  0.00000000000E+00  0.45593999997E+02  0.45594000000E+02  0.51100000000E-03 0. -1.
         11   -1    0    0    0    0 -0.00000000000E+00 -0.00000000000E+00 -0.45593999997E+02  0.45594000000E+02  0.51100000000E-03 0.  1.
    9900012    2    1    2    0    0 -0.25814194158E+02  0.18619974868E+02  0.19092714135E+01  0.59301930919E+02  0.49999976092E+02 0.  0.
         12    1    1    2    0    0  0.25814194158E+02 -0.18619974868E+02 -0.19092714135E+01  0.31886069081E+02  0.00000000000E+00 0. -1.
         11    1    3    3    0    0  0.13581284755E+01 -0.98844741879E+01  0.14795072215E+00  0.99784383851E+01  0.51100000000E-03 0. -1.
        -11    1    3    3    0    0 -0.13853094743E+02 -0.36888067987E+01  0.20560675977E+01  0.14482504748E+02  0.51100000000E-03 0.  1.
         12    1    3    3    0    0 -0.13319227891E+02  0.32193255854E+02 -0.29474690641E+00  0.34840987785E+02  0.00000000000E+00 0. -1.
</event>
<event>
 7    1  0.6316620E-012  0.5930193E+02  0.7816164E-02  0.1266605E+00
        -11   -1    0    0    0    0  0.00000000000E+00  0.00000000000E+00  0.45593999997E+02  0.45594000000E+02  0.51100000000E-03 0.  1.
         11   -1    0    0    0    0 -0.00000000000E+00 -0.00000000000E+00 -0.45593999997E+02  0.45594000000E+02  0.51100000000E-03 0. -1.
    9900012    2    1    2    0    0  0.16882651776E+02  0.62793675538E+01  0.26310974338E+02  0.59301925320E+02  0.49999965882E+02 0.  0.
         12    1    1    2    0    0 -0.16882651776E+02 -0.62793675538E+01 -0.26310974338E+02  0.31886074680E+02  0.00000000000E+00 0. -1.
         11    1    3    3    0    0 -0.10171790846E+02 -0.42996074416E+01  0.61746123669E+01  0.12652185239E+02  0.51100000000E-03 0. -1.
        -11    1    3    3    0    0 -0.45713276734E+01  0.46019464440E+01  0.11698476221E+02  0.13376445489E+02  0.51100000000E-03 0.  1.
        -12    1    3    3    0    0  0.31625770296E+02  0.59770285514E+01  0.84378857508E+01  0.33273294592E+02  0.00000000000E+00 0.  1.
</event>
<event>
 7    1  0.6316620E-012  0.5930195E+02  0.7816164E-02  0.1266605E+00
        -11   -1    0    0    0    0  0.00000000000E+00  0.00000000000E+00  0.45593999997E+02  0.45594000000E+02  0.51100000000E-03 0.  1.
         11   -1    0    0    0    0 -0.00000000000E+00 -0.00000000000E+00 -0.45593999997E+02  0.45594000000E+02  0.51100000000E-03 0. -1.
    9900012    2    1    2    0    0  0.24306568326E+02  0.20377597629E+02 -0.32655961253E+01  0.59301954980E+02  0.50000019975E+02 0.  0.
         12    1    1    2    0    0 -0.24306568326E+02 -0.20377597629E+02  0.32655961253E+01  0.31886045020E+02  0.00000000000E+00 0. -1.
         11    1    3    3    0    0  0.13014544567E+02 -0.92796437625E+01 -0.12819541658E+02  0.20489773235E+02  0.51100000000E-03 0. -1.
        -11    1    3    3    0    0  0.38788388706E+01 -0.20015718742E+01  0.38095859616E+01  0.57934986331E+01  0.51100000000E-03 0.  1.
        -12    1    3    3    0    0  0.74131848886E+01  0.31658813266E+02  0.57443595709E+01  0.33018683112E+02  0.00000000000E+00 0.  1.
</event>
<event>
 7    1  0.6316620E-012  0.5930191E+02  0.7816164E-02  0.1266605E+00
        -11   -1    0    0    0    0  0.00000000000E+00  0.00000000000E+00  0.45593999997E+02  0.45594000000E+02  0.51100000000E-03 0.  1.
         11   -1    0    0    0    0 -0.00000000000E+00 -0.00000000000E+00 -0.45593999997E+02  0.45594000000E+02  0.51100000000E-03 0. -1.
    9900012    2    1    2    0    0  0.58556790886E+01 -0.55821296391E+01  0.30842721951E+02  0.59301911400E+02  0.49999940494E+02 0.  0.
         12    1    1    2    0    0 -0.58556790886E+01  0.55821296391E+01 -0.30842721951E+02  0.31886088600E+02  0.00000000000E+00 0. -1.
         11    1    3    3    0    0  0.52101609125E+01  0.61814754552E+01 -0.35542570861E+00  0.80921408312E+01  0.51100000000E-03 0. -1.
        -11    1    3    3    0    0 -0.17674562747E+00  0.13172792056E+02  0.19793575838E+02  0.23776865527E+02  0.51100000000E-03 0.  1.
         12    1    3    3    0    0  0.82226380364E+00 -0.24936397150E+02  0.11404571821E+02  0.27432905042E+02  0.00000000000E+00 0. -1.
</event>
<event>
 7    1  0.6316620E-012  0.5930195E+02  0.7816164E-02  0.1266605E+00
        -11   -1    0    0    0    0  0.00000000000E+00  0.00000000000E+00  0.45593999997E+02  0.45594000000E+02  0.51100000000E-03 0.  1.
         11   -1    0    0    0    0 -0.00000000000E+00 -0.00000000000E+00 -0.45593999997E+02  0.45594000000E+02  0.51100000000E-03 0. -1.
    9900012    2    1    2    0    0 -0.20609188814E+02  0.19681794683E+01  0.24250940325E+02  0.59301945044E+02  0.50000001854E+02 0.  0.
         12    1    1    2    0    0  0.20609188814E+02 -0.19681794683E+01 -0.24250940325E+02  0.31886054956E+02  0.00000000000E+00 0. -1.
         11    1    3    3    0    0  0.61654979601E-01  0.72018558807E+01  0.30417394722E+01  0.78181013514E+01  0.51100000000E-03 0. -1.
        -11    1    3    3    0    0  0.38939328234E+01 -0.19009622283E+01 -0.10427272463E+02  0.11291783806E+02  0.51100000000E-03 0.  1.
        -12    1    3    3    0    0 -0.24564776617E+02 -0.33327141841E+01  0.31636473316E+02  0.40192059887E+02  0.00000000000E+00 0.  1.
</event>
<event>
 7    1  0.6316620E-012  0.5930195E+02  0.7816164E-02  0.1266605E+00
        -11   -1    0    0    0    0  0.00000000000E+00  0.00000000000E+00  0.45593999997E+02  0.45594000000E+02  0.51100000000E-03 0. -1.
         11   -1    0    0    0    0 -0.00000000000E+00 -0.00000000000E+00 -0.45593999997E+02  0.45594000000E+02  0.51100000000E-03 0.  1.
    9900012    2    1    2    0    0  0.11093544228E+02 -0.28968481876E+02 -0.73811040787E+01  0.59301947200E+02  0.50000005785E+02 0.  0.
         12    1    1    2    0    0 -0.11093544228E+02  0.28968481876E+02  0.73811040787E+01  0.31886052800E+02  0.00000000000E+00 0. -1.
         11    1    3    3    0    0  0.20530104300E+01  0.48407883086E+01 -0.94403837893E+01  0.10805967315E+02  0.51100000000E-03 0. -1.
        -11    1    3    3    0    0 -0.12704517075E+02 -0.10590330626E+02 -0.78056798674E+00  0.16558053736E+02  0.51100000000E-03 0.  1.
        -12    1    3    3    0    0  0.21745050873E+02 -0.23218939559E+02  0.28398476973E+01  0.31937926148E+02  0.00000000000E+00 0.  1.
</event>
<event>
 7    1  0.6316620E-012  0.5930195E+02  0.7816164E-02  0.1266605E+00
        -11   -1    0    0    0    0  0.00000000000E+00  0.00000000000E+00  0.45593999997E+02  0.45594000000E+02  0.51100000000E-03 0.  1.
         11   -1    0    0    0    0 -0.00000000000E+00 -0.00000000000E+00 -0.45593999997E+02  0.45594000000E+02  0.51100000000E-03 0. -1.
    9900012    2    1    2    0    0 -0.16426789649E+02 -0.84307291238E+01  0.25996219343E+02  0.59301952395E+02  0.50000015260E+02 0.  0.
         12    1    1    2    0    0  0.16426789649E+02  0.84307291238E+01 -0.25996219343E+02  0.31886047605E+02  0.00000000000E+00 0. -1.
         11    1    3    3    0    0 -0.83512932854E+01  0.11662839570E+02 -0.60767061534E+01  0.15578584156E+02  0.51100000000E-03 0. -1.
        -11    1    3    3    0    0  0.28578926893E+00  0.41042687707E+01  0.45227694619E+01  0.61140936790E+01  0.51100000000E-03 0.  1.
         12    1    3    3    0    0 -0.83612856322E+01 -0.24197837465E+02  0.27550156035E+02  0.37609274560E+02  0.00000000000E+00 0. -1.
</event>
<event>
 7    1  0.6316620E-012  0.5930187E+02  0.7816164E-02  0.1266605E+00
        -11   -1    0    0    0    0  0.00000000000E+00  0.00000000000E+00  0.45593999997E+02  0.45594000000E+02  0.51100000000E-03 0.  1.
         11   -1    0    0    0    0 -0.00000000000E+00 -0.00000000000E+00 -0.45593999997E+02  0.45594000000E+02  0.51100000000E-03 0. -1.
    9900012    2    1    2    0    0  0.11608901395E+02 -0.27637584679E+02 -0.10868420005E+02  0.59301870854E+02  0.49999866549E+02 0.  0.
         12    1    1    2    0    0 -0.11608901395E+02  0.27637584679E+02  0.10868420005E+02  0.31886129146E+02  0.00000000000E+00 0. -1.
         11    1    3    3    0    0  0.86107645699E+00 -0.17115923868E+02 -0.16475366206E+02  0.23772547074E+02  0.51100000000E-03 0. -1.
        -11    1    3    3    0    0  0.96163692261E+01 -0.12614783134E+02 -0.10645749811E+02  0.19103384515E+02  0.51100000000E-03 0.  1.
        -12    1    3    3    0    0  0.11314557120E+01  0.20931223235E+01  0.16252696012E+02  0.16425939265E+02  0.00000000000E+00 0.  1.
</event>
<event>
 7    1  0.6316620E-012  0.5930197E+02  0.7816164E-02  0.1266605E+00
        -11   -1    0    0    0    0  0.00000000000E+00  0.00000000000E+00  0.45593999997E+02  0.45594000000E+02  0.51100000000E-03 0.  1.
         11   -1    0    0    0    0 -0.00000000000E+00 -0.00000000000E+00 -0.45593999997E+02  0.45594000000E+02  0.51100000000E-03 0. -1.
    9900012    2    1    2    0    0 -0.20081346950E+02  0.22363525498E+02 -0.10645722658E+02  0.59301965770E+02  0.50000039652E+02 0.  0.
         12    1    1    2    0    0  0.20081346950E+02 -0.22363525498E+02  0.10645722658E+02  0.31886034230E+02  0.00000000000E+00 0. -1.
         11    1    3    3    0    0 -0.13223770252E+02  0.96487883546E+01  0.58001840149E+00  0.16379976740E+02  0.51100000000E-03 0. -1.
        -11    1    3    3    0    0 -0.71180170092E+01  0.26226249537E+02 -0.11240361030E+02  0.29407958911E+02  0.51100000000E-03 0.  1.
         12    1    3    3    0    0  0.26044031115E+00 -0.13511512394E+02  0.14619971193E-01  0.13514030119E+02  0.00000000000E+00 0. -1.
</event>
<event>
 7    1  0.6316620E-012  0.5930196E+02  0.7816164E-02  0.1266605E+00
        -11   -1    0    0    0    0  0.00000000000E+00  0.00000000000E+00  0.45593999997E+02  0.45594000000E+02  0.51100000000E-03 0.  1.
         11   -1    0    0    0    0 -0.00000000000E+00 -0.00000000000E+00 -0.45593999997E+02  0.45594000000E+02  0.51100000000E-03 0. -1.
    9900012    2    1    2    0    0  0.16145219348E+02  0.17801422446E+02  0.20956166160E+02  0.59301958399E+02  0.50000026209E+02 0.  0.
         12    1    1    2    0    0 -0.16145219348E+02 -0.17801422446E+02 -0.20956166160E+02  0.31886041601E+02  0.00000000000E+00 0. -1.
         11    1    3    3    0    0  0.19286016211E+02  0.57163300244E+01  0.98865466785E+01  0.22413626563E+02  0.51100000000E-03 0. -1.
        -11    1    3    3    0    0  0.34209526696E-01  0.19933052493E+02 -0.33057456193E+01  0.20205338560E+02  0.51100000000E-03 0.  1.
        -12    1    3    3    0    0 -0.31750063893E+01 -0.78479600713E+01  0.14375365101E+02  0.16682993275E+02  0.00000000000E+00 0.  1.
</event>
<event>
 7    1  0.6316620E-012  0.5930195E+02  0.7816164E-02  0.1266605E+00
        -11   -1    0    0    0    0  0.00000000000E+00  0.00000000000E+00  0.45593999997E+02  0.45594000000E+02  0.51100000000E-03 0.  1.
         11   -1    0    0    0    0 -0.00000000000E+00 -0.00000000000E+00 -0.45593999997E+02  0.45594000000E+02  0.51100000000E-03 0. -1.
    9900012    2    1    2    0    0 -0.24687104051E+02 -0.19701128617E+02  0.43740947252E+01  0.59301948506E+02  0.50000008168E+02 0.  0.
         12    1    1    2    0    0  0.24687104051E+02  0.19701128617E+02 -0.43740947252E+01  0.31886051494E+02  0.00000000000E+00 0. -1.
         11    1    3    3    0    0 -0.15880176366E+02 -0.14170761489E+02 -0.52850007360E+01  0.21929927397E+02  0.51100000000E-03 0. -1.
        -11    1    3    3    0    0 -0.15576634601E+02 -0.12375323464E+02  0.16264579900E+02  0.25696628882E+02  0.51100000000E-03 0.  1.
         12    1    3    3    0    0  0.67697069166E+01  0.68449563363E+01 -0.66054844383E+01  0.11675392227E+02  0.00000000000E+00 0. -1.
</event>
<event>
 7    1  0.6316620E-012  0.5930200E+02  0.7816164E-02  0.1266605E+00
        -11   -1    0    0    0    0  0.00000000000E+00  0.00000000000E+00  0.45593999997E+02  0.45594000000E+02  0.51100000000E-03 0.  1.
         11   -1    0    0    0    0 -0.00000000000E+00 -0.00000000000E+00 -0.45593999997E+02  0.45594000000E+02  0.51100000000E-03 0. -1.
    9900012    2    1    2    0    0 -0.12246116066E+02  0.22413304421E+02  0.19089089716E+02  0.59302001192E+02  0.50000104254E+02 0.  0.
         12    1    1    2    0    0  0.12246116066E+02 -0.22413304421E+02 -0.19089089716E+02  0.31885998808E+02  0.00000000000E+00 0. -1.
         11    1    3    3    0    0  0.17794259018E+01 -0.32324870731E+01 -0.30117774998E+01  0.47629962405E+01  0.51100000000E-03 0. -1.
        -11    1    3    3    0    0  0.15084920856E+01  0.96377969108E+01 -0.10950050249E+02  0.14665138198E+02  0.51100000000E-03 0.  1.
         12    1    3    3    0    0 -0.15534034054E+02  0.16007994583E+02  0.33050917465E+02  0.39873866753E+02  0.00000000000E+00 0. -1.
</event>
<event>
 7    1  0.6316620E-012  0.5930193E+02  0.7816164E-02  0.1266605E+00
        -11   -1    0    0    0    0  0.00000000000E+00  0.00000000000E+00  0.45593999997E+02  0.45594000000E+02  0.51100000000E-03 0.  1.
         11   -1    0    0    0    0 -0.00000000000E+00 -0.00000000000E+00 -0.45593999997E+02  0.45594000000E+02  0.51100000000E-03 0. -1.
    9900012    2    1    2    0    0  0.25973743161E+02  0.78913101933E+01  0.16727620158E+02  0.59301931153E+02  0.49999976519E+02 0.  0.
         12    1    1    2    0    0 -0.25973743161E+02 -0.78913101933E+01 -0.16727620158E+02  0.31886068847E+02  0.00000000000E+00 0. -1.
         11    1    3    3    0    0  0.10741076952E+02  0.66780019821E+01  0.14221856438E+02  0.19032279038E+02  0.51100000000E-03 0. -1.
        -11    1    3    3    0    0  0.23841669863E+02  0.11677083831E+02  0.35602777532E+00  0.26550070898E+02  0.51100000000E-03 0.  1.
        -12    1    3    3    0    0 -0.86090036540E+01 -0.10463775620E+02  0.21497359445E+01  0.13719581217E+02  0.00000000000E+00 0.  1.
</event>
<event>
 7    1  0.6316620E-012  0.5930191E+02  0.7816164E-02  0.1266605E+00
        -11   -1    0    0    0    0  0.00000000000E+00  0.00000000000E+00  0.45593999997E+02  0.45594000000E+02  0.51100000000E-03 0. -1.
         11   -1    0    0    0    0 -0.00000000000E+00 -0.00000000000E+00 -0.45593999997E+02  0.45594000000E+02  0.51100000000E-03 0.  1.
    9900012    2    1    2    0    0  0.24244634831E+02  0.10682994921E+01 -0.20682822025E+02  0.59301910418E+02  0.49999938704E+02 0.  0.
         12    1    1    2    0    0 -0.24244634831E+02 -0.10682994921E+01  0.20682822025E+02  0.31886089582E+02  0.00000000000E+00 0. -1.
         11    1    3    3    0    0  0.26236888684E+02 -0.94306268177E+01 -0.84161385957E+01  0.29122885144E+02  0.51100000000E-03 0. -1.
        -11    1    3    3    0    0 -0.36498928713E+01  0.29422686327E+01 -0.19216111783E+02  0.19779727374E+02  0.51100000000E-03 0.  1.
         12    1    3    3    0    0  0.16576390188E+01  0.75566576771E+01  0.69494283541E+01  0.10399297900E+02  0.00000000000E+00 0. -1.
</event>
<event>
 7    1  0.6316620E-012  0.5930194E+02  0.7816164E-02  0.1266605E+00
        -11   -1    0    0    0    0  0.00000000000E+00  0.00000000000E+00  0.45593999997E+02  0.45594000000E+02  0.51100000000E-03 0. -1.
         11   -1    0    0    0    0 -0.00000000000E+00 -0.00000000000E+00 -0.45593999997E+02  0.45594000000E+02  0.51100000000E-03 0.  1.
    9900012    2    1    2    0    0 -0.28476892834E+02 -0.62886049986E+01 -0.12893437126E+02  0.59301941930E+02  0.49999996174E+02 0.  0.
         12    1    1    2    0    0  0.28476892834E+02  0.62886049986E+01  0.12893437126E+02  0.31886058070E+02  0.00000000000E+00 0. -1.
         11    1    3    3    0    0 -0.69812212648E+01 -0.68507758020E+01  0.45542292641E+01  0.10789419998E+02  0.51100000000E-03 0. -1.
        -11    1    3    3    0    0 -0.18806206239E+02  0.17519931966E+02 -0.26368811345E+01  0.25837464108E+02  0.51100000000E-03 0.  1.
         12    1    3    3    0    0 -0.26894653311E+01 -0.16957761162E+02 -0.14810785256E+02  0.22675057823E+02  0.00000000000E+00 0. -1.
</event>
<event>
 7    1  0.6316620E-012  0.5930192E+02  0.7816164E-02  0.1266605E+00
        -11   -1    0    0    0    0  0.00000000000E+00  0.00000000000E+00  0.45593999997E+02  0.45594000000E+02  0.51100000000E-03 0.  1.
         11   -1    0    0    0    0 -0.00000000000E+00 -0.00000000000E+00 -0.45593999997E+02  0.45594000000E+02  0.51100000000E-03 0. -1.
    9900012    2    1    2    0    0 -0.85478161325E+01  0.38854580447E+01  0.30472284581E+02  0.59301920397E+02  0.49999956903E+02 0.  0.
         12    1    1    2    0    0  0.85478161325E+01 -0.38854580447E+01 -0.30472284581E+02  0.31886079603E+02  0.00000000000E+00 0. -1.
         11    1    3    3    0    0  0.85088601159E+01  0.16658588303E+01 -0.29525221150E+01  0.91593216569E+01  0.51100000000E-03 0. -1.
        -11    1    3    3    0    0  0.91101577294E+01  0.58121382155E+00  0.16735584742E+02  0.19063383232E+02  0.51100000000E-03 0.  1.
        -12    1    3    3    0    0 -0.26166833978E+02  0.16383853928E+01  0.16689221955E+02  0.31079215508E+02  0.00000000000E+00 0.  1.
</event>
<event>
 7    1  0.6316620E-012  0.5930190E+02  0.7816164E-02  0.1266605E+00
        -11   -1    0    0    0    0  0.00000000000E+00  0.00000000000E+00  0.45593999997E+02  0.45594000000E+02  0.51100000000E-03 0.  1.
         11   -1    0    0    0    0 -0.00000000000E+00 -0.00000000000E+00 -0.45593999997E+02  0.45594000000E+02  0.51100000000E-03 0. -1.
    9900012    2    1    2    0    0  0.15285950247E+02 -0.26839187263E+02  0.79196735303E+01  0.59301898377E+02  0.49999916744E+02 0.  0.
         12    1    1    2    0    0 -0.15285950247E+02  0.26839187263E+02 -0.79196735303E+01  0.31886101623E+02  0.00000000000E+00 0. -1.
         11    1    3    3    0    0  0.99790995799E+01 -0.34632592111E+02 -0.32850385559E+01  0.36191025729E+02  0.51100000000E-03 0. -1.
        -11    1    3    3    0    0  0.89728623240E+01 -0.34038389981E+00  0.10982895565E+02  0.14186335493E+02  0.51100000000E-03 0.  1.
        -12    1    3    3    0    0 -0.36660116572E+01  0.81337887472E+01  0.22181652152E+00  0.89245371546E+01  0.00000000000E+00 0.  1.
</event>
<event>
 7    1  0.6316620E-012  0.5930182E+02  0.7816164E-02  0.1266605E+00
        -11   -1    0    0    0    0  0.00000000000E+00  0.00000000000E+00  0.45593999997E+02  0.45594000000E+02  0.51100000000E-03 0.  1.
         11   -1    0    0    0    0 -0.00000000000E+00 -0.00000000000E+00 -0.45593999997E+02  0.45594000000E+02  0.51100000000E-03 0. -1.
    9900012    2    1    2    0    0 -0.26486714030E+02  0.99593854859E+01  0.14696713929E+02  0.59301815223E+02  0.49999765090E+02 0.  0.
         12    1    1    2    0    0  0.26486714030E+02 -0.99593854859E+01 -0.14696713929E+02  0.31886184777E+02  0.00000000000E+00 0. -1.
         11    1    3    3    0    0 -0.15345996490E+01  0.84904205851E+01  0.15643250980E+02  0.17864868857E+02  0.51100000000E-03 0. -1.
        -11    1    3    3    0    0  0.22672746846E+01 -0.94887635719E+01  0.57718290061E+01  0.11335394962E+02  0.51100000000E-03 0.  1.
         12    1    3    3    0    0 -0.27219389066E+02  0.10957728473E+02 -0.67183660576E+01  0.30101551403E+02  0.00000000000E+00 0. -1.
</event>
<event>
 7    1  0.6316620E-012  0.5930196E+02  0.7816164E-02  0.1266605E+00
        -11   -1    0    0    0    0  0.00000000000E+00  0.00000000000E+00  0.45593999997E+02  0.45594000000E+02  0.51100000000E-03 0.  1.
         11   -1    0    0    0    0 -0.00000000000E+00 -0.00000000000E+00 -0.45593999997E+02  0.45594000000E+02  0.51100000000E-03 0. -1.
    9900012    2    1    2    0    0 -0.18472303693E+02 -0.49936178908E+01  0.25506026728E+02  0.59301958810E+02  0.50000026959E+02 0.  0.
         12    1    1    2    0    0  0.18472303693E+02  0.49936178908E+01 -0.25506026728E+02  0.31886041190E+02  0.00000000000E+00 0. -1.
         11    1    3    3    0    0  0.22196235875E+01  0.30628233667E+00  0.89439219370E+01  0.92203187373E+01  0.51100000000E-03 0.  1.
        -11    1    3    3    0    0 -0.59820799248E+01  0.14062634772E+02 -0.64640404452E+01  0.16592974299E+02  0.51100000000E-03 0. -1.
         12    1    3    3    0    0 -0.14709847356E+02 -0.19362535000E+02  0.23026145236E+02  0.33488665773E+02  0.00000000000E+00 0. -1.
</event>
<event>
 7    1  0.6316620E-012  0.5930189E+02  0.7816164E-02  0.1266605E+00
        -11   -1    0    0    0    0  0.00000000000E+00  0.00000000000E+00  0.45593999997E+02  0.45594000000E+02  0.51100000000E-03 0.  1.
         11   -1    0    0    0    0 -0.00000000000E+00 -0.00000000000E+00 -0.45593999997E+02  0.45594000000E+02  0.51100000000E-03 0. -1.
    9900012    2    1    2    0    0 -0.31293548596E+02  0.61171724982E+01 -0.13496602117E+00  0.59301887053E+02  0.49999896091E+02 0.  0.
         12    1    1    2    0    0  0.31293548596E+02 -0.61171724982E+01  0.13496602117E+00  0.31886112947E+02  0.00000000000E+00 0. -1.
         11    1    3    3    0    0 -0.25587532720E+02 -0.96500025188E+01 -0.16440584265E+02  0.31908262104E+02  0.51100000000E-03 0. -1.
        -11    1    3    3    0    0 -0.92481955527E+01  0.56590177472E+01  0.10983398443E+02  0.15433361411E+02  0.51100000000E-03 0.  1.
        -12    1    3    3    0    0  0.35421796768E+01  0.10108157270E+02  0.53222198012E+01  0.11960263537E+02  0.00000000000E+00 0.  1.
</event>
<event>
 7    1  0.6316620E-012  0.5930172E+02  0.7816164E-02  0.1266606E+00
        -11   -1    0    0    0    0  0.00000000000E+00  0.00000000000E+00  0.45593999997E+02  0.45594000000E+02  0.51100000000E-03 0. -1.
         11   -1    0    0    0    0 -0.00000000000E+00 -0.00000000000E+00 -0.45593999997E+02  0.45594000000E+02  0.51100000000E-03 0.  1.
    9900012    2    1    2    0    0 -0.10404138102E+02 -0.17966612154E+02 -0.24201025126E+02  0.59301719892E+02  0.49999591229E+02 0.  0.
         12    1    1    2    0    0  0.10404138102E+02  0.17966612154E+02  0.24201025126E+02  0.31886280108E+02  0.00000000000E+00 0. -1.
         11    1    3    3    0    0  0.34078515470E+01 -0.16107402456E+02 -0.63145144506E+01  0.17633347925E+02  0.51100000000E-03 0. -1.
        -11    1    3    3    0    0  0.10575203572E+02 -0.70286074344E+01 -0.56527504012E+01  0.13899274816E+02  0.51100000000E-03 0.  1.
        -12    1    3    3    0    0 -0.24387193221E+02  0.51693977360E+01 -0.12233760274E+02  0.27769097151E+02  0.00000000000E+00 0.  1.
</event>
<event>
 7    1  0.6316620E-012  0.5930184E+02  0.7816164E-02  0.1266605E+00
        -11   -1    0    0    0    0  0.00000000000E+00  0.00000000000E+00  0.45593999997E+02  0.45594000000E+02  0.51100000000E-03 0.  1.
         11   -1    0    0    0    0 -0.00000000000E+00 -0.00000000000E+00 -0.45593999997E+02  0.45594000000E+02  0.51100000000E-03 0. -1.
    9900012    2    1    2    0    0 -0.30055804794E+02 -0.94556645337E+00 -0.10605752862E+02  0.59301835422E+02  0.49999801928E+02 0.  0.
         12    1    1    2    0    0  0.30055804794E+02  0.94556645337E+00  0.10605752862E+02  0.31886164578E+02  0.00000000000E+00 0. -1.
         11    1    3    3    0    0  0.55324920297E+01  0.10285419442E+02 -0.12839418831E+02  0.17356526074E+02  0.51100000000E-03 0. -1.
        -11    1    3    3    0    0 -0.40485814211E+01 -0.42531031616E+01 -0.62212340414E+01  0.85547443729E+01  0.51100000000E-03 0.  1.
        -12    1    3    3    0    0 -0.31539715403E+02 -0.69778827337E+01  0.84549000113E+01  0.33390564975E+02  0.00000000000E+00 0.  1.
</event>
<event>
 7    1  0.6316620E-012  0.5930194E+02  0.7816164E-02  0.1266605E+00
        -11   -1    0    0    0    0  0.00000000000E+00  0.00000000000E+00  0.45593999997E+02  0.45594000000E+02  0.51100000000E-03 0.  1.
         11   -1    0    0    0    0 -0.00000000000E+00 -0.00000000000E+00 -0.45593999997E+02  0.45594000000E+02  0.51100000000E-03 0. -1.
    9900012    2    1    2    0    0 -0.20837956496E+02  0.12128034800E+02  0.20866512714E+02  0.59301937028E+02  0.49999987233E+02 0.  0.
         12    1    1    2    0    0  0.20837956496E+02 -0.12128034800E+02 -0.20866512714E+02  0.31886062972E+02  0.00000000000E+00 0. -1.
         11    1    3    3    0    0 -0.66081496858E+01 -0.68803424553E+01 -0.15727861765E+01  0.96685268366E+01  0.51100000000E-03 0. -1.
        -11    1    3    3    0    0 -0.13332879512E+02  0.35147762796E+01 -0.76566431283E+01  0.15771604631E+02  0.51100000000E-03 0.  1.
        -12    1    3    3    0    0 -0.89692729797E+00  0.15493600976E+02  0.30095942019E+02  0.33861805560E+02  0.00000000000E+00 0.  1.
</event>
<event>
 7    1  0.6316620E-012  0.5930187E+02  0.7816164E-02  0.1266605E+00
        -11   -1    0    0    0    0  0.00000000000E+00  0.00000000000E+00  0.45593999997E+02  0.45594000000E+02  0.51100000000E-03 0.  1.
         11   -1    0    0    0    0 -0.00000000000E+00 -0.00000000000E+00 -0.45593999997E+02  0.45594000000E+02  0.51100000000E-03 0. -1.
    9900012    2    1    2    0    0 -0.30669335392E+02  0.70253698661E+01 -0.51731451701E+01  0.59301868436E+02  0.49999862139E+02 0.  0.
         12    1    1    2    0    0  0.30669335392E+02 -0.70253698661E+01  0.51731451701E+01  0.31886131564E+02  0.00000000000E+00 0. -1.
         11    1    3    3    0    0 -0.79220474061E+01 -0.34943529915E+01  0.17303660224E+02  0.19349056704E+02  0.51100000000E-03 0.  1.
        -11    1    3    3    0    0 -0.87839000930E+01  0.77225142286E+01  0.17741527599E+01  0.11829697593E+02  0.51100000000E-03 0. -1.
        -12    1    3    3    0    0 -0.13963387893E+02  0.27972086291E+01 -0.24250958154E+02  0.28123114140E+02  0.00000000000E+00 0.  1.
</event>
<event>
 7    1  0.6316620E-012  0.5930198E+02  0.7816164E-02  0.1266605E+00
        -11   -1    0    0    0    0  0.00000000000E+00  0.00000000000E+00  0.45593999997E+02  0.45594000000E+02  0.51100000000E-03 0.  1.
         11   -1    0    0    0    0 -0.00000000000E+00 -0.00000000000E+00 -0.45593999997E+02  0.45594000000E+02  0.51100000000E-03 0. -1.
    9900012    2    1    2    0    0  0.22500733935E+02  0.12895272326E+02  0.18551199343E+02  0.59301983111E+02  0.50000071279E+02 0.  0.
         12    1    1    2    0    0 -0.22500733935E+02 -0.12895272326E+02 -0.18551199343E+02  0.31886016889E+02  0.00000000000E+00 0. -1.
         11    1    3    3    0    0  0.15186404738E+01  0.10532435009E+02 -0.72649192231E+01  0.12884778139E+02  0.51100000000E-03 0. -1.
        -11    1    3    3    0    0  0.82796787917E+01  0.31118143191E+01 -0.69616955913E+01  0.11256183857E+02  0.51100000000E-03 0.  1.
        -12    1    3    3    0    0  0.12702414669E+02 -0.74897700163E+00  0.32777814157E+02  0.35161021116E+02  0.00000000000E+00 0.  1.
</event>
<event>
 7    1  0.6316620E-012  0.5930193E+02  0.7816164E-02  0.1266605E+00
        -11   -1    0    0    0    0  0.00000000000E+00  0.00000000000E+00  0.45593999997E+02  0.45594000000E+02  0.51100000000E-03 0.  1.
         11   -1    0    0    0    0 -0.00000000000E+00 -0.00000000000E+00 -0.45593999997E+02  0.45594000000E+02  0.51100000000E-03 0. -1.
    9900012    2    1    2    0    0  0.17329780113E+02 -0.22812875658E+02  0.13999029783E+02  0.59301930794E+02  0.49999975864E+02 0.  0.
         12    1    1    2    0    0 -0.17329780113E+02  0.22812875658E+02 -0.13999029783E+02  0.31886069206E+02  0.00000000000E+00 0. -1.
         11    1    3    3    0    0  0.19830862306E+02 -0.83047123132E+01 -0.41863447793E+01  0.21903352010E+02  0.51100000000E-03 0. -1.
        -11    1    3    3    0    0  0.92877752929E+01 -0.16699884857E+02  0.53718340666E+01  0.19849572429E+02  0.51100000000E-03 0.  1.
         12    1    3    3    0    0 -0.11788857485E+02  0.21917215123E+01  0.12813540496E+02  0.17549006355E+02  0.00000000000E+00 0. -1.
</event>
<event>
 7    1  0.6316620E-012  0.5930191E+02  0.7816164E-02  0.1266605E+00
        -11   -1    0    0    0    0  0.00000000000E+00  0.00000000000E+00  0.45593999997E+02  0.45594000000E+02  0.51100000000E-03 0.  1.
         11   -1    0    0    0    0 -0.00000000000E+00 -0.00000000000E+00 -0.45593999997E+02  0.45594000000E+02  0.51100000000E-03 0. -1.
    9900012    2    1    2    0    0 -0.11936809367E+02 -0.27911771105E+02 -0.97554390306E+01  0.59301906248E+02  0.49999931099E+02 0.  0.
         12    1    1    2    0    0  0.11936809367E+02  0.27911771105E+02  0.97554390306E+01  0.31886093752E+02  0.00000000000E+00 0. -1.
         11    1    3    3    0    0 -0.15992888311E+01 -0.13478283804E+02  0.73321917068E+01  0.15426694220E+02  0.51100000000E-03 0. -1.
        -11    1    3    3    0    0 -0.99272974507E+01 -0.26462819439E+02 -0.13453560727E+02  0.31302241834E+02  0.51100000000E-03 0.  1.
         12    1    3    3    0    0 -0.41022308546E+00  0.12029332138E+02 -0.36340700107E+01  0.12572970195E+02  0.00000000000E+00 0. -1.
</event>
<event>
 7    1  0.6316620E-012  0.5930189E+02  0.7816164E-02  0.1266605E+00
        -11   -1    0    0    0    0  0.00000000000E+00  0.00000000000E+00  0.45593999997E+02  0.45594000000E+02  0.51100000000E-03 0. -1.
         11   -1    0    0    0    0 -0.00000000000E+00 -0.00000000000E+00 -0.45593999997E+02  0.45594000000E+02  0.51100000000E-03 0.  1.
    9900012    2    1    2    0    0 -0.12118769447E+02 -0.20004197541E+02 -0.21672367978E+02  0.59301889765E+02  0.49999901038E+02 0.  0.
         12    1    1    2    0    0  0.12118769447E+02  0.20004197541E+02  0.21672367978E+02  0.31886110235E+02  0.00000000000E+00 0. -1.
         11    1    3    3    0    0 -0.92368994304E+01 -0.49442892790E+01  0.50738181463E+01  0.11640873610E+02  0.51100000000E-03 0. -1.
        -11    1    3    3    0    0 -0.84748226234E+01 -0.25314493401E+02 -0.23428915284E+02  0.35518449661E+02  0.51100000000E-03 0.  1.
         12    1    3    3    0    0  0.55929526070E+01  0.10254585139E+02 -0.33172708400E+01  0.12142566494E+02  0.00000000000E+00 0. -1.
</event>
<event>
 7    1  0.6316620E-012  0.5930194E+02  0.7816164E-02  0.1266605E+00
        -11   -1    0    0    0    0  0.00000000000E+00  0.00000000000E+00  0.45593999997E+02  0.45594000000E+02  0.51100000000E-03 0.  1.
         11   -1    0    0    0    0 -0.00000000000E+00 -0.00000000000E+00 -0.45593999997E+02  0.45594000000E+02  0.51100000000E-03 0. -1.
    9900012    2    1    2    0    0  0.31227942990E+02  0.58112414806E+01  0.27867378063E+01  0.59301939433E+02  0.49999991620E+02 0.  0.
         12    1    1    2    0    0 -0.31227942990E+02 -0.58112414806E+01 -0.27867378063E+01  0.31886060567E+02  0.00000000000E+00 0. -1.
         11    1    3    3    0    0  0.12052912564E+02  0.23556054951E+01 -0.12605936447E+02  0.17599182154E+02  0.51100000000E-03 0. -1.
        -11    1    3    3    0    0  0.28414564546E+02  0.59906341487E+01  0.13066101015E+02  0.31843337951E+02  0.51100000000E-03 0.  1.
         12    1    3    3    0    0 -0.92395341202E+01 -0.25349981631E+01  0.23265732386E+01  0.98594193277E+01  0.00000000000E+00 0. -1.
</event>
<event>
 7    1  0.6316620E-012  0.5930198E+02  0.7816164E-02  0.1266605E+00
        -11   -1    0    0    0    0  0.00000000000E+00  0.00000000000E+00  0.45593999997E+02  0.45594000000E+02  0.51100000000E-03 0.  1.
         11   -1    0    0    0    0 -0.00000000000E+00 -0.00000000000E+00 -0.45593999997E+02  0.45594000000E+02  0.51100000000E-03 0. -1.
    9900012    2    1    2    0    0  0.12634450049E+01  0.31389188274E+02  0.54626746426E+01  0.59301980367E+02  0.50000066273E+02 0.  0.
         12    1    1    2    0    0 -0.12634450049E+01 -0.31389188274E+02 -0.54626746426E+01  0.31886019633E+02  0.00000000000E+00 0. -1.
         11    1    3    3    0    0 -0.76301049865E+01  0.33524960703E+02 -0.20045912480E+01  0.34440671865E+02  0.51100000000E-03 0. -1.
        -11    1    3    3    0    0  0.93022395270E+01  0.68938225108E+01 -0.20248804259E+01  0.11754003149E+02  0.51100000000E-03 0.  1.
        -12    1    3    3    0    0 -0.40868953569E+00 -0.90295949389E+01  0.94921463165E+01  0.13107305352E+02  0.00000000000E+00 0.  1.
</event>
<event>
 7    1  0.6316620E-012  0.5930177E+02  0.7816164E-02  0.1266605E+00
        -11   -1    0    0    0    0  0.00000000000E+00  0.00000000000E+00  0.45593999997E+02  0.45594000000E+02  0.51100000000E-03 0.  1.
         11   -1    0    0    0    0 -0.00000000000E+00 -0.00000000000E+00 -0.45593999997E+02  0.45594000000E+02  0.51100000000E-03 0. -1.
    9900012    2    1    2    0    0  0.77743414916E+01  0.17461925254E+02  0.25521997457E+02  0.59301771414E+02  0.49999685193E+02 0.  0.
         12    1    1    2    0    0 -0.77743414916E+01 -0.17461925254E+02 -0.25521997457E+02  0.31886228586E+02  0.00000000000E+00 0. -1.
         11    1    3    3    0    0  0.14533493406E+02  0.11783664360E+01  0.86139005608E+00  0.14606607105E+02  0.51100000000E-03 0. -1.
        -11    1    3    3    0    0  0.12082083409E+02  0.11848612785E+02  0.16671434380E+02  0.23755064491E+02  0.51100000000E-03 0.  1.
        -12    1    3    3    0    0 -0.18841235323E+02  0.44349460334E+01  0.79891730212E+01  0.20940099818E+02  0.00000000000E+00 0.  1.
</event>
<event>
 7    1  0.6316620E-012  0.5930190E+02  0.7816164E-02  0.1266605E+00
        -11   -1    0    0    0    0  0.00000000000E+00  0.00000000000E+00  0.45593999997E+02  0.45594000000E+02  0.51100000000E-03 0.  1.
         11   -1    0    0    0    0 -0.00000000000E+00 -0.00000000000E+00 -0.45593999997E+02  0.45594000000E+02  0.51100000000E-03 0. -1.
    9900012    2    1    2    0    0 -0.28360501587E+02  0.76725607489E+01 -0.12391002972E+02  0.59301902820E+02  0.49999924847E+02 0.  0.
         12    1    1    2    0    0  0.28360501587E+02 -0.76725607489E+01  0.12391002972E+02  0.31886097180E+02  0.00000000000E+00 0. -1.
         11    1    3    3    0    0 -0.62976989224E+01  0.16631336489E+02 -0.13950589893E+02  0.22602683994E+02  0.51100000000E-03 0. -1.
        -11    1    3    3    0    0  0.42700710707E+01 -0.53198247714E+01  0.67694510700E+01  0.96103855593E+01  0.51100000000E-03 0.  1.
        -12    1    3    3    0    0 -0.26332873735E+02 -0.36389509685E+01 -0.52098641494E+01  0.27088833267E+02  0.00000000000E+00 0.  1.
</event>
<event>
 7    1  0.6316620E-012  0.5930195E+02  0.7816164E-02  0.1266605E+00
        -11   -1    0    0    0    0  0.00000000000E+00  0.00000000000E+00  0.45593999997E+02  0.45594000000E+02  0.51100000000E-03 0.  1.
         11   -1    0    0    0    0 -0.00000000000E+00 -0.00000000000E+00 -0.45593999997E+02  0.45594000000E+02  0.51100000000E-03 0. -1.
    9900012    2    1    2    0    0  0.12233798800E+02  0.27615807880E+02  0.10218678651E+02  0.59301951777E+02  0.50000014132E+02 0.  0.
         12    1    1    2    0    0 -0.12233798800E+02 -0.27615807880E+02 -0.10218678651E+02  0.31886048223E+02  0.00000000000E+00 0. -1.
         11    1    3    3    0    0 -0.39022514886E+01  0.20475553059E+02  0.17476520544E+01  0.20917220841E+02  0.51100000000E-03 0. -1.
        -11    1    3    3    0    0  0.23406013770E+02  0.12347705079E+02  0.59770047142E+00  0.26470068898E+02  0.51100000000E-03 0.  1.
         12    1    3    3    0    0 -0.72699634812E+01 -0.52074502583E+01  0.78733261251E+01  0.11914662038E+02  0.00000000000E+00 0. -1.
</event>
<event>
 7    1  0.6316620E-012  0.5930194E+02  0.7816164E-02  0.1266605E+00
        -11   -1    0    0    0    0  0.00000000000E+00  0.00000000000E+00  0.45593999997E+02  0.45594000000E+02  0.51100000000E-03 0. -1.
         11   -1    0    0    0    0 -0.00000000000E+00 -0.00000000000E+00 -0.45593999997E+02  0.45594000000E+02  0.51100000000E-03 0.  1.
    9900012    2    1    2    0    0 -0.16346086258E+02 -0.21551109311E+02 -0.16884187827E+02  0.59301942748E+02  0.49999997666E+02 0.  0.
         12    1    1    2    0    0  0.16346086258E+02  0.21551109311E+02  0.16884187827E+02  0.31886057252E+02  0.00000000000E+00 0. -1.
         11    1    3    3    0    0 -0.40459222425E+01 -0.10821891148E+02  0.66262094624E+01  0.13318763716E+02  0.51100000000E-03 0. -1.
        -11    1    3    3    0    0 -0.16261126473E+02 -0.21224796028E+02 -0.10302364306E+02  0.28654055754E+02  0.51100000000E-03 0.  1.
        -12    1    3    3    0    0  0.39609624570E+01  0.10495577865E+02 -0.13208032984E+02  0.17329123278E+02  0.00000000000E+00 0.  1.
</event>
<event>
 7    1  0.6316620E-012  0.5930194E+02  0.7816164E-02  0.1266605E+00
        -11   -1    0    0    0    0  0.00000000000E+00  0.00000000000E+00  0.45593999997E+02  0.45594000000E+02  0.51100000000E-03 0.  1.
         11   -1    0    0    0    0 -0.00000000000E+00 -0.00000000000E+00 -0.45593999997E+02  0.45594000000E+02  0.51100000000E-03 0. -1.
    9900012    2    1    2    0    0 -0.12623923377E+02 -0.20213891427E+02  0.21183865466E+02  0.59301937149E+02  0.49999987455E+02 0.  0.
         12    1    1    2    0    0  0.12623923377E+02  0.20213891427E+02 -0.21183865466E+02  0.31886062851E+02  0.00000000000E+00 0. -1.
         11    1    3    3    0    0 -0.10455045002E+02  0.31652598013E+01 -0.10649828886E+02  0.15256005086E+02  0.51100000000E-03 0. -1.
        -11    1    3    3    0    0 -0.60272605051E+01 -0.72782737038E+00  0.20055431375E+01  0.63937317284E+01  0.51100000000E-03 0.  1.
        -12    1    3    3    0    0  0.38583821304E+01 -0.22651323858E+02  0.29828151215E+02  0.37652200335E+02  0.00000000000E+00 0.  1.
</event>
<event>
 7    1  0.6316620E-012  0.5930200E+02  0.7816164E-02  0.1266605E+00
        -11   -1    0    0    0    0  0.00000000000E+00  0.00000000000E+00  0.45593999997E+02  0.45594000000E+02  0.51100000000E-03 0.  1.
         11   -1    0    0    0    0 -0.00000000000E+00 -0.00000000000E+00 -0.45593999997E+02  0.45594000000E+02  0.51100000000E-03 0. -1.
    9900012    2    1    2    0    0 -0.29822611725E+02 -0.83697411552E+01 -0.75681081209E+01  0.59301999974E+02  0.50000102032E+02 0.  0.
         12    1    1    2    0    0  0.29822611725E+02  0.83697411552E+01  0.75681081209E+01  0.31886000026E+02  0.00000000000E+00 0. -1.
         11    1    3    3    0    0 -0.62131024393E+00 -0.74178801965E+01  0.62044562974E+01  0.96905237855E+01  0.51100000000E-03 0. -1.
        -11    1    3    3    0    0 -0.11918756347E+01  0.76135112746E+01  0.94777727485E+01  0.12215330450E+02  0.51100000000E-03 0.  1.
         12    1    3    3    0    0 -0.28009425847E+02 -0.85653722333E+01 -0.23250337167E+02  0.37396145739E+02  0.00000000000E+00 0. -1.
</event>
<event>
 7    1  0.6316620E-012  0.5930199E+02  0.7816164E-02  0.1266605E+00
        -11   -1    0    0    0    0  0.00000000000E+00  0.00000000000E+00  0.45593999997E+02  0.45594000000E+02  0.51100000000E-03 0. -1.
         11   -1    0    0    0    0 -0.00000000000E+00 -0.00000000000E+00 -0.45593999997E+02  0.45594000000E+02  0.51100000000E-03 0.  1.
    9900012    2    1    2    0    0  0.12549389604E+02 -0.24152759880E+02 -0.16609476731E+02  0.59301988859E+02  0.50000081761E+02 0.  0.
         12    1    1    2    0    0 -0.12549389604E+02  0.24152759880E+02  0.16609476731E+02  0.31886011141E+02  0.00000000000E+00 0. -1.
         11    1    3    3    0    0  0.15154445200E+01 -0.16431146762E+01  0.10518537075E+02  0.10753419010E+02  0.51100000000E-03 0. -1.
        -11    1    3    3    0    0  0.79541807950E+01  0.50339197411E+01 -0.16240922921E+02  0.18771705241E+02  0.51100000000E-03 0.  1.
        -12    1    3    3    0    0  0.30797642886E+01 -0.27543564945E+02 -0.10887090885E+02  0.29776864608E+02  0.00000000000E+00 0.  1.
</event>
<event>
 7    1  0.6316620E-012  0.5930196E+02  0.7816164E-02  0.1266605E+00
        -11   -1    0    0    0    0  0.00000000000E+00  0.00000000000E+00  0.45593999997E+02  0.45594000000E+02  0.51100000000E-03 0. -1.
         11   -1    0    0    0    0 -0.00000000000E+00 -0.00000000000E+00 -0.45593999997E+02  0.45594000000E+02  0.51100000000E-03 0.  1.
    9900012    2    1    2    0    0 -0.17307321729E+02  0.18338075035E+02 -0.19516436868E+02  0.59301957764E+02  0.50000025052E+02 0.  0.
         12    1    1    2    0    0  0.17307321729E+02 -0.18338075035E+02  0.19516436868E+02  0.31886042236E+02  0.00000000000E+00 0. -1.
         11    1    3    3    0    0 -0.54580322034E+01  0.69130251250E+01  0.45675503407E+01  0.99218218230E+01  0.51100000000E-03 0. -1.
        -11    1    3    3    0    0 -0.26462644606E+02  0.90944105141E+01 -0.12798524286E+02  0.30769824281E+02  0.51100000000E-03 0.  1.
        -12    1    3    3    0    0  0.14613355080E+02  0.23306393963E+01 -0.11285462923E+02  0.18610311660E+02  0.00000000000E+00 0.  1.
</event>
<event>
 7    1  0.6316620E-012  0.5930201E+02  0.7816164E-02  0.1266605E+00
        -11   -1    0    0    0    0  0.00000000000E+00  0.00000000000E+00  0.45593999997E+02  0.45594000000E+02  0.51100000000E-03 0.  1.
         11   -1    0    0    0    0 -0.00000000000E+00 -0.00000000000E+00 -0.45593999997E+02  0.45594000000E+02  0.51100000000E-03 0. -1.
    9900012    2    1    2    0    0  0.13839817689E+02 -0.16891974946E+02  0.23234392336E+02  0.59302009997E+02  0.50000120312E+02 0.  0.
         12    1    1    2    0    0 -0.13839817689E+02  0.16891974946E+02 -0.23234392336E+02  0.31885990003E+02  0.00000000000E+00 0. -1.
         11    1    3    3    0    0 -0.26034210741E+01  0.10640518899E+00  0.25057798478E+02  0.25192903528E+02  0.51100000000E-03 0. -1.
        -11    1    3    3    0    0 -0.50878082831E+01 -0.85356918777E+01  0.31922992849E+01  0.10437174136E+02  0.51100000000E-03 0.  1.
         12    1    3    3    0    0  0.21531047047E+02 -0.84626882576E+01 -0.50157054268E+01  0.23671932333E+02  0.00000000000E+00 0. -1.
</event>
<event>
 7    1  0.6316620E-012  0.5930192E+02  0.7816164E-02  0.1266605E+00
        -11   -1    0    0    0    0  0.00000000000E+00  0.00000000000E+00  0.45593999997E+02  0.45594000000E+02  0.51100000000E-03 0.  1.
         11   -1    0    0    0    0 -0.00000000000E+00 -0.00000000000E+00 -0.45593999997E+02  0.45594000000E+02  0.51100000000E-03 0. -1.
    9900012    2    1    2    0    0 -0.24690439821E+02 -0.16154818872E+02  0.12088256511E+02  0.59301922524E+02  0.49999960782E+02 0.  0.
         12    1    1    2    0    0  0.24690439821E+02  0.16154818872E+02 -0.12088256511E+02  0.31886077476E+02  0.00000000000E+00 0. -1.
         11    1    3    3    0    0 -0.38927922319E+01  0.22004194085E+01 -0.15294520413E+02  0.15934805674E+02  0.51100000000E-03 0. -1.
        -11    1    3    3    0    0  0.95973444113E+00 -0.85657217727E+01  0.26854347686E+01  0.90279698627E+01  0.51100000000E-03 0.  1.
        -12    1    3    3    0    0 -0.21757382030E+02 -0.97895165078E+01  0.24697342155E+02  0.34339146987E+02  0.00000000000E+00 0.  1.
</event>
<event>
 7    1  0.6316620E-012  0.5930193E+02  0.7816164E-02  0.1266605E+00
        -11   -1    0    0    0    0  0.00000000000E+00  0.00000000000E+00  0.45593999997E+02  0.45594000000E+02  0.51100000000E-03 0.  1.
         11   -1    0    0    0    0 -0.00000000000E+00 -0.00000000000E+00 -0.45593999997E+02  0.45594000000E+02  0.51100000000E-03 0. -1.
    9900012    2    1    2    0    0 -0.26569870731E+02  0.42811868209E+01  0.17100720266E+02  0.59301933688E+02  0.49999981142E+02 0.  0.
         12    1    1    2    0    0  0.26569870731E+02 -0.42811868209E+01 -0.17100720266E+02  0.31886066312E+02  0.00000000000E+00 0. -1.
         11    1    3    3    0    0 -0.15238277205E+02 -0.88724200583E+01  0.98326734604E+01  0.20189264412E+02  0.51100000000E-03 0. -1.
        -11    1    3    3    0    0 -0.10991515872E+02 -0.14500838263E+01  0.17893192988E+02  0.21049525407E+02  0.51100000000E-03 0.  1.
         12    1    3    3    0    0 -0.34007765387E+00  0.14603690705E+02 -0.10625146182E+02  0.18063143869E+02  0.00000000000E+00 0. -1.
</event>
<event>
 7    1  0.6316620E-012  0.5930194E+02  0.7816164E-02  0.1266605E+00
        -11   -1    0    0    0    0  0.00000000000E+00  0.00000000000E+00  0.45593999997E+02  0.45594000000E+02  0.51100000000E-03 0.  1.
         11   -1    0    0    0    0 -0.00000000000E+00 -0.00000000000E+00 -0.45593999997E+02  0.45594000000E+02  0.51100000000E-03 0. -1.
    9900012    2    1    2    0    0  0.11079291181E+02 -0.80868874051E+01  0.28784934096E+02  0.59301939222E+02  0.49999991236E+02 0.  0.
         12    1    1    2    0    0 -0.11079291181E+02  0.80868874051E+01 -0.28784934096E+02  0.31886060778E+02  0.00000000000E+00 0. -1.
         11    1    3    3    0    0  0.15618396034E+02 -0.18665360152E+02  0.10264959202E+02  0.26413999166E+02  0.51100000000E-03 0. -1.
        -11    1    3    3    0    0 -0.46628410974E+01  0.36774969329E+01 -0.53788659826E+01  0.80123823119E+01  0.51100000000E-03 0.  1.
        -12    1    3    3    0    0  0.12373624410E+00  0.69009758136E+01  0.23898840877E+02  0.24875557744E+02  0.00000000000E+00 0.  1.
</event>
<event>
 7    1  0.6316620E-012  0.5930194E+02  0.7816164E-02  0.1266605E+00
        -11   -1    0    0    0    0  0.00000000000E+00  0.00000000000E+00  0.45593999997E+02  0.45594000000E+02  0.51100000000E-03 0. -1.
         11   -1    0    0    0    0 -0.00000000000E+00 -0.00000000000E+00 -0.45593999997E+02  0.45594000000E+02  0.51100000000E-03 0.  1.
    9900012    2    1    2    0    0  0.29111000315E+02  0.50916293003E+01  0.11972715711E+02  0.59301938002E+02  0.49999989010E+02 0.  0.
         12    1    1    2    0    0 -0.29111000315E+02 -0.50916293003E+01 -0.11972715711E+02  0.31886061998E+02  0.00000000000E+00 0. -1.
         11    1    3    3    0    0  0.20671151741E+02  0.73281891663E+01  0.25665048061E+02  0.33759347787E+02  0.51100000000E-03 0. -1.
        -11    1    3    3    0    0 -0.41363769974E+01  0.51437304496E+01 -0.21388077724E+01  0.69384491459E+01  0.51100000000E-03 0.  1.
        -12    1    3    3    0    0  0.12576225571E+02 -0.73802903156E+01 -0.11553524577E+02  0.18604141069E+02  0.00000000000E+00 0.  1.
</event>
<event>
 7    1  0.6316620E-012  0.5930192E+02  0.7816164E-02  0.1266605E+00
        -11   -1    0    0    0    0  0.00000000000E+00  0.00000000000E+00  0.45593999997E+02  0.45594000000E+02  0.51100000000E-03 0.  1.
         11   -1    0    0    0    0 -0.00000000000E+00 -0.00000000000E+00 -0.45593999997E+02  0.45594000000E+02  0.51100000000E-03 0. -1.
    9900012    2    1    2    0    0  0.30398104337E+02 -0.52525209486E+01  0.80677201731E+01  0.59301924161E+02  0.49999963768E+02 0.  0.
         12    1    1    2    0    0 -0.30398104337E+02  0.52525209486E+01 -0.80677201731E+01  0.31886075839E+02  0.00000000000E+00 0. -1.
         11    1    3    3    0    0  0.50096968826E+00 -0.37262443682E-01  0.10397370619E+02  0.10409499275E+02  0.51100000000E-03 0. -1.
        -11    1    3    3    0    0  0.23698529882E+02  0.63949076237E+01  0.13732781002E+02  0.28126578825E+02  0.51100000000E-03 0.  1.
         12    1    3    3    0    0  0.61986047666E+01 -0.11610166129E+02 -0.16062431448E+02  0.20765846060E+02  0.00000000000E+00 0. -1.
</event>
<event>
 7    1  0.6316620E-012  0.5930199E+02  0.7816164E-02  0.1266605E+00
        -11   -1    0    0    0    0  0.00000000000E+00  0.00000000000E+00  0.45593999997E+02  0.45594000000E+02  0.51100000000E-03 0.  1.
         11   -1    0    0    0    0 -0.00000000000E+00 -0.00000000000E+00 -0.45593999997E+02  0.45594000000E+02  0.51100000000E-03 0. -1.
    9900012    2    1    2    0    0 -0.30030113249E+02  0.64264502466E+01 -0.85796715726E+01  0.59301988509E+02  0.50000081124E+02 0.  0.
         12    1    1    2    0    0  0.30030113249E+02 -0.64264502466E+01  0.85796715726E+01  0.31886011491E+02  0.00000000000E+00 0. -1.
         11    1    3    3    0    0  0.48336462649E+01 -0.14388605131E+02 -0.54628379717E+01  0.16131915348E+02  0.51100000000E-03 0. -1.
        -11    1    3    3    0    0 -0.12441474004E+02  0.15746205307E+02 -0.16072552797E+01  0.20132474432E+02  0.51100000000E-03 0.  1.
        -12    1    3    3    0    0 -0.22422285509E+02  0.50688500710E+01 -0.15095783213E+01  0.23037598729E+02  0.00000000000E+00 0.  1.
</event>
<event>
 7    1  0.6316620E-012  0.5930196E+02  0.7816164E-02  0.1266605E+00
        -11   -1    0    0    0    0  0.00000000000E+00  0.00000000000E+00  0.45593999997E+02  0.45594000000E+02  0.51100000000E-03 0.  1.
         11   -1    0    0    0    0 -0.00000000000E+00 -0.00000000000E+00 -0.45593999997E+02  0.45594000000E+02  0.51100000000E-03 0. -1.
    9900012    2    1    2    0    0 -0.92607008001E+01  0.16172580595E+02  0.25872892622E+02  0.59301960499E+02  0.50000030040E+02 0.  0.
         12    1    1    2    0    0  0.92607008001E+01 -0.16172580595E+02 -0.25872892622E+02  0.31886039501E+02  0.00000000000E+00 0. -1.
         11    1    3    3    0    0  0.37165080896E+01  0.30624493984E+01  0.48612055701E+01  0.68426857705E+01  0.51100000000E-03 0. -1.
        -11    1    3    3    0    0  0.32304617000E+01  0.20810153627E+02 -0.42394487463E+01  0.21481883127E+02  0.51100000000E-03 0.  1.
        -12    1    3    3    0    0 -0.16207670590E+02 -0.77000224298E+01  0.25251135798E+02  0.30977391602E+02  0.00000000000E+00 0.  1.
</event>
<event>
 7    1  0.6316620E-012  0.5930195E+02  0.7816164E-02  0.1266605E+00
        -11   -1    0    0    0    0  0.00000000000E+00  0.00000000000E+00  0.45593999997E+02  0.45594000000E+02  0.51100000000E-03 0. -1.
         11   -1    0    0    0    0 -0.00000000000E+00 -0.00000000000E+00 -0.45593999997E+02  0.45594000000E+02  0.51100000000E-03 0.  1.
    9900012    2    1    2    0    0  0.47449342303E+00  0.31494495243E+02  0.49590018977E+01  0.59301951728E+02  0.50000014043E+02 0.  0.
         12    1    1    2    0    0 -0.47449342303E+00 -0.31494495243E+02 -0.49590018977E+01  0.31886048272E+02  0.00000000000E+00 0. -1.
         11    1    3    3    0    0 -0.94602606419E+01  0.33163100710E+02  0.68725494666E+01  0.35164182296E+02  0.51100000000E-03 0. -1.
        -11    1    3    3    0    0 -0.47237971759E+01  0.38305196311E+01 -0.53602597985E+01  0.81067580309E+01  0.51100000000E-03 0.  1.
         12    1    3    3    0    0  0.14658551241E+02 -0.54991250986E+01  0.34467122296E+01  0.16031011401E+02  0.00000000000E+00 0. -1.
</event>
<event>
 7    1  0.6316620E-012  0.5930195E+02  0.7816164E-02  0.1266605E+00
        -11   -1    0    0    0    0  0.00000000000E+00  0.00000000000E+00  0.45593999997E+02  0.45594000000E+02  0.51100000000E-03 0.  1.
         11   -1    0    0    0    0 -0.00000000000E+00 -0.00000000000E+00 -0.45593999997E+02  0.45594000000E+02  0.51100000000E-03 0. -1.
    9900012    2    1    2    0    0  0.23078583191E+02 -0.21982290690E+02  0.93715397573E+00  0.59301947192E+02  0.50000005771E+02 0.  0.
         12    1    1    2    0    0 -0.23078583191E+02  0.21982290690E+02 -0.93715397573E+00  0.31886052808E+02  0.00000000000E+00 0. -1.
         11    1    3    3    0    0  0.97651119252E+01 -0.20063876165E+02 -0.69400408719E+01  0.23368369760E+02  0.51100000000E-03 0.  1.
        -11    1    3    3    0    0 -0.10490088000E+02 -0.25988601824E+01  0.51280052464E+01  0.11962126005E+02  0.51100000000E-03 0. -1.
         12    1    3    3    0    0  0.23803559266E+02  0.68044565822E+00  0.27491896012E+01  0.23971451427E+02  0.00000000000E+00 0. -1.
</event>
<event>
 7    1  0.6316620E-012  0.5930194E+02  0.7816164E-02  0.1266605E+00
        -11   -1    0    0    0    0  0.00000000000E+00  0.00000000000E+00  0.45593999997E+02  0.45594000000E+02  0.51100000000E-03 0.  1.
         11   -1    0    0    0    0 -0.00000000000E+00 -0.00000000000E+00 -0.45593999997E+02  0.45594000000E+02  0.51100000000E-03 0. -1.
    9900012    2    1    2    0    0 -0.31320969732E+02 -0.42330338181E+01  0.42188766716E+01  0.59301942850E+02  0.49999997851E+02 0.  0.
         12    1    1    2    0    0  0.31320969732E+02  0.42330338181E+01 -0.42188766716E+01  0.31886057150E+02  0.00000000000E+00 0. -1.
         11    1    3    3    0    0 -0.32451271404E+02 -0.27222196394E+01  0.12007884939E+02  0.34708569496E+02  0.51100000000E-03 0. -1.
        -11    1    3    3    0    0 -0.43868740352E+01 -0.33479420382E+01  0.68765426526E+01  0.88170413862E+01  0.51100000000E-03 0.  1.
         12    1    3    3    0    0  0.55171757076E+01  0.18371278595E+01 -0.14665550920E+02  0.15776331967E+02  0.00000000000E+00 0. -1.
</event>
<event>
 7    1  0.6316620E-012  0.5930195E+02  0.7816164E-02  0.1266605E+00
        -11   -1    0    0    0    0  0.00000000000E+00  0.00000000000E+00  0.45593999997E+02  0.45594000000E+02  0.51100000000E-03 0.  1.
         11   -1    0    0    0    0 -0.00000000000E+00 -0.00000000000E+00 -0.45593999997E+02  0.45594000000E+02  0.51100000000E-03 0. -1.
    9900012    2    1    2    0    0 -0.20044032789E+02  0.51679157159E+01  0.24253861937E+02  0.59301946275E+02  0.50000004098E+02 0.  0.
         12    1    1    2    0    0  0.20044032789E+02 -0.51679157159E+01 -0.24253861937E+02  0.31886053725E+02  0.00000000000E+00 0. -1.
         11    1    3    3    0    0 -0.76557991684E+01 -0.56426516804E+01 -0.93432340680E+01  0.13332171691E+02  0.51100000000E-03 0. -1.
        -11    1    3    3    0    0 -0.59669544649E+01  0.12621292771E+02  0.25221657321E+01  0.14186715513E+02  0.51100000000E-03 0.  1.
        -12    1    3    3    0    0 -0.64212791560E+01 -0.18107253751E+01  0.31074930273E+02  0.31783059070E+02  0.00000000000E+00 0.  1.
</event>
<event>
 7    1  0.6316620E-012  0.5930193E+02  0.7816164E-02  0.1266605E+00
        -11   -1    0    0    0    0  0.00000000000E+00  0.00000000000E+00  0.45593999997E+02  0.45594000000E+02  0.51100000000E-03 0.  1.
         11   -1    0    0    0    0 -0.00000000000E+00 -0.00000000000E+00 -0.45593999997E+02  0.45594000000E+02  0.51100000000E-03 0. -1.
    9900012    2    1    2    0    0  0.20498449908E+02 -0.88500093961E+01  0.22764271628E+02  0.59301934427E+02  0.49999982491E+02 0.  0.
         12    1    1    2    0    0 -0.20498449908E+02  0.88500093961E+01 -0.22764271628E+02  0.31886065573E+02  0.00000000000E+00 0. -1.
         11    1    3    3    0    0 -0.36999047287E+01 -0.88302067359E+01  0.35356367706E+01  0.10206006743E+02  0.51100000000E-03 0. -1.
        -11    1    3    3    0    0  0.88165019429E+01  0.66752920383E+01  0.28043607115E+02  0.30145217375E+02  0.51100000000E-03 0.  1.
        -12    1    3    3    0    0  0.15381852694E+02 -0.66950946986E+01 -0.88149722578E+01  0.18950710309E+02  0.00000000000E+00 0.  1.
</event>
<event>
 7    1  0.6316620E-012  0.5930194E+02  0.7816164E-02  0.1266605E+00
        -11   -1    0    0    0    0  0.00000000000E+00  0.00000000000E+00  0.45593999997E+02  0.45594000000E+02  0.51100000000E-03 0.  1.
         11   -1    0    0    0    0 -0.00000000000E+00 -0.00000000000E+00 -0.45593999997E+02  0.45594000000E+02  0.51100000000E-03 0. -1.
    9900012    2    1    2    0    0 -0.17764207582E+01  0.31819207141E+02  0.10504323095E+01  0.59301936871E+02  0.49999986948E+02 0.  0.
         12    1    1    2    0    0  0.17764207582E+01 -0.31819207141E+02 -0.10504323095E+01  0.31886063129E+02  0.00000000000E+00 0. -1.
         11    1    3    3    0    0 -0.13834977716E+02 -0.53157952298E+01  0.62719017825E+01  0.16093509237E+02  0.51100000000E-03 0. -1.
        -11    1    3    3    0    0  0.95909064533E+01  0.10110874521E+02 -0.77642096747E+01  0.15953000417E+02  0.51100000000E-03 0.  1.
        -12    1    3    3    0    0  0.24676505045E+01  0.27024127850E+02  0.25427402016E+01  0.27255427217E+02  0.00000000000E+00 0.  1.
</event>
<event>
 7    1  0.6316620E-012  0.5930192E+02  0.7816164E-02  0.1266605E+00
        -11   -1    0    0    0    0  0.00000000000E+00  0.00000000000E+00  0.45593999997E+02  0.45594000000E+02  0.51100000000E-03 0.  1.
         11   -1    0    0    0    0 -0.00000000000E+00 -0.00000000000E+00 -0.45593999997E+02  0.45594000000E+02  0.51100000000E-03 0. -1.
    9900012    2    1    2    0    0  0.12732224591E+02 -0.12694409603E+02  0.26333710718E+02  0.59301923126E+02  0.49999961881E+02 0.  0.
         12    1    1    2    0    0 -0.12732224591E+02  0.12694409603E+02 -0.26333710718E+02  0.31886076874E+02  0.00000000000E+00 0. -1.
         11    1    3    3    0    0  0.27308237514E+01  0.85018484993E+01 -0.10750665067E+01  0.89941422338E+01  0.51100000000E-03 0. -1.
        -11    1    3    3    0    0 -0.13075014062E+01  0.17845412800E+01  0.24421504558E+02  0.24521501435E+02  0.51100000000E-03 0.  1.
         12    1    3    3    0    0  0.11308902246E+02 -0.22980799382E+02  0.29872726672E+01  0.25786279457E+02  0.00000000000E+00 0. -1.
</event>
<event>
 7    1  0.6316620E-012  0.5930196E+02  0.7816164E-02  0.1266605E+00
        -11   -1    0    0    0    0  0.00000000000E+00  0.00000000000E+00  0.45593999997E+02  0.45594000000E+02  0.51100000000E-03 0.  1.
         11   -1    0    0    0    0 -0.00000000000E+00 -0.00000000000E+00 -0.45593999997E+02  0.45594000000E+02  0.51100000000E-03 0. -1.
    9900012    2    1    2    0    0 -0.17750735822E+02 -0.13921504299E+02  0.22534923075E+02  0.59301958193E+02  0.50000025834E+02 0.  0.
         12    1    1    2    0    0  0.17750735822E+02  0.13921504299E+02 -0.22534923075E+02  0.31886041807E+02  0.00000000000E+00 0. -1.
         11    1    3    3    0    0 -0.13532242691E+02  0.99158262055E+01  0.10229646119E+02  0.19649194934E+02  0.51100000000E-03 0. -1.
        -11    1    3    3    0    0 -0.14436438382E+02 -0.91410882968E+01 -0.13485321109E+01  0.17140268012E+02  0.51100000000E-03 0.  1.
        -12    1    3    3    0    0  0.10217945251E+02 -0.14696242208E+02  0.13653809067E+02  0.22512495246E+02  0.00000000000E+00 0.  1.
</event>
<event>
 7    1  0.6316620E-012  0.5930194E+02  0.7816164E-02  0.1266605E+00
        -11   -1    0    0    0    0  0.00000000000E+00  0.00000000000E+00  0.45593999997E+02  0.45594000000E+02  0.51100000000E-03 0.  1.
         11   -1    0    0    0    0 -0.00000000000E+00 -0.00000000000E+00 -0.45593999997E+02  0.45594000000E+02  0.51100000000E-03 0. -1.
    9900012    2    1    2    0    0  0.22755764785E+02 -0.14045786125E+02  0.17366968700E+02  0.59301944417E+02  0.50000000710E+02 0.  0.
         12    1    1    2    0    0 -0.22755764785E+02  0.14045786125E+02 -0.17366968700E+02  0.31886055583E+02  0.00000000000E+00 0. -1.
         11    1    3    3    0    0 -0.16089220574E+01  0.23507995691E+01  0.68595982420E+00  0.29300904324E+01  0.51100000000E-03 0. -1.
        -11    1    3    3    0    0  0.24550659246E+02  0.10207766963E+02  0.12717711741E+02  0.29473268702E+02  0.51100000000E-03 0.  1.
        -12    1    3    3    0    0 -0.18597240355E+00 -0.26604352657E+02  0.39632971354E+01  0.26898585283E+02  0.00000000000E+00 0.  1.
</event>
<event>
 7    1  0.6316620E-012  0.5930197E+02  0.7816164E-02  0.1266605E+00
        -11   -1    0    0    0    0  0.00000000000E+00  0.00000000000E+00  0.45593999997E+02  0.45594000000E+02  0.51100000000E-03 0. -1.
         11   -1    0    0    0    0 -0.00000000000E+00 -0.00000000000E+00 -0.45593999997E+02  0.45594000000E+02  0.51100000000E-03 0.  1.
    9900012    2    1    2    0    0 -0.30183405025E+02  0.97507855080E+01 -0.32562076807E+01  0.59301974136E+02  0.50000054910E+02 0.  0.
         12    1    1    2    0    0  0.30183405025E+02 -0.97507855080E+01  0.32562076807E+01  0.31886025864E+02  0.00000000000E+00 0. -1.
         11    1    3    3    0    0 -0.23495503926E+02 -0.63174438348E+01  0.78718731805E+01  0.25571765464E+02  0.51100000000E-03 0. -1.
        -11    1    3    3    0    0 -0.10921889124E+02 -0.37125108162E+01 -0.51782747919E+01  0.12644561229E+02  0.51100000000E-03 0.  1.
        -12    1    3    3    0    0  0.42339880241E+01  0.19780740159E+02 -0.59498060693E+01  0.21085647443E+02  0.00000000000E+00 0.  1.
</event>
<event>
 7    1  0.6316620E-012  0.5930195E+02  0.7816164E-02  0.1266605E+00
        -11   -1    0    0    0    0  0.00000000000E+00  0.00000000000E+00  0.45593999997E+02  0.45594000000E+02  0.51100000000E-03 0.  1.
         11   -1    0    0    0    0 -0.00000000000E+00 -0.00000000000E+00 -0.45593999997E+02  0.45594000000E+02  0.51100000000E-03 0. -1.
    9900012    2    1    2    0    0 -0.37555484056E+01  0.13872551443E+02  0.28463453019E+02  0.59301953128E+02  0.50000016597E+02 0.  0.
         12    1    1    2    0    0  0.37555484056E+01 -0.13872551443E+02 -0.28463453019E+02  0.31886046872E+02  0.00000000000E+00 0. -1.
         11    1    3    3    0    0 -0.55015853089E+01  0.20713862890E+01 -0.30536061889E+01  0.66243937902E+01  0.51100000000E-03 0. -1.
        -11    1    3    3    0    0 -0.10638875754E+02 -0.89379859178E+01  0.12474223414E+01  0.13950961699E+02  0.51100000000E-03 0.  1.
        -12    1    3    3    0    0  0.12384912657E+02  0.20739151071E+02  0.30269636866E+02  0.38726597639E+02  0.00000000000E+00 0.  1.
</event>
<event>
 7    1  0.6316620E-012  0.5930192E+02  0.7816164E-02  0.1266605E+00
        -11   -1    0    0    0    0  0.00000000000E+00  0.00000000000E+00  0.45593999997E+02  0.45594000000E+02  0.51100000000E-03 0.  1.
         11   -1    0    0    0    0 -0.00000000000E+00 -0.00000000000E+00 -0.45593999997E+02  0.45594000000E+02  0.51100000000E-03 0. -1.
    9900012    2    1    2    0    0  0.18983916976E+02 -0.76432920526E+01 -0.24452258747E+02  0.59301921925E+02  0.49999959690E+02 0.  0.
         12    1    1    2    0    0 -0.18983916976E+02  0.76432920526E+01  0.24452258747E+02  0.31886078075E+02  0.00000000000E+00 0. -1.
         11    1    3    3    0    0  0.59862017661E+01 -0.69530910207E+01 -0.52787256853E+01  0.10585132566E+02  0.51100000000E-03 0. -1.
        -11    1    3    3    0    0 -0.77059450968E+01 -0.97858637650E+01  0.68707859388E+01  0.14225063063E+02  0.51100000000E-03 0.  1.
         12    1    3    3    0    0  0.20703660307E+02  0.90956627331E+01 -0.26044319001E+02  0.34491726296E+02  0.00000000000E+00 0. -1.
</event>
<event>
 7    1  0.6316620E-012  0.5930197E+02  0.7816164E-02  0.1266605E+00
        -11   -1    0    0    0    0  0.00000000000E+00  0.00000000000E+00  0.45593999997E+02  0.45594000000E+02  0.51100000000E-03 0.  1.
         11   -1    0    0    0    0 -0.00000000000E+00 -0.00000000000E+00 -0.45593999997E+02  0.45594000000E+02  0.51100000000E-03 0. -1.
    9900012    2    1    2    0    0  0.10162179187E+02  0.32136574148E+01  0.30051982784E+02  0.59301966238E+02  0.50000040506E+02 0.  0.
         12    1    1    2    0    0 -0.10162179187E+02 -0.32136574148E+01 -0.30051982784E+02  0.31886033762E+02  0.00000000000E+00 0. -1.
         11    1    3    3    0    0  0.55755400545E+01 -0.41123471090E+01 -0.27643290887E+01  0.74591930673E+01  0.51100000000E-03 0. -1.
        -11    1    3    3    0    0 -0.10808219914E+02 -0.11313875009E+02  0.97953052489E+01  0.18459940157E+02  0.51100000000E-03 0.  1.
        -12    1    3    3    0    0  0.15394859046E+02  0.18639879533E+02  0.23021006624E+02  0.33382833014E+02  0.00000000000E+00 0.  1.
</event>
<event>
 7    1  0.6316620E-012  0.5930194E+02  0.7816164E-02  0.1266605E+00
        -11   -1    0    0    0    0  0.00000000000E+00  0.00000000000E+00  0.45593999997E+02  0.45594000000E+02  0.51100000000E-03 0. -1.
         11   -1    0    0    0    0 -0.00000000000E+00 -0.00000000000E+00 -0.45593999997E+02  0.45594000000E+02  0.51100000000E-03 0.  1.
    9900012    2    1    2    0    0 -0.30258203530E+02 -0.64004166600E-01 -0.10057730842E+02  0.59301938358E+02  0.49999989659E+02 0.  0.
         12    1    1    2    0    0  0.30258203530E+02  0.64004166600E-01  0.10057730842E+02  0.31886061642E+02  0.00000000000E+00 0. -1.
         11    1    3    3    0    0 -0.84653125128E+01 -0.83224608949E+00  0.11265283653E+02  0.14115975543E+02  0.51100000000E-03 0. -1.
        -11    1    3    3    0    0 -0.12185132511E+01 -0.90931725283E+01  0.49210504086E+01  0.10410922080E+02  0.51100000000E-03 0.  1.
        -12    1    3    3    0    0 -0.20574377766E+02  0.98614144512E+01 -0.26244064904E+02  0.34775040735E+02  0.00000000000E+00 0.  1.
</event>
<event>
 7    1  0.6316620E-012  0.5930194E+02  0.7816164E-02  0.1266605E+00
        -11   -1    0    0    0    0  0.00000000000E+00  0.00000000000E+00  0.45593999997E+02  0.45594000000E+02  0.51100000000E-03 0. -1.
         11   -1    0    0    0    0 -0.00000000000E+00 -0.00000000000E+00 -0.45593999997E+02  0.45594000000E+02  0.51100000000E-03 0.  1.
    9900012    2    1    2    0    0  0.15628694088E+02 -0.14227301095E+02 -0.23875685454E+02  0.59301944565E+02  0.50000000979E+02 0.  0.
         12    1    1    2    0    0 -0.15628694088E+02  0.14227301095E+02  0.23875685454E+02  0.31886055435E+02  0.00000000000E+00 0. -1.
         11    1    3    3    0    0  0.14780171575E+02 -0.18896468624E+01 -0.10551729194E+02  0.18258237218E+02  0.51100000000E-03 0. -1.
        -11    1    3    3    0    0  0.13604728679E+02 -0.64533730450E+01 -0.20367190908E+02  0.25328978105E+02  0.51100000000E-03 0.  1.
         12    1    3    3    0    0 -0.12756206167E+02 -0.58842811875E+01  0.70432346479E+01  0.15714729242E+02  0.00000000000E+00 0. -1.
</event>
<event>
 7    1  0.6316620E-012  0.5930194E+02  0.7816164E-02  0.1266605E+00
        -11   -1    0    0    0    0  0.00000000000E+00  0.00000000000E+00  0.45593999997E+02  0.45594000000E+02  0.51100000000E-03 0. -1.
         11   -1    0    0    0    0 -0.00000000000E+00 -0.00000000000E+00 -0.45593999997E+02  0.45594000000E+02  0.51100000000E-03 0.  1.
    9900012    2    1    2    0    0  0.29993440613E+02  0.59029958315E+00  0.10805839670E+02  0.59301935577E+02  0.49999984589E+02 0.  0.
         12    1    1    2    0    0 -0.29993440613E+02 -0.59029958315E+00 -0.10805839670E+02  0.31886064423E+02  0.00000000000E+00 0. -1.
         11    1    3    3    0    0  0.18656340665E+02 -0.16918715124E+02  0.11265543723E+02  0.27590114971E+02  0.51100000000E-03 0. -1.
        -11    1    3    3    0    0  0.27625145850E+01 -0.43324227457E+01 -0.56952528468E+01  0.76705461950E+01  0.51100000000E-03 0.  1.
        -12    1    3    3    0    0  0.85745853631E+01  0.21841437453E+02  0.52355487931E+01  0.24041274412E+02  0.00000000000E+00 0.  1.
</event>
<event>
 7    1  0.6316620E-012  0.5930194E+02  0.7816164E-02  0.1266605E+00
        -11   -1    0    0    0    0  0.00000000000E+00  0.00000000000E+00  0.45593999997E+02  0.45594000000E+02  0.51100000000E-03 0. -1.
         11   -1    0    0    0    0 -0.00000000000E+00 -0.00000000000E+00 -0.45593999997E+02  0.45594000000E+02  0.51100000000E-03 0.  1.
    9900012    2    1    2    0    0 -0.19825651200E+02 -0.23758762368E+02 -0.76932333189E+01  0.59301936059E+02  0.49999985466E+02 0.  0.
         12    1    1    2    0    0  0.19825651200E+02  0.23758762368E+02  0.76932333189E+01  0.31886063941E+02  0.00000000000E+00 0. -1.
         11    1    3    3    0    0  0.40570959278E+01 -0.16347564701E+02  0.85884189877E+00  0.16865364173E+02  0.51100000000E-03 0. -1.
        -11    1    3    3    0    0 -0.27463917042E+01 -0.85745858440E+01 -0.17322962300E+02  0.19523094348E+02  0.51100000000E-03 0.  1.
         12    1    3    3    0    0 -0.21136355424E+02  0.11633881771E+01  0.87708870827E+01  0.22913477537E+02  0.00000000000E+00 0. -1.
</event>
<event>
 7    1  0.6316620E-012  0.5930196E+02  0.7816164E-02  0.1266605E+00
        -11   -1    0    0    0    0  0.00000000000E+00  0.00000000000E+00  0.45593999997E+02  0.45594000000E+02  0.51100000000E-03 0. -1.
         11   -1    0    0    0    0 -0.00000000000E+00 -0.00000000000E+00 -0.45593999997E+02  0.45594000000E+02  0.51100000000E-03 0.  1.
    9900012    2    1    2    0    0  0.65098853583E+01  0.25424227687E+02 -0.18109380908E+02  0.59301958575E+02  0.50000026531E+02 0.  0.
         12    1    1    2    0    0 -0.65098853583E+01 -0.25424227687E+02  0.18109380908E+02  0.31886041425E+02  0.00000000000E+00 0. -1.
         11    1    3    3    0    0  0.58492492389E+01  0.27913103337E+01  0.60359271602E+01  0.88564974444E+01  0.51100000000E-03 0. -1.
        -11    1    3    3    0    0 -0.12646367501E+02 -0.34248473856E+01 -0.10022899709E+01  0.13140196955E+02  0.51100000000E-03 0.  1.
        -12    1    3    3    0    0  0.13307003620E+02  0.26057764739E+02 -0.23143018098E+02  0.37305264176E+02  0.00000000000E+00 0.  1.
</event>
<event>
 7    1  0.6316620E-012  0.5930195E+02  0.7816164E-02  0.1266605E+00
        -11   -1    0    0    0    0  0.00000000000E+00  0.00000000000E+00  0.45593999997E+02  0.45594000000E+02  0.51100000000E-03 0. -1.
         11   -1    0    0    0    0 -0.00000000000E+00 -0.00000000000E+00 -0.45593999997E+02  0.45594000000E+02  0.51100000000E-03 0.  1.
    9900012    2    1    2    0    0 -0.12697462428E+02  0.23855195750E+02  0.16924065439E+02  0.59301954347E+02  0.50000018821E+02 0.  0.
         12    1    1    2    0    0  0.12697462428E+02 -0.23855195750E+02 -0.16924065439E+02  0.31886045653E+02  0.00000000000E+00 0. -1.
         11    1    3    3    0    0  0.90954129255E+01  0.13332981361E+02  0.19469480565E+02  0.25289436569E+02  0.51100000000E-03 0. -1.
        -11    1    3    3    0    0 -0.14038467294E+02  0.66868947297E+01  0.10208599536E+02  0.18601307208E+02  0.51100000000E-03 0.  1.
         12    1    3    3    0    0 -0.77544080595E+01  0.38353196587E+01 -0.12754014662E+02  0.15411210570E+02  0.00000000000E+00 0. -1.
</event>
<event>
 7    1  0.6316620E-012  0.5930193E+02  0.7816164E-02  0.1266605E+00
        -11   -1    0    0    0    0  0.00000000000E+00  0.00000000000E+00  0.45593999997E+02  0.45594000000E+02  0.51100000000E-03 0. -1.
         11   -1    0    0    0    0 -0.00000000000E+00 -0.00000000000E+00 -0.45593999997E+02  0.45594000000E+02  0.51100000000E-03 0.  1.
    9900012    2    1    2    0    0  0.11513629015E+01 -0.22928182500E+02 -0.22129037560E+02  0.59301929489E+02  0.49999973485E+02 0.  0.
         12    1    1    2    0    0 -0.11513629015E+01  0.22928182500E+02  0.22129037560E+02  0.31886070511E+02  0.00000000000E+00 0. -1.
         11    1    3    3    0    0 -0.27413213440E+00 -0.21979085618E+02  0.63200732516E+01  0.22871350620E+02  0.51100000000E-03 0.  1.
        -11    1    3    3    0    0 -0.45256556197E+00  0.86204705490E+01 -0.29373189278E+01  0.91183973822E+01  0.51100000000E-03 0. -1.
        -12    1    3    3    0    0  0.18780605979E+01 -0.95695674315E+01 -0.25511791884E+02  0.27312181487E+02  0.00000000000E+00 0.  1.
</event>
<event>
 7    1  0.6316620E-012  0.5930199E+02  0.7816164E-02  0.1266605E+00
        -11   -1    0    0    0    0  0.00000000000E+00  0.00000000000E+00  0.45593999997E+02  0.45594000000E+02  0.51100000000E-03 0. -1.
         11   -1    0    0    0    0 -0.00000000000E+00 -0.00000000000E+00 -0.45593999997E+02  0.45594000000E+02  0.51100000000E-03 0.  1.
    9900012    2    1    2    0    0 -0.15899617784E+02  0.22080382466E+02 -0.16624571925E+02  0.59301991670E+02  0.50000086888E+02 0.  0.
         12    1    1    2    0    0  0.15899617784E+02 -0.22080382466E+02  0.16624571925E+02  0.31886008330E+02  0.00000000000E+00 0. -1.
         11    1    3    3    0    0 -0.62319136556E+01  0.59737761363E+01 -0.61499384889E+01  0.10599268504E+02  0.51100000000E-03 0.  1.
        -11    1    3    3    0    0 -0.22296886504E+02 -0.15979367669E+01 -0.14418433292E+02  0.26600672333E+02  0.51100000000E-03 0. -1.
         12    1    3    3    0    0  0.12629182375E+02  0.17704543097E+02  0.39437998563E+01  0.22102050833E+02  0.00000000000E+00 0. -1.
</event>
<event>
 7    1  0.6316620E-012  0.5930195E+02  0.7816164E-02  0.1266605E+00
        -11   -1    0    0    0    0  0.00000000000E+00  0.00000000000E+00  0.45593999997E+02  0.45594000000E+02  0.51100000000E-03 0.  1.
         11   -1    0    0    0    0 -0.00000000000E+00 -0.00000000000E+00 -0.45593999997E+02  0.45594000000E+02  0.51100000000E-03 0. -1.
    9900012    2    1    2    0    0 -0.14142681081E+02 -0.27304137777E+02 -0.84373394004E+01  0.59301951890E+02  0.50000014339E+02 0.  0.
         12    1    1    2    0    0  0.14142681081E+02  0.27304137777E+02  0.84373394004E+01  0.31886048110E+02  0.00000000000E+00 0. -1.
         11    1    3    3    0    0 -0.33084232834E+01 -0.82061333133E+01 -0.16272419604E+02  0.18522362933E+02  0.51100000000E-03 0.  1.
        -11    1    3    3    0    0 -0.12742788921E+02 -0.16685142426E+02 -0.95927432615E+01  0.23082317275E+02  0.51100000000E-03 0. -1.
        -12    1    3    3    0    0  0.19085311229E+01 -0.24128620378E+01  0.17427823465E+02  0.17697271682E+02  0.00000000000E+00 0.  1.
</event>
<event>
 7    1  0.6316620E-012  0.5930206E+02  0.7816164E-02  0.1266604E+00
        -11   -1    0    0    0    0  0.00000000000E+00  0.00000000000E+00  0.45593999997E+02  0.45594000000E+02  0.51100000000E-03 0.  1.
         11   -1    0    0    0    0 -0.00000000000E+00 -0.00000000000E+00 -0.45593999997E+02  0.45594000000E+02  0.51100000000E-03 0. -1.
    9900012    2    1    2    0    0  0.17793841073E+02 -0.10871577769E+02  0.24122627770E+02  0.59302060248E+02  0.50000211958E+02 0.  0.
         12    1    1    2    0    0 -0.17793841073E+02  0.10871577769E+02 -0.24122627770E+02  0.31885939752E+02  0.00000000000E+00 0. -1.
         11    1    3    3    0    0 -0.17017608625E+01  0.97532158928E+01  0.47173231995E+01  0.10966966249E+02  0.51100000000E-03 0. -1.
        -11    1    3    3    0    0 -0.19295946215E+01 -0.22172670723E+02  0.61385903615E+01  0.23087506454E+02  0.51100000000E-03 0.  1.
         12    1    3    3    0    0  0.21425196557E+02  0.15478770613E+01  0.13266714209E+02  0.25247587545E+02  0.00000000000E+00 0. -1.
</event>
<event>
 7    1  0.6316620E-012  0.5930189E+02  0.7816164E-02  0.1266605E+00
        -11   -1    0    0    0    0  0.00000000000E+00  0.00000000000E+00  0.45593999997E+02  0.45594000000E+02  0.51100000000E-03 0. -1.
         11   -1    0    0    0    0 -0.00000000000E+00 -0.00000000000E+00 -0.45593999997E+02  0.45594000000E+02  0.51100000000E-03 0.  1.
    9900012    2    1    2    0    0 -0.21451109316E+02 -0.20601196072E+02 -0.11496275482E+02  0.59301894555E+02  0.49999909774E+02 0.  0.
         12    1    1    2    0    0  0.21451109316E+02  0.20601196072E+02  0.11496275482E+02  0.31886105445E+02  0.00000000000E+00 0. -1.
         11    1    3    3    0    0  0.46803257237E+01 -0.15498537428E+02  0.50863626356E+01  0.16970008734E+02  0.51100000000E-03 0. -1.
        -11    1    3    3    0    0 -0.27699430067E+02 -0.12777399924E+02 -0.10005169448E+02  0.32103329901E+02  0.51100000000E-03 0.  1.
        -12    1    3    3    0    0  0.15679950273E+01  0.76747412795E+01 -0.65774686696E+01  0.10228555920E+02  0.00000000000E+00 0.  1.
</event>
<event>
 7    1  0.6316620E-012  0.5930195E+02  0.7816164E-02  0.1266605E+00
        -11   -1    0    0    0    0  0.00000000000E+00  0.00000000000E+00  0.45593999997E+02  0.45594000000E+02  0.51100000000E-03 0.  1.
         11   -1    0    0    0    0 -0.00000000000E+00 -0.00000000000E+00 -0.45593999997E+02  0.45594000000E+02  0.51100000000E-03 0. -1.
    9900012    2    1    2    0    0  0.77238139775E+01 -0.16019418314E+02  0.26465846445E+02  0.59301951428E+02  0.50000013497E+02 0.  0.
         12    1    1    2    0    0 -0.77238139775E+01  0.16019418314E+02 -0.26465846445E+02  0.31886048572E+02  0.00000000000E+00 0. -1.
         11    1    3    3    0    0  0.19623424119E+02  0.75018513638E+01  0.19232047092E+02  0.28482067756E+02  0.51100000000E-03 0. -1.
        -11    1    3    3    0    0 -0.73151950999E+01 -0.43895752750E+01 -0.24728338093E+01  0.88823058805E+01  0.51100000000E-03 0.  1.
        -12    1    3    3    0    0 -0.45844150421E+01 -0.19131694403E+02  0.97066331622E+01  0.21937577792E+02  0.00000000000E+00 0.  1.
</event>
<event>
 7    1  0.6316620E-012  0.5930194E+02  0.7816164E-02  0.1266605E+00
        -11   -1    0    0    0    0  0.00000000000E+00  0.00000000000E+00  0.45593999997E+02  0.45594000000E+02  0.51100000000E-03 0.  1.
         11   -1    0    0    0    0 -0.00000000000E+00 -0.00000000000E+00 -0.45593999997E+02  0.45594000000E+02  0.51100000000E-03 0. -1.
    9900012    2    1    2    0    0 -0.20008933634E+02 -0.36899548940E+01  0.24550920104E+02  0.59301939248E+02  0.49999991284E+02 0.  0.
         12    1    1    2    0    0  0.20008933634E+02  0.36899548940E+01 -0.24550920104E+02  0.31886060752E+02  0.00000000000E+00 0. -1.
         11    1    3    3    0    0 -0.34047513384E+01 -0.92298250275E+01  0.23897866116E+02  0.25843567998E+02  0.51100000000E-03 0. -1.
        -11    1    3    3    0    0 -0.53061609496E+01 -0.11181959972E+02  0.39883956787E+01  0.13003802259E+02  0.51100000000E-03 0.  1.
         12    1    3    3    0    0 -0.11298021346E+02  0.16721830105E+02 -0.33353416911E+01  0.20454568991E+02  0.00000000000E+00 0. -1.
</event>
<event>
 7    1  0.6316620E-012  0.5930195E+02  0.7816164E-02  0.1266605E+00
        -11   -1    0    0    0    0  0.00000000000E+00  0.00000000000E+00  0.45593999997E+02  0.45594000000E+02  0.51100000000E-03 0.  1.
         11   -1    0    0    0    0 -0.00000000000E+00 -0.00000000000E+00 -0.45593999997E+02  0.45594000000E+02  0.51100000000E-03 0. -1.
    9900012    2    1    2    0    0  0.20085154118E+02 -0.29080636611E+00  0.24763327897E+02  0.59301946735E+02  0.50000004937E+02 0.  0.
         12    1    1    2    0    0 -0.20085154118E+02  0.29080636611E+00 -0.24763327897E+02  0.31886053265E+02  0.00000000000E+00 0. -1.
         11    1    3    3    0    0  0.20362870884E+02 -0.13435225237E+02 -0.59284944833E+01  0.25105753024E+02  0.51100000000E-03 0. -1.
        -11    1    3    3    0    0 -0.15625584297E+01  0.15044575459E+01  0.11583717988E+02  0.11785054266E+02  0.51100000000E-03 0.  1.
        -12    1    3    3    0    0  0.12848416641E+01  0.11639961325E+02  0.19108104392E+02  0.22411139445E+02  0.00000000000E+00 0.  1.
</event>
<event>
 7    1  0.6316620E-012  0.5930198E+02  0.7816164E-02  0.1266605E+00
        -11   -1    0    0    0    0  0.00000000000E+00  0.00000000000E+00  0.45593999997E+02  0.45594000000E+02  0.51100000000E-03 0. -1.
         11   -1    0    0    0    0 -0.00000000000E+00 -0.00000000000E+00 -0.45593999997E+02  0.45594000000E+02  0.51100000000E-03 0.  1.
    9900012    2    1    2    0    0 -0.17884165951E+01  0.58704388294E+01 -0.31289901800E+02  0.59301977347E+02  0.50000060766E+02 0.  0.
         12    1    1    2    0    0  0.17884165951E+01 -0.58704388294E+01  0.31289901800E+02  0.31886022653E+02  0.00000000000E+00 0. -1.
         11    1    3    3    0    0  0.67445354550E+01  0.25189883403E+01 -0.89350134206E+00  0.72548194789E+01  0.51100000000E-03 0. -1.
        -11    1    3    3    0    0  0.88768717608E+01  0.10308409121E+02 -0.30393212259E+02  0.33298791308E+02  0.51100000000E-03 0.  1.
        -12    1    3    3    0    0 -0.17409823811E+02 -0.69569586315E+01 -0.31881989810E-02  0.18748366561E+02  0.00000000000E+00 0.  1.
</event>
<event>
 7    1  0.6316620E-012  0.5930198E+02  0.7816164E-02  0.1266605E+00
        -11   -1    0    0    0    0  0.00000000000E+00  0.00000000000E+00  0.45593999997E+02  0.45594000000E+02  0.51100000000E-03 0.  1.
         11   -1    0    0    0    0 -0.00000000000E+00 -0.00000000000E+00 -0.45593999997E+02  0.45594000000E+02  0.51100000000E-03 0. -1.
    9900012    2    1    2    0    0  0.30360488900E+02 -0.69266046402E+01 -0.68542887327E+01  0.59301977794E+02  0.50000061581E+02 0.  0.
         12    1    1    2    0    0 -0.30360488900E+02  0.69266046402E+01  0.68542887327E+01  0.31886022206E+02  0.00000000000E+00 0. -1.
         11    1    3    3    0    0 -0.81719522743E+00  0.12803953693E+01 -0.95577642656E+01  0.96777103883E+01  0.51100000000E-03 0. -1.
        -11    1    3    3    0    0  0.71652786757E+00 -0.12964049479E+01 -0.14085320911E+02  0.14162992036E+02  0.51100000000E-03 0.  1.
        -12    1    3    3    0    0  0.30461156260E+02 -0.69105950616E+01  0.16788796444E+02  0.35461275370E+02  0.00000000000E+00 0.  1.
</event>
<event>
 7    1  0.6316620E-012  0.5930193E+02  0.7816164E-02  0.1266605E+00
        -11   -1    0    0    0    0  0.00000000000E+00  0.00000000000E+00  0.45593999997E+02  0.45594000000E+02  0.51100000000E-03 0.  1.
         11   -1    0    0    0    0 -0.00000000000E+00 -0.00000000000E+00 -0.45593999997E+02  0.45594000000E+02  0.51100000000E-03 0. -1.
    9900012    2    1    2    0    0 -0.12271610988E+02  0.19059237911E+02  0.22424855815E+02  0.59301934951E+02  0.49999983446E+02 0.  0.
         12    1    1    2    0    0  0.12271610988E+02 -0.19059237911E+02 -0.22424855815E+02  0.31886065049E+02  0.00000000000E+00 0. -1.
         11    1    3    3    0    0 -0.89489893290E+01  0.25732655617E+02  0.15992863636E+02  0.31591544164E+02  0.51100000000E-03 0. -1.
        -11    1    3    3    0    0  0.68945562245E+01  0.29607488792E+01 -0.54833659836E+01  0.92934515778E+01  0.51100000000E-03 0.  1.
        -12    1    3    3    0    0 -0.10217177884E+02 -0.96341665855E+01  0.11915358162E+02  0.18416939209E+02  0.00000000000E+00 0.  1.
</event>
<event>
 7    1  0.6316620E-012  0.5930194E+02  0.7816164E-02  0.1266605E+00
        -11   -1    0    0    0    0  0.00000000000E+00  0.00000000000E+00  0.45593999997E+02  0.45594000000E+02  0.51100000000E-03 0. -1.
         11   -1    0    0    0    0 -0.00000000000E+00 -0.00000000000E+00 -0.45593999997E+02  0.45594000000E+02  0.51100000000E-03 0.  1.
    9900012    2    1    2    0    0  0.12947565905E+02  0.28639449658E+02 -0.53724337460E+01  0.59301943738E+02  0.49999999472E+02 0.  0.
         12    1    1    2    0    0 -0.12947565905E+02 -0.28639449658E+02  0.53724337460E+01  0.31886056262E+02  0.00000000000E+00 0. -1.
         11    1    3    3    0    0  0.13367710508E+02  0.32456571926E+01 -0.13663697542E+02  0.19388826824E+02  0.51100000000E-03 0. -1.
        -11    1    3    3    0    0 -0.11858759767E+02  0.87639745931E+01 -0.51995922091E+01  0.15635638564E+02  0.51100000000E-03 0.  1.
         12    1    3    3    0    0  0.11438615165E+02  0.16629817872E+02  0.13490856005E+02  0.24277478351E+02  0.00000000000E+00 0. -1.
</event>
<event>
 7    1  0.6316620E-012  0.5930168E+02  0.7816164E-02  0.1266606E+00
        -11   -1    0    0    0    0  0.00000000000E+00  0.00000000000E+00  0.45593999997E+02  0.45594000000E+02  0.51100000000E-03 0. -1.
         11   -1    0    0    0    0 -0.00000000000E+00 -0.00000000000E+00 -0.45593999997E+02  0.45594000000E+02  0.51100000000E-03 0.  1.
    9900012    2    1    2    0    0  0.35010664600E+01 -0.18397635022E+02 -0.25807113449E+02  0.59301677770E+02  0.49999514408E+02 0.  0.
         12    1    1    2    0    0 -0.35010664600E+01  0.18397635022E+02  0.25807113449E+02  0.31886322230E+02  0.00000000000E+00 0. -1.
         11    1    3    3    0    0  0.16178570944E+01 -0.20637847501E+01  0.24373239530E+01  0.35801141582E+01  0.51100000000E-03 0. -1.
        -11    1    3    3    0    0 -0.86970227748E+01  0.13610093811E+02 -0.76608361695E+01  0.17876276731E+02  0.51100000000E-03 0.  1.
        -12    1    3    3    0    0  0.10580232140E+02 -0.29943944083E+02 -0.20583601233E+02  0.37845286881E+02  0.00000000000E+00 0.  1.
</event>
<event>
 7    1  0.6316620E-012  0.5930194E+02  0.7816164E-02  0.1266605E+00
        -11   -1    0    0    0    0  0.00000000000E+00  0.00000000000E+00  0.45593999997E+02  0.45594000000E+02  0.51100000000E-03 0. -1.
         11   -1    0    0    0    0 -0.00000000000E+00 -0.00000000000E+00 -0.45593999997E+02  0.45594000000E+02  0.51100000000E-03 0.  1.
    9900012    2    1    2    0    0  0.14079270957E+02 -0.21752384438E+02 -0.18583018161E+02  0.59301942492E+02  0.49999997199E+02 0.  0.
         12    1    1    2    0    0 -0.14079270957E+02  0.21752384438E+02  0.18583018161E+02  0.31886057508E+02  0.00000000000E+00 0. -1.
         11    1    3    3    0    0  0.38971134022E+01 -0.38178478821E-01  0.13106940004E+01  0.41117963823E+01  0.51100000000E-03 0. -1.
        -11    1    3    3    0    0 -0.89184802372E+01  0.10100247152E+02 -0.90121689736E+00  0.13504313179E+02  0.51100000000E-03 0.  1.
        -12    1    3    3    0    0  0.19100637792E+02 -0.31814453111E+02 -0.18992495264E+02  0.41685832931E+02  0.00000000000E+00 0.  1.
</event>
<event>
 7    1  0.6316620E-012  0.5930199E+02  0.7816164E-02  0.1266605E+00
        -11   -1    0    0    0    0  0.00000000000E+00  0.00000000000E+00  0.45593999997E+02  0.45594000000E+02  0.51100000000E-03 0. -1.
         11   -1    0    0    0    0 -0.00000000000E+00 -0.00000000000E+00 -0.45593999997E+02  0.45594000000E+02  0.51100000000E-03 0.  1.
    9900012    2    1    2    0    0 -0.17590615849E+02 -0.60944293610E+01 -0.25887170142E+02  0.59301993459E+02  0.50000090150E+02 0.  0.
         12    1    1    2    0    0  0.17590615849E+02  0.60944293610E+01  0.25887170142E+02  0.31886006541E+02  0.00000000000E+00 0. -1.
         11    1    3    3    0    0 -0.84053503596E+01  0.11569321605E+02 -0.16672948107E+02  0.21965571149E+02  0.51100000000E-03 0. -1.
        -11    1    3    3    0    0  0.90713550682E+01 -0.23362570585E+00 -0.79490272600E+01  0.12063627082E+02  0.51100000000E-03 0.  1.
        -12    1    3    3    0    0 -0.18256620557E+02 -0.17430125260E+02 -0.12651947749E+01  0.25272795227E+02  0.00000000000E+00 0.  1.
</event>
<event>
 7    1  0.6316620E-012  0.5930188E+02  0.7816164E-02  0.1266605E+00
        -11   -1    0    0    0    0  0.00000000000E+00  0.00000000000E+00  0.45593999997E+02  0.45594000000E+02  0.51100000000E-03 0.  1.
         11   -1    0    0    0    0 -0.00000000000E+00 -0.00000000000E+00 -0.45593999997E+02  0.45594000000E+02  0.51100000000E-03 0. -1.
    9900012    2    1    2    0    0  0.14342514132E+01  0.24043804669E+02  0.20894092090E+02  0.59301879126E+02  0.49999881635E+02 0.  0.
         12    1    1    2    0    0 -0.14342514132E+01 -0.24043804669E+02 -0.20894092090E+02  0.31886120874E+02  0.00000000000E+00 0. -1.
         11    1    3    3    0    0 -0.64534542806E+01  0.34424542855E+01  0.98466832899E+01  0.12265999174E+02  0.51100000000E-03 0. -1.
        -11    1    3    3    0    0 -0.10909474667E+02 -0.54666494440E+01 -0.19714801862E+01  0.12360729268E+02  0.51100000000E-03 0.  1.
        -12    1    3    3    0    0  0.18797180361E+02  0.26067999828E+02  0.13018888987E+02  0.34675150684E+02  0.00000000000E+00 0.  1.
</event>
<event>
 7    1  0.6316620E-012  0.5930196E+02  0.7816164E-02  0.1266605E+00
        -11   -1    0    0    0    0  0.00000000000E+00  0.00000000000E+00  0.45593999997E+02  0.45594000000E+02  0.51100000000E-03 0. -1.
         11   -1    0    0    0    0 -0.00000000000E+00 -0.00000000000E+00 -0.45593999997E+02  0.45594000000E+02  0.51100000000E-03 0.  1.
    9900012    2    1    2    0    0 -0.26001155612E+02  0.28342296401E+00 -0.18454782751E+02  0.59301961862E+02  0.50000032526E+02 0.  0.
         12    1    1    2    0    0  0.26001155612E+02 -0.28342296401E+00  0.18454782751E+02  0.31886038138E+02  0.00000000000E+00 0. -1.
         11    1    3    3    0    0 -0.29700334940E+00  0.15068899336E+02  0.25418972181E+01  0.15284671403E+02  0.51100000000E-03 0. -1.
        -11    1    3    3    0    0 -0.23730921818E+01 -0.25415142524E+01 -0.17018367415E+02  0.17369965197E+02  0.51100000000E-03 0.  1.
         12    1    3    3    0    0 -0.23331060081E+02 -0.12243962119E+02 -0.39783125541E+01  0.26647325262E+02  0.00000000000E+00 0. -1.
</event>
<event>
 7    1  0.6316620E-012  0.5930199E+02  0.7816164E-02  0.1266605E+00
        -11   -1    0    0    0    0  0.00000000000E+00  0.00000000000E+00  0.45593999997E+02  0.45594000000E+02  0.51100000000E-03 0.  1.
         11   -1    0    0    0    0 -0.00000000000E+00 -0.00000000000E+00 -0.45593999997E+02  0.45594000000E+02  0.51100000000E-03 0. -1.
    9900012    2    1    2    0    0  0.94578645538E+01 -0.62781149018E+01  0.29796837597E+02  0.59301992734E+02  0.50000088828E+02 0.  0.
         12    1    1    2    0    0 -0.94578645538E+01  0.62781149018E+01 -0.29796837597E+02  0.31886007266E+02  0.00000000000E+00 0. -1.
         11    1    3    3    0    0 -0.36240962777E+01  0.15963765139E+01 -0.11155866615E+02  0.11837898969E+02  0.51100000000E-03 0. -1.
        -11    1    3    3    0    0 -0.15154628478E+01 -0.90965078396E+01  0.18213762106E+02  0.20415293602E+02  0.51100000000E-03 0.  1.
        -12    1    3    3    0    0  0.14597423679E+02  0.12220164239E+01  0.22738942105E+02  0.27048800163E+02  0.00000000000E+00 0.  1.
</event>
<event>
 7    1  0.6316620E-012  0.5930194E+02  0.7816164E-02  0.1266605E+00
        -11   -1    0    0    0    0  0.00000000000E+00  0.00000000000E+00  0.45593999997E+02  0.45594000000E+02  0.51100000000E-03 0.  1.
         11   -1    0    0    0    0 -0.00000000000E+00 -0.00000000000E+00 -0.45593999997E+02  0.45594000000E+02  0.51100000000E-03 0. -1.
    9900012    2    1    2    0    0  0.21997721771E+02  0.23005167005E+02  0.18929884788E+01  0.59301939135E+02  0.49999991078E+02 0.  0.
         12    1    1    2    0    0 -0.21997721771E+02 -0.23005167005E+02 -0.18929884788E+01  0.31886060865E+02  0.00000000000E+00 0. -1.
         11    1    3    3    0    0  0.43578923529E+01  0.25679494523E+01 -0.38180232209E+01  0.63374199581E+01  0.51100000000E-03 0. -1.
        -11    1    3    3    0    0  0.12816332651E+02  0.33707486564E+02 -0.33031611334E+01  0.36212758895E+02  0.51100000000E-03 0.  1.
        -12    1    3    3    0    0  0.48234967677E+01 -0.13270269011E+02  0.90141728331E+01  0.16751760282E+02  0.00000000000E+00 0.  1.
</event>
<event>
 7    1  0.6316620E-012  0.5930197E+02  0.7816164E-02  0.1266605E+00
        -11   -1    0    0    0    0  0.00000000000E+00  0.00000000000E+00  0.45593999997E+02  0.45594000000E+02  0.51100000000E-03 0.  1.
         11   -1    0    0    0    0 -0.00000000000E+00 -0.00000000000E+00 -0.45593999997E+02  0.45594000000E+02  0.51100000000E-03 0. -1.
    9900012    2    1    2    0    0  0.13803855532E+01  0.26313290265E+02  0.17956182253E+02  0.59301965597E+02  0.50000039338E+02 0.  0.
         12    1    1    2    0    0 -0.13803855532E+01 -0.26313290265E+02 -0.17956182253E+02  0.31886034403E+02  0.00000000000E+00 0. -1.
         11    1    3    3    0    0 -0.10217522626E+02  0.10808602742E+02 -0.30836269469E+01  0.15189878777E+02  0.51100000000E-03 0. -1.
        -11    1    3    3    0    0 -0.40199990938E+00 -0.70832547125E+01 -0.41448501445E+01  0.82166832865E+01  0.51100000000E-03 0.  1.
         12    1    3    3    0    0  0.11999908089E+02  0.22587942236E+02  0.25184659344E+02  0.35895403534E+02  0.00000000000E+00 0. -1.
</event>
<event>
 7    1  0.6316620E-012  0.5930196E+02  0.7816164E-02  0.1266605E+00
        -11   -1    0    0    0    0  0.00000000000E+00  0.00000000000E+00  0.45593999997E+02  0.45594000000E+02  0.51100000000E-03 0.  1.
         11   -1    0    0    0    0 -0.00000000000E+00 -0.00000000000E+00 -0.45593999997E+02  0.45594000000E+02  0.51100000000E-03 0. -1.
    9900012    2    1    2    0    0 -0.24025453070E+02 -0.20416406196E+02  0.47610234242E+01  0.59301962598E+02  0.50000033867E+02 0.  0.
         12    1    1    2    0    0  0.24025453070E+02  0.20416406196E+02 -0.47610234242E+01  0.31886037402E+02  0.00000000000E+00 0. -1.
         11    1    3    3    0    0  0.42933840966E+01  0.60038335884E+01  0.98864010993E+01  0.12337750675E+02  0.51100000000E-03 0. -1.
        -11    1    3    3    0    0  0.14161610932E+01 -0.14561084651E+01 -0.77875458782E+01  0.80480827015E+01  0.51100000000E-03 0.  1.
        -12    1    3    3    0    0 -0.29734998260E+02 -0.24964131319E+02  0.26621682030E+01  0.38916129221E+02  0.00000000000E+00 0.  1.
</event>
<event>
 7    1  0.6316620E-012  0.5930196E+02  0.7816164E-02  0.1266605E+00
        -11   -1    0    0    0    0  0.00000000000E+00  0.00000000000E+00  0.45593999997E+02  0.45594000000E+02  0.51100000000E-03 0.  1.
         11   -1    0    0    0    0 -0.00000000000E+00 -0.00000000000E+00 -0.45593999997E+02  0.45594000000E+02  0.51100000000E-03 0. -1.
    9900012    2    1    2    0    0  0.93937527189E+00  0.30122709294E+02  0.10414403179E+02  0.59301955487E+02  0.50000020898E+02 0.  0.
         12    1    1    2    0    0 -0.93937527189E+00 -0.30122709294E+02 -0.10414403179E+02  0.31886044513E+02  0.00000000000E+00 0. -1.
         11    1    3    3    0    0 -0.14172805276E+00 -0.83521709255E+01  0.16722588618E+02  0.18692881435E+02  0.51100000000E-03 0. -1.
        -11    1    3    3    0    0  0.18769755591E+01  0.84725422913E+01 -0.60789396898E+01  0.10595306420E+02  0.51100000000E-03 0.  1.
        -12    1    3    3    0    0 -0.79587223447E+00  0.30002337929E+02 -0.22924574921E+00  0.30013767631E+02  0.00000000000E+00 0.  1.
</event>
<event>
 7    1  0.6316620E-012  0.5930195E+02  0.7816164E-02  0.1266605E+00
        -11   -1    0    0    0    0  0.00000000000E+00  0.00000000000E+00  0.45593999997E+02  0.45594000000E+02  0.51100000000E-03 0. -1.
         11   -1    0    0    0    0 -0.00000000000E+00 -0.00000000000E+00 -0.45593999997E+02  0.45594000000E+02  0.51100000000E-03 0.  1.
    9900012    2    1    2    0    0 -0.12587127736E+02 -0.76334235433E+01 -0.28284543083E+02  0.59301947923E+02  0.50000007105E+02 0.  0.
         12    1    1    2    0    0  0.12587127736E+02  0.76334235433E+01  0.28284543083E+02  0.31886052077E+02  0.00000000000E+00 0. -1.
         11    1    3    3    0    0 -0.55903426110E+01  0.90497063237E+01 -0.15699570622E+02  0.18963797959E+02  0.51100000000E-03 0. -1.
        -11    1    3    3    0    0  0.28987842387E+01 -0.10933880577E+02 -0.22508165840E+02  0.25190677328E+02  0.51100000000E-03 0.  1.
        -12    1    3    3    0    0 -0.98955693637E+01 -0.57492492899E+01  0.99231933789E+01  0.15147472636E+02  0.00000000000E+00 0.  1.
</event>
<event>
 7    1  0.6316620E-012  0.5930193E+02  0.7816164E-02  0.1266605E+00
        -11   -1    0    0    0    0  0.00000000000E+00  0.00000000000E+00  0.45593999997E+02  0.45594000000E+02  0.51100000000E-03 0.  1.
         11   -1    0    0    0    0 -0.00000000000E+00 -0.00000000000E+00 -0.45593999997E+02  0.45594000000E+02  0.51100000000E-03 0. -1.
    9900012    2    1    2    0    0 -0.30122193141E+02  0.25204021165E+01 -0.10149995334E+02  0.59301931698E+02  0.49999977514E+02 0.  0.
         12    1    1    2    0    0  0.30122193141E+02 -0.25204021165E+01  0.10149995334E+02  0.31886068302E+02  0.00000000000E+00 0. -1.
         11    1    3    3    0    0 -0.46530667928E+01 -0.27338427474E+01 -0.21446412075E+02  0.22115006623E+02  0.51100000000E-03 0. -1.
        -11    1    3    3    0    0 -0.11272326748E+02 -0.95630743356E+01  0.62857933881E+01  0.16063279237E+02  0.51100000000E-03 0.  1.
        -12    1    3    3    0    0 -0.14196799600E+02  0.14817319200E+02  0.50106233531E+01  0.21123645839E+02  0.00000000000E+00 0.  1.
</event>
<event>
 7    1  0.6316620E-012  0.5930195E+02  0.7816164E-02  0.1266605E+00
        -11   -1    0    0    0    0  0.00000000000E+00  0.00000000000E+00  0.45593999997E+02  0.45594000000E+02  0.51100000000E-03 0.  1.
         11   -1    0    0    0    0 -0.00000000000E+00 -0.00000000000E+00 -0.45593999997E+02  0.45594000000E+02  0.51100000000E-03 0. -1.
    9900012    2    1    2    0    0  0.64004632371E+01 -0.85123791552E+01  0.30054845515E+02  0.59301948700E+02  0.50000008522E+02 0.  0.
         12    1    1    2    0    0 -0.64004632371E+01  0.85123791552E+01 -0.30054845515E+02  0.31886051300E+02  0.00000000000E+00 0. -1.
         11    1    3    3    0    0  0.15696945926E+01 -0.35999958703E+01 -0.86638805875E+01  0.95124517595E+01  0.51100000000E-03 0. -1.
        -11    1    3    3    0    0  0.17383339374E+02 -0.31635424066E+01  0.16314340919E+02  0.24048829665E+02  0.51100000000E-03 0.  1.
        -12    1    3    3    0    0 -0.12552570730E+02 -0.17488408783E+01  0.22404385184E+02  0.25740667276E+02  0.00000000000E+00 0.  1.
</event>
<event>
 7    1  0.6316620E-012  0.5930193E+02  0.7816164E-02  0.1266605E+00
        -11   -1    0    0    0    0  0.00000000000E+00  0.00000000000E+00  0.45593999997E+02  0.45594000000E+02  0.51100000000E-03 0.  1.
         11   -1    0    0    0    0 -0.00000000000E+00 -0.00000000000E+00 -0.45593999997E+02  0.45594000000E+02  0.51100000000E-03 0. -1.
    9900012    2    1    2    0    0 -0.28382627159E+02  0.32618206999E+01  0.14160096131E+02  0.59301932177E+02  0.49999978388E+02 0.  0.
         12    1    1    2    0    0  0.28382627159E+02 -0.32618206999E+01 -0.14160096131E+02  0.31886067823E+02  0.00000000000E+00 0. -1.
         11    1    3    3    0    0  0.93542541322E+00 -0.37487546708E+01  0.73352969835E+00  0.39327151391E+01  0.51100000000E-03 0. -1.
        -11    1    3    3    0    0 -0.22481263815E+01  0.10476468879E+02  0.23857189065E+02  0.26152933731E+02  0.51100000000E-03 0.  1.
        -12    1    3    3    0    0 -0.27069926191E+02 -0.34658935079E+01 -0.10430622632E+02  0.29216283307E+02  0.00000000000E+00 0.  1.
</event>
<event>
 7    1  0.6316620E-012  0.5930198E+02  0.7816164E-02  0.1266605E+00
        -11   -1    0    0    0    0  0.00000000000E+00  0.00000000000E+00  0.45593999997E+02  0.45594000000E+02  0.51100000000E-03 0.  1.
         11   -1    0    0    0    0 -0.00000000000E+00 -0.00000000000E+00 -0.45593999997E+02  0.45594000000E+02  0.51100000000E-03 0. -1.
    9900012    2    1    2    0    0 -0.21490625524E+02  0.10173819716E+02  0.21245337486E+02  0.59301984916E+02  0.50000074571E+02 0.  0.
         12    1    1    2    0    0  0.21490625524E+02 -0.10173819716E+02 -0.21245337486E+02  0.31886015084E+02  0.00000000000E+00 0. -1.
         11    1    3    3    0    0 -0.26654968801E+02  0.13242025611E+02  0.90474862871E+01  0.31107806294E+02  0.51100000000E-03 0. -1.
        -11    1    3    3    0    0 -0.47754935687E+01  0.86299637158E+01  0.65375281542E+01  0.11833042178E+02  0.51100000000E-03 0.  1.
        -12    1    3    3    0    0  0.99398368456E+01 -0.11698169611E+02  0.56603230445E+01  0.16361136444E+02  0.00000000000E+00 0.  1.
</event>
<event>
 7    1  0.6316620E-012  0.5930176E+02  0.7816164E-02  0.1266605E+00
        -11   -1    0    0    0    0  0.00000000000E+00  0.00000000000E+00  0.45593999997E+02  0.45594000000E+02  0.51100000000E-03 0. -1.
         11   -1    0    0    0    0 -0.00000000000E+00 -0.00000000000E+00 -0.45593999997E+02  0.45594000000E+02  0.51100000000E-03 0.  1.
    9900012    2    1    2    0    0 -0.78723625433E+01  0.27235720433E+02 -0.14593626207E+02  0.59301757114E+02  0.49999659113E+02 0.  0.
         12    1    1    2    0    0  0.78723625433E+01 -0.27235720433E+02  0.14593626207E+02  0.31886242886E+02  0.00000000000E+00 0. -1.
         11    1    3    3    0    0  0.13426363319E+02 -0.34423884127E+01 -0.31715506449E+01  0.14218860844E+02  0.51100000000E-03 0. -1.
        -11    1    3    3    0    0  0.31579279154E+00  0.13715311360E+02  0.30129771311E+01  0.14045907669E+02  0.51100000000E-03 0.  1.
        -12    1    3    3    0    0 -0.21614518653E+02  0.16962797486E+02 -0.14435052693E+02  0.31036988601E+02  0.00000000000E+00 0.  1.
</event>
<event>
 7    1  0.6316620E-012  0.5930195E+02  0.7816164E-02  0.1266605E+00
        -11   -1    0    0    0    0  0.00000000000E+00  0.00000000000E+00  0.45593999997E+02  0.45594000000E+02  0.51100000000E-03 0. -1.
         11   -1    0    0    0    0 -0.00000000000E+00 -0.00000000000E+00 -0.45593999997E+02  0.45594000000E+02  0.51100000000E-03 0.  1.
    9900012    2    1    2    0    0  0.61757083068E+01 -0.19433369321E+02 -0.24513768999E+02  0.59301951534E+02  0.50000013689E+02 0.  0.
         12    1    1    2    0    0 -0.61757083068E+01  0.19433369321E+02  0.24513768999E+02  0.31886048466E+02  0.00000000000E+00 0. -1.
         11    1    3    3    0    0  0.64092241346E+01 -0.18651399801E+02  0.97303285600E+01  0.21991638472E+02  0.51100000000E-03 0. -1.
        -11    1    3    3    0    0 -0.28512764879E+01  0.51068446116E+01 -0.61524865139E+01  0.84889769738E+01  0.51100000000E-03 0.  1.
        -12    1    3    3    0    0  0.26177606600E+01 -0.58888141318E+01 -0.28091611046E+02  0.28821336088E+02  0.00000000000E+00 0.  1.
</event>
<event>
 7    1  0.6316620E-012  0.5930210E+02  0.7816164E-02  0.1266604E+00
        -11   -1    0    0    0    0  0.00000000000E+00  0.00000000000E+00  0.45593999997E+02  0.45594000000E+02  0.51100000000E-03 0.  1.
         11   -1    0    0    0    0 -0.00000000000E+00 -0.00000000000E+00 -0.45593999997E+02  0.45594000000E+02  0.51100000000E-03 0. -1.
    9900012    2    1    2    0    0 -0.31648278431E+02  0.19042401130E+00  0.38808499248E+01  0.59302097392E+02  0.50000279699E+02 0.  0.
         12    1    1    2    0    0  0.31648278431E+02 -0.19042401130E+00 -0.38808499248E+01  0.31885902608E+02  0.00000000000E+00 0. -1.
         11    1    3    3    0    0 -0.55973086719E+01  0.97306684140E+01 -0.28986081820E+01  0.11593864835E+02  0.51100000000E-03 0. -1.
        -11    1    3    3    0    0 -0.35418276832E+02 -0.78314331691E+01  0.45365246508E+00  0.36276596864E+02  0.51100000000E-03 0.  1.
         12    1    3    3    0    0  0.93673070720E+01 -0.17088112336E+01  0.63258056417E+01  0.11431635694E+02  0.00000000000E+00 0. -1.
</event>
<event>
 7    1  0.6316620E-012  0.5930191E+02  0.7816164E-02  0.1266605E+00
        -11   -1    0    0    0    0  0.00000000000E+00  0.00000000000E+00  0.45593999997E+02  0.45594000000E+02  0.51100000000E-03 0.  1.
         11   -1    0    0    0    0 -0.00000000000E+00 -0.00000000000E+00 -0.45593999997E+02  0.45594000000E+02  0.51100000000E-03 0. -1.
    9900012    2    1    2    0    0  0.79787330502E+01  0.27583311729E+02  0.13864475564E+02  0.59301906641E+02  0.49999931816E+02 0.  0.
         12    1    1    2    0    0 -0.79787330502E+01 -0.27583311729E+02 -0.13864475564E+02  0.31886093359E+02  0.00000000000E+00 0. -1.
         11    1    3    3    0    0  0.52075749341E+01  0.25928865467E+01  0.69880346209E+01  0.90925532972E+01  0.51100000000E-03 0. -1.
        -11    1    3    3    0    0  0.22875250812E+02  0.12495876816E+02  0.36454036837E+01  0.26319441586E+02  0.51100000000E-03 0.  1.
         12    1    3    3    0    0 -0.20104092696E+02  0.12494548367E+02  0.32310372591E+01  0.23889911758E+02  0.00000000000E+00 0. -1.
</event>
<event>
 7    1  0.6316620E-012  0.5930199E+02  0.7816164E-02  0.1266605E+00
        -11   -1    0    0    0    0  0.00000000000E+00  0.00000000000E+00  0.45593999997E+02  0.45594000000E+02  0.51100000000E-03 0. -1.
         11   -1    0    0    0    0 -0.00000000000E+00 -0.00000000000E+00 -0.45593999997E+02  0.45594000000E+02  0.51100000000E-03 0.  1.
    9900012    2    1    2    0    0  0.21476370505E+02  0.23403962312E+02 -0.27816135060E+01  0.59301994988E+02  0.50000092938E+02 0.  0.
         12    1    1    2    0    0 -0.21476370505E+02 -0.23403962312E+02  0.27816135060E+01  0.31886005012E+02  0.00000000000E+00 0. -1.
         11    1    3    3    0    0  0.33650376104E+01  0.77778443226E+01  0.52954471117E+01  0.99930025918E+01  0.51100000000E-03 0. -1.
        -11    1    3    3    0    0  0.27119505762E+02  0.20829487487E+02  0.27351925160E+01  0.34304757981E+02  0.51100000000E-03 0.  1.
         12    1    3    3    0    0 -0.90081728679E+01 -0.52033694978E+01 -0.10812253134E+02  0.15004234415E+02  0.00000000000E+00 0. -1.
</event>
<event>
 7    1  0.6316620E-012  0.5930195E+02  0.7816164E-02  0.1266605E+00
        -11   -1    0    0    0    0  0.00000000000E+00  0.00000000000E+00  0.45593999997E+02  0.45594000000E+02  0.51100000000E-03 0. -1.
         11   -1    0    0    0    0 -0.00000000000E+00 -0.00000000000E+00 -0.45593999997E+02  0.45594000000E+02  0.51100000000E-03 0.  1.
    9900012    2    1    2    0    0 -0.19383602518E+02  0.10704464363E+02 -0.22943636211E+02  0.59301952166E+02  0.50000014842E+02 0.  0.
         12    1    1    2    0    0  0.19383602518E+02 -0.10704464363E+02  0.22943636211E+02  0.31886047834E+02  0.00000000000E+00 0. -1.
         11    1    3    3    0    0 -0.58411823116E+01  0.46183731369E+01  0.89358043057E+01  0.11631740200E+02  0.51100000000E-03 0. -1.
        -11    1    3    3    0    0 -0.90467389041E+01  0.14426224821E+02 -0.30182486474E+01  0.17293619417E+02  0.51100000000E-03 0.  1.
        -12    1    3    3    0    0 -0.44956813023E+01 -0.83401335945E+01 -0.28861191870E+02  0.30376592549E+02  0.00000000000E+00 0.  1.
</event>
<event>
 7    1  0.6316620E-012  0.5930192E+02  0.7816164E-02  0.1266605E+00
        -11   -1    0    0    0    0  0.00000000000E+00  0.00000000000E+00  0.45593999997E+02  0.45594000000E+02  0.51100000000E-03 0.  1.
         11   -1    0    0    0    0 -0.00000000000E+00 -0.00000000000E+00 -0.45593999997E+02  0.45594000000E+02  0.51100000000E-03 0. -1.
    9900012    2    1    2    0    0  0.75945844933E+01 -0.21763834694E+02  0.22031343846E+02  0.59301916423E+02  0.49999949656E+02 0.  0.
         12    1    1    2    0    0 -0.75945844933E+01  0.21763834694E+02 -0.22031343846E+02  0.31886083577E+02  0.00000000000E+00 0. -1.
         11    1    3    3    0    0  0.13293768160E+02 -0.21055015198E+02  0.11904073172E+02  0.27599726362E+02  0.51100000000E-03 0.  1.
        -11    1    3    3    0    0 -0.12434642601E+02 -0.71355667948E+01  0.15369519811E+02  0.21018058654E+02  0.51100000000E-03 0. -1.
         12    1    3    3    0    0  0.67354589343E+01  0.64267472988E+01 -0.52422491383E+01  0.10684131407E+02  0.00000000000E+00 0. -1.
</event>
<event>
 7    1  0.6316620E-012  0.5930194E+02  0.7816164E-02  0.1266605E+00
        -11   -1    0    0    0    0  0.00000000000E+00  0.00000000000E+00  0.45593999997E+02  0.45594000000E+02  0.51100000000E-03 0.  1.
         11   -1    0    0    0    0 -0.00000000000E+00 -0.00000000000E+00 -0.45593999997E+02  0.45594000000E+02  0.51100000000E-03 0. -1.
    9900012    2    1    2    0    0  0.11137819924E+02  0.25926016416E+02  0.14849636607E+02  0.59301936160E+02  0.49999985651E+02 0.  0.
         12    1    1    2    0    0 -0.11137819924E+02 -0.25926016416E+02 -0.14849636607E+02  0.31886063840E+02  0.00000000000E+00 0. -1.
         11    1    3    3    0    0  0.44131890007E+01  0.16865515046E+02 -0.61035531330E+01  0.18470928402E+02  0.51100000000E-03 0. -1.
        -11    1    3    3    0    0 -0.89713841093E+01  0.12689478644E+02  0.15590266123E+01  0.15618551960E+02  0.51100000000E-03 0.  1.
         12    1    3    3    0    0  0.15696015032E+02 -0.36289772739E+01  0.19394163127E+02  0.25212455798E+02  0.00000000000E+00 0. -1.
</event>
<event>
 7    1  0.6316620E-012  0.5930195E+02  0.7816164E-02  0.1266605E+00
        -11   -1    0    0    0    0  0.00000000000E+00  0.00000000000E+00  0.45593999997E+02  0.45594000000E+02  0.51100000000E-03 0.  1.
         11   -1    0    0    0    0 -0.00000000000E+00 -0.00000000000E+00 -0.45593999997E+02  0.45594000000E+02  0.51100000000E-03 0. -1.
    9900012    2    1    2    0    0 -0.14252075489E+02  0.82571249680E+01  0.27302357306E+02  0.59301945322E+02  0.50000002360E+02 0.  0.
         12    1    1    2    0    0  0.14252075489E+02 -0.82571249680E+01 -0.27302357306E+02  0.31886054678E+02  0.00000000000E+00 0. -1.
         11    1    3    3    0    0 -0.36801624744E+01  0.26896966135E+01 -0.69929039315E+01  0.83473809885E+01  0.51100000000E-03 0. -1.
        -11    1    3    3    0    0 -0.11255341416E+02  0.16825193077E+02  0.69966260504E+01  0.21417810551E+02  0.51100000000E-03 0.  1.
         12    1    3    3    0    0  0.68342840101E+00 -0.11257764722E+02  0.27298635187E+02  0.29536753782E+02  0.00000000000E+00 0. -1.
</event>
<event>
 7    1  0.6316620E-012  0.5930196E+02  0.7816164E-02  0.1266605E+00
        -11   -1    0    0    0    0  0.00000000000E+00  0.00000000000E+00  0.45593999997E+02  0.45594000000E+02  0.51100000000E-03 0.  1.
         11   -1    0    0    0    0 -0.00000000000E+00 -0.00000000000E+00 -0.45593999997E+02  0.45594000000E+02  0.51100000000E-03 0. -1.
    9900012    2    1    2    0    0  0.16476762011E+02  0.10620226902E+02 -0.25148489662E+02  0.59301961706E+02  0.50000032240E+02 0.  0.
         12    1    1    2    0    0 -0.16476762011E+02 -0.10620226902E+02  0.25148489662E+02  0.31886038294E+02  0.00000000000E+00 0. -1.
         11    1    3    3    0    0  0.26814760169E+02 -0.31536366498E+00 -0.18114276918E+02  0.32361363471E+02  0.51100000000E-03 0. -1.
        -11    1    3    3    0    0  0.53571871800E+01  0.60472560448E+01  0.18020105376E+01  0.82774393620E+01  0.51100000000E-03 0.  1.
         12    1    3    3    0    0 -0.15695185338E+02  0.48883345221E+01 -0.88362232821E+01  0.18663158872E+02  0.00000000000E+00 0. -1.
</event>
<event>
 7    1  0.6316620E-012  0.5930189E+02  0.7816164E-02  0.1266605E+00
        -11   -1    0    0    0    0  0.00000000000E+00  0.00000000000E+00  0.45593999997E+02  0.45594000000E+02  0.51100000000E-03 0. -1.
         11   -1    0    0    0    0 -0.00000000000E+00 -0.00000000000E+00 -0.45593999997E+02  0.45594000000E+02  0.51100000000E-03 0.  1.
    9900012    2    1    2    0    0 -0.18539483050E+01  0.15265667608E+01 -0.31795537164E+02  0.59301894657E+02  0.49999909960E+02 0.  0.
         12    1    1    2    0    0  0.18539483050E+01 -0.15265667608E+01  0.31795537164E+02  0.31886105343E+02  0.00000000000E+00 0. -1.
         11    1    3    3    0    0 -0.87627584856E+00  0.14260420802E+02  0.12873731752E+01  0.14345200967E+02  0.51100000000E-03 0. -1.
        -11    1    3    3    0    0 -0.10464864491E+02 -0.86746360695E+00 -0.26299581716E+02  0.28318437115E+02  0.51100000000E-03 0.  1.
         12    1    3    3    0    0  0.94871920350E+01 -0.11866390435E+02 -0.67833286231E+01  0.16638256575E+02  0.00000000000E+00 0. -1.
</event>
<event>
 7    1  0.6316620E-012  0.5930196E+02  0.7816164E-02  0.1266605E+00
        -11   -1    0    0    0    0  0.00000000000E+00  0.00000000000E+00  0.45593999997E+02  0.45594000000E+02  0.51100000000E-03 0.  1.
         11   -1    0    0    0    0 -0.00000000000E+00 -0.00000000000E+00 -0.45593999997E+02  0.45594000000E+02  0.51100000000E-03 0. -1.
    9900012    2    1    2    0    0 -0.23399637852E+01  0.39712474018E+01  0.31551126626E+02  0.59301955595E+02  0.50000021096E+02 0.  0.
         12    1    1    2    0    0  0.23399637852E+01 -0.39712474018E+01 -0.31551126626E+02  0.31886044405E+02  0.00000000000E+00 0. -1.
         11    1    3    3    0    0 -0.74946515877E+00  0.15090705388E+02  0.80719911175E+01  0.17130327726E+02  0.51100000000E-03 0. -1.
        -11    1    3    3    0    0  0.73200562550E+01  0.82912479061E+01  0.90856302953E+00  0.11097454774E+02  0.51100000000E-03 0.  1.
        -12    1    3    3    0    0 -0.89105548814E+01 -0.19410705892E+02  0.22570572479E+02  0.31074173095E+02  0.00000000000E+00 0.  1.
</event>
<event>
 7    1  0.6316620E-012  0.5930195E+02  0.7816164E-02  0.1266605E+00
        -11   -1    0    0    0    0  0.00000000000E+00  0.00000000000E+00  0.45593999997E+02  0.45594000000E+02  0.51100000000E-03 0. -1.
         11   -1    0    0    0    0 -0.00000000000E+00 -0.00000000000E+00 -0.45593999997E+02  0.45594000000E+02  0.51100000000E-03 0.  1.
    9900012    2    1    2    0    0  0.29290158994E+02 -0.95594799672E+01 -0.82111706939E+01  0.59301946696E+02  0.50000004866E+02 0.  0.
         12    1    1    2    0    0 -0.29290158994E+02  0.95594799672E+01  0.82111706939E+01  0.31886053304E+02  0.00000000000E+00 0. -1.
         11    1    3    3    0    0  0.17044893992E+02 -0.11778923142E+02 -0.70879952830E+01  0.21897742326E+02  0.51100000000E-03 0. -1.
        -11    1    3    3    0    0  0.24584020282E+02  0.40240745202E+01 -0.42925565192E+00  0.24914884902E+02  0.51100000000E-03 0.  1.
        -12    1    3    3    0    0 -0.12338755280E+02 -0.18046313449E+01 -0.69391975897E+00  0.12489319468E+02  0.00000000000E+00 0.  1.
</event>
<event>
 7    1  0.6316620E-012  0.5930193E+02  0.7816164E-02  0.1266605E+00
        -11   -1    0    0    0    0  0.00000000000E+00  0.00000000000E+00  0.45593999997E+02  0.45594000000E+02  0.51100000000E-03 0. -1.
         11   -1    0    0    0    0 -0.00000000000E+00 -0.00000000000E+00 -0.45593999997E+02  0.45594000000E+02  0.51100000000E-03 0.  1.
    9900012    2    1    2    0    0 -0.29140537284E+02 -0.12190979796E+01 -0.12886587256E+02  0.59301933385E+02  0.49999980590E+02 0.  0.
         12    1    1    2    0    0  0.29140537284E+02  0.12190979796E+01  0.12886587256E+02  0.31886066615E+02  0.00000000000E+00 0. -1.
         11    1    3    3    0    0 -0.76663961515E+01  0.14978931832E+02 -0.19587656953E+01  0.16940448403E+02  0.51100000000E-03 0. -1.
        -11    1    3    3    0    0 -0.19513934141E+02 -0.74506255137E+01  0.72362019301E+01  0.22105837800E+02  0.51100000000E-03 0.  1.
        -12    1    3    3    0    0 -0.19602069909E+01 -0.87474042977E+01 -0.18164023491E+02  0.20255647182E+02  0.00000000000E+00 0.  1.
</event>
<event>
 7    1  0.6316620E-012  0.5930199E+02  0.7816164E-02  0.1266605E+00
        -11   -1    0    0    0    0  0.00000000000E+00  0.00000000000E+00  0.45593999997E+02  0.45594000000E+02  0.51100000000E-03 0.  1.
         11   -1    0    0    0    0 -0.00000000000E+00 -0.00000000000E+00 -0.45593999997E+02  0.45594000000E+02  0.51100000000E-03 0. -1.
    9900012    2    1    2    0    0  0.15349267982E+01 -0.37600441434E+01  0.31626313668E+02  0.59301989769E+02  0.50000083420E+02 0.  0.
         12    1    1    2    0    0 -0.15349267982E+01  0.37600441434E+01 -0.31626313668E+02  0.31886010231E+02  0.00000000000E+00 0. -1.
         11    1    3    3    0    0  0.78638071516E+00  0.11247033041E+02  0.28475874389E+02  0.30626615375E+02  0.51100000000E-03 0. -1.
        -11    1    3    3    0    0  0.11262965872E+02 -0.14900711792E+01  0.78976687989E+00  0.11388522483E+02  0.51100000000E-03 0.  1.
         12    1    3    3    0    0 -0.10514419789E+02 -0.13517006005E+02  0.23606723995E+01  0.17286851911E+02  0.00000000000E+00 0. -1.
</event>
<event>
 7    1  0.6316620E-012  0.5930193E+02  0.7816164E-02  0.1266605E+00
        -11   -1    0    0    0    0  0.00000000000E+00  0.00000000000E+00  0.45593999997E+02  0.45594000000E+02  0.51100000000E-03 0. -1.
         11   -1    0    0    0    0 -0.00000000000E+00 -0.00000000000E+00 -0.45593999997E+02  0.45594000000E+02  0.51100000000E-03 0.  1.
    9900012    2    1    2    0    0 -0.13188597920E+02 -0.28166859603E+02  0.70292674352E+01  0.59301926305E+02  0.49999967679E+02 0.  0.
         12    1    1    2    0    0  0.13188597920E+02  0.28166859603E+02 -0.70292674352E+01  0.31886073695E+02  0.00000000000E+00 0. -1.
         11    1    3    3    0    0  0.11282384650E+02 -0.35593270014E+01 -0.19764305517E+01  0.11994469146E+02  0.51100000000E-03 0. -1.
        -11    1    3    3    0    0 -0.11647801383E+02 -0.29570734579E+02  0.19226368778E+01  0.31840165726E+02  0.51100000000E-03 0.  1.
         12    1    3    3    0    0 -0.12823181187E+02  0.49632019776E+01  0.70830611091E+01  0.15467291434E+02  0.00000000000E+00 0. -1.
</event>
<event>
 7    1  0.6316620E-012  0.5930196E+02  0.7816164E-02  0.1266605E+00
        -11   -1    0    0    0    0  0.00000000000E+00  0.00000000000E+00  0.45593999997E+02  0.45594000000E+02  0.51100000000E-03 0. -1.
         11   -1    0    0    0    0 -0.00000000000E+00 -0.00000000000E+00 -0.45593999997E+02  0.45594000000E+02  0.51100000000E-03 0.  1.
    9900012    2    1    2    0    0 -0.17807005401E+01  0.33331882766E+01 -0.31661309898E+02  0.59301959434E+02  0.50000028097E+02 0.  0.
         12    1    1    2    0    0  0.17807005401E+01 -0.33331882766E+01  0.31661309898E+02  0.31886040566E+02  0.00000000000E+00 0. -1.
         11    1    3    3    0    0 -0.41576139628E+01  0.62710342479E+00 -0.82409781534E+01  0.92516341127E+01  0.51100000000E-03 0. -1.
        -11    1    3    3    0    0  0.23190529181E+01 -0.19523169906E+02 -0.30432001364E+01  0.19894552946E+02  0.51100000000E-03 0.  1.
         12    1    3    3    0    0  0.57860504591E-01  0.22229254758E+02 -0.20377131609E+02  0.30155772375E+02  0.00000000000E+00 0. -1.
</event>
<event>
 7    1  0.6316620E-012  0.5930197E+02  0.7816164E-02  0.1266605E+00
        -11   -1    0    0    0    0  0.00000000000E+00  0.00000000000E+00  0.45593999997E+02  0.45594000000E+02  0.51100000000E-03 0. -1.
         11   -1    0    0    0    0 -0.00000000000E+00 -0.00000000000E+00 -0.45593999997E+02  0.45594000000E+02  0.51100000000E-03 0.  1.
    9900012    2    1    2    0    0  0.13503592296E+02  0.15743348423E+01 -0.28842559707E+02  0.59301971938E+02  0.50000050902E+02 0.  0.
         12    1    1    2    0    0 -0.13503592296E+02 -0.15743348423E+01  0.28842559707E+02  0.31886028062E+02  0.00000000000E+00 0. -1.
         11    1    3    3    0    0 -0.49119303645E+01 -0.64465893050E+01 -0.31488955661E+02  0.32515225702E+02  0.51100000000E-03 0. -1.
        -11    1    3    3    0    0  0.41859149625E+01  0.27356651037E+01 -0.71466696435E+01  0.87224213890E+01  0.51100000000E-03 0.  1.
        -12    1    3    3    0    0  0.14229607698E+02  0.52852590436E+01  0.97930655971E+01  0.18064324847E+02  0.00000000000E+00 0.  1.
</event>
<event>
 7    1  0.6316620E-012  0.5930190E+02  0.7816164E-02  0.1266605E+00
        -11   -1    0    0    0    0  0.00000000000E+00  0.00000000000E+00  0.45593999997E+02  0.45594000000E+02  0.51100000000E-03 0.  1.
         11   -1    0    0    0    0 -0.00000000000E+00 -0.00000000000E+00 -0.45593999997E+02  0.45594000000E+02  0.51100000000E-03 0. -1.
    9900012    2    1    2    0    0  0.11960019785E+02  0.61897702038E+01  0.28902730152E+02  0.59301903677E+02  0.49999926410E+02 0.  0.
         12    1    1    2    0    0 -0.11960019785E+02 -0.61897702038E+01 -0.28902730152E+02  0.31886096323E+02  0.00000000000E+00 0. -1.
         11    1    3    3    0    0 -0.54787293277E+01  0.11295581445E+02  0.17855160954E+01  0.12680485133E+02  0.51100000000E-03 0. -1.
        -11    1    3    3    0    0 -0.21851206104E+00  0.73404330708E+01  0.23622432410E+02  0.24737603328E+02  0.51100000000E-03 0.  1.
         12    1    3    3    0    0  0.17657261174E+02 -0.12446244312E+02  0.34947816468E+01  0.21883815216E+02  0.00000000000E+00 0. -1.
</event>
<event>
 7    1  0.6316620E-012  0.5930193E+02  0.7816164E-02  0.1266605E+00
        -11   -1    0    0    0    0  0.00000000000E+00  0.00000000000E+00  0.45593999997E+02  0.45594000000E+02  0.51100000000E-03 0.  1.
         11   -1    0    0    0    0 -0.00000000000E+00 -0.00000000000E+00 -0.45593999997E+02  0.45594000000E+02  0.51100000000E-03 0. -1.
    9900012    2    1    2    0    0  0.82438599897E+01 -0.96781007834E+01  0.29241999681E+02  0.59301930822E+02  0.49999975915E+02 0.  0.
         12    1    1    2    0    0 -0.82438599897E+01  0.96781007834E+01 -0.29241999681E+02  0.31886069178E+02  0.00000000000E+00 0. -1.
         11    1    3    3    0    0 -0.17859194516E+02  0.22621388597E+00  0.11435535108E+02  0.21207863281E+02  0.51100000000E-03 0. -1.
        -11    1    3    3    0    0  0.26066952662E+01 -0.49602403738E+01 -0.29702194829E+01  0.63420066867E+01  0.51100000000E-03 0.  1.
        -12    1    3    3    0    0  0.23496359239E+02 -0.49440742956E+01  0.20776684056E+02  0.31752060854E+02  0.00000000000E+00 0.  1.
</event>
