<event>
 7    1  0.5979290E-013  0.5930193E+02  0.7816164E-02  0.1266605E+00
        -11   -1    0    0    0    0  0.00000000000E+00  0.00000000000E+00  0.45593999997E+02  0.45594000000E+02  0.51100000000E-03 0.  1.
         11   -1    0    0    0    0 -0.00000000000E+00 -0.00000000000E+00 -0.45593999997E+02  0.45594000000E+02  0.51100000000E-03 0. -1.
    9900012    2    1    2    0    0 -0.67459532992E+01  0.27284981247E+02 -0.15057991138E+02  0.59301934318E+02  0.49999982292E+02 0.  0.
        -12    1    1    2    0    0  0.67459532992E+01 -0.27284981247E+02  0.15057991138E+02  0.31886065682E+02  0.00000000000E+00 0.  1.
         11    1    3    3    0    0 -0.14242297057E+02  0.33793053118E+02  0.41523093517E+00  0.36674049156E+02  0.51100000000E-03 0.  1.
        -11    1    3    3    0    0  0.10462510763E+02 -0.22008223574E+01 -0.13031766490E+02  0.16856295222E+02  0.51100000000E-03 0. -1.
        -12    1    3    3    0    0 -0.29661670051E+01 -0.43072495132E+01 -0.24414555834E+01  0.57715899401E+01  0.00000000000E+00 0.  1.
</event>
<event>
 7    1  0.5979290E-013  0.5930203E+02  0.7816164E-02  0.1266604E+00
        -11   -1    0    0    0    0  0.00000000000E+00  0.00000000000E+00  0.45593999997E+02  0.45594000000E+02  0.51100000000E-03 0.  1.
         11   -1    0    0    0    0 -0.00000000000E+00 -0.00000000000E+00 -0.45593999997E+02  0.45594000000E+02  0.51100000000E-03 0. -1.
    9900012    2    1    2    0    0 -0.29670597255E+01  0.15517777157E+02 -0.27696756384E+02  0.59302028704E+02  0.50000154429E+02 0.  0.
        -12    1    1    2    0    0  0.29670597255E+01 -0.15517777157E+02  0.27696756384E+02  0.31885971296E+02  0.00000000000E+00 0.  1.
         11    1    3    3    0    0 -0.13718743911E+02  0.26774956808E+02 -0.21656631278E+02  0.37069015702E+02  0.51100000000E-03 0. -1.
        -11    1    3    3    0    0  0.95093409986E+00 -0.12341812732E+01  0.44560587542E+01  0.47205867177E+01  0.51100000000E-03 0.  1.
         12    1    3    3    0    0  0.98007500854E+01 -0.10022998379E+02 -0.10496183860E+02  0.17512426284E+02  0.00000000000E+00 0. -1.
</event>
<event>
 7    1  0.5979290E-013  0.5930194E+02  0.7816164E-02  0.1266605E+00
        -11   -1    0    0    0    0  0.00000000000E+00  0.00000000000E+00  0.45593999997E+02  0.45594000000E+02  0.51100000000E-03 0.  1.
         11   -1    0    0    0    0 -0.00000000000E+00 -0.00000000000E+00 -0.45593999997E+02  0.45594000000E+02  0.51100000000E-03 0. -1.
    9900012    2    1    2    0    0 -0.12034310237E+01 -0.27105219132E+01 -0.31747840922E+02  0.59301943823E+02  0.49999999627E+02 0.  0.
        -12    1    1    2    0    0  0.12034310237E+01  0.27105219132E+01  0.31747840922E+02  0.31886056177E+02  0.00000000000E+00 0.  1.
         11    1    3    3    0    0 -0.18560103738E+02  0.98776229168E+01 -0.21530150914E+02  0.30093060394E+02  0.51100000000E-03 0. -1.
        -11    1    3    3    0    0  0.81584054730E+01 -0.34496066547E+01 -0.13207259706E+02  0.15902549329E+02  0.51100000000E-03 0.  1.
         12    1    3    3    0    0  0.91982672414E+01 -0.91385381752E+01  0.29895696978E+01  0.13306334101E+02  0.00000000000E+00 0. -1.
</event>
<event>
 7    1  0.5979290E-013  0.5930193E+02  0.7816164E-02  0.1266605E+00
        -11   -1    0    0    0    0  0.00000000000E+00  0.00000000000E+00  0.45593999997E+02  0.45594000000E+02  0.51100000000E-03 0. -1.
         11   -1    0    0    0    0 -0.00000000000E+00 -0.00000000000E+00 -0.45593999997E+02  0.45594000000E+02  0.51100000000E-03 0.  1.
    9900012    2    1    2    0    0 -0.20505188782E+02  0.82525657384E+01  0.22981596317E+02  0.59301931294E+02  0.49999976777E+02 0.  0.
        -12    1    1    2    0    0  0.20505188782E+02 -0.82525657384E+01 -0.22981596317E+02  0.31886068706E+02  0.00000000000E+00 0.  1.
         11    1    3    3    0    0 -0.17732289764E+02  0.20668543674E+02  0.27352053756E+02  0.38597378704E+02  0.51100000000E-03 0. -1.
        -11    1    3    3    0    0 -0.54061339250E+01 -0.69042562529E+01 -0.93536693882E+01  0.12821317004E+02  0.51100000000E-03 0.  1.
         12    1    3    3    0    0  0.26332349071E+01 -0.55117216827E+01  0.49832119490E+01  0.78832355864E+01  0.00000000000E+00 0. -1.
</event>
<event>
 7    1  0.5979290E-013  0.5930192E+02  0.7816164E-02  0.1266605E+00
        -11   -1    0    0    0    0  0.00000000000E+00  0.00000000000E+00  0.45593999997E+02  0.45594000000E+02  0.51100000000E-03 0. -1.
         11   -1    0    0    0    0 -0.00000000000E+00 -0.00000000000E+00 -0.45593999997E+02  0.45594000000E+02  0.51100000000E-03 0.  1.
    9900012    2    1    2    0    0  0.18413304788E+02  0.95444504071E+01 -0.24219327612E+02  0.59301919075E+02  0.49999954492E+02 0.  0.
        -12    1    1    2    0    0 -0.18413304788E+02 -0.95444504071E+01  0.24219327612E+02  0.31886080925E+02  0.00000000000E+00 0.  1.
         11    1    3    3    0    0 -0.11768889072E+02  0.27080236206E+01 -0.36140761833E+01  0.12605621319E+02  0.51100000000E-03 0. -1.
        -11    1    3    3    0    0  0.25074907331E+02  0.27060334977E+00 -0.26513171843E+02  0.36493458116E+02  0.51100000000E-03 0.  1.
        -12    1    3    3    0    0  0.51072865287E+01  0.65658234367E+01  0.59079204148E+01  0.10202839640E+02  0.00000000000E+00 0.  1.
</event>
<event>
 7    1  0.5979290E-013  0.5930192E+02  0.7816164E-02  0.1266605E+00
        -11   -1    0    0    0    0  0.00000000000E+00  0.00000000000E+00  0.45593999997E+02  0.45594000000E+02  0.51100000000E-03 0. -1.
         11   -1    0    0    0    0 -0.00000000000E+00 -0.00000000000E+00 -0.45593999997E+02  0.45594000000E+02  0.51100000000E-03 0.  1.
    9900012    2    1    2    0    0  0.12691792757E+02  0.26833979323E+02  0.11643802047E+02  0.59301918776E+02  0.49999953947E+02 0.  0.
        -12    1    1    2    0    0 -0.12691792757E+02 -0.26833979323E+02 -0.11643802047E+02  0.31886081224E+02  0.00000000000E+00 0.  1.
         11    1    3    3    0    0 -0.22596903146E+01 -0.75583372959E+01  0.11338269456E+02  0.13812712171E+02  0.51100000000E-03 0. -1.
        -11    1    3    3    0    0  0.16416425758E+02  0.12491370087E+02 -0.78522356718E+01  0.22072402828E+02  0.51100000000E-03 0.  1.
        -12    1    3    3    0    0 -0.14649426860E+01  0.21900946532E+02  0.81577682626E+01  0.23416803776E+02  0.00000000000E+00 0.  1.
</event>
<event>
 7    1  0.5979290E-013  0.5930185E+02  0.7816164E-02  0.1266605E+00
        -11   -1    0    0    0    0  0.00000000000E+00  0.00000000000E+00  0.45593999997E+02  0.45594000000E+02  0.51100000000E-03 0. -1.
         11   -1    0    0    0    0 -0.00000000000E+00 -0.00000000000E+00 -0.45593999997E+02  0.45594000000E+02  0.51100000000E-03 0.  1.
    9900012    2    1    2    0    0 -0.19651569509E+02 -0.17963219678E+02 -0.17546079580E+02  0.59301853259E+02  0.49999834460E+02 0.  0.
        -12    1    1    2    0    0  0.19651569509E+02  0.17963219678E+02  0.17546079580E+02  0.31886146741E+02  0.00000000000E+00 0.  1.
         11    1    3    3    0    0 -0.99189082897E+01 -0.82717245757E+01  0.97691535675E+01  0.16193904125E+02  0.51100000000E-03 0. -1.
        -11    1    3    3    0    0  0.75863803477E+01 -0.58773135451E+01 -0.22904373045E+02  0.24833571756E+02  0.51100000000E-03 0.  1.
        -12    1    3    3    0    0 -0.17319041567E+02 -0.38141815569E+01 -0.44108601018E+01  0.18274377379E+02  0.00000000000E+00 0.  1.
</event>
<event>
 7    1  0.5979290E-013  0.5930197E+02  0.7816164E-02  0.1266605E+00
        -11   -1    0    0    0    0  0.00000000000E+00  0.00000000000E+00  0.45593999997E+02  0.45594000000E+02  0.51100000000E-03 0.  1.
         11   -1    0    0    0    0 -0.00000000000E+00 -0.00000000000E+00 -0.45593999997E+02  0.45594000000E+02  0.51100000000E-03 0. -1.
    9900012    2    1    2    0    0  0.25772373084E+02 -0.86391503547E+00  0.18755190644E+02  0.59301972658E+02  0.50000052215E+02 0.  0.
        -12    1    1    2    0    0 -0.25772373084E+02  0.86391503547E+00 -0.18755190644E+02  0.31886027342E+02  0.00000000000E+00 0.  1.
         11    1    3    3    0    0  0.39207752366E+01  0.16286039719E+02 -0.66946944876E+01  0.18039581556E+02  0.51100000000E-03 0. -1.
        -11    1    3    3    0    0  0.21836975375E+01 -0.11910656893E+02  0.10124200796E+02  0.15783907139E+02  0.51100000000E-03 0.  1.
         12    1    3    3    0    0  0.19667900309E+02 -0.52392978619E+01  0.15325684336E+02  0.25478483963E+02  0.00000000000E+00 0. -1.
</event>
<event>
 7    1  0.5979290E-013  0.5930192E+02  0.7816164E-02  0.1266605E+00
        -11   -1    0    0    0    0  0.00000000000E+00  0.00000000000E+00  0.45593999997E+02  0.45594000000E+02  0.51100000000E-03 0.  1.
         11   -1    0    0    0    0 -0.00000000000E+00 -0.00000000000E+00 -0.45593999997E+02  0.45594000000E+02  0.51100000000E-03 0. -1.
    9900012    2    1    2    0    0  0.26743041524E+02  0.16233253190E+02  0.61654988037E+01  0.59301919109E+02  0.49999954554E+02 0.  0.
        -12    1    1    2    0    0 -0.26743041524E+02 -0.16233253190E+02 -0.61654988037E+01  0.31886080891E+02  0.00000000000E+00 0.  1.
         11    1    3    3    0    0  0.34764100696E+02 -0.16379791333E+01  0.14110087675E+02  0.37554230751E+02  0.51100000000E-03 0. -1.
        -11    1    3    3    0    0 -0.24979283729E+01  0.18707438705E+01 -0.23962730212E+01  0.39346478163E+01  0.51100000000E-03 0.  1.
         12    1    3    3    0    0 -0.55231307990E+01  0.16000488453E+02 -0.55483158503E+01  0.17813040541E+02  0.00000000000E+00 0. -1.
</event>
<event>
 7    1  0.5979290E-013  0.5930195E+02  0.7816164E-02  0.1266605E+00
        -11   -1    0    0    0    0  0.00000000000E+00  0.00000000000E+00  0.45593999997E+02  0.45594000000E+02  0.51100000000E-03 0. -1.
         11   -1    0    0    0    0 -0.00000000000E+00 -0.00000000000E+00 -0.45593999997E+02  0.45594000000E+02  0.51100000000E-03 0.  1.
    9900012    2    1    2    0    0  0.21018480444E+02 -0.20316236426E+02  0.12735560154E+02  0.59301945444E+02  0.50000002584E+02 0.  0.
        -12    1    1    2    0    0 -0.21018480444E+02  0.20316236426E+02 -0.12735560154E+02  0.31886054556E+02  0.00000000000E+00 0.  1.
         11    1    3    3    0    0  0.15750721047E+02  0.48399704661E+01 -0.18294616446E+00  0.16478592087E+02  0.51100000000E-03 0. -1.
        -11    1    3    3    0    0 -0.13180409821E+02 -0.69785330866E+01  0.52878927358E+01  0.15823556393E+02  0.51100000000E-03 0.  1.
        -12    1    3    3    0    0  0.18448169218E+02 -0.18177673805E+02  0.76306135825E+01  0.26999796964E+02  0.00000000000E+00 0.  1.
</event>
<event>
 7    1  0.5979290E-013  0.5930215E+02  0.7816164E-02  0.1266604E+00
        -11   -1    0    0    0    0  0.00000000000E+00  0.00000000000E+00  0.45593999997E+02  0.45594000000E+02  0.51100000000E-03 0.  1.
         11   -1    0    0    0    0 -0.00000000000E+00 -0.00000000000E+00 -0.45593999997E+02  0.45594000000E+02  0.51100000000E-03 0. -1.
    9900012    2    1    2    0    0  0.20631021251E+02  0.20450932756E+01 -0.24225733369E+02  0.59302147312E+02  0.50000370740E+02 0.  0.
        -12    1    1    2    0    0 -0.20631021251E+02 -0.20450932756E+01  0.24225733369E+02  0.31885852688E+02  0.00000000000E+00 0.  1.
         11    1    3    3    0    0  0.17200736919E+02  0.91726348626E+01 -0.18872498825E+02  0.27132522791E+02  0.51100000000E-03 0. -1.
        -11    1    3    3    0    0  0.11832429498E+02 -0.59276488334E+01  0.86391222387E+01  0.15804361481E+02  0.51100000000E-03 0.  1.
         12    1    3    3    0    0 -0.84021451655E+01 -0.11998927535E+01 -0.13992356783E+02  0.16365263039E+02  0.00000000000E+00 0. -1.
</event>
<event>
 7    1  0.5979290E-013  0.5930193E+02  0.7816164E-02  0.1266605E+00
        -11   -1    0    0    0    0  0.00000000000E+00  0.00000000000E+00  0.45593999997E+02  0.45594000000E+02  0.51100000000E-03 0.  1.
         11   -1    0    0    0    0 -0.00000000000E+00 -0.00000000000E+00 -0.45593999997E+02  0.45594000000E+02  0.51100000000E-03 0. -1.
    9900012    2    1    2    0    0 -0.28689860990E+02 -0.12154663534E+02  0.67732877773E+01  0.59301930995E+02  0.49999976232E+02 0.  0.
        -12    1    1    2    0    0  0.28689860990E+02  0.12154663534E+02 -0.67732877773E+01  0.31886069005E+02  0.00000000000E+00 0.  1.
         11    1    3    3    0    0 -0.24455988886E+02 -0.90732049993E+01 -0.17243923542E+02  0.31269335470E+02  0.51100000000E-03 0. -1.
        -11    1    3    3    0    0 -0.54633749436E+01  0.17613482106E+01  0.21841094928E+02  0.22582830673E+02  0.51100000000E-03 0.  1.
        -12    1    3    3    0    0  0.12295028387E+01 -0.48428067453E+01  0.21761163913E+01  0.54497648528E+01  0.00000000000E+00 0.  1.
</event>
<event>
 7    1  0.5979290E-013  0.5930193E+02  0.7816164E-02  0.1266605E+00
        -11   -1    0    0    0    0  0.00000000000E+00  0.00000000000E+00  0.45593999997E+02  0.45594000000E+02  0.51100000000E-03 0.  1.
         11   -1    0    0    0    0 -0.00000000000E+00 -0.00000000000E+00 -0.45593999997E+02  0.45594000000E+02  0.51100000000E-03 0. -1.
    9900012    2    1    2    0    0  0.15501233190E+02  0.50024817837E+01 -0.27411833281E+02  0.59301926892E+02  0.49999968748E+02 0.  0.
        -12    1    1    2    0    0 -0.15501233190E+02 -0.50024817837E+01  0.27411833281E+02  0.31886073108E+02  0.00000000000E+00 0.  1.
         11    1    3    3    0    0  0.77521470185E+01  0.60794250226E+01 -0.46253863285E+01  0.10883445730E+02  0.51100000000E-03 0.  1.
        -11    1    3    3    0    0 -0.10469539023E+02  0.14265617659E+02 -0.15463743207E+02  0.23499924442E+02  0.51100000000E-03 0. -1.
        -12    1    3    3    0    0  0.18218625195E+02 -0.15342560898E+02 -0.73227037461E+01  0.24918556721E+02  0.00000000000E+00 0.  1.
</event>
<event>
 7    1  0.5979290E-013  0.5930196E+02  0.7816164E-02  0.1266605E+00
        -11   -1    0    0    0    0  0.00000000000E+00  0.00000000000E+00  0.45593999997E+02  0.45594000000E+02  0.51100000000E-03 0.  1.
         11   -1    0    0    0    0 -0.00000000000E+00 -0.00000000000E+00 -0.45593999997E+02  0.45594000000E+02  0.51100000000E-03 0. -1.
    9900012    2    1    2    0    0 -0.14860133608E+02  0.14325067173E+02 -0.24304086827E+02  0.59301956708E+02  0.50000023125E+02 0.  0.
        -12    1    1    2    0    0  0.14860133608E+02 -0.14325067173E+02  0.24304086827E+02  0.31886043292E+02  0.00000000000E+00 0.  1.
         11    1    3    3    0    0  0.78255741661E+01 -0.73237580637E+01 -0.75218149956E+01  0.13094072869E+02  0.51100000000E-03 0.  1.
        -11    1    3    3    0    0 -0.27071680868E+02  0.24522947054E+02 -0.10463222417E+02  0.37996445372E+02  0.51100000000E-03 0. -1.
         12    1    3    3    0    0  0.43859730941E+01 -0.28741218174E+01 -0.63190494141E+01  0.82114384672E+01  0.00000000000E+00 0. -1.
</event>
<event>
 7    1  0.5979290E-013  0.5930195E+02  0.7816164E-02  0.1266605E+00
        -11   -1    0    0    0    0  0.00000000000E+00  0.00000000000E+00  0.45593999997E+02  0.45594000000E+02  0.51100000000E-03 0.  1.
         11   -1    0    0    0    0 -0.00000000000E+00 -0.00000000000E+00 -0.45593999997E+02  0.45594000000E+02  0.51100000000E-03 0. -1.
    9900012    2    1    2    0    0  0.25877095148E+02 -0.17136196038E+01 -0.18551544277E+02  0.59301947556E+02  0.50000006435E+02 0.  0.
        -12    1    1    2    0    0 -0.25877095148E+02  0.17136196038E+01  0.18551544277E+02  0.31886052444E+02  0.00000000000E+00 0.  1.
         11    1    3    3    0    0  0.15588202098E+02  0.14155502427E+02  0.21735493864E+01  0.21168245340E+02  0.51100000000E-03 0. -1.
        -11    1    3    3    0    0 -0.72945240816E+01 -0.11275312197E+02 -0.11844938581E+02  0.17906571893E+02  0.51100000000E-03 0.  1.
         12    1    3    3    0    0  0.17583417131E+02 -0.45938098340E+01 -0.88801550817E+01  0.20227130322E+02  0.00000000000E+00 0. -1.
</event>
<event>
 7    1  0.5979290E-013  0.5930182E+02  0.7816164E-02  0.1266605E+00
        -11   -1    0    0    0    0  0.00000000000E+00  0.00000000000E+00  0.45593999997E+02  0.45594000000E+02  0.51100000000E-03 0. -1.
         11   -1    0    0    0    0 -0.00000000000E+00 -0.00000000000E+00 -0.45593999997E+02  0.45594000000E+02  0.51100000000E-03 0.  1.
    9900012    2    1    2    0    0 -0.30041402708E+02  0.10042958647E+02 -0.36581246884E+01  0.59301815354E+02  0.49999765329E+02 0.  0.
        -12    1    1    2    0    0  0.30041402708E+02 -0.10042958647E+02  0.36581246884E+01  0.31886184646E+02  0.00000000000E+00 0.  1.
         11    1    3    3    0    0 -0.14452211664E+02 -0.11117735542E+02  0.75066163196E+01  0.19718512987E+02  0.51100000000E-03 0. -1.
        -11    1    3    3    0    0 -0.17945890751E+02  0.26414436328E+02 -0.76507962649E+01  0.32837663211E+02  0.51100000000E-03 0.  1.
         12    1    3    3    0    0  0.23566997075E+01 -0.52537421386E+01 -0.35139447430E+01  0.67456391563E+01  0.00000000000E+00 0. -1.
</event>
<event>
 7    1  0.5979290E-013  0.5930188E+02  0.7816164E-02  0.1266605E+00
        -11   -1    0    0    0    0  0.00000000000E+00  0.00000000000E+00  0.45593999997E+02  0.45594000000E+02  0.51100000000E-03 0.  1.
         11   -1    0    0    0    0 -0.00000000000E+00 -0.00000000000E+00 -0.45593999997E+02  0.45594000000E+02  0.51100000000E-03 0. -1.
    9900012    2    1    2    0    0  0.29268267385E+02  0.18044444751E+01 -0.12523463791E+02  0.59301880122E+02  0.49999883451E+02 0.  0.
        -12    1    1    2    0    0 -0.29268267385E+02 -0.18044444751E+01  0.12523463791E+02  0.31886119878E+02  0.00000000000E+00 0.  1.
         11    1    3    3    0    0  0.14024611438E+02  0.95943611761E+01  0.16770572850E+02  0.23874538871E+02  0.51100000000E-03 0. -1.
        -11    1    3    3    0    0  0.85923641398E+00 -0.24864542659E+01 -0.12135979648E+02  0.12417839760E+02  0.51100000000E-03 0.  1.
         12    1    3    3    0    0  0.14384419533E+02 -0.53034624352E+01 -0.17158056992E+02  0.23009501490E+02  0.00000000000E+00 0. -1.
</event>
<event>
 7    1  0.6945459E-013  0.5930186E+02  0.7816164E-02  0.1266605E+00
        -11   -1    0    0    0    0  0.00000000000E+00  0.00000000000E+00  0.45593999997E+02  0.45594000000E+02  0.51100000000E-03 0.  1.
         11   -1    0    0    0    0 -0.00000000000E+00 -0.00000000000E+00 -0.45593999997E+02  0.45594000000E+02  0.51100000000E-03 0. -1.
    9900012    2    1    2    0    0  0.18466742676E+02 -0.20347738774E+02 -0.16176370064E+02  0.59301858704E+02  0.49999844390E+02 0.  0.
        -12    1    1    2    0    0 -0.18466742676E+02  0.20347738774E+02  0.16176370064E+02  0.31886141296E+02  0.00000000000E+00 0.  1.
         11    1    3    3    0    0 -0.82951232437E+01 -0.10238554731E+02 -0.18390907853E+02  0.22624379871E+02  0.51100000000E-03 0. -1.
        -11    1    3    3    0    0  0.17641743941E+02 -0.67415869783E+01  0.12403174714E+02  0.22594664580E+02  0.51100000000E-03 0.  1.
         12    1    3    3    0    0  0.91201219786E+01 -0.33675970650E+01 -0.10188636925E+02  0.14082814253E+02  0.00000000000E+00 0. -1.
</event>
<event>
 7    1  0.5979290E-013  0.5930194E+02  0.7816164E-02  0.1266605E+00
        -11   -1    0    0    0    0  0.00000000000E+00  0.00000000000E+00  0.45593999997E+02  0.45594000000E+02  0.51100000000E-03 0. -1.
         11   -1    0    0    0    0 -0.00000000000E+00 -0.00000000000E+00 -0.45593999997E+02  0.45594000000E+02  0.51100000000E-03 0.  1.
    9900012    2    1    2    0    0 -0.21657117957E+02  0.91713034007E+01  0.21530846045E+02  0.59301938850E+02  0.49999990557E+02 0.  0.
        -12    1    1    2    0    0  0.21657117957E+02 -0.91713034007E+01 -0.21530846045E+02  0.31886061150E+02  0.00000000000E+00 0.  1.
         11    1    3    3    0    0  0.21580507501E+01 -0.38033924916E+01  0.13629323728E+02  0.14313680276E+02  0.51100000000E-03 0. -1.
        -11    1    3    3    0    0  0.23360128880E+01  0.17110224792E+02 -0.29790161297E+00  0.17271522639E+02  0.51100000000E-03 0.  1.
        -12    1    3    3    0    0 -0.26151181595E+02 -0.41355288999E+01  0.81994239294E+01  0.27716735935E+02  0.00000000000E+00 0.  1.
</event>
<event>
 7    1  0.5979290E-013  0.5930195E+02  0.7816164E-02  0.1266605E+00
        -11   -1    0    0    0    0  0.00000000000E+00  0.00000000000E+00  0.45593999997E+02  0.45594000000E+02  0.51100000000E-03 0.  1.
         11   -1    0    0    0    0 -0.00000000000E+00 -0.00000000000E+00 -0.45593999997E+02  0.45594000000E+02  0.51100000000E-03 0. -1.
    9900012    2    1    2    0    0 -0.14366525152E+02 -0.61728126905E+01 -0.27788834904E+02  0.59301952789E+02  0.50000015978E+02 0.  0.
        -12    1    1    2    0    0  0.14366525152E+02  0.61728126905E+01  0.27788834904E+02  0.31886047211E+02  0.00000000000E+00 0.  1.
         11    1    3    3    0    0 -0.24649183451E+01 -0.12577563787E+01 -0.10183320852E+02  0.10552620404E+02  0.51100000000E-03 0. -1.
        -11    1    3    3    0    0  0.14579843644E+02  0.38359898257E+01 -0.14096155760E+02  0.20639483184E+02  0.51100000000E-03 0.  1.
        -12    1    3    3    0    0 -0.26481450451E+02 -0.87510461375E+01 -0.35093582913E+01  0.28109849201E+02  0.00000000000E+00 0.  1.
</event>
<event>
 7    1  0.5979290E-013  0.5930193E+02  0.7816164E-02  0.1266605E+00
        -11   -1    0    0    0    0  0.00000000000E+00  0.00000000000E+00  0.45593999997E+02  0.45594000000E+02  0.51100000000E-03 0. -1.
         11   -1    0    0    0    0 -0.00000000000E+00 -0.00000000000E+00 -0.45593999997E+02  0.45594000000E+02  0.51100000000E-03 0.  1.
    9900012    2    1    2    0    0 -0.48913496651E+01  0.22574404759E+01  0.31427700671E+02  0.59301926104E+02  0.49999967311E+02 0.  0.
        -12    1    1    2    0    0  0.48913496651E+01 -0.22574404759E+01 -0.31427700671E+02  0.31886073896E+02  0.00000000000E+00 0.  1.
         11    1    3    3    0    0 -0.12302520064E+02 -0.93514763847E+01  0.31445926243E+01  0.15769926237E+02  0.51100000000E-03 0.  1.
        -11    1    3    3    0    0  0.74890188163E+01  0.35181129193E+00  0.31047739225E+02  0.31940120307E+02  0.51100000000E-03 0. -1.
        -12    1    3    3    0    0 -0.77848417344E-01  0.11257105569E+02 -0.27646311777E+01  0.11591879559E+02  0.00000000000E+00 0.  1.
</event>
<event>
 7    1  0.5979290E-013  0.5930196E+02  0.7816164E-02  0.1266605E+00
        -11   -1    0    0    0    0  0.00000000000E+00  0.00000000000E+00  0.45593999997E+02  0.45594000000E+02  0.51100000000E-03 0.  1.
         11   -1    0    0    0    0 -0.00000000000E+00 -0.00000000000E+00 -0.45593999997E+02  0.45594000000E+02  0.51100000000E-03 0. -1.
    9900012    2    1    2    0    0  0.18188221147E+02 -0.20923813762E+02 -0.15751256394E+02  0.59301961538E+02  0.50000031934E+02 0.  0.
        -12    1    1    2    0    0 -0.18188221147E+02  0.20923813762E+02  0.15751256394E+02  0.31886038462E+02  0.00000000000E+00 0.  1.
         11    1    3    3    0    0  0.50164293521E+01 -0.44625814181E+01 -0.67701982389E+01  0.95349242689E+01  0.51100000000E-03 0. -1.
        -11    1    3    3    0    0 -0.83501587735E+00 -0.86166712219E+01  0.17085426713E+02  0.19153487429E+02  0.51100000000E-03 0.  1.
        -12    1    3    3    0    0  0.14006807672E+02 -0.78445611218E+01 -0.26066484869E+02  0.30613549839E+02  0.00000000000E+00 0.  1.
</event>
<event>
 7    1  0.5979290E-013  0.5930194E+02  0.7816164E-02  0.1266605E+00
        -11   -1    0    0    0    0  0.00000000000E+00  0.00000000000E+00  0.45593999997E+02  0.45594000000E+02  0.51100000000E-03 0. -1.
         11   -1    0    0    0    0 -0.00000000000E+00 -0.00000000000E+00 -0.45593999997E+02  0.45594000000E+02  0.51100000000E-03 0.  1.
    9900012    2    1    2    0    0 -0.21461797207E+02 -0.14940981773E+02  0.18244968191E+02  0.59301944427E+02  0.50000000729E+02 0.  0.
        -12    1    1    2    0    0  0.21461797207E+02  0.14940981773E+02 -0.18244968191E+02  0.31886055573E+02  0.00000000000E+00 0.  1.
         11    1    3    3    0    0 -0.12500916295E+02 -0.26353007384E+02  0.29000902714E+02  0.41131572604E+02  0.51100000000E-03 0. -1.
        -11    1    3    3    0    0 -0.74381183094E+01  0.10497041912E+02 -0.93259817390E+01  0.15889853006E+02  0.51100000000E-03 0.  1.
         12    1    3    3    0    0 -0.15227626024E+01  0.91498369912E+00 -0.14299527844E+01  0.22805188179E+01  0.00000000000E+00 0. -1.
</event>
<event>
 7    1  0.5979290E-013  0.5930195E+02  0.7816164E-02  0.1266605E+00
        -11   -1    0    0    0    0  0.00000000000E+00  0.00000000000E+00  0.45593999997E+02  0.45594000000E+02  0.51100000000E-03 0.  1.
         11   -1    0    0    0    0 -0.00000000000E+00 -0.00000000000E+00 -0.45593999997E+02  0.45594000000E+02  0.51100000000E-03 0. -1.
    9900012    2    1    2    0    0  0.27088863115E+01 -0.62641266321E+01 -0.31147117435E+02  0.59301948629E+02  0.50000008391E+02 0.  0.
        -12    1    1    2    0    0 -0.27088863115E+01  0.62641266321E+01  0.31147117435E+02  0.31886051371E+02  0.00000000000E+00 0.  1.
         11    1    3    3    0    0  0.41238735834E+01 -0.72824743662E+00 -0.26131580615E+02  0.26464999213E+02  0.51100000000E-03 0. -1.
        -11    1    3    3    0    0  0.10212561225E+02  0.71496409386E+01  0.44013198812E+01  0.13220642544E+02  0.51100000000E-03 0.  1.
        -12    1    3    3    0    0 -0.11627548497E+02 -0.12685520134E+02 -0.94168567020E+01  0.19616306871E+02  0.00000000000E+00 0.  1.
</event>
<event>
 7    1  0.5979290E-013  0.5930196E+02  0.7816164E-02  0.1266605E+00
        -11   -1    0    0    0    0  0.00000000000E+00  0.00000000000E+00  0.45593999997E+02  0.45594000000E+02  0.51100000000E-03 0.  1.
         11   -1    0    0    0    0 -0.00000000000E+00 -0.00000000000E+00 -0.45593999997E+02  0.45594000000E+02  0.51100000000E-03 0. -1.
    9900012    2    1    2    0    0  0.35465960187E+01 -0.28556046375E+02 -0.13736560922E+02  0.59301964908E+02  0.50000038081E+02 0.  0.
        -12    1    1    2    0    0 -0.35465960187E+01  0.28556046375E+02  0.13736560922E+02  0.31886035092E+02  0.00000000000E+00 0.  1.
         11    1    3    3    0    0  0.50401767910E+01 -0.26973942864E+02 -0.18449219920E+02  0.33066156288E+02  0.51100000000E-03 0. -1.
        -11    1    3    3    0    0 -0.12642719212E+02 -0.27251766194E+01 -0.21258386210E+01  0.13106644376E+02  0.51100000000E-03 0.  1.
         12    1    3    3    0    0  0.11149138440E+02  0.11430731084E+01  0.68384976190E+01  0.13129164245E+02  0.00000000000E+00 0. -1.
</event>
<event>
 7    1  0.5979290E-013  0.5930194E+02  0.7816164E-02  0.1266605E+00
        -11   -1    0    0    0    0  0.00000000000E+00  0.00000000000E+00  0.45593999997E+02  0.45594000000E+02  0.51100000000E-03 0. -1.
         11   -1    0    0    0    0 -0.00000000000E+00 -0.00000000000E+00 -0.45593999997E+02  0.45594000000E+02  0.51100000000E-03 0.  1.
    9900012    2    1    2    0    0 -0.17514855979E+02  0.26591655958E+02  0.16836676217E+01  0.59301935909E+02  0.49999985194E+02 0.  0.
        -12    1    1    2    0    0  0.17514855979E+02 -0.26591655958E+02 -0.16836676217E+01  0.31886064091E+02  0.00000000000E+00 0.  1.
         11    1    3    3    0    0 -0.25290632480E+01  0.14897926436E+02  0.25439247734E+01  0.15323704726E+02  0.51100000000E-03 0. -1.
        -11    1    3    3    0    0  0.54991598413E+01 -0.75301400555E+01  0.10170238648E+02  0.13797736141E+02  0.51100000000E-03 0.  1.
        -12    1    3    3    0    0 -0.20484952572E+02  0.19223869577E+02 -0.11030495799E+02  0.30180495042E+02  0.00000000000E+00 0.  1.
</event>
<event>
 7    1  0.5979290E-013  0.5930187E+02  0.7816164E-02  0.1266605E+00
        -11   -1    0    0    0    0  0.00000000000E+00  0.00000000000E+00  0.45593999997E+02  0.45594000000E+02  0.51100000000E-03 0.  1.
         11   -1    0    0    0    0 -0.00000000000E+00 -0.00000000000E+00 -0.45593999997E+02  0.45594000000E+02  0.51100000000E-03 0. -1.
    9900012    2    1    2    0    0 -0.33455348848E+01  0.91620962862E+01 -0.30357681875E+02  0.59301867264E+02  0.49999860001E+02 0.  0.
        -12    1    1    2    0    0  0.33455348848E+01 -0.91620962862E+01  0.30357681875E+02  0.31886132736E+02  0.00000000000E+00 0.  1.
         11    1    3    3    0    0  0.15774279712E+01 -0.58177327407E+01 -0.27709772725E+02  0.28357817228E+02  0.51100000000E-03 0. -1.
        -11    1    3    3    0    0  0.60587774769E+01 -0.50715583393E+01 -0.15784856998E+01  0.80573634564E+01  0.51100000000E-03 0.  1.
         12    1    3    3    0    0 -0.10981740333E+02  0.20051387366E+02 -0.10694234510E+01  0.22886686579E+02  0.00000000000E+00 0. -1.
</event>
<event>
 7    1  0.5979290E-013  0.5930214E+02  0.7816164E-02  0.1266604E+00
        -11   -1    0    0    0    0  0.00000000000E+00  0.00000000000E+00  0.45593999997E+02  0.45594000000E+02  0.51100000000E-03 0.  1.
         11   -1    0    0    0    0 -0.00000000000E+00 -0.00000000000E+00 -0.45593999997E+02  0.45594000000E+02  0.51100000000E-03 0. -1.
    9900012    2    1    2    0    0 -0.88300485664E+01  0.88963470801E+01 -0.29318827227E+02  0.59302135122E+02  0.50000348508E+02 0.  0.
        -12    1    1    2    0    0  0.88300485664E+01 -0.88963470801E+01  0.29318827227E+02  0.31885864878E+02  0.00000000000E+00 0.  1.
         11    1    3    3    0    0 -0.27717995048E+02  0.63403581453E+01 -0.17257988895E+02  0.33261472785E+02  0.51100000000E-03 0. -1.
        -11    1    3    3    0    0  0.70747413024E+01 -0.26693883297E+01 -0.10628967764E+02  0.13044253698E+02  0.51100000000E-03 0.  1.
         12    1    3    3    0    0  0.11813205179E+02  0.52253772645E+01 -0.14318705684E+01  0.12996408638E+02  0.00000000000E+00 0. -1.
</event>
<event>
 7    1  0.5979290E-013  0.5930194E+02  0.7816164E-02  0.1266605E+00
        -11   -1    0    0    0    0  0.00000000000E+00  0.00000000000E+00  0.45593999997E+02  0.45594000000E+02  0.51100000000E-03 0.  1.
         11   -1    0    0    0    0 -0.00000000000E+00 -0.00000000000E+00 -0.45593999997E+02  0.45594000000E+02  0.51100000000E-03 0. -1.
    9900012    2    1    2    0    0 -0.10634408780E+01 -0.29268945930E+02  0.12606306701E+02  0.59301936101E+02  0.49999985543E+02 0.  0.
        -12    1    1    2    0    0  0.10634408780E+01  0.29268945930E+02 -0.12606306701E+02  0.31886063899E+02  0.00000000000E+00 0.  1.
         11    1    3    3    0    0  0.10900343609E+02  0.48741129436E+01 -0.16246592385E+01  0.12050476575E+02  0.51100000000E-03 0. -1.
        -11    1    3    3    0    0 -0.11119356971E+02 -0.38665937455E+02  0.14153017171E+02  0.42649768042E+02  0.51100000000E-03 0.  1.
        -12    1    3    3    0    0 -0.84442751624E+00  0.45228785819E+01  0.77948768232E-01  0.46016914833E+01  0.00000000000E+00 0.  1.
</event>
<event>
 7    1  0.5979290E-013  0.5930193E+02  0.7816164E-02  0.1266605E+00
        -11   -1    0    0    0    0  0.00000000000E+00  0.00000000000E+00  0.45593999997E+02  0.45594000000E+02  0.51100000000E-03 0. -1.
         11   -1    0    0    0    0 -0.00000000000E+00 -0.00000000000E+00 -0.45593999997E+02  0.45594000000E+02  0.51100000000E-03 0.  1.
    9900012    2    1    2    0    0 -0.26722934262E+02 -0.16072619844E+02 -0.66541047408E+01  0.59301930406E+02  0.49999975158E+02 0.  0.
        -12    1    1    2    0    0  0.26722934262E+02  0.16072619844E+02  0.66541047408E+01  0.31886069594E+02  0.00000000000E+00 0.  1.
         11    1    3    3    0    0 -0.16000121669E+01 -0.25299613539E+02 -0.59788035688E+01  0.26045663296E+02  0.51100000000E-03 0. -1.
        -11    1    3    3    0    0  0.97505156518E+00  0.55273255610E+01 -0.37028364570E+01  0.67240651024E+01  0.51100000000E-03 0.  1.
         12    1    3    3    0    0 -0.26097973660E+02  0.36996681344E+01  0.30275352851E+01  0.26532202008E+02  0.00000000000E+00 0. -1.
</event>
<event>
 7    1  0.5979290E-013  0.5930183E+02  0.7816164E-02  0.1266605E+00
        -11   -1    0    0    0    0  0.00000000000E+00  0.00000000000E+00  0.45593999997E+02  0.45594000000E+02  0.51100000000E-03 0. -1.
         11   -1    0    0    0    0 -0.00000000000E+00 -0.00000000000E+00 -0.45593999997E+02  0.45594000000E+02  0.51100000000E-03 0.  1.
    9900012    2    1    2    0    0 -0.43359646154E+00 -0.29940954736E+02  0.10958052359E+02  0.59301832342E+02  0.49999796312E+02 0.  0.
        -12    1    1    2    0    0  0.43359646154E+00  0.29940954736E+02 -0.10958052359E+02  0.31886167658E+02  0.00000000000E+00 0.  1.
         11    1    3    3    0    0 -0.82528830593E+01 -0.29702571417E+02  0.39274530388E+01  0.31076964382E+02  0.51100000000E-03 0. -1.
        -11    1    3    3    0    0  0.43068437717E+01  0.11275993195E+02  0.10170367417E+02  0.15783957028E+02  0.51100000000E-03 0.  1.
        -12    1    3    3    0    0  0.35124428261E+01 -0.11514376514E+02 -0.31397680962E+01  0.12440910932E+02  0.00000000000E+00 0.  1.
</event>
<event>
 7    1  0.5979290E-013  0.5930196E+02  0.7816164E-02  0.1266605E+00
        -11   -1    0    0    0    0  0.00000000000E+00  0.00000000000E+00  0.45593999997E+02  0.45594000000E+02  0.51100000000E-03 0.  1.
         11   -1    0    0    0    0 -0.00000000000E+00 -0.00000000000E+00 -0.45593999997E+02  0.45594000000E+02  0.51100000000E-03 0. -1.
    9900012    2    1    2    0    0  0.14803836007E+02 -0.94693422689E+01 -0.26606345392E+02  0.59301958875E+02  0.50000027078E+02 0.  0.
        -12    1    1    2    0    0 -0.14803836007E+02  0.94693422689E+01  0.26606345392E+02  0.31886041125E+02  0.00000000000E+00 0.  1.
         11    1    3    3    0    0  0.16981430331E+02  0.12755369265E+02 -0.21617100751E+02  0.30304578306E+02  0.51100000000E-03 0. -1.
        -11    1    3    3    0    0 -0.52150485335E+01 -0.18939601749E+02 -0.10195594576E+02  0.22132677078E+02  0.51100000000E-03 0.  1.
         12    1    3    3    0    0  0.30374542094E+01 -0.32851097847E+01  0.52063499351E+01  0.68647034909E+01  0.00000000000E+00 0. -1.
</event>
<event>
 7    1  0.5979290E-013  0.5930196E+02  0.7816164E-02  0.1266605E+00
        -11   -1    0    0    0    0  0.00000000000E+00  0.00000000000E+00  0.45593999997E+02  0.45594000000E+02  0.51100000000E-03 0.  1.
         11   -1    0    0    0    0 -0.00000000000E+00 -0.00000000000E+00 -0.45593999997E+02  0.45594000000E+02  0.51100000000E-03 0. -1.
    9900012    2    1    2    0    0 -0.13028628634E+02 -0.27396178765E+02 -0.98195601001E+01  0.59301960177E+02  0.50000029453E+02 0.  0.
        -12    1    1    2    0    0  0.13028628634E+02  0.27396178765E+02  0.98195601001E+01  0.31886039823E+02  0.00000000000E+00 0.  1.
         11    1    3    3    0    0  0.50340445294E+01  0.29228522302E+01 -0.10542070726E+02  0.12042421889E+02  0.51100000000E-03 0. -1.
        -11    1    3    3    0    0 -0.83984929708E+01 -0.17985692161E+02  0.15909375456E+02  0.25438711334E+02  0.51100000000E-03 0.  1.
        -12    1    3    3    0    0 -0.96641801928E+01 -0.12333338834E+02 -0.15186864830E+02  0.21820826954E+02  0.00000000000E+00 0.  1.
</event>
<event>
 7    1  0.5979290E-013  0.5930197E+02  0.7816164E-02  0.1266605E+00
        -11   -1    0    0    0    0  0.00000000000E+00  0.00000000000E+00  0.45593999997E+02  0.45594000000E+02  0.51100000000E-03 0. -1.
         11   -1    0    0    0    0 -0.00000000000E+00 -0.00000000000E+00 -0.45593999997E+02  0.45594000000E+02  0.51100000000E-03 0.  1.
    9900012    2    1    2    0    0 -0.13768924509E+02 -0.27201866583E+02 -0.93377861645E+01  0.59301967349E+02  0.50000042532E+02 0.  0.
        -12    1    1    2    0    0  0.13768924509E+02  0.27201866583E+02  0.93377861645E+01  0.31886032651E+02  0.00000000000E+00 0.  1.
         11    1    3    3    0    0 -0.31626943542E+01  0.88380071032E+00 -0.20970436421E+02  0.21225996872E+02  0.51100000000E-03 0. -1.
        -11    1    3    3    0    0  0.17117656139E+01 -0.18927490547E+02  0.31873036760E+00  0.19007409851E+02  0.51100000000E-03 0.  1.
         12    1    3    3    0    0 -0.12317995769E+02 -0.91581767464E+01  0.11313919889E+02  0.19068560626E+02  0.00000000000E+00 0. -1.
</event>
<event>
 7    1  0.5979290E-013  0.5930194E+02  0.7816164E-02  0.1266605E+00
        -11   -1    0    0    0    0  0.00000000000E+00  0.00000000000E+00  0.45593999997E+02  0.45594000000E+02  0.51100000000E-03 0.  1.
         11   -1    0    0    0    0 -0.00000000000E+00 -0.00000000000E+00 -0.45593999997E+02  0.45594000000E+02  0.51100000000E-03 0. -1.
    9900012    2    1    2    0    0  0.30790426578E+02 -0.81137546403E+01 -0.16843859293E+01  0.59301944440E+02  0.50000000752E+02 0.  0.
        -12    1    1    2    0    0 -0.30790426578E+02  0.81137546403E+01  0.16843859293E+01  0.31886055560E+02  0.00000000000E+00 0.  1.
         11    1    3    3    0    0  0.10778295340E+02 -0.70385645492E+01  0.16378620916E+02  0.20832000978E+02  0.51100000000E-03 0.  1.
        -11    1    3    3    0    0  0.48219601025E+01 -0.53808031030E+01 -0.21178356044E+02  0.22376932459E+02  0.51100000000E-03 0. -1.
         12    1    3    3    0    0  0.15190171136E+02  0.43056130119E+01  0.31153491986E+01  0.16093011004E+02  0.00000000000E+00 0. -1.
</event>
<event>
 7    1  0.5979290E-013  0.5930193E+02  0.7816164E-02  0.1266605E+00
        -11   -1    0    0    0    0  0.00000000000E+00  0.00000000000E+00  0.45593999997E+02  0.45594000000E+02  0.51100000000E-03 0. -1.
         11   -1    0    0    0    0 -0.00000000000E+00 -0.00000000000E+00 -0.45593999997E+02  0.45594000000E+02  0.51100000000E-03 0.  1.
    9900012    2    1    2    0    0  0.14290283925E+02 -0.80230082560E+01  0.27352158858E+02  0.59301929839E+02  0.49999974122E+02 0.  0.
        -12    1    1    2    0    0 -0.14290283925E+02  0.80230082560E+01 -0.27352158858E+02  0.31886070161E+02  0.00000000000E+00 0.  1.
         11    1    3    3    0    0  0.12741058634E+02 -0.13517523454E+02  0.38965556213E+02  0.43166799588E+02  0.51100000000E-03 0. -1.
        -11    1    3    3    0    0  0.47491538111E+01  0.73092523518E+00 -0.80655481332E+01  0.93883854081E+01  0.51100000000E-03 0.  1.
         12    1    3    3    0    0 -0.31999285201E+01  0.47635899629E+01 -0.35478492215E+01  0.67467448422E+01  0.00000000000E+00 0. -1.
</event>
<event>
 7    1  0.5979290E-013  0.5930198E+02  0.7816164E-02  0.1266605E+00
        -11   -1    0    0    0    0  0.00000000000E+00  0.00000000000E+00  0.45593999997E+02  0.45594000000E+02  0.51100000000E-03 0. -1.
         11   -1    0    0    0    0 -0.00000000000E+00 -0.00000000000E+00 -0.45593999997E+02  0.45594000000E+02  0.51100000000E-03 0.  1.
    9900012    2    1    2    0    0  0.21018548113E+02  0.10011744570E+02  0.21787701762E+02  0.59301978891E+02  0.50000063582E+02 0.  0.
        -12    1    1    2    0    0 -0.21018548113E+02 -0.10011744570E+02 -0.21787701762E+02  0.31886021109E+02  0.00000000000E+00 0.  1.
         11    1    3    3    0    0  0.55683633064E+01  0.16810893567E+02  0.32105279849E+02  0.36665539774E+02  0.51100000000E-03 0. -1.
        -11    1    3    3    0    0  0.69366018906E+01  0.24813055570E+01 -0.23457975904E+01  0.77314998320E+01  0.51100000000E-03 0.  1.
         12    1    3    3    0    0  0.85135829163E+01 -0.92804545538E+01 -0.79717804973E+01  0.14904939285E+02  0.00000000000E+00 0. -1.
</event>
<event>
 7    1  0.5979290E-013  0.5930193E+02  0.7816164E-02  0.1266605E+00
        -11   -1    0    0    0    0  0.00000000000E+00  0.00000000000E+00  0.45593999997E+02  0.45594000000E+02  0.51100000000E-03 0.  1.
         11   -1    0    0    0    0 -0.00000000000E+00 -0.00000000000E+00 -0.45593999997E+02  0.45594000000E+02  0.51100000000E-03 0. -1.
    9900012    2    1    2    0    0 -0.19627261005E+02 -0.11305718621E+02 -0.22442653832E+02  0.59301931582E+02  0.49999977302E+02 0.  0.
        -12    1    1    2    0    0  0.19627261005E+02  0.11305718621E+02  0.22442653832E+02  0.31886068418E+02  0.00000000000E+00 0.  1.
         11    1    3    3    0    0 -0.23294434140E+02 -0.59040915709E+01 -0.23838247173E+02  0.33848943672E+02  0.51100000000E-03 0. -1.
        -11    1    3    3    0    0  0.10450314746E+02 -0.12011604936E+02  0.35983036791E+00  0.15925363719E+02  0.51100000000E-03 0.  1.
         12    1    3    3    0    0 -0.67831416119E+01  0.66099778859E+01  0.10357629729E+01  0.95276241905E+01  0.00000000000E+00 0. -1.
</event>
<event>
 7    1  0.6762678E-013  0.5930194E+02  0.7816164E-02  0.1266605E+00
        -11   -1    0    0    0    0  0.00000000000E+00  0.00000000000E+00  0.45593999997E+02  0.45594000000E+02  0.51100000000E-03 0. -1.
         11   -1    0    0    0    0 -0.00000000000E+00 -0.00000000000E+00 -0.45593999997E+02  0.45594000000E+02  0.51100000000E-03 0.  1.
    9900012    2    1    2    0    0  0.13733886887E+02  0.51171274165E+01  0.28318121700E+02  0.59301942566E+02  0.49999997335E+02 0.  0.
        -12    1    1    2    0    0 -0.13733886887E+02 -0.51171274165E+01 -0.28318121700E+02  0.31886057434E+02  0.00000000000E+00 0.  1.
         11    1    3    3    0    0  0.23047801854E+02 -0.70589361538E+01  0.26500672188E+01  0.24249796008E+02  0.51100000000E-03 0. -1.
        -11    1    3    3    0    0 -0.86546156503E+01  0.21101708095E+01  0.17287787275E+01  0.90743522661E+01  0.51100000000E-03 0.  1.
         12    1    3    3    0    0 -0.65929931595E+00  0.10065892761E+02  0.23939275754E+02  0.25977794292E+02  0.00000000000E+00 0. -1.
</event>
<event>
 7    1  0.5979290E-013  0.5930190E+02  0.7816164E-02  0.1266605E+00
        -11   -1    0    0    0    0  0.00000000000E+00  0.00000000000E+00  0.45593999997E+02  0.45594000000E+02  0.51100000000E-03 0.  1.
         11   -1    0    0    0    0 -0.00000000000E+00 -0.00000000000E+00 -0.45593999997E+02  0.45594000000E+02  0.51100000000E-03 0. -1.
    9900012    2    1    2    0    0 -0.15286752790E+02 -0.10219396671E+01 -0.27964164077E+02  0.59301895753E+02  0.49999911958E+02 0.  0.
        -12    1    1    2    0    0  0.15286752790E+02  0.10219396671E+01  0.27964164077E+02  0.31886104247E+02  0.00000000000E+00 0.  1.
         11    1    3    3    0    0 -0.22168002840E+02 -0.72608897941E+01 -0.32358056028E+02  0.39889656062E+02  0.51100000000E-03 0. -1.
        -11    1    3    3    0    0  0.10604719988E+02 -0.52192714043E+00  0.18134684823E+00  0.10619104525E+02  0.51100000000E-03 0.  1.
         12    1    3    3    0    0 -0.37234699384E+01  0.67608772674E+01  0.42125451033E+01  0.87931351664E+01  0.00000000000E+00 0. -1.
</event>
<event>
 7    1  0.5979290E-013  0.5930193E+02  0.7816164E-02  0.1266605E+00
        -11   -1    0    0    0    0  0.00000000000E+00  0.00000000000E+00  0.45593999997E+02  0.45594000000E+02  0.51100000000E-03 0. -1.
         11   -1    0    0    0    0 -0.00000000000E+00 -0.00000000000E+00 -0.45593999997E+02  0.45594000000E+02  0.51100000000E-03 0.  1.
    9900012    2    1    2    0    0  0.24964207391E+02  0.14409632837E+02  0.13633491162E+02  0.59301933287E+02  0.49999980411E+02 0.  0.
        -12    1    1    2    0    0 -0.24964207391E+02 -0.14409632837E+02 -0.13633491162E+02  0.31886066713E+02  0.00000000000E+00 0.  1.
         11    1    3    3    0    0  0.26764803792E+01  0.17603112230E+02 -0.11243954347E+02  0.21058480881E+02  0.51100000000E-03 0.  1.
        -11    1    3    3    0    0  0.88180071885E+01 -0.84003040143E+01  0.19178299076E+02  0.22718483973E+02  0.51100000000E-03 0. -1.
        -12    1    3    3    0    0  0.13469719824E+02  0.52068246211E+01  0.56991464336E+01  0.15524968433E+02  0.00000000000E+00 0.  1.
</event>
<event>
 7    1  0.5979290E-013  0.5930194E+02  0.7816164E-02  0.1266605E+00
        -11   -1    0    0    0    0  0.00000000000E+00  0.00000000000E+00  0.45593999997E+02  0.45594000000E+02  0.51100000000E-03 0.  1.
         11   -1    0    0    0    0 -0.00000000000E+00 -0.00000000000E+00 -0.45593999997E+02  0.45594000000E+02  0.51100000000E-03 0. -1.
    9900012    2    1    2    0    0  0.42598077045E+01  0.12641395463E+02 -0.28961523694E+02  0.59301941987E+02  0.49999996278E+02 0.  0.
        -12    1    1    2    0    0 -0.42598077045E+01 -0.12641395463E+02  0.28961523694E+02  0.31886058013E+02  0.00000000000E+00 0.  1.
         11    1    3    3    0    0  0.58914885243E+01  0.15179933780E+02 -0.27252275068E+02  0.31746283613E+02  0.51100000000E-03 0. -1.
        -11    1    3    3    0    0 -0.49318200645E+01 -0.13585753428E+02  0.35505734126E+01  0.14882947194E+02  0.51100000000E-03 0.  1.
        -12    1    3    3    0    0  0.33001392447E+01  0.11047215111E+02 -0.52598220385E+01  0.12672711179E+02  0.00000000000E+00 0.  1.
</event>
<event>
 7    1  0.5979290E-013  0.5930193E+02  0.7816164E-02  0.1266605E+00
        -11   -1    0    0    0    0  0.00000000000E+00  0.00000000000E+00  0.45593999997E+02  0.45594000000E+02  0.51100000000E-03 0. -1.
         11   -1    0    0    0    0 -0.00000000000E+00 -0.00000000000E+00 -0.45593999997E+02  0.45594000000E+02  0.51100000000E-03 0.  1.
    9900012    2    1    2    0    0  0.23076441303E+02 -0.28001681968E+01  0.21825629663E+02  0.59301934151E+02  0.49999981987E+02 0.  0.
        -12    1    1    2    0    0 -0.23076441303E+02  0.28001681968E+01 -0.21825629663E+02  0.31886065849E+02  0.00000000000E+00 0.  1.
         11    1    3    3    0    0 -0.58186408576E+01  0.78086686060E+01 -0.41113889420E+00  0.97468416567E+01  0.51100000000E-03 0.  1.
        -11    1    3    3    0    0  0.14843474498E+02 -0.56863896990E+01 -0.65136115576E+01  0.17178209999E+02  0.51100000000E-03 0. -1.
         12    1    3    3    0    0  0.14051607663E+02 -0.49224471038E+01  0.28750380114E+02  0.32376882495E+02  0.00000000000E+00 0. -1.
</event>
<event>
 7    1  0.5979290E-013  0.5930194E+02  0.7816164E-02  0.1266605E+00
        -11   -1    0    0    0    0  0.00000000000E+00  0.00000000000E+00  0.45593999997E+02  0.45594000000E+02  0.51100000000E-03 0. -1.
         11   -1    0    0    0    0 -0.00000000000E+00 -0.00000000000E+00 -0.45593999997E+02  0.45594000000E+02  0.51100000000E-03 0.  1.
    9900012    2    1    2    0    0  0.94199388037E+01  0.26327872988E+02  0.15324115705E+02  0.59301942462E+02  0.49999997145E+02 0.  0.
        -12    1    1    2    0    0 -0.94199388037E+01 -0.26327872988E+02 -0.15324115705E+02  0.31886057538E+02  0.00000000000E+00 0.  1.
         11    1    3    3    0    0  0.18513158790E+02  0.22167317345E+02  0.13560301385E+02  0.31906249867E+02  0.51100000000E-03 0. -1.
        -11    1    3    3    0    0 -0.73958101632E+01  0.21592273018E+01  0.13405547543E+02  0.15461855506E+02  0.51100000000E-03 0.  1.
         12    1    3    3    0    0 -0.16974098228E+01  0.20013283413E+01 -0.11641733223E+02  0.11933837089E+02  0.00000000000E+00 0. -1.
</event>
<event>
 7    1  0.5979290E-013  0.5930193E+02  0.7816164E-02  0.1266605E+00
        -11   -1    0    0    0    0  0.00000000000E+00  0.00000000000E+00  0.45593999997E+02  0.45594000000E+02  0.51100000000E-03 0.  1.
         11   -1    0    0    0    0 -0.00000000000E+00 -0.00000000000E+00 -0.45593999997E+02  0.45594000000E+02  0.51100000000E-03 0. -1.
    9900012    2    1    2    0    0 -0.16359709911E+02 -0.21805792750E+02  0.16540509029E+02  0.59301934944E+02  0.49999983434E+02 0.  0.
        -12    1    1    2    0    0  0.16359709911E+02  0.21805792750E+02 -0.16540509029E+02  0.31886065056E+02  0.00000000000E+00 0.  1.
         11    1    3    3    0    0 -0.23902844888E+02 -0.25332082774E+02  0.41918008333E+01  0.35080359261E+02  0.51100000000E-03 0. -1.
        -11    1    3    3    0    0  0.91120098355E+00  0.10357089324E+02  0.99775751303E+01  0.14410121174E+02  0.51100000000E-03 0.  1.
         12    1    3    3    0    0  0.66319339939E+01 -0.68307993003E+01  0.23711330650E+01  0.98114545095E+01  0.00000000000E+00 0. -1.
</event>
<event>
 7    1  0.5979290E-013  0.5930195E+02  0.7816164E-02  0.1266605E+00
        -11   -1    0    0    0    0  0.00000000000E+00  0.00000000000E+00  0.45593999997E+02  0.45594000000E+02  0.51100000000E-03 0.  1.
         11   -1    0    0    0    0 -0.00000000000E+00 -0.00000000000E+00 -0.45593999997E+02  0.45594000000E+02  0.51100000000E-03 0. -1.
    9900012    2    1    2    0    0  0.40163435982E+01  0.30354736751E+02 -0.88982536813E+01  0.59301953245E+02  0.50000016809E+02 0.  0.
        -12    1    1    2    0    0 -0.40163435982E+01 -0.30354736751E+02  0.88982536813E+01  0.31886046755E+02  0.00000000000E+00 0.  1.
         11    1    3    3    0    0 -0.32030958878E+01 -0.53288018113E+01  0.12800497008E+02  0.14230554308E+02  0.51100000000E-03 0.  1.
        -11    1    3    3    0    0  0.89452922711E+01  0.15445218842E+02 -0.43790533368E+01  0.18377952750E+02  0.51100000000E-03 0. -1.
         12    1    3    3    0    0 -0.17258527851E+01  0.20238319720E+02 -0.17319697352E+02  0.26693446186E+02  0.00000000000E+00 0. -1.
</event>
<event>
 7    1  0.5979290E-013  0.5930194E+02  0.7816164E-02  0.1266605E+00
        -11   -1    0    0    0    0  0.00000000000E+00  0.00000000000E+00  0.45593999997E+02  0.45594000000E+02  0.51100000000E-03 0.  1.
         11   -1    0    0    0    0 -0.00000000000E+00 -0.00000000000E+00 -0.45593999997E+02  0.45594000000E+02  0.51100000000E-03 0. -1.
    9900012    2    1    2    0    0  0.13607532143E+02  0.28220545067E+02  0.59292923881E+01  0.59301943437E+02  0.49999998923E+02 0.  0.
        -12    1    1    2    0    0 -0.13607532143E+02 -0.28220545067E+02 -0.59292923881E+01  0.31886056563E+02  0.00000000000E+00 0.  1.
         11    1    3    3    0    0 -0.10543182307E+02  0.92492966150E+01 -0.75286412848E+01  0.15918185226E+02  0.51100000000E-03 0. -1.
        -11    1    3    3    0    0  0.19443477992E+02  0.12075685300E+02  0.21780391733E+02  0.31595197043E+02  0.51100000000E-03 0.  1.
         12    1    3    3    0    0  0.47072364583E+01  0.68955631524E+01 -0.83224580597E+01  0.11788561168E+02  0.00000000000E+00 0. -1.
</event>
<event>
 7    1  0.5979290E-013  0.5930193E+02  0.7816164E-02  0.1266605E+00
        -11   -1    0    0    0    0  0.00000000000E+00  0.00000000000E+00  0.45593999997E+02  0.45594000000E+02  0.51100000000E-03 0.  1.
         11   -1    0    0    0    0 -0.00000000000E+00 -0.00000000000E+00 -0.45593999997E+02  0.45594000000E+02  0.51100000000E-03 0. -1.
    9900012    2    1    2    0    0  0.84653980762E+01 -0.28567173536E+02  0.11356717985E+02  0.59301930756E+02  0.49999975796E+02 0.  0.
        -12    1    1    2    0    0 -0.84653980762E+01  0.28567173536E+02 -0.11356717985E+02  0.31886069244E+02  0.00000000000E+00 0.  1.
         11    1    3    3    0    0  0.94373835058E+01 -0.14504628253E+02 -0.81131632148E+01  0.19112086903E+02  0.51100000000E-03 0. -1.
        -11    1    3    3    0    0  0.13161355465E+02 -0.14545169026E+02  0.16738659709E+02  0.25786933683E+02  0.51100000000E-03 0.  1.
        -12    1    3    3    0    0 -0.14133340895E+02  0.48262374290E+00  0.27312214908E+01  0.14402910170E+02  0.00000000000E+00 0.  1.
</event>
<event>
 7    1  0.5979290E-013  0.5930194E+02  0.7816164E-02  0.1266605E+00
        -11   -1    0    0    0    0  0.00000000000E+00  0.00000000000E+00  0.45593999997E+02  0.45594000000E+02  0.51100000000E-03 0.  1.
         11   -1    0    0    0    0 -0.00000000000E+00 -0.00000000000E+00 -0.45593999997E+02  0.45594000000E+02  0.51100000000E-03 0. -1.
    9900012    2    1    2    0    0 -0.27976643276E+02 -0.13207597038E+02 -0.77192886638E+01  0.59301943393E+02  0.49999998842E+02 0.  0.
        -12    1    1    2    0    0  0.27976643276E+02  0.13207597038E+02  0.77192886638E+01  0.31886056607E+02  0.00000000000E+00 0.  1.
         11    1    3    3    0    0 -0.11422219945E+02 -0.60626094771E+01  0.21756045867E+01  0.13113184118E+02  0.51100000000E-03 0. -1.
        -11    1    3    3    0    0  0.13907340128E+02 -0.30384301885E+01 -0.14292910353E+01  0.14306957768E+02  0.51100000000E-03 0.  1.
        -12    1    3    3    0    0 -0.30461763458E+02 -0.41065573720E+01 -0.84656022151E+01  0.31881801507E+02  0.00000000000E+00 0.  1.
</event>
<event>
 7    1  0.7086409E-013  0.5930195E+02  0.7816164E-02  0.1266605E+00
        -11   -1    0    0    0    0  0.00000000000E+00  0.00000000000E+00  0.45593999997E+02  0.45594000000E+02  0.51100000000E-03 0. -1.
         11   -1    0    0    0    0 -0.00000000000E+00 -0.00000000000E+00 -0.45593999997E+02  0.45594000000E+02  0.51100000000E-03 0.  1.
    9900012    2    1    2    0    0 -0.21377346132E+02  0.15326873792E+01  0.23608893381E+02  0.59301954386E+02  0.50000018891E+02 0.  0.
        -12    1    1    2    0    0  0.21377346132E+02 -0.15326873792E+01 -0.23608893381E+02  0.31886045614E+02  0.00000000000E+00 0.  1.
         11    1    3    3    0    0 -0.18982049931E+02  0.58776576799E+01  0.28837529250E+02  0.35020967618E+02  0.51100000000E-03 0. -1.
        -11    1    3    3    0    0  0.66587862368E+01 -0.10175568357E+02  0.32346453274E+00  0.12164960135E+02  0.51100000000E-03 0.  1.
        -12    1    3    3    0    0 -0.90540824375E+01  0.58305980562E+01 -0.55521004023E+01  0.12116026632E+02  0.00000000000E+00 0.  1.
</event>
<event>
 7    1  0.5979290E-013  0.5930191E+02  0.7816164E-02  0.1266605E+00
        -11   -1    0    0    0    0  0.00000000000E+00  0.00000000000E+00  0.45593999997E+02  0.45594000000E+02  0.51100000000E-03 0. -1.
         11   -1    0    0    0    0 -0.00000000000E+00 -0.00000000000E+00 -0.45593999997E+02  0.45594000000E+02  0.51100000000E-03 0.  1.
    9900012    2    1    2    0    0  0.79013715520E+01  0.20556414762E+02  0.23059153457E+02  0.59301914972E+02  0.49999947009E+02 0.  0.
        -12    1    1    2    0    0 -0.79013715520E+01 -0.20556414762E+02 -0.23059153457E+02  0.31886085028E+02  0.00000000000E+00 0.  1.
         11    1    3    3    0    0  0.18863649161E+02  0.13010465582E+02  0.12811148154E+02  0.26253285349E+02  0.51100000000E-03 0. -1.
        -11    1    3    3    0    0 -0.10665433684E+02 -0.54011220125E+01  0.15064210429E+02  0.19231589397E+02  0.51100000000E-03 0.  1.
         12    1    3    3    0    0 -0.29684392545E+00  0.12947071192E+02 -0.48162051256E+01  0.13817040225E+02  0.00000000000E+00 0. -1.
</event>
<event>
 7    1  0.5979290E-013  0.5930196E+02  0.7816164E-02  0.1266605E+00
        -11   -1    0    0    0    0  0.00000000000E+00  0.00000000000E+00  0.45593999997E+02  0.45594000000E+02  0.51100000000E-03 0.  1.
         11   -1    0    0    0    0 -0.00000000000E+00 -0.00000000000E+00 -0.45593999997E+02  0.45594000000E+02  0.51100000000E-03 0. -1.
    9900012    2    1    2    0    0  0.21240273505E+02  0.21355497607E+02 -0.10464855993E+02  0.59301957480E+02  0.50000024533E+02 0.  0.
        -12    1    1    2    0    0 -0.21240273505E+02 -0.21355497607E+02  0.10464855993E+02  0.31886042520E+02  0.00000000000E+00 0.  1.
         11    1    3    3    0    0  0.23625247861E+02 -0.23929534422E+01 -0.89451460837E+01  0.25375070471E+02  0.51100000000E-03 0.  1.
        -11    1    3    3    0    0 -0.69563668510E+01  0.22033484794E+02  0.69694773254E+01  0.24133775220E+02  0.51100000000E-03 0. -1.
         12    1    3    3    0    0  0.45713924951E+01  0.17149662559E+01 -0.84891872349E+01  0.97931117890E+01  0.00000000000E+00 0. -1.
</event>
<event>
 7    1  0.5979290E-013  0.5930195E+02  0.7816164E-02  0.1266605E+00
        -11   -1    0    0    0    0  0.00000000000E+00  0.00000000000E+00  0.45593999997E+02  0.45594000000E+02  0.51100000000E-03 0. -1.
         11   -1    0    0    0    0 -0.00000000000E+00 -0.00000000000E+00 -0.45593999997E+02  0.45594000000E+02  0.51100000000E-03 0.  1.
    9900012    2    1    2    0    0 -0.64790917961E+01  0.16992536871E+02  0.26191510696E+02  0.59301950192E+02  0.50000011242E+02 0.  0.
        -12    1    1    2    0    0  0.64790917961E+01 -0.16992536871E+02 -0.26191510696E+02  0.31886049808E+02  0.00000000000E+00 0.  1.
         11    1    3    3    0    0  0.20428679052E+02  0.10834771412E+02  0.17186128959E+02  0.28811217055E+02  0.51100000000E-03 0. -1.
        -11    1    3    3    0    0 -0.10474987248E+02  0.56562049666E+01  0.34680108827E+00  0.11909587891E+02  0.51100000000E-03 0.  1.
         12    1    3    3    0    0 -0.16432783600E+02  0.50156049215E+00  0.86585806493E+01  0.18581145246E+02  0.00000000000E+00 0. -1.
</event>
<event>
 7    1  0.5979290E-013  0.5930194E+02  0.7816164E-02  0.1266605E+00
        -11   -1    0    0    0    0  0.00000000000E+00  0.00000000000E+00  0.45593999997E+02  0.45594000000E+02  0.51100000000E-03 0.  1.
         11   -1    0    0    0    0 -0.00000000000E+00 -0.00000000000E+00 -0.45593999997E+02  0.45594000000E+02  0.51100000000E-03 0. -1.
    9900012    2    1    2    0    0 -0.14242217256E+02 -0.24948102987E+02 -0.13837341908E+02  0.59301943077E+02  0.49999998266E+02 0.  0.
        -12    1    1    2    0    0  0.14242217256E+02  0.24948102987E+02  0.13837341908E+02  0.31886056923E+02  0.00000000000E+00 0.  1.
         11    1    3    3    0    0 -0.20862703157E+02  0.28657573594E+01 -0.15215075472E+02  0.25980059086E+02  0.51100000000E-03 0. -1.
        -11    1    3    3    0    0  0.11077656881E+01 -0.27758189080E+02  0.11805498988E+01  0.27805357472E+02  0.51100000000E-03 0.  1.
         12    1    3    3    0    0  0.55127202129E+01 -0.55671266460E-01  0.19718366454E+00  0.55165265189E+01  0.00000000000E+00 0. -1.
</event>
<event>
 7    1  0.5979290E-013  0.5930196E+02  0.7816164E-02  0.1266605E+00
        -11   -1    0    0    0    0  0.00000000000E+00  0.00000000000E+00  0.45593999997E+02  0.45594000000E+02  0.51100000000E-03 0. -1.
         11   -1    0    0    0    0 -0.00000000000E+00 -0.00000000000E+00 -0.45593999997E+02  0.45594000000E+02  0.51100000000E-03 0.  1.
    9900012    2    1    2    0    0 -0.16691784506E+02  0.27167951413E+02  0.80312803351E-01  0.59301957535E+02  0.50000024633E+02 0.  0.
        -12    1    1    2    0    0  0.16691784506E+02 -0.27167951413E+02 -0.80312803351E-01  0.31886042465E+02  0.00000000000E+00 0.  1.
         11    1    3    3    0    0 -0.22807547135E+02  0.13693252979E+02 -0.13737678990E+02  0.29940160450E+02  0.51100000000E-03 0. -1.
        -11    1    3    3    0    0 -0.51448382512E+01 -0.19994696667E+01  0.72846137808E+01  0.91396300678E+01  0.51100000000E-03 0.  1.
         12    1    3    3    0    0  0.11260600881E+02  0.15474168101E+02  0.65333780130E+01  0.20222167017E+02  0.00000000000E+00 0. -1.
</event>
<event>
 7    1  0.5979290E-013  0.5930196E+02  0.7816164E-02  0.1266605E+00
        -11   -1    0    0    0    0  0.00000000000E+00  0.00000000000E+00  0.45593999997E+02  0.45594000000E+02  0.51100000000E-03 0.  1.
         11   -1    0    0    0    0 -0.00000000000E+00 -0.00000000000E+00 -0.45593999997E+02  0.45594000000E+02  0.51100000000E-03 0. -1.
    9900012    2    1    2    0    0 -0.20441087839E+02 -0.20925922865E+02 -0.12688066527E+02  0.59301963056E+02  0.50000034703E+02 0.  0.
        -12    1    1    2    0    0  0.20441087839E+02  0.20925922865E+02  0.12688066527E+02  0.31886036944E+02  0.00000000000E+00 0.  1.
         11    1    3    3    0    0  0.13093602446E+02 -0.79548459338E+01  0.33476269540E+00  0.15324296563E+02  0.51100000000E-03 0. -1.
        -11    1    3    3    0    0 -0.17862340342E+02 -0.12758116263E+02  0.22844033127E+01  0.22069237228E+02  0.51100000000E-03 0.  1.
         12    1    3    3    0    0 -0.15672349942E+02 -0.21296066812E+00 -0.15307232536E+02  0.21908429265E+02  0.00000000000E+00 0. -1.
</event>
<event>
 7    1  0.5979290E-013  0.5930195E+02  0.7816164E-02  0.1266605E+00
        -11   -1    0    0    0    0  0.00000000000E+00  0.00000000000E+00  0.45593999997E+02  0.45594000000E+02  0.51100000000E-03 0. -1.
         11   -1    0    0    0    0 -0.00000000000E+00 -0.00000000000E+00 -0.45593999997E+02  0.45594000000E+02  0.51100000000E-03 0.  1.
    9900012    2    1    2    0    0  0.28603619823E+02  0.10526690284E+02  0.93670783040E+01  0.59301946132E+02  0.50000003838E+02 0.  0.
        -12    1    1    2    0    0 -0.28603619823E+02 -0.10526690284E+02 -0.93670783040E+01  0.31886053868E+02  0.00000000000E+00 0.  1.
         11    1    3    3    0    0  0.50603584339E+01  0.15270853129E+02  0.12708992497E+02  0.20501821219E+02  0.51100000000E-03 0. -1.
        -11    1    3    3    0    0  0.26316873453E+02 -0.67844971480E+01 -0.11829843583E+02  0.29640385108E+02  0.51100000000E-03 0.  1.
        -12    1    3    3    0    0 -0.27736120641E+01  0.20403343031E+01  0.84879293902E+01  0.91597398043E+01  0.00000000000E+00 0.  1.
</event>
<event>
 7    1  0.5979290E-013  0.5930196E+02  0.7816164E-02  0.1266605E+00
        -11   -1    0    0    0    0  0.00000000000E+00  0.00000000000E+00  0.45593999997E+02  0.45594000000E+02  0.51100000000E-03 0.  1.
         11   -1    0    0    0    0 -0.00000000000E+00 -0.00000000000E+00 -0.45593999997E+02  0.45594000000E+02  0.51100000000E-03 0. -1.
    9900012    2    1    2    0    0 -0.60359466983E+01  0.83448369926E+01 -0.30176992734E+02  0.59301955287E+02  0.50000020535E+02 0.  0.
        -12    1    1    2    0    0  0.60359466983E+01 -0.83448369926E+01  0.30176992734E+02  0.31886044713E+02  0.00000000000E+00 0.  1.
         11    1    3    3    0    0  0.11309312968E+02 -0.94456910249E+01 -0.25634440959E+02  0.29567654663E+02  0.51100000000E-03 0. -1.
        -11    1    3    3    0    0 -0.65186561189E+01  0.11379692646E+02  0.49030750880E+01  0.14001086668E+02  0.51100000000E-03 0.  1.
        -12    1    3    3    0    0 -0.10826603548E+02  0.64108353714E+01 -0.94456268629E+01  0.15733213956E+02  0.00000000000E+00 0.  1.
</event>
<event>
 7    1  0.5979290E-013  0.5930200E+02  0.7816164E-02  0.1266605E+00
        -11   -1    0    0    0    0  0.00000000000E+00  0.00000000000E+00  0.45593999997E+02  0.45594000000E+02  0.51100000000E-03 0.  1.
         11   -1    0    0    0    0 -0.00000000000E+00 -0.00000000000E+00 -0.45593999997E+02  0.45594000000E+02  0.51100000000E-03 0. -1.
    9900012    2    1    2    0    0  0.27856719641E+02  0.11808805729E+02 -0.10063414944E+02  0.59301999275E+02  0.50000100757E+02 0.  0.
        -12    1    1    2    0    0 -0.27856719641E+02 -0.11808805729E+02  0.10063414944E+02  0.31886000725E+02  0.00000000000E+00 0.  1.
         11    1    3    3    0    0  0.22515862837E+02  0.51820574737E+01 -0.91053629059E+01  0.24833957253E+02  0.51100000000E-03 0. -1.
        -11    1    3    3    0    0 -0.11500228042E+02  0.10223038677E+02  0.51037067523E+01  0.16211526384E+02  0.51100000000E-03 0.  1.
        -12    1    3    3    0    0  0.16841084846E+02 -0.35962904221E+01 -0.60617587902E+01  0.18256515638E+02  0.00000000000E+00 0.  1.
</event>
<event>
 7    1  0.5979290E-013  0.5930197E+02  0.7816164E-02  0.1266605E+00
        -11   -1    0    0    0    0  0.00000000000E+00  0.00000000000E+00  0.45593999997E+02  0.45594000000E+02  0.51100000000E-03 0. -1.
         11   -1    0    0    0    0 -0.00000000000E+00 -0.00000000000E+00 -0.45593999997E+02  0.45594000000E+02  0.51100000000E-03 0.  1.
    9900012    2    1    2    0    0  0.17664357522E+02 -0.54612073349E+01  0.25978155686E+02  0.59301970377E+02  0.50000048056E+02 0.  0.
        -12    1    1    2    0    0 -0.17664357522E+02  0.54612073349E+01 -0.25978155686E+02  0.31886029623E+02  0.00000000000E+00 0.  1.
         11    1    3    3    0    0  0.41687760834E+01 -0.13228292095E+02  0.47219658727E+01  0.14651394737E+02  0.51100000000E-03 0. -1.
        -11    1    3    3    0    0  0.25499833052E+02  0.52603164674E+01  0.18874240528E+02  0.32158192903E+02  0.51100000000E-03 0.  1.
        -12    1    3    3    0    0 -0.12004251613E+02  0.25067682926E+01  0.23819492859E+01  0.12492382738E+02  0.00000000000E+00 0.  1.
</event>
<event>
 7    1  0.5979290E-013  0.5930195E+02  0.7816164E-02  0.1266605E+00
        -11   -1    0    0    0    0  0.00000000000E+00  0.00000000000E+00  0.45593999997E+02  0.45594000000E+02  0.51100000000E-03 0. -1.
         11   -1    0    0    0    0 -0.00000000000E+00 -0.00000000000E+00 -0.45593999997E+02  0.45594000000E+02  0.51100000000E-03 0.  1.
    9900012    2    1    2    0    0  0.25662573844E+02 -0.17169011392E+02  0.79609974464E+01  0.59301950875E+02  0.50000012487E+02 0.  0.
        -12    1    1    2    0    0 -0.25662573844E+02  0.17169011392E+02 -0.79609974464E+01  0.31886049125E+02  0.00000000000E+00 0.  1.
         11    1    3    3    0    0  0.27188174396E+02  0.66920145207E+01  0.23201332154E+01  0.28095602925E+02  0.51100000000E-03 0.  1.
        -11    1    3    3    0    0  0.28327011658E+01 -0.25775949881E+02  0.46882918394E+01  0.26351543955E+02  0.51100000000E-03 0. -1.
        -12    1    3    3    0    0 -0.43583017173E+01  0.19149239688E+01  0.95257239162E+00  0.48548039946E+01  0.00000000000E+00 0.  1.
</event>
<event>
 7    1  0.5979290E-013  0.5930202E+02  0.7816164E-02  0.1266604E+00
        -11   -1    0    0    0    0  0.00000000000E+00  0.00000000000E+00  0.45593999997E+02  0.45594000000E+02  0.51100000000E-03 0.  1.
         11   -1    0    0    0    0 -0.00000000000E+00 -0.00000000000E+00 -0.45593999997E+02  0.45594000000E+02  0.51100000000E-03 0. -1.
    9900012    2    1    2    0    0  0.31635660282E+02 -0.39711776598E+01  0.36086104413E+00  0.59302023863E+02  0.50000145600E+02 0.  0.
        -12    1    1    2    0    0 -0.31635660282E+02  0.39711776598E+01 -0.36086104413E+00  0.31885976137E+02  0.00000000000E+00 0.  1.
         11    1    3    3    0    0  0.26371115700E+02 -0.58367449863E+00 -0.99478240501E+01  0.28191055723E+02  0.51100000000E-03 0. -1.
        -11    1    3    3    0    0 -0.46519961182E+01 -0.13752993748E+02  0.23542822644E+01  0.14708111713E+02  0.51100000000E-03 0.  1.
         12    1    3    3    0    0  0.99165407007E+01  0.10365490587E+02  0.79544028299E+01  0.16402856427E+02  0.00000000000E+00 0. -1.
</event>
<event>
 7    1  0.5979290E-013  0.5930192E+02  0.7816164E-02  0.1266605E+00
        -11   -1    0    0    0    0  0.00000000000E+00  0.00000000000E+00  0.45593999997E+02  0.45594000000E+02  0.51100000000E-03 0.  1.
         11   -1    0    0    0    0 -0.00000000000E+00 -0.00000000000E+00 -0.45593999997E+02  0.45594000000E+02  0.51100000000E-03 0. -1.
    9900012    2    1    2    0    0  0.25244733007E+02  0.18613319392E+02 -0.57419277902E+01  0.59301922503E+02  0.49999960745E+02 0.  0.
        -12    1    1    2    0    0 -0.25244733007E+02 -0.18613319392E+02  0.57419277902E+01  0.31886077497E+02  0.00000000000E+00 0.  1.
         11    1    3    3    0    0 -0.97822089138E+00 -0.10337099940E+02 -0.36311528610E+01  0.10999901028E+02  0.51100000000E-03 0. -1.
        -11    1    3    3    0    0  0.16542503789E+02  0.10914398133E+02  0.12248411378E+02  0.23298113652E+02  0.51100000000E-03 0.  1.
         12    1    3    3    0    0  0.96804501090E+01  0.18036021199E+02 -0.14359186307E+02  0.25003907823E+02  0.00000000000E+00 0. -1.
</event>
<event>
 7    1  0.5979290E-013  0.5930190E+02  0.7816164E-02  0.1266605E+00
        -11   -1    0    0    0    0  0.00000000000E+00  0.00000000000E+00  0.45593999997E+02  0.45594000000E+02  0.51100000000E-03 0. -1.
         11   -1    0    0    0    0 -0.00000000000E+00 -0.00000000000E+00 -0.45593999997E+02  0.45594000000E+02  0.51100000000E-03 0.  1.
    9900012    2    1    2    0    0  0.23609462608E+02 -0.14188891417E+02  0.16062125242E+02  0.59301902221E+02  0.49999923754E+02 0.  0.
        -12    1    1    2    0    0 -0.23609462608E+02  0.14188891417E+02 -0.16062125242E+02  0.31886097779E+02  0.00000000000E+00 0.  1.
         11    1    3    3    0    0  0.95875220943E+01 -0.31176683768E+01  0.22484935048E+02  0.24641687044E+02  0.51100000000E-03 0. -1.
        -11    1    3    3    0    0  0.10640172741E+02 -0.46105242703E+00 -0.16501897513E+02  0.19640225739E+02  0.51100000000E-03 0.  1.
        -12    1    3    3    0    0  0.33817677735E+01 -0.10610170613E+02  0.10079087707E+02  0.15019989438E+02  0.00000000000E+00 0.  1.
</event>
<event>
 7    1  0.5979290E-013  0.5930193E+02  0.7816164E-02  0.1266605E+00
        -11   -1    0    0    0    0  0.00000000000E+00  0.00000000000E+00  0.45593999997E+02  0.45594000000E+02  0.51100000000E-03 0.  1.
         11   -1    0    0    0    0 -0.00000000000E+00 -0.00000000000E+00 -0.45593999997E+02  0.45594000000E+02  0.51100000000E-03 0. -1.
    9900012    2    1    2    0    0 -0.18784327936E+02  0.23351846208E+02 -0.10888616365E+02  0.59301926807E+02  0.49999968594E+02 0.  0.
        -12    1    1    2    0    0  0.18784327936E+02 -0.23351846208E+02  0.10888616365E+02  0.31886073193E+02  0.00000000000E+00 0.  1.
         11    1    3    3    0    0 -0.12513515219E+02  0.25317967439E+02  0.61144085404E+01  0.28895908541E+02  0.51100000000E-03 0.  1.
        -11    1    3    3    0    0 -0.58794791338E+01 -0.12537253019E+02 -0.13295059143E+02  0.19196603502E+02  0.51100000000E-03 0. -1.
         12    1    3    3    0    0 -0.39133358251E+00  0.10571131788E+02 -0.37079657628E+01  0.11209414764E+02  0.00000000000E+00 0. -1.
</event>
<event>
 7    1  0.5979290E-013  0.5930192E+02  0.7816164E-02  0.1266605E+00
        -11   -1    0    0    0    0  0.00000000000E+00  0.00000000000E+00  0.45593999997E+02  0.45594000000E+02  0.51100000000E-03 0.  1.
         11   -1    0    0    0    0 -0.00000000000E+00 -0.00000000000E+00 -0.45593999997E+02  0.45594000000E+02  0.51100000000E-03 0. -1.
    9900012    2    1    2    0    0  0.24169810598E+02 -0.95816220776E+01 -0.18458996794E+02  0.59301924847E+02  0.49999965020E+02 0.  0.
        -12    1    1    2    0    0 -0.24169810598E+02  0.95816220776E+01  0.18458996794E+02  0.31886075153E+02  0.00000000000E+00 0.  1.
         11    1    3    3    0    0  0.15891461458E+02 -0.26400943312E+02 -0.14726217753E+02  0.34152742857E+02  0.51100000000E-03 0. -1.
        -11    1    3    3    0    0  0.39513427691E+01  0.11417396475E+02  0.57733408780E+01  0.13390351642E+02  0.51100000000E-03 0.  1.
         12    1    3    3    0    0  0.43270063703E+01  0.54019247600E+01 -0.95061199198E+01  0.11758830349E+02  0.00000000000E+00 0. -1.
</event>
<event>
 7    1  0.5979290E-013  0.5930187E+02  0.7816164E-02  0.1266605E+00
        -11   -1    0    0    0    0  0.00000000000E+00  0.00000000000E+00  0.45593999997E+02  0.45594000000E+02  0.51100000000E-03 0.  1.
         11   -1    0    0    0    0 -0.00000000000E+00 -0.00000000000E+00 -0.45593999997E+02  0.45594000000E+02  0.51100000000E-03 0. -1.
    9900012    2    1    2    0    0  0.19484703946E+02 -0.22162414929E+02 -0.12078860446E+02  0.59301871464E+02  0.49999867661E+02 0.  0.
        -12    1    1    2    0    0 -0.19484703946E+02  0.22162414929E+02  0.12078860446E+02  0.31886128536E+02  0.00000000000E+00 0.  1.
         11    1    3    3    0    0 -0.10254517135E+02 -0.51023239994E+01  0.33248036698E+00  0.11458593950E+02  0.51100000000E-03 0.  1.
        -11    1    3    3    0    0  0.26835145845E+02 -0.11930783404E+02  0.47032993643E+01  0.29742052222E+02  0.51100000000E-03 0. -1.
         12    1    3    3    0    0  0.29040752354E+01 -0.51293075256E+01 -0.17114640178E+02  0.18101225292E+02  0.00000000000E+00 0. -1.
</event>
<event>
 7    1  0.5979290E-013  0.5930195E+02  0.7816164E-02  0.1266605E+00
        -11   -1    0    0    0    0  0.00000000000E+00  0.00000000000E+00  0.45593999997E+02  0.45594000000E+02  0.51100000000E-03 0.  1.
         11   -1    0    0    0    0 -0.00000000000E+00 -0.00000000000E+00 -0.45593999997E+02  0.45594000000E+02  0.51100000000E-03 0. -1.
    9900012    2    1    2    0    0  0.22683356833E+02 -0.28295238650E+01 -0.22230150449E+02  0.59301945501E+02  0.50000002687E+02 0.  0.
        -12    1    1    2    0    0 -0.22683356833E+02  0.28295238650E+01  0.22230150449E+02  0.31886054499E+02  0.00000000000E+00 0.  1.
         11    1    3    3    0    0  0.92349555649E+01 -0.57797332640E+01  0.12079697154E+02  0.16266800684E+02  0.51100000000E-03 0. -1.
        -11    1    3    3    0    0  0.98617932558E+01  0.85489789179E+01 -0.67676731465E+01  0.14701748428E+02  0.51100000000E-03 0.  1.
         12    1    3    3    0    0  0.35866080125E+01 -0.55987695189E+01 -0.27542174457E+02  0.28333396389E+02  0.00000000000E+00 0. -1.
</event>
<event>
 7    1  0.5979290E-013  0.5930197E+02  0.7816164E-02  0.1266605E+00
        -11   -1    0    0    0    0  0.00000000000E+00  0.00000000000E+00  0.45593999997E+02  0.45594000000E+02  0.51100000000E-03 0.  1.
         11   -1    0    0    0    0 -0.00000000000E+00 -0.00000000000E+00 -0.45593999997E+02  0.45594000000E+02  0.51100000000E-03 0. -1.
    9900012    2    1    2    0    0 -0.31511811120E+00  0.23070051003E+00 -0.31883640425E+02  0.59301967809E+02  0.50000043371E+02 0.  0.
        -12    1    1    2    0    0  0.31511811120E+00 -0.23070051003E+00  0.31883640425E+02  0.31886032191E+02  0.00000000000E+00 0.  1.
         11    1    3    3    0    0  0.32618610715E+00  0.21729885563E+02 -0.20354568667E+02  0.29775875971E+02  0.51100000000E-03 0. -1.
        -11    1    3    3    0    0  0.78235150372E+01 -0.12160827362E+02 -0.75286864750E+01  0.16302583536E+02  0.51100000000E-03 0.  1.
         12    1    3    3    0    0 -0.84648192555E+01 -0.93383576910E+01 -0.40003852826E+01  0.13223508302E+02  0.00000000000E+00 0. -1.
</event>
<event>
 7    1  0.7344786E-013  0.5930196E+02  0.7816164E-02  0.1266605E+00
        -11   -1    0    0    0    0  0.00000000000E+00  0.00000000000E+00  0.45593999997E+02  0.45594000000E+02  0.51100000000E-03 0.  1.
         11   -1    0    0    0    0 -0.00000000000E+00 -0.00000000000E+00 -0.45593999997E+02  0.45594000000E+02  0.51100000000E-03 0. -1.
    9900012    2    1    2    0    0 -0.20244886522E+02  0.23336315814E+02  0.78917891850E+01  0.59301962263E+02  0.50000033257E+02 0.  0.
        -12    1    1    2    0    0  0.20244886522E+02 -0.23336315814E+02 -0.78917891850E+01  0.31886037737E+02  0.00000000000E+00 0.  1.
         11    1    3    3    0    0 -0.91030457613E+01  0.29882398549E+02 -0.51094673426E+01  0.31653275375E+02  0.51100000000E-03 0. -1.
        -11    1    3    3    0    0 -0.31868486044E+00 -0.10381676472E+02  0.11300254462E+00  0.10387181343E+02  0.51100000000E-03 0.  1.
         12    1    3    3    0    0 -0.10823155900E+02  0.38355937372E+01  0.12888253983E+02  0.17261505545E+02  0.00000000000E+00 0. -1.
</event>
<event>
 7    1  0.5979290E-013  0.5930194E+02  0.7816164E-02  0.1266605E+00
        -11   -1    0    0    0    0  0.00000000000E+00  0.00000000000E+00  0.45593999997E+02  0.45594000000E+02  0.51100000000E-03 0. -1.
         11   -1    0    0    0    0 -0.00000000000E+00 -0.00000000000E+00 -0.45593999997E+02  0.45594000000E+02  0.51100000000E-03 0.  1.
    9900012    2    1    2    0    0  0.12662023144E+02 -0.89043786557E+01  0.27876622129E+02  0.59301939555E+02  0.49999991843E+02 0.  0.
        -12    1    1    2    0    0 -0.12662023144E+02  0.89043786557E+01 -0.27876622129E+02  0.31886060445E+02  0.00000000000E+00 0.  1.
         11    1    3    3    0    0  0.11110491157E+02 -0.32305059003E+01  0.11154081777E+02  0.16071487879E+02  0.51100000000E-03 0. -1.
        -11    1    3    3    0    0 -0.46805842079E+01  0.21170909073E+01 -0.11877152445E+02  0.12940505898E+02  0.51100000000E-03 0.  1.
        -12    1    3    3    0    0  0.62321161946E+01 -0.77909636627E+01  0.28599692798E+02  0.30289945778E+02  0.00000000000E+00 0.  1.
</event>
<event>
 7    1  0.5979290E-013  0.5930197E+02  0.7816164E-02  0.1266605E+00
        -11   -1    0    0    0    0  0.00000000000E+00  0.00000000000E+00  0.45593999997E+02  0.45594000000E+02  0.51100000000E-03 0. -1.
         11   -1    0    0    0    0 -0.00000000000E+00 -0.00000000000E+00 -0.45593999997E+02  0.45594000000E+02  0.51100000000E-03 0.  1.
    9900012    2    1    2    0    0 -0.29679106143E+02 -0.11446253279E+02 -0.22029883277E+01  0.59301965234E+02  0.50000038674E+02 0.  0.
        -12    1    1    2    0    0  0.29679106143E+02  0.11446253279E+02  0.22029883277E+01  0.31886034766E+02  0.00000000000E+00 0.  1.
         11    1    3    3    0    0 -0.82548808854E+01  0.85523201651E+01  0.11240856635E+02  0.16359770683E+02  0.51100000000E-03 0. -1.
        -11    1    3    3    0    0 -0.84591041204E+01 -0.12431243935E+02 -0.21242281686E+02  0.26025502873E+02  0.51100000000E-03 0.  1.
        -12    1    3    3    0    0 -0.12965121137E+02 -0.75673295091E+01  0.77984367234E+01  0.16916691678E+02  0.00000000000E+00 0.  1.
</event>
<event>
 7    1  0.5979290E-013  0.5930195E+02  0.7816164E-02  0.1266605E+00
        -11   -1    0    0    0    0  0.00000000000E+00  0.00000000000E+00  0.45593999997E+02  0.45594000000E+02  0.51100000000E-03 0. -1.
         11   -1    0    0    0    0 -0.00000000000E+00 -0.00000000000E+00 -0.45593999997E+02  0.45594000000E+02  0.51100000000E-03 0.  1.
    9900012    2    1    2    0    0 -0.78651364831E+01  0.97281359492E+01  0.29329565188E+02  0.59301946700E+02  0.50000004874E+02 0.  0.
        -12    1    1    2    0    0  0.78651364831E+01 -0.97281359492E+01 -0.29329565188E+02  0.31886053300E+02  0.00000000000E+00 0.  1.
         11    1    3    3    0    0 -0.64306969073E+01  0.89003918722E+01  0.24018702238E+02  0.26409636416E+02  0.51100000000E-03 0. -1.
        -11    1    3    3    0    0 -0.47691960411E+01 -0.12107412806E+02 -0.69568214111E+01  0.14755746004E+02  0.51100000000E-03 0.  1.
        -12    1    3    3    0    0  0.33347564653E+01  0.12935156883E+02  0.12267684361E+02  0.18136564279E+02  0.00000000000E+00 0.  1.
</event>
<event>
 7    1  0.5979290E-013  0.5930195E+02  0.7816164E-02  0.1266605E+00
        -11   -1    0    0    0    0  0.00000000000E+00  0.00000000000E+00  0.45593999997E+02  0.45594000000E+02  0.51100000000E-03 0.  1.
         11   -1    0    0    0    0 -0.00000000000E+00 -0.00000000000E+00 -0.45593999997E+02  0.45594000000E+02  0.51100000000E-03 0. -1.
    9900012    2    1    2    0    0  0.25383668594E+02  0.19297282148E+02  0.64764352372E-01  0.59301954086E+02  0.50000018344E+02 0.  0.
        -12    1    1    2    0    0 -0.25383668594E+02 -0.19297282148E+02 -0.64764352372E-01  0.31886045914E+02  0.00000000000E+00 0.  1.
         11    1    3    3    0    0  0.34443044115E+02  0.18167940034E+02  0.99925834755E+01  0.40202600137E+02  0.51100000000E-03 0. -1.
        -11    1    3    3    0    0 -0.10729713260E+02  0.25617163539E+01 -0.11841188546E+02  0.16183413848E+02  0.51100000000E-03 0.  1.
         12    1    3    3    0    0  0.16703377390E+01 -0.14323742397E+01  0.19133694233E+01  0.29159401014E+01  0.00000000000E+00 0. -1.
</event>
<event>
 7    1  0.5979290E-013  0.5930206E+02  0.7816164E-02  0.1266604E+00
        -11   -1    0    0    0    0  0.00000000000E+00  0.00000000000E+00  0.45593999997E+02  0.45594000000E+02  0.51100000000E-03 0.  1.
         11   -1    0    0    0    0 -0.00000000000E+00 -0.00000000000E+00 -0.45593999997E+02  0.45594000000E+02  0.51100000000E-03 0. -1.
    9900012    2    1    2    0    0 -0.98325023126E+01  0.28862939369E+02  0.93255492814E+01  0.59302058895E+02  0.50000209489E+02 0.  0.
        -12    1    1    2    0    0  0.98325023126E+01 -0.28862939369E+02 -0.93255492814E+01  0.31885941105E+02  0.00000000000E+00 0.  1.
         11    1    3    3    0    0 -0.21663817895E+02  0.22007948615E+02  0.30282947047E+00  0.30883045737E+02  0.51100000000E-03 0. -1.
        -11    1    3    3    0    0  0.99089198411E+01 -0.41442804661E+01  0.12728047026E+02  0.16654276759E+02  0.51100000000E-03 0.  1.
         12    1    3    3    0    0  0.19223957411E+01  0.10999271221E+02 -0.37053272152E+01  0.11764736399E+02  0.00000000000E+00 0. -1.
</event>
<event>
 7    1  0.5979290E-013  0.5930196E+02  0.7816164E-02  0.1266605E+00
        -11   -1    0    0    0    0  0.00000000000E+00  0.00000000000E+00  0.45593999997E+02  0.45594000000E+02  0.51100000000E-03 0. -1.
         11   -1    0    0    0    0 -0.00000000000E+00 -0.00000000000E+00 -0.45593999997E+02  0.45594000000E+02  0.51100000000E-03 0.  1.
    9900012    2    1    2    0    0  0.38822404293E+01  0.25685527623E+02 -0.18490581088E+02  0.59301957457E+02  0.50000024492E+02 0.  0.
        -12    1    1    2    0    0 -0.38822404293E+01 -0.25685527623E+02  0.18490581088E+02  0.31886042543E+02  0.00000000000E+00 0.  1.
         11    1    3    3    0    0 -0.28662641381E+00  0.18773983184E+02 -0.39337253144E+01  0.19183815950E+02  0.51100000000E-03 0. -1.
        -11    1    3    3    0    0  0.24236313047E+01 -0.13149575860E+02  0.26498042388E+01  0.13631096682E+02  0.51100000000E-03 0.  1.
        -12    1    3    3    0    0  0.17452355384E+01  0.20061120300E+02 -0.17206660013E+02  0.26487044825E+02  0.00000000000E+00 0.  1.
</event>
<event>
 7    1  0.5979290E-013  0.5930199E+02  0.7816164E-02  0.1266605E+00
        -11   -1    0    0    0    0  0.00000000000E+00  0.00000000000E+00  0.45593999997E+02  0.45594000000E+02  0.51100000000E-03 0. -1.
         11   -1    0    0    0    0 -0.00000000000E+00 -0.00000000000E+00 -0.45593999997E+02  0.45594000000E+02  0.51100000000E-03 0.  1.
    9900012    2    1    2    0    0 -0.14924155802E+02 -0.27883650335E+02  0.40607129949E+01  0.59301987825E+02  0.50000079876E+02 0.  0.
        -12    1    1    2    0    0  0.14924155802E+02  0.27883650335E+02 -0.40607129949E+01  0.31886012175E+02  0.00000000000E+00 0.  1.
         11    1    3    3    0    0  0.12719044579E+01 -0.16722918896E+02 -0.48065056374E+01  0.17446382263E+02  0.51100000000E-03 0. -1.
        -11    1    3    3    0    0 -0.19005598693E+02  0.48751155996E+01  0.14748406394E+02  0.24545774080E+02  0.51100000000E-03 0.  1.
        -12    1    3    3    0    0  0.28095384334E+01 -0.16035847039E+02 -0.58811877615E+01  0.17309831482E+02  0.00000000000E+00 0.  1.
</event>
<event>
 7    1  0.5979290E-013  0.5930194E+02  0.7816164E-02  0.1266605E+00
        -11   -1    0    0    0    0  0.00000000000E+00  0.00000000000E+00  0.45593999997E+02  0.45594000000E+02  0.51100000000E-03 0.  1.
         11   -1    0    0    0    0 -0.00000000000E+00 -0.00000000000E+00 -0.45593999997E+02  0.45594000000E+02  0.51100000000E-03 0. -1.
    9900012    2    1    2    0    0  0.21852901738E+02 -0.33413143832E+01 -0.22978404074E+02  0.59301941134E+02  0.49999994723E+02 0.  0.
        -12    1    1    2    0    0 -0.21852901738E+02  0.33413143832E+01  0.22978404074E+02  0.31886058866E+02  0.00000000000E+00 0.  1.
         11    1    3    3    0    0  0.19171077311E+02 -0.78202132269E+01 -0.21033470556E+02  0.29514281697E+02  0.51100000000E-03 0. -1.
        -11    1    3    3    0    0  0.12989992403E+02  0.89731001265E+01  0.50120779749E+01  0.16564339842E+02  0.51100000000E-03 0.  1.
         12    1    3    3    0    0 -0.10308167977E+02 -0.44942012829E+01 -0.69570114927E+01  0.13223319595E+02  0.00000000000E+00 0. -1.
</event>
<event>
 7    1  0.5979290E-013  0.5930197E+02  0.7816164E-02  0.1266605E+00
        -11   -1    0    0    0    0  0.00000000000E+00  0.00000000000E+00  0.45593999997E+02  0.45594000000E+02  0.51100000000E-03 0. -1.
         11   -1    0    0    0    0 -0.00000000000E+00 -0.00000000000E+00 -0.45593999997E+02  0.45594000000E+02  0.51100000000E-03 0.  1.
    9900012    2    1    2    0    0 -0.28177863487E+02  0.74181207326E+01  0.12949851018E+02  0.59301966267E+02  0.50000040558E+02 0.  0.
        -12    1    1    2    0    0  0.28177863487E+02 -0.74181207326E+01 -0.12949851018E+02  0.31886033733E+02  0.00000000000E+00 0.  1.
         11    1    3    3    0    0  0.50058613827E+00 -0.67190190494E+01  0.21782461217E+02  0.22800689034E+02  0.51100000000E-03 0. -1.
        -11    1    3    3    0    0 -0.63743607871E+01 -0.31634316101E+01 -0.27296488493E+01  0.76217293377E+01  0.51100000000E-03 0.  1.
         12    1    3    3    0    0 -0.22304088838E+02  0.17300571392E+02 -0.61029613503E+01  0.28879547895E+02  0.00000000000E+00 0. -1.
</event>
<event>
 7    1  0.5979290E-013  0.5930193E+02  0.7816164E-02  0.1266605E+00
        -11   -1    0    0    0    0  0.00000000000E+00  0.00000000000E+00  0.45593999997E+02  0.45594000000E+02  0.51100000000E-03 0. -1.
         11   -1    0    0    0    0 -0.00000000000E+00 -0.00000000000E+00 -0.45593999997E+02  0.45594000000E+02  0.51100000000E-03 0.  1.
    9900012    2    1    2    0    0  0.24726620105E+02  0.19060254092E+02  0.64824843334E+01  0.59301927319E+02  0.49999969527E+02 0.  0.
        -12    1    1    2    0    0 -0.24726620105E+02 -0.19060254092E+02 -0.64824843334E+01  0.31886072681E+02  0.00000000000E+00 0.  1.
         11    1    3    3    0    0 -0.80521587102E+01  0.11400669419E+02  0.17772707091E+02  0.22598266321E+02  0.51100000000E-03 0. -1.
        -11    1    3    3    0    0  0.40232753271E+01  0.12572574232E+01 -0.50720823614E+01  0.65949571892E+01  0.51100000000E-03 0.  1.
         12    1    3    3    0    0  0.28755503488E+02  0.64023272498E+01 -0.62181403962E+01  0.30108703809E+02  0.00000000000E+00 0. -1.
</event>
<event>
 7    1  0.5979290E-013  0.5930195E+02  0.7816164E-02  0.1266605E+00
        -11   -1    0    0    0    0  0.00000000000E+00  0.00000000000E+00  0.45593999997E+02  0.45594000000E+02  0.51100000000E-03 0. -1.
         11   -1    0    0    0    0 -0.00000000000E+00 -0.00000000000E+00 -0.45593999997E+02  0.45594000000E+02  0.51100000000E-03 0.  1.
    9900012    2    1    2    0    0 -0.15476793263E+02 -0.65057275248E+01  0.27108386075E+02  0.59301949509E+02  0.50000009997E+02 0.  0.
        -12    1    1    2    0    0  0.15476793263E+02  0.65057275248E+01 -0.27108386075E+02  0.31886050491E+02  0.00000000000E+00 0.  1.
         11    1    3    3    0    0 -0.38456807963E+01  0.13216904098E+02  0.21530525780E+02  0.25554634713E+02  0.51100000000E-03 0. -1.
        -11    1    3    3    0    0 -0.11285667525E+01 -0.22243131285E+02  0.55233669733E+01  0.22946418789E+02  0.51100000000E-03 0.  1.
         12    1    3    3    0    0 -0.10502545714E+02  0.25204996618E+01  0.54493321727E-01  0.10800896007E+02  0.00000000000E+00 0. -1.
</event>
<event>
 7    1  0.5979290E-013  0.5930186E+02  0.7816164E-02  0.1266605E+00
        -11   -1    0    0    0    0  0.00000000000E+00  0.00000000000E+00  0.45593999997E+02  0.45594000000E+02  0.51100000000E-03 0. -1.
         11   -1    0    0    0    0 -0.00000000000E+00 -0.00000000000E+00 -0.45593999997E+02  0.45594000000E+02  0.51100000000E-03 0.  1.
    9900012    2    1    2    0    0 -0.24744874893E+02  0.95900290681E+01  0.17676214090E+02  0.59301858252E+02  0.49999843566E+02 0.  0.
        -12    1    1    2    0    0  0.24744874893E+02 -0.95900290681E+01 -0.17676214090E+02  0.31886141748E+02  0.00000000000E+00 0.  1.
         11    1    3    3    0    0 -0.32725451403E+01  0.71395019736E-01 -0.14537946895E+00  0.32765506856E+01  0.51100000000E-03 0. -1.
        -11    1    3    3    0    0  0.25031382507E+01  0.10894516710E+02  0.27843118840E+02  0.30003257531E+02  0.51100000000E-03 0.  1.
        -12    1    3    3    0    0 -0.23975468004E+02 -0.13758826616E+01 -0.10021525282E+02  0.26022050036E+02  0.00000000000E+00 0.  1.
</event>
<event>
 7    1  0.5979290E-013  0.5930193E+02  0.7816164E-02  0.1266605E+00
        -11   -1    0    0    0    0  0.00000000000E+00  0.00000000000E+00  0.45593999997E+02  0.45594000000E+02  0.51100000000E-03 0.  1.
         11   -1    0    0    0    0 -0.00000000000E+00 -0.00000000000E+00 -0.45593999997E+02  0.45594000000E+02  0.51100000000E-03 0. -1.
    9900012    2    1    2    0    0  0.17303756297E+02  0.21545806215E+02 -0.15908477826E+02  0.59301930719E+02  0.49999975728E+02 0.  0.
        -12    1    1    2    0    0 -0.17303756297E+02 -0.21545806215E+02  0.15908477826E+02  0.31886069281E+02  0.00000000000E+00 0.  1.
         11    1    3    3    0    0 -0.25372123584E+01 -0.88143008090E+01 -0.64031571270E+01  0.11186141728E+02  0.51100000000E-03 0.  1.
        -11    1    3    3    0    0  0.27484012899E+02  0.20572604131E+02 -0.97729240570E+01  0.35694720207E+02  0.51100000000E-03 0. -1.
         12    1    3    3    0    0 -0.76430442433E+01  0.97875028931E+01  0.26760335819E+00  0.12421068784E+02  0.00000000000E+00 0. -1.
</event>
<event>
 7    1  0.5979290E-013  0.5930201E+02  0.7816164E-02  0.1266605E+00
        -11   -1    0    0    0    0  0.00000000000E+00  0.00000000000E+00  0.45593999997E+02  0.45594000000E+02  0.51100000000E-03 0. -1.
         11   -1    0    0    0    0 -0.00000000000E+00 -0.00000000000E+00 -0.45593999997E+02  0.45594000000E+02  0.51100000000E-03 0.  1.
    9900012    2    1    2    0    0 -0.12649687247E+02  0.10892777553E+02  0.27167062940E+02  0.59302007793E+02  0.50000116292E+02 0.  0.
        -12    1    1    2    0    0  0.12649687247E+02 -0.10892777553E+02 -0.27167062940E+02  0.31885992207E+02  0.00000000000E+00 0.  1.
         11    1    3    3    0    0  0.18418805075E+02  0.42744686317E+01  0.14470043454E+02  0.23809779929E+02  0.51100000000E-03 0. -1.
        -11    1    3    3    0    0 -0.49478758785E-01  0.17369794270E+01  0.53056434385E+00  0.18168776683E+01  0.51100000000E-03 0.  1.
         12    1    3    3    0    0 -0.31019013563E+02  0.48813294942E+01  0.12166455142E+02  0.33675350195E+02  0.00000000000E+00 0. -1.
</event>
<event>
 7    1  0.5979290E-013  0.5930194E+02  0.7816164E-02  0.1266605E+00
        -11   -1    0    0    0    0  0.00000000000E+00  0.00000000000E+00  0.45593999997E+02  0.45594000000E+02  0.51100000000E-03 0.  1.
         11   -1    0    0    0    0 -0.00000000000E+00 -0.00000000000E+00 -0.45593999997E+02  0.45594000000E+02  0.51100000000E-03 0. -1.
    9900012    2    1    2    0    0  0.28596136396E+02  0.10584753414E+02 -0.93244285946E+01  0.59301937367E+02  0.49999987853E+02 0.  0.
        -12    1    1    2    0    0 -0.28596136396E+02 -0.10584753414E+02  0.93244285946E+01  0.31886062633E+02  0.00000000000E+00 0.  1.
         11    1    3    3    0    0  0.19058791834E+02  0.12594773663E+02 -0.11613927393E+02  0.25627118050E+02  0.51100000000E-03 0. -1.
        -11    1    3    3    0    0 -0.87594308169E+01 -0.76108399630E+01 -0.57128944526E+01  0.12934051046E+02  0.51100000000E-03 0.  1.
        -12    1    3    3    0    0  0.18296775379E+02  0.56008197138E+01  0.80023932506E+01  0.20740768271E+02  0.00000000000E+00 0.  1.
</event>
<event>
 7    1  0.5979290E-013  0.5930194E+02  0.7816164E-02  0.1266605E+00
        -11   -1    0    0    0    0  0.00000000000E+00  0.00000000000E+00  0.45593999997E+02  0.45594000000E+02  0.51100000000E-03 0.  1.
         11   -1    0    0    0    0 -0.00000000000E+00 -0.00000000000E+00 -0.45593999997E+02  0.45594000000E+02  0.51100000000E-03 0. -1.
    9900012    2    1    2    0    0 -0.15547240846E+02 -0.11735943962E+02 -0.25244239975E+02  0.59301941440E+02  0.49999995280E+02 0.  0.
        -12    1    1    2    0    0  0.15547240846E+02  0.11735943962E+02  0.25244239975E+02  0.31886058560E+02  0.00000000000E+00 0.  1.
         11    1    3    3    0    0  0.38257756960E+01 -0.69675809319E+01 -0.12604811412E+02  0.14901846017E+02  0.51100000000E-03 0. -1.
        -11    1    3    3    0    0 -0.26918323197E+02 -0.10075662142E+02  0.12447454035E-01  0.28742220626E+02  0.51100000000E-03 0.  1.
        -12    1    3    3    0    0  0.75453066550E+01  0.53072991122E+01 -0.12651876017E+02  0.15657874796E+02  0.00000000000E+00 0.  1.
</event>
<event>
 7    1  0.5979290E-013  0.5930196E+02  0.7816164E-02  0.1266605E+00
        -11   -1    0    0    0    0  0.00000000000E+00  0.00000000000E+00  0.45593999997E+02  0.45594000000E+02  0.51100000000E-03 0.  1.
         11   -1    0    0    0    0 -0.00000000000E+00 -0.00000000000E+00 -0.45593999997E+02  0.45594000000E+02  0.51100000000E-03 0. -1.
    9900012    2    1    2    0    0  0.75007926121E+01 -0.26055890449E+02 -0.16779407988E+02  0.59301955257E+02  0.50000020479E+02 0.  0.
        -12    1    1    2    0    0 -0.75007926121E+01  0.26055890449E+02  0.16779407988E+02  0.31886044743E+02  0.00000000000E+00 0.  1.
         11    1    3    3    0    0 -0.63653001175E+01 -0.18959933048E+02 -0.10027849551E+02  0.22373061338E+02  0.51100000000E-03 0. -1.
        -11    1    3    3    0    0  0.20708686128E+02  0.53523938115E+01 -0.75981484553E+01  0.22698670906E+02  0.51100000000E-03 0.  1.
        -12    1    3    3    0    0 -0.68425933986E+01 -0.12448351213E+02  0.84659001860E+00  0.14230223013E+02  0.00000000000E+00 0.  1.
</event>
<event>
 7    1  0.5979290E-013  0.5930194E+02  0.7816164E-02  0.1266605E+00
        -11   -1    0    0    0    0  0.00000000000E+00  0.00000000000E+00  0.45593999997E+02  0.45594000000E+02  0.51100000000E-03 0. -1.
         11   -1    0    0    0    0 -0.00000000000E+00 -0.00000000000E+00 -0.45593999997E+02  0.45594000000E+02  0.51100000000E-03 0.  1.
    9900012    2    1    2    0    0  0.22940283517E+02  0.20294505550E+02  0.88654919393E+01  0.59301944887E+02  0.50000001567E+02 0.  0.
        -12    1    1    2    0    0 -0.22940283517E+02 -0.20294505550E+02 -0.88654919393E+01  0.31886055113E+02  0.00000000000E+00 0.  1.
         11    1    3    3    0    0  0.61537302827E+01  0.23282772776E+01  0.21366144394E+02  0.22356238458E+02  0.51100000000E-03 0. -1.
        -11    1    3    3    0    0  0.16398670005E+02  0.21957770055E+02 -0.41978555841E+01  0.27725115608E+02  0.51100000000E-03 0.  1.
         12    1    3    3    0    0  0.38788322936E+00 -0.39915417824E+01 -0.83027968708E+01  0.92205908204E+01  0.00000000000E+00 0. -1.
</event>
<event>
 7    1  0.5979290E-013  0.5930193E+02  0.7816164E-02  0.1266605E+00
        -11   -1    0    0    0    0  0.00000000000E+00  0.00000000000E+00  0.45593999997E+02  0.45594000000E+02  0.51100000000E-03 0.  1.
         11   -1    0    0    0    0 -0.00000000000E+00 -0.00000000000E+00 -0.45593999997E+02  0.45594000000E+02  0.51100000000E-03 0. -1.
    9900012    2    1    2    0    0 -0.15163100977E+01 -0.23593137942E+02 -0.21395936497E+02  0.59301930113E+02  0.49999974623E+02 0.  0.
        -12    1    1    2    0    0  0.15163100977E+01  0.23593137942E+02  0.21395936497E+02  0.31886069887E+02  0.00000000000E+00 0.  1.
         11    1    3    3    0    0  0.21642699596E+02 -0.10638472882E+01 -0.14500637469E+02  0.26073103078E+02  0.51100000000E-03 0. -1.
        -11    1    3    3    0    0 -0.20897619058E+01 -0.89464654029E+00 -0.10306544343E+00  0.22755482860E+01  0.51100000000E-03 0.  1.
         12    1    3    3    0    0 -0.21069247788E+02 -0.21634644113E+02 -0.67922335846E+01  0.30953278749E+02  0.00000000000E+00 0. -1.
</event>
<event>
 7    1  0.5979290E-013  0.5930195E+02  0.7816164E-02  0.1266605E+00
        -11   -1    0    0    0    0  0.00000000000E+00  0.00000000000E+00  0.45593999997E+02  0.45594000000E+02  0.51100000000E-03 0.  1.
         11   -1    0    0    0    0 -0.00000000000E+00 -0.00000000000E+00 -0.45593999997E+02  0.45594000000E+02  0.51100000000E-03 0. -1.
    9900012    2    1    2    0    0 -0.30392276493E+01 -0.11086652254E+02 -0.29741713805E+02  0.59301948144E+02  0.50000007507E+02 0.  0.
        -12    1    1    2    0    0  0.30392276493E+01  0.11086652254E+02  0.29741713805E+02  0.31886051856E+02  0.00000000000E+00 0.  1.
         11    1    3    3    0    0  0.87976727755E+01 -0.16844266517E+02 -0.31954659093E+02  0.37178335072E+02  0.51100000000E-03 0. -1.
        -11    1    3    3    0    0 -0.95025525097E+01  0.85263132245E+01 -0.52688137389E+01  0.13811477831E+02  0.51100000000E-03 0.  1.
        -12    1    3    3    0    0 -0.23343479151E+01 -0.27686989615E+01  0.74817590268E+01  0.83121352409E+01  0.00000000000E+00 0.  1.
</event>
<event>
 7    1  0.5979290E-013  0.5930194E+02  0.7816164E-02  0.1266605E+00
        -11   -1    0    0    0    0  0.00000000000E+00  0.00000000000E+00  0.45593999997E+02  0.45594000000E+02  0.51100000000E-03 0.  1.
         11   -1    0    0    0    0 -0.00000000000E+00 -0.00000000000E+00 -0.45593999997E+02  0.45594000000E+02  0.51100000000E-03 0. -1.
    9900012    2    1    2    0    0 -0.23210760359E+02 -0.18034431385E+02 -0.12358818978E+02  0.59301944766E+02  0.50000001347E+02 0.  0.
        -12    1    1    2    0    0  0.23210760359E+02  0.18034431385E+02  0.12358818978E+02  0.31886055234E+02  0.00000000000E+00 0.  1.
         11    1    3    3    0    0 -0.25538951256E+02  0.35430267080E+01 -0.21725607191E+02  0.33716362164E+02  0.51100000000E-03 0. -1.
        -11    1    3    3    0    0  0.54626576378E+01 -0.70049540296E+01  0.40123007323E+01  0.97472338052E+01  0.51100000000E-03 0.  1.
         12    1    3    3    0    0 -0.31344667413E+01 -0.14572504064E+02  0.53544874804E+01  0.15838348797E+02  0.00000000000E+00 0. -1.
</event>
<event>
 7    1  0.5979290E-013  0.5930194E+02  0.7816164E-02  0.1266605E+00
        -11   -1    0    0    0    0  0.00000000000E+00  0.00000000000E+00  0.45593999997E+02  0.45594000000E+02  0.51100000000E-03 0. -1.
         11   -1    0    0    0    0 -0.00000000000E+00 -0.00000000000E+00 -0.45593999997E+02  0.45594000000E+02  0.51100000000E-03 0.  1.
    9900012    2    1    2    0    0 -0.11247670462E+02 -0.20005802819E+02  0.22135461370E+02  0.59301938981E+02  0.49999990797E+02 0.  0.
        -12    1    1    2    0    0  0.11247670462E+02  0.20005802819E+02 -0.22135461370E+02  0.31886061019E+02  0.00000000000E+00 0.  1.
         11    1    3    3    0    0 -0.19362532985E+02 -0.11300289086E+02 -0.82098904032E+01  0.23874809271E+02  0.51100000000E-03 0.  1.
        -11    1    3    3    0    0  0.76793763481E+00 -0.94471204983E+01  0.23574508281E+02  0.25408566565E+02  0.51100000000E-03 0. -1.
        -12    1    3    3    0    0  0.73469248888E+01  0.74160676514E+00  0.67708434914E+01  0.10018563146E+02  0.00000000000E+00 0.  1.
</event>
<event>
 7    1  0.5979290E-013  0.5930193E+02  0.7816164E-02  0.1266605E+00
        -11   -1    0    0    0    0  0.00000000000E+00  0.00000000000E+00  0.45593999997E+02  0.45594000000E+02  0.51100000000E-03 0.  1.
         11   -1    0    0    0    0 -0.00000000000E+00 -0.00000000000E+00 -0.45593999997E+02  0.45594000000E+02  0.51100000000E-03 0. -1.
    9900012    2    1    2    0    0  0.20422261429E+01  0.25150249329E+02 -0.19493994993E+02  0.59301928280E+02  0.49999971280E+02 0.  0.
        -12    1    1    2    0    0 -0.20422261429E+01 -0.25150249329E+02  0.19493994993E+02  0.31886071720E+02  0.00000000000E+00 0.  1.
         11    1    3    3    0    0  0.21555229127E+01  0.25097179651E+01  0.11113558603E+02  0.11595522773E+02  0.51100000000E-03 0.  1.
        -11    1    3    3    0    0 -0.16297809456E+01 -0.12903765239E+01 -0.22198730117E+02  0.22295848864E+02  0.51100000000E-03 0. -1.
         12    1    3    3    0    0  0.15164841758E+01  0.23930907888E+02 -0.84088234784E+01  0.25410556643E+02  0.00000000000E+00 0. -1.
</event>
<event>
 7    1  0.5979290E-013  0.5930194E+02  0.7816164E-02  0.1266605E+00
        -11   -1    0    0    0    0  0.00000000000E+00  0.00000000000E+00  0.45593999997E+02  0.45594000000E+02  0.51100000000E-03 0. -1.
         11   -1    0    0    0    0 -0.00000000000E+00 -0.00000000000E+00 -0.45593999997E+02  0.45594000000E+02  0.51100000000E-03 0.  1.
    9900012    2    1    2    0    0 -0.23783483069E+02  0.14518073034E+02  0.15501363156E+02  0.59301940801E+02  0.49999994116E+02 0.  0.
        -12    1    1    2    0    0  0.23783483069E+02 -0.14518073034E+02 -0.15501363156E+02  0.31886059199E+02  0.00000000000E+00 0.  1.
         11    1    3    3    0    0 -0.20219715779E+02  0.13921612030E+02  0.49561950605E+01  0.25044202072E+02  0.51100000000E-03 0. -1.
        -11    1    3    3    0    0  0.25547675423E+00 -0.14827807969E+02 -0.61071618644E+00  0.14842578350E+02  0.51100000000E-03 0.  1.
        -12    1    3    3    0    0 -0.38192440445E+01  0.15424268973E+02  0.11155884282E+02  0.19415160379E+02  0.00000000000E+00 0.  1.
</event>
<event>
 7    1  0.5979290E-013  0.5930197E+02  0.7816164E-02  0.1266605E+00
        -11   -1    0    0    0    0  0.00000000000E+00  0.00000000000E+00  0.45593999997E+02  0.45594000000E+02  0.51100000000E-03 0.  1.
         11   -1    0    0    0    0 -0.00000000000E+00 -0.00000000000E+00 -0.45593999997E+02  0.45594000000E+02  0.51100000000E-03 0. -1.
    9900012    2    1    2    0    0  0.51474557105E+01 -0.30559565099E+02  0.75057113926E+01  0.59301968218E+02  0.50000044117E+02 0.  0.
        -12    1    1    2    0    0 -0.51474557105E+01  0.30559565099E+02 -0.75057113926E+01  0.31886031782E+02  0.00000000000E+00 0.  1.
         11    1    3    3    0    0  0.97732262101E+01 -0.27619251607E+02 -0.17078540428E+02  0.33911879236E+02  0.51100000000E-03 0. -1.
        -11    1    3    3    0    0 -0.35321855379E+01 -0.51236699434E+00  0.11645781791E+02  0.12180438760E+02  0.51100000000E-03 0.  1.
         12    1    3    3    0    0 -0.10935849617E+01 -0.24279464971E+01  0.12938470030E+02  0.13209650222E+02  0.00000000000E+00 0. -1.
</event>
<event>
 7    1  0.5979290E-013  0.5930190E+02  0.7816164E-02  0.1266605E+00
        -11   -1    0    0    0    0  0.00000000000E+00  0.00000000000E+00  0.45593999997E+02  0.45594000000E+02  0.51100000000E-03 0.  1.
         11   -1    0    0    0    0 -0.00000000000E+00 -0.00000000000E+00 -0.45593999997E+02  0.45594000000E+02  0.51100000000E-03 0. -1.
    9900012    2    1    2    0    0  0.13464722559E+02  0.19379470397E+02 -0.21444362404E+02  0.59301901064E+02  0.49999921644E+02 0.  0.
        -12    1    1    2    0    0 -0.13464722559E+02 -0.19379470397E+02  0.21444362404E+02  0.31886098936E+02  0.00000000000E+00 0.  1.
         11    1    3    3    0    0  0.40921926652E+01  0.22146242119E+01 -0.94329276994E+01  0.10518114206E+02  0.51100000000E-03 0. -1.
        -11    1    3    3    0    0  0.15346781300E+02  0.20163269982E+02  0.88790419826E+01  0.26849926246E+02  0.51100000000E-03 0.  1.
        -12    1    3    3    0    0 -0.59742514058E+01 -0.29984237965E+01 -0.20890476687E+02  0.21933860612E+02  0.00000000000E+00 0.  1.
</event>
<event>
 7    1  0.5979290E-013  0.5930196E+02  0.7816164E-02  0.1266605E+00
        -11   -1    0    0    0    0  0.00000000000E+00  0.00000000000E+00  0.45593999997E+02  0.45594000000E+02  0.51100000000E-03 0. -1.
         11   -1    0    0    0    0 -0.00000000000E+00 -0.00000000000E+00 -0.45593999997E+02  0.45594000000E+02  0.51100000000E-03 0.  1.
    9900012    2    1    2    0    0 -0.90089976599E+01  0.83983601614E+01  0.29411307766E+02  0.59301960473E+02  0.50000029992E+02 0.  0.
        -12    1    1    2    0    0  0.90089976599E+01 -0.83983601614E+01 -0.29411307766E+02  0.31886039527E+02  0.00000000000E+00 0.  1.
         11    1    3    3    0    0 -0.13996076318E+02 -0.38893967856E+01  0.38929652916E+01  0.15039040484E+02  0.51100000000E-03 0. -1.
        -11    1    3    3    0    0  0.17150246400E+02  0.69730919743E+01  0.39390052876E+01  0.18928040738E+02  0.51100000000E-03 0.  1.
        -12    1    3    3    0    0 -0.12163167741E+02  0.53146649728E+01  0.21579337186E+02  0.25334879251E+02  0.00000000000E+00 0.  1.
</event>
<event>
 7    1  0.5979290E-013  0.5930202E+02  0.7816164E-02  0.1266605E+00
        -11   -1    0    0    0    0  0.00000000000E+00  0.00000000000E+00  0.45593999997E+02  0.45594000000E+02  0.51100000000E-03 0.  1.
         11   -1    0    0    0    0 -0.00000000000E+00 -0.00000000000E+00 -0.45593999997E+02  0.45594000000E+02  0.51100000000E-03 0. -1.
    9900012    2    1    2    0    0  0.14678123891E+02  0.28086199917E+02 -0.35261670990E+01  0.59302018736E+02  0.50000136250E+02 0.  0.
        -12    1    1    2    0    0 -0.14678123891E+02 -0.28086199917E+02  0.35261670990E+01  0.31885981264E+02  0.00000000000E+00 0.  1.
         11    1    3    3    0    0 -0.84821634993E+00  0.17751502043E+02 -0.53774335058E+01  0.18567500831E+02  0.51100000000E-03 0. -1.
        -11    1    3    3    0    0  0.13583166966E+01 -0.12646119768E+02 -0.35441429064E+01  0.13203420718E+02  0.51100000000E-03 0.  1.
        -12    1    3    3    0    0  0.14168023545E+02  0.22980817642E+02  0.53954093132E+01  0.27531097187E+02  0.00000000000E+00 0.  1.
</event>
<event>
 7    1  0.5979290E-013  0.5930198E+02  0.7816164E-02  0.1266605E+00
        -11   -1    0    0    0    0  0.00000000000E+00  0.00000000000E+00  0.45593999997E+02  0.45594000000E+02  0.51100000000E-03 0.  1.
         11   -1    0    0    0    0 -0.00000000000E+00 -0.00000000000E+00 -0.45593999997E+02  0.45594000000E+02  0.51100000000E-03 0. -1.
    9900012    2    1    2    0    0 -0.95147563184E+01 -0.22454181036E+02 -0.20542581178E+02  0.59301976804E+02  0.50000059776E+02 0.  0.
        -12    1    1    2    0    0  0.95147563184E+01  0.22454181036E+02  0.20542581178E+02  0.31886023196E+02  0.00000000000E+00 0.  1.
         11    1    3    3    0    0 -0.86408301149E+01  0.35225255938E+01  0.10168503245E+02  0.13801108293E+02  0.51100000000E-03 0.  1.
        -11    1    3    3    0    0  0.34631603197E+01 -0.80798158034E+01 -0.24559953732E+02  0.26085785984E+02  0.51100000000E-03 0. -1.
        -12    1    3    3    0    0 -0.43370865233E+01 -0.17896890826E+02 -0.61511306911E+01  0.19415082527E+02  0.00000000000E+00 0.  1.
</event>
<event>
 7    1  0.5979290E-013  0.5930194E+02  0.7816164E-02  0.1266605E+00
        -11   -1    0    0    0    0  0.00000000000E+00  0.00000000000E+00  0.45593999997E+02  0.45594000000E+02  0.51100000000E-03 0.  1.
         11   -1    0    0    0    0 -0.00000000000E+00 -0.00000000000E+00 -0.45593999997E+02  0.45594000000E+02  0.51100000000E-03 0. -1.
    9900012    2    1    2    0    0  0.23548339019E+02 -0.49699337650E+01 -0.20916419121E+02  0.59301935630E+02  0.49999984684E+02 0.  0.
        -12    1    1    2    0    0 -0.23548339019E+02  0.49699337650E+01  0.20916419121E+02  0.31886064370E+02  0.00000000000E+00 0.  1.
         11    1    3    3    0    0  0.15763900875E+02  0.14261174558E+02  0.41258787422E+01  0.21654203893E+02  0.51100000000E-03 0.  1.
        -11    1    3    3    0    0  0.65650027813E+01 -0.23046639906E+02 -0.20034945865E+02  0.31235331414E+02  0.51100000000E-03 0. -1.
         12    1    3    3    0    0  0.12194353627E+01  0.38155315833E+01 -0.50073519985E+01  0.64124003231E+01  0.00000000000E+00 0. -1.
</event>
<event>
 7    1  0.5979290E-013  0.5930192E+02  0.7816164E-02  0.1266605E+00
        -11   -1    0    0    0    0  0.00000000000E+00  0.00000000000E+00  0.45593999997E+02  0.45594000000E+02  0.51100000000E-03 0. -1.
         11   -1    0    0    0    0 -0.00000000000E+00 -0.00000000000E+00 -0.45593999997E+02  0.45594000000E+02  0.51100000000E-03 0.  1.
    9900012    2    1    2    0    0  0.14429858981E+02  0.10003610364E+02  0.26616330056E+02  0.59301920339E+02  0.49999956798E+02 0.  0.
        -12    1    1    2    0    0 -0.14429858981E+02 -0.10003610364E+02 -0.26616330056E+02  0.31886079661E+02  0.00000000000E+00 0.  1.
         11    1    3    3    0    0  0.76546079933E+01  0.14671905947E+02  0.24700296122E+02  0.29731506461E+02  0.51100000000E-03 0. -1.
        -11    1    3    3    0    0 -0.72437593938E+01  0.64460547926E+01 -0.43323224112E+01  0.10620390307E+02  0.51100000000E-03 0.  1.
         12    1    3    3    0    0  0.14019010381E+02 -0.11114350376E+02  0.62483563445E+01  0.18950023571E+02  0.00000000000E+00 0. -1.
</event>
<event>
 7    1  0.5979290E-013  0.5930199E+02  0.7816164E-02  0.1266605E+00
        -11   -1    0    0    0    0  0.00000000000E+00  0.00000000000E+00  0.45593999997E+02  0.45594000000E+02  0.51100000000E-03 0.  1.
         11   -1    0    0    0    0 -0.00000000000E+00 -0.00000000000E+00 -0.45593999997E+02  0.45594000000E+02  0.51100000000E-03 0. -1.
    9900012    2    1    2    0    0  0.18755151278E+02  0.12637378816E+02 -0.22477952976E+02  0.59301993464E+02  0.50000090161E+02 0.  0.
        -12    1    1    2    0    0 -0.18755151278E+02 -0.12637378816E+02  0.22477952976E+02  0.31886006536E+02  0.00000000000E+00 0.  1.
         11    1    3    3    0    0  0.21911140489E+02  0.63297705500E+00 -0.33196324681E+02  0.39780582073E+02  0.51100000000E-03 0. -1.
        -11    1    3    3    0    0 -0.16814009635E+01  0.94101110015E+01  0.13067585980E+01  0.96480524747E+01  0.51100000000E-03 0.  1.
         12    1    3    3    0    0 -0.14745882476E+01  0.25942907593E+01  0.94116131063E+01  0.98733589172E+01  0.00000000000E+00 0. -1.
</event>
<event>
 7    1  0.5979290E-013  0.5930195E+02  0.7816164E-02  0.1266605E+00
        -11   -1    0    0    0    0  0.00000000000E+00  0.00000000000E+00  0.45593999997E+02  0.45594000000E+02  0.51100000000E-03 0. -1.
         11   -1    0    0    0    0 -0.00000000000E+00 -0.00000000000E+00 -0.45593999997E+02  0.45594000000E+02  0.51100000000E-03 0.  1.
    9900012    2    1    2    0    0  0.21349339935E+02 -0.17726166349E+02  0.15706962338E+02  0.59301953601E+02  0.50000017459E+02 0.  0.
        -12    1    1    2    0    0 -0.21349339935E+02  0.17726166349E+02 -0.15706962338E+02  0.31886046399E+02  0.00000000000E+00 0.  1.
         11    1    3    3    0    0  0.37917511230E+01 -0.34830110065E+01 -0.73851432890E+01  0.90027264710E+01  0.51100000000E-03 0. -1.
        -11    1    3    3    0    0  0.52480128903E+01  0.99426530180E+01  0.20055445949E+02  0.22991713742E+02  0.51100000000E-03 0.  1.
        -12    1    3    3    0    0  0.12309575922E+02 -0.24185808360E+02  0.30366596780E+01  0.27307513388E+02  0.00000000000E+00 0.  1.
</event>
<event>
 7    1  0.5979290E-013  0.5930207E+02  0.7816164E-02  0.1266604E+00
        -11   -1    0    0    0    0  0.00000000000E+00  0.00000000000E+00  0.45593999997E+02  0.45594000000E+02  0.51100000000E-03 0. -1.
         11   -1    0    0    0    0 -0.00000000000E+00 -0.00000000000E+00 -0.45593999997E+02  0.45594000000E+02  0.51100000000E-03 0.  1.
    9900012    2    1    2    0    0  0.22864883272E+02  0.12546050176E+02  0.18344111331E+02  0.59302067638E+02  0.50000225434E+02 0.  0.
        -12    1    1    2    0    0 -0.22864883272E+02 -0.12546050176E+02 -0.18344111331E+02  0.31885932362E+02  0.00000000000E+00 0.  1.
         11    1    3    3    0    0 -0.10738087160E+01  0.17079231611E+02  0.16728861834E+02  0.23931319146E+02  0.51100000000E-03 0. -1.
        -11    1    3    3    0    0  0.19784212462E+02 -0.14504591891E+02  0.11059990331E+01  0.24556495735E+02  0.51100000000E-03 0.  1.
        -12    1    3    3    0    0  0.41544795267E+01  0.99714104572E+01  0.50925046427E+00  0.10814252756E+02  0.00000000000E+00 0.  1.
</event>
<event>
 7    1  0.5979290E-013  0.5930197E+02  0.7816164E-02  0.1266605E+00
        -11   -1    0    0    0    0  0.00000000000E+00  0.00000000000E+00  0.45593999997E+02  0.45594000000E+02  0.51100000000E-03 0. -1.
         11   -1    0    0    0    0 -0.00000000000E+00 -0.00000000000E+00 -0.45593999997E+02  0.45594000000E+02  0.51100000000E-03 0.  1.
    9900012    2    1    2    0    0 -0.19749746400E+02 -0.11915129026E+02  0.22015820000E+02  0.59301966806E+02  0.50000041543E+02 0.  0.
        -12    1    1    2    0    0  0.19749746400E+02  0.11915129026E+02 -0.22015820000E+02  0.31886033194E+02  0.00000000000E+00 0.  1.
         11    1    3    3    0    0 -0.17914454298E+02 -0.13947854770E+02  0.33858152526E+02  0.40765730930E+02  0.51100000000E-03 0. -1.
        -11    1    3    3    0    0  0.23398986369E+01  0.62470891783E+01 -0.10522361567E+02  0.12458785737E+02  0.51100000000E-03 0.  1.
         12    1    3    3    0    0 -0.41751907387E+01 -0.42143634346E+01 -0.13199709589E+01  0.60774501393E+01  0.00000000000E+00 0. -1.
</event>
<event>
 7    1  0.5979290E-013  0.5930177E+02  0.7816164E-02  0.1266605E+00
        -11   -1    0    0    0    0  0.00000000000E+00  0.00000000000E+00  0.45593999997E+02  0.45594000000E+02  0.51100000000E-03 0.  1.
         11   -1    0    0    0    0 -0.00000000000E+00 -0.00000000000E+00 -0.45593999997E+02  0.45594000000E+02  0.51100000000E-03 0. -1.
    9900012    2    1    2    0    0  0.11702840278E+02 -0.27278645281E+02  0.11646911153E+02  0.59301772591E+02  0.49999687340E+02 0.  0.
        -12    1    1    2    0    0 -0.11702840278E+02  0.27278645281E+02 -0.11646911153E+02  0.31886227409E+02  0.00000000000E+00 0.  1.
         11    1    3    3    0    0  0.50586655876E+01 -0.24909179428E+02 -0.33580213849E+01  0.25638518389E+02  0.51100000000E-03 0. -1.
        -11    1    3    3    0    0  0.18081112906E+02  0.92217971807E+00  0.75218428627E+01  0.19604978441E+02  0.51100000000E-03 0.  1.
        -12    1    3    3    0    0 -0.11436938215E+02 -0.32916455718E+01  0.74830896748E+01  0.14058275762E+02  0.00000000000E+00 0.  1.
</event>
<event>
 7    1  0.5979290E-013  0.5930194E+02  0.7816164E-02  0.1266605E+00
        -11   -1    0    0    0    0  0.00000000000E+00  0.00000000000E+00  0.45593999997E+02  0.45594000000E+02  0.51100000000E-03 0.  1.
         11   -1    0    0    0    0 -0.00000000000E+00 -0.00000000000E+00 -0.45593999997E+02  0.45594000000E+02  0.51100000000E-03 0. -1.
    9900012    2    1    2    0    0  0.26438384676E+02 -0.17757271321E+02 -0.15530500293E+01  0.59301939826E+02  0.49999992337E+02 0.  0.
        -12    1    1    2    0    0 -0.26438384676E+02  0.17757271321E+02  0.15530500293E+01  0.31886060174E+02  0.00000000000E+00 0.  1.
         11    1    3    3    0    0  0.12011475001E+02 -0.23534596112E+02 -0.44137024557E+00  0.26426266361E+02  0.51100000000E-03 0. -1.
        -11    1    3    3    0    0  0.23270958801E+02  0.57238302558E+01 -0.21798607423E-01  0.23964561998E+02  0.51100000000E-03 0.  1.
        -12    1    3    3    0    0 -0.88440491254E+01  0.53494535671E-01 -0.10898811763E+01  0.89111114669E+01  0.00000000000E+00 0.  1.
</event>
<event>
 7    1  0.5979290E-013  0.5930194E+02  0.7816164E-02  0.1266605E+00
        -11   -1    0    0    0    0  0.00000000000E+00  0.00000000000E+00  0.45593999997E+02  0.45594000000E+02  0.51100000000E-03 0.  1.
         11   -1    0    0    0    0 -0.00000000000E+00 -0.00000000000E+00 -0.45593999997E+02  0.45594000000E+02  0.51100000000E-03 0. -1.
    9900012    2    1    2    0    0  0.30418266258E+02 -0.95616120604E+01 -0.15975371852E+00  0.59301939275E+02  0.49999991332E+02 0.  0.
        -12    1    1    2    0    0 -0.30418266258E+02  0.95616120604E+01  0.15975371852E+00  0.31886060725E+02  0.00000000000E+00 0.  1.
         11    1    3    3    0    0  0.17345358127E+02 -0.20962613638E+02  0.19751684846E+01  0.27279917704E+02  0.51100000000E-03 0. -1.
        -11    1    3    3    0    0  0.30676870413E+01  0.12083683707E+02  0.10211971891E+02  0.16115535544E+02  0.51100000000E-03 0.  1.
         12    1    3    3    0    0  0.10005221089E+02 -0.68268212885E+00 -0.12346894095E+02  0.15906486027E+02  0.00000000000E+00 0. -1.
</event>
<event>
 7    1  0.5979290E-013  0.5930191E+02  0.7816164E-02  0.1266605E+00
        -11   -1    0    0    0    0  0.00000000000E+00  0.00000000000E+00  0.45593999997E+02  0.45594000000E+02  0.51100000000E-03 0. -1.
         11   -1    0    0    0    0 -0.00000000000E+00 -0.00000000000E+00 -0.45593999997E+02  0.45594000000E+02  0.51100000000E-03 0.  1.
    9900012    2    1    2    0    0  0.29856048229E+02 -0.11051339982E+02 -0.17907748292E+01  0.59301912034E+02  0.49999941652E+02 0.  0.
        -12    1    1    2    0    0 -0.29856048229E+02  0.11051339982E+02  0.17907748292E+01  0.31886087966E+02  0.00000000000E+00 0.  1.
         11    1    3    3    0    0  0.17781905522E+02 -0.13726928630E+02  0.13400273443E+02  0.26157065245E+02  0.51100000000E-03 0. -1.
        -11    1    3    3    0    0  0.73673764400E+00  0.28040447318E+01 -0.20444303430E+02  0.20648849659E+02  0.51100000000E-03 0.  1.
         12    1    3    3    0    0  0.11337405063E+02 -0.12845608377E+00  0.52532551586E+01  0.12495997130E+02  0.00000000000E+00 0. -1.
</event>
<event>
 7    1  0.6241745E-013  0.5930194E+02  0.7816164E-02  0.1266605E+00
        -11   -1    0    0    0    0  0.00000000000E+00  0.00000000000E+00  0.45593999997E+02  0.45594000000E+02  0.51100000000E-03 0. -1.
         11   -1    0    0    0    0 -0.00000000000E+00 -0.00000000000E+00 -0.45593999997E+02  0.45594000000E+02  0.51100000000E-03 0.  1.
    9900012    2    1    2    0    0  0.31729309590E+02  0.10265575887E+00 -0.31561398496E+01  0.59301939659E+02  0.49999992033E+02 0.  0.
        -12    1    1    2    0    0 -0.31729309590E+02 -0.10265575887E+00  0.31561398496E+01  0.31886060341E+02  0.00000000000E+00 0.  1.
         11    1    3    3    0    0  0.22655926239E+02 -0.13373795046E+02  0.32877298107E+01  0.26513365596E+02  0.51100000000E-03 0. -1.
        -11    1    3    3    0    0 -0.66310233116E+01  0.30881962365E+01 -0.11191417024E+02  0.13369937973E+02  0.51100000000E-03 0.  1.
         12    1    3    3    0    0  0.15704406664E+02  0.10388254568E+02  0.47475473635E+01  0.19418636090E+02  0.00000000000E+00 0. -1.
</event>
<event>
 7    1  0.5979290E-013  0.5930195E+02  0.7816164E-02  0.1266605E+00
        -11   -1    0    0    0    0  0.00000000000E+00  0.00000000000E+00  0.45593999997E+02  0.45594000000E+02  0.51100000000E-03 0.  1.
         11   -1    0    0    0    0 -0.00000000000E+00 -0.00000000000E+00 -0.45593999997E+02  0.45594000000E+02  0.51100000000E-03 0. -1.
    9900012    2    1    2    0    0  0.22014744863E+02 -0.38605597658E+00 -0.23063432899E+02  0.59301953402E+02  0.50000017096E+02 0.  0.
        -12    1    1    2    0    0 -0.22014744863E+02  0.38605597658E+00  0.23063432899E+02  0.31886046598E+02  0.00000000000E+00 0.  1.
         11    1    3    3    0    0  0.20324783656E+02 -0.38642038796E+01 -0.14929998575E+02  0.25513403536E+02  0.51100000000E-03 0. -1.
        -11    1    3    3    0    0 -0.14148809847E+01 -0.12742576815E+02  0.38469210821E+01  0.13385587554E+02  0.51100000000E-03 0.  1.
        -12    1    3    3    0    0  0.31048421912E+01  0.16220724718E+02 -0.11980355406E+02  0.20402962311E+02  0.00000000000E+00 0.  1.
</event>
<event>
 7    1  0.5979290E-013  0.5930194E+02  0.7816164E-02  0.1266605E+00
        -11   -1    0    0    0    0  0.00000000000E+00  0.00000000000E+00  0.45593999997E+02  0.45594000000E+02  0.51100000000E-03 0. -1.
         11   -1    0    0    0    0 -0.00000000000E+00 -0.00000000000E+00 -0.45593999997E+02  0.45594000000E+02  0.51100000000E-03 0.  1.
    9900012    2    1    2    0    0 -0.11438169783E+02 -0.29357585153E+02  0.49011672732E+01  0.59301937611E+02  0.49999988298E+02 0.  0.
        -12    1    1    2    0    0  0.11438169783E+02  0.29357585153E+02 -0.49011672732E+01  0.31886062389E+02  0.00000000000E+00 0.  1.
         11    1    3    3    0    0 -0.96628027590E+01 -0.12887233242E+02  0.25864386115E+01  0.16313804055E+02  0.51100000000E-03 0. -1.
        -11    1    3    3    0    0  0.22291389857E+01  0.11803507527E+01  0.18521955512E+02  0.18692916433E+02  0.51100000000E-03 0.  1.
        -12    1    3    3    0    0 -0.40045060096E+01 -0.17650702664E+02 -0.16207226850E+02  0.24295217124E+02  0.00000000000E+00 0.  1.
</event>
<event>
 7    1  0.5979290E-013  0.5930195E+02  0.7816164E-02  0.1266605E+00
        -11   -1    0    0    0    0  0.00000000000E+00  0.00000000000E+00  0.45593999997E+02  0.45594000000E+02  0.51100000000E-03 0.  1.
         11   -1    0    0    0    0 -0.00000000000E+00 -0.00000000000E+00 -0.45593999997E+02  0.45594000000E+02  0.51100000000E-03 0. -1.
    9900012    2    1    2    0    0 -0.12051078961E+02 -0.21678242507E+02 -0.20038602133E+02  0.59301948539E+02  0.50000008228E+02 0.  0.
        -12    1    1    2    0    0  0.12051078961E+02  0.21678242507E+02  0.20038602133E+02  0.31886051461E+02  0.00000000000E+00 0.  1.
         11    1    3    3    0    0 -0.97004441838E+01 -0.23021679025E+02  0.67506087926E+01  0.25877925763E+02  0.51100000000E-03 0. -1.
        -11    1    3    3    0    0  0.75131211095E+01 -0.25572168973E+01 -0.17915393445E+02  0.19594582659E+02  0.51100000000E-03 0.  1.
         12    1    3    3    0    0 -0.98637558865E+01  0.39006534147E+01 -0.88738174810E+01  0.13829440117E+02  0.00000000000E+00 0. -1.
</event>
<event>
 7    1  0.5979290E-013  0.5930196E+02  0.7816164E-02  0.1266605E+00
        -11   -1    0    0    0    0  0.00000000000E+00  0.00000000000E+00  0.45593999997E+02  0.45594000000E+02  0.51100000000E-03 0.  1.
         11   -1    0    0    0    0 -0.00000000000E+00 -0.00000000000E+00 -0.45593999997E+02  0.45594000000E+02  0.51100000000E-03 0. -1.
    9900012    2    1    2    0    0  0.17083328009E+02 -0.26922654297E+02  0.22405702023E+00  0.59301958982E+02  0.50000027273E+02 0.  0.
        -12    1    1    2    0    0 -0.17083328009E+02  0.26922654297E+02 -0.22405702023E+00  0.31886041018E+02  0.00000000000E+00 0.  1.
         11    1    3    3    0    0 -0.10433942285E+02 -0.42219391377E+01 -0.11375759908E+02  0.16003119553E+02  0.51100000000E-03 0. -1.
        -11    1    3    3    0    0  0.79834714406E+01 -0.30555785155E+01  0.13001129076E+02  0.15559618691E+02  0.51100000000E-03 0.  1.
         12    1    3    3    0    0  0.19533798854E+02 -0.19645136644E+02 -0.14013121481E+01  0.27739220738E+02  0.00000000000E+00 0. -1.
</event>
<event>
 7    1  0.5979290E-013  0.5930191E+02  0.7816164E-02  0.1266605E+00
        -11   -1    0    0    0    0  0.00000000000E+00  0.00000000000E+00  0.45593999997E+02  0.45594000000E+02  0.51100000000E-03 0. -1.
         11   -1    0    0    0    0 -0.00000000000E+00 -0.00000000000E+00 -0.45593999997E+02  0.45594000000E+02  0.51100000000E-03 0.  1.
    9900012    2    1    2    0    0  0.13749622934E+02 -0.16833282597E+02  0.23330473153E+02  0.59301913515E+02  0.49999944352E+02 0.  0.
        -12    1    1    2    0    0 -0.13749622934E+02  0.16833282597E+02 -0.23330473153E+02  0.31886086485E+02  0.00000000000E+00 0.  1.
         11    1    3    3    0    0 -0.39038151087E+01 -0.23099407794E+02  0.49793151859E+01  0.23950281685E+02  0.51100000000E-03 0.  1.
        -11    1    3    3    0    0  0.22122994169E+02  0.47928620023E+01  0.20157813576E+02  0.30310655644E+02  0.51100000000E-03 0. -1.
        -12    1    3    3    0    0 -0.44695561264E+01  0.14732631945E+01 -0.18066556092E+01  0.50409761850E+01  0.00000000000E+00 0.  1.
</event>
<event>
 7    1  0.6077230E-013  0.5930195E+02  0.7816164E-02  0.1266605E+00
        -11   -1    0    0    0    0  0.00000000000E+00  0.00000000000E+00  0.45593999997E+02  0.45594000000E+02  0.51100000000E-03 0.  1.
         11   -1    0    0    0    0 -0.00000000000E+00 -0.00000000000E+00 -0.45593999997E+02  0.45594000000E+02  0.51100000000E-03 0. -1.
    9900012    2    1    2    0    0  0.19296094291E+02 -0.25378651427E+02  0.55237470295E+00  0.59301947862E+02  0.50000006993E+02 0.  0.
        -12    1    1    2    0    0 -0.19296094291E+02  0.25378651427E+02 -0.55237470295E+00  0.31886052138E+02  0.00000000000E+00 0.  1.
         11    1    3    3    0    0 -0.13823148863E+02 -0.64308714793E+01 -0.39172468075E+01  0.15741041112E+02  0.51100000000E-03 0. -1.
        -11    1    3    3    0    0  0.17396868490E+02 -0.12545614827E+02  0.12452869769E+02  0.24801561451E+02  0.51100000000E-03 0.  1.
         12    1    3    3    0    0  0.15722374663E+02 -0.64021651206E+01 -0.79832482586E+01  0.18759345299E+02  0.00000000000E+00 0. -1.
</event>
<event>
 7    1  0.5979290E-013  0.5930197E+02  0.7816164E-02  0.1266605E+00
        -11   -1    0    0    0    0  0.00000000000E+00  0.00000000000E+00  0.45593999997E+02  0.45594000000E+02  0.51100000000E-03 0.  1.
         11   -1    0    0    0    0 -0.00000000000E+00 -0.00000000000E+00 -0.45593999997E+02  0.45594000000E+02  0.51100000000E-03 0. -1.
    9900012    2    1    2    0    0  0.27317008194E+02 -0.43603673914E+01  0.15858350142E+02  0.59301968424E+02  0.50000044493E+02 0.  0.
        -12    1    1    2    0    0 -0.27317008194E+02  0.43603673914E+01 -0.15858350142E+02  0.31886031576E+02  0.00000000000E+00 0.  1.
         11    1    3    3    0    0  0.14164755855E+02  0.82435300571E+01 -0.10310800336E+01  0.16421303923E+02  0.51100000000E-03 0. -1.
        -11    1    3    3    0    0 -0.10766221503E+02  0.16080002493E-01 -0.41561154421E+00  0.10774252514E+02  0.51100000000E-03 0.  1.
        -12    1    3    3    0    0  0.23918473841E+02 -0.12619977451E+02  0.17305041719E+02  0.32106411987E+02  0.00000000000E+00 0.  1.
</event>
<event>
 7    1  0.5979290E-013  0.5930195E+02  0.7816164E-02  0.1266605E+00
        -11   -1    0    0    0    0  0.00000000000E+00  0.00000000000E+00  0.45593999997E+02  0.45594000000E+02  0.51100000000E-03 0.  1.
         11   -1    0    0    0    0 -0.00000000000E+00 -0.00000000000E+00 -0.45593999997E+02  0.45594000000E+02  0.51100000000E-03 0. -1.
    9900012    2    1    2    0    0 -0.18205706997E+02  0.14068101239E+02  0.22076246225E+02  0.59301954664E+02  0.50000019399E+02 0.  0.
        -12    1    1    2    0    0  0.18205706997E+02 -0.14068101239E+02 -0.22076246225E+02  0.31886045336E+02  0.00000000000E+00 0.  1.
         11    1    3    3    0    0 -0.93354000159E+01 -0.14321964735E+02  0.19217205318E+02  0.25720990412E+02  0.51100000000E-03 0. -1.
        -11    1    3    3    0    0  0.12506809020E+01  0.16689313183E+02 -0.30657313319E+01  0.17014584512E+02  0.51100000000E-03 0.  1.
         12    1    3    3    0    0 -0.10120987883E+02  0.11700752790E+02  0.59247722398E+01  0.16566379740E+02  0.00000000000E+00 0. -1.
</event>
<event>
 7    1  0.5979290E-013  0.5930196E+02  0.7816164E-02  0.1266605E+00
        -11   -1    0    0    0    0  0.00000000000E+00  0.00000000000E+00  0.45593999997E+02  0.45594000000E+02  0.51100000000E-03 0.  1.
         11   -1    0    0    0    0 -0.00000000000E+00 -0.00000000000E+00 -0.45593999997E+02  0.45594000000E+02  0.51100000000E-03 0. -1.
    9900012    2    1    2    0    0 -0.26742468737E+02  0.16055844327E+02 -0.66158830728E+01  0.59301957912E+02  0.50000025321E+02 0.  0.
        -12    1    1    2    0    0  0.26742468737E+02 -0.16055844327E+02  0.66158830728E+01  0.31886042088E+02  0.00000000000E+00 0.  1.
         11    1    3    3    0    0 -0.10910343161E+02 -0.17747421675E+02 -0.21875340560E+01  0.20947359487E+02  0.51100000000E-03 0. -1.
        -11    1    3    3    0    0 -0.97310266926E+01  0.27974168448E+02 -0.26988204729E+01  0.29741059380E+02  0.51100000000E-03 0.  1.
         12    1    3    3    0    0 -0.61010988835E+01  0.58290975538E+01 -0.17295285438E+01  0.86135390440E+01  0.00000000000E+00 0. -1.
</event>
<event>
 7    1  0.5979290E-013  0.5930196E+02  0.7816164E-02  0.1266605E+00
        -11   -1    0    0    0    0  0.00000000000E+00  0.00000000000E+00  0.45593999997E+02  0.45594000000E+02  0.51100000000E-03 0.  1.
         11   -1    0    0    0    0 -0.00000000000E+00 -0.00000000000E+00 -0.45593999997E+02  0.45594000000E+02  0.51100000000E-03 0. -1.
    9900012    2    1    2    0    0 -0.31587652682E+02 -0.15656714349E+01  0.40605862746E+01  0.59301960893E+02  0.50000030759E+02 0.  0.
        -12    1    1    2    0    0  0.31587652682E+02  0.15656714349E+01 -0.40605862746E+01  0.31886039107E+02  0.00000000000E+00 0.  1.
         11    1    3    3    0    0 -0.10588566812E+02  0.58733773899E+01 -0.17879039053E+02  0.21593386646E+02  0.51100000000E-03 0. -1.
        -11    1    3    3    0    0 -0.46431840889E+01 -0.11799726472E+01  0.19436211465E+02  0.20017937214E+02  0.51100000000E-03 0.  1.
         12    1    3    3    0    0 -0.16355901782E+02 -0.62590761775E+01  0.25034138630E+01  0.17690637034E+02  0.00000000000E+00 0. -1.
</event>
<event>
 7    1  0.5979290E-013  0.5930231E+02  0.7816164E-02  0.1266603E+00
        -11   -1    0    0    0    0  0.00000000000E+00  0.00000000000E+00  0.45593999997E+02  0.45594000000E+02  0.51100000000E-03 0.  1.
         11   -1    0    0    0    0 -0.00000000000E+00 -0.00000000000E+00 -0.45593999997E+02  0.45594000000E+02  0.51100000000E-03 0. -1.
    9900012    2    1    2    0    0  0.14174886889E+02 -0.11379997191E+02 -0.26196668348E+02  0.59302310624E+02  0.50000668580E+02 0.  0.
        -12    1    1    2    0    0 -0.14174886889E+02  0.11379997191E+02  0.26196668348E+02  0.31885689376E+02  0.00000000000E+00 0.  1.
         11    1    3    3    0    0  0.48220808043E+01 -0.16305406285E+02  0.90530758069E+01  0.19263356904E+02  0.51100000000E-03 0.  1.
        -11    1    3    3    0    0 -0.13987748461E+01 -0.69600782421E+00 -0.22069887337E+02  0.22125119780E+02  0.51100000000E-03 0. -1.
         12    1    3    3    0    0  0.10751580931E+02  0.56214169177E+01 -0.13179856819E+02  0.17913833940E+02  0.00000000000E+00 0. -1.
</event>
<event>
 7    1  0.5979290E-013  0.5930195E+02  0.7816164E-02  0.1266605E+00
        -11   -1    0    0    0    0  0.00000000000E+00  0.00000000000E+00  0.45593999997E+02  0.45594000000E+02  0.51100000000E-03 0.  1.
         11   -1    0    0    0    0 -0.00000000000E+00 -0.00000000000E+00 -0.45593999997E+02  0.45594000000E+02  0.51100000000E-03 0. -1.
    9900012    2    1    2    0    0 -0.70465962818E+01 -0.16555867646E+02 -0.26324299944E+02  0.59301952264E+02  0.50000015021E+02 0.  0.
        -12    1    1    2    0    0  0.70465962818E+01  0.16555867646E+02  0.26324299944E+02  0.31886047736E+02  0.00000000000E+00 0.  1.
         11    1    3    3    0    0  0.13079828020E+02  0.62269227924E+01  0.74618541852E+00  0.14505628612E+02  0.51100000000E-03 0.  1.
        -11    1    3    3    0    0 -0.12177157478E+02 -0.24566915565E+02 -0.22397246396E+02  0.35404140309E+02  0.51100000000E-03 0. -1.
        -12    1    3    3    0    0 -0.79492668240E+01  0.17841251267E+01 -0.46732389667E+01  0.93921833429E+01  0.00000000000E+00 0.  1.
</event>
<event>
 7    1  0.5979290E-013  0.5930193E+02  0.7816164E-02  0.1266605E+00
        -11   -1    0    0    0    0  0.00000000000E+00  0.00000000000E+00  0.45593999997E+02  0.45594000000E+02  0.51100000000E-03 0.  1.
         11   -1    0    0    0    0 -0.00000000000E+00 -0.00000000000E+00 -0.45593999997E+02  0.45594000000E+02  0.51100000000E-03 0. -1.
    9900012    2    1    2    0    0 -0.18845594406E+02  0.25616259387E+02  0.23178221518E+01  0.59301929796E+02  0.49999974045E+02 0.  0.
        -12    1    1    2    0    0  0.18845594406E+02 -0.25616259387E+02 -0.23178221518E+01  0.31886070204E+02  0.00000000000E+00 0.  1.
         11    1    3    3    0    0  0.41336157666E+01  0.11868121456E+02 -0.73858167757E+01  0.14577015329E+02  0.51100000000E-03 0. -1.
        -11    1    3    3    0    0 -0.16752003059E+02  0.21677786348E+02  0.17033292296E+02  0.32259712866E+02  0.51100000000E-03 0.  1.
        -12    1    3    3    0    0 -0.62272071138E+01 -0.79296484173E+01 -0.73296533690E+01  0.12465201602E+02  0.00000000000E+00 0.  1.
</event>
<event>
 7    1  0.5979290E-013  0.5930192E+02  0.7816164E-02  0.1266605E+00
        -11   -1    0    0    0    0  0.00000000000E+00  0.00000000000E+00  0.45593999997E+02  0.45594000000E+02  0.51100000000E-03 0.  1.
         11   -1    0    0    0    0 -0.00000000000E+00 -0.00000000000E+00 -0.45593999997E+02  0.45594000000E+02  0.51100000000E-03 0. -1.
    9900012    2    1    2    0    0 -0.20376933940E+01 -0.31570858600E+02  0.39813443712E+01  0.59301915102E+02  0.49999947246E+02 0.  0.
        -12    1    1    2    0    0  0.20376933940E+01  0.31570858600E+02 -0.39813443712E+01  0.31886084898E+02  0.00000000000E+00 0.  1.
         11    1    3    3    0    0 -0.13312563285E+02 -0.28294501716E+02 -0.21594557433E+01  0.31344320346E+02  0.51100000000E-03 0. -1.
        -11    1    3    3    0    0  0.15416454591E+02 -0.10895313461E+01 -0.46955330982E+01  0.16152466749E+02  0.51100000000E-03 0.  1.
         12    1    3    3    0    0 -0.41415847004E+01 -0.21868255378E+01  0.10836333213E+02  0.11805128007E+02  0.00000000000E+00 0. -1.
</event>
<event>
 7    1  0.5979290E-013  0.5930182E+02  0.7816164E-02  0.1266605E+00
        -11   -1    0    0    0    0  0.00000000000E+00  0.00000000000E+00  0.45593999997E+02  0.45594000000E+02  0.51100000000E-03 0.  1.
         11   -1    0    0    0    0 -0.00000000000E+00 -0.00000000000E+00 -0.45593999997E+02  0.45594000000E+02  0.51100000000E-03 0. -1.
    9900012    2    1    2    0    0 -0.43009209250E+01  0.22410900737E+02 -0.22270653469E+02  0.59301821198E+02  0.49999775988E+02 0.  0.
        -12    1    1    2    0    0  0.43009209250E+01 -0.22410900737E+02  0.22270653469E+02  0.31886178802E+02  0.00000000000E+00 0.  1.
         11    1    3    3    0    0 -0.78948800649E+01  0.10699573622E+02 -0.20287377905E+02  0.24256704422E+02  0.51100000000E-03 0. -1.
        -11    1    3    3    0    0  0.15804791980E+02  0.35894932297E+00 -0.74806436262E+01  0.17489434625E+02  0.51100000000E-03 0.  1.
        -12    1    3    3    0    0 -0.12210832841E+02  0.11352377792E+02  0.54973680619E+01  0.17555682151E+02  0.00000000000E+00 0.  1.
</event>
<event>
 7    1  0.5979290E-013  0.5930192E+02  0.7816164E-02  0.1266605E+00
        -11   -1    0    0    0    0  0.00000000000E+00  0.00000000000E+00  0.45593999997E+02  0.45594000000E+02  0.51100000000E-03 0.  1.
         11   -1    0    0    0    0 -0.00000000000E+00 -0.00000000000E+00 -0.45593999997E+02  0.45594000000E+02  0.51100000000E-03 0. -1.
    9900012    2    1    2    0    0 -0.19333354798E+02 -0.12178177296E+02 -0.22240398625E+02  0.59301922459E+02  0.49999960663E+02 0.  0.
        -12    1    1    2    0    0  0.19333354798E+02  0.12178177296E+02  0.22240398625E+02  0.31886077541E+02  0.00000000000E+00 0.  1.
         11    1    3    3    0    0 -0.77391808641E+01 -0.66583118623E+01 -0.24906331718E+02  0.26917529552E+02  0.51100000000E-03 0. -1.
        -11    1    3    3    0    0  0.67418692284E+01  0.36968255508E+00  0.97538118027E+01  0.11862812096E+02  0.51100000000E-03 0.  1.
         12    1    3    3    0    0 -0.18336043162E+02 -0.58895479890E+01 -0.70878787097E+01  0.20521580810E+02  0.00000000000E+00 0. -1.
</event>
<event>
 7    1  0.5979290E-013  0.5930200E+02  0.7816164E-02  0.1266605E+00
        -11   -1    0    0    0    0  0.00000000000E+00  0.00000000000E+00  0.45593999997E+02  0.45594000000E+02  0.51100000000E-03 0. -1.
         11   -1    0    0    0    0 -0.00000000000E+00 -0.00000000000E+00 -0.45593999997E+02  0.45594000000E+02  0.51100000000E-03 0.  1.
    9900012    2    1    2    0    0 -0.26812890008E+02  0.14741301659E+02 -0.89710512327E+01  0.59302002988E+02  0.50000107530E+02 0.  0.
        -12    1    1    2    0    0  0.26812890008E+02 -0.14741301659E+02  0.89710512327E+01  0.31885997012E+02  0.00000000000E+00 0.  1.
         11    1    3    3    0    0 -0.24766702726E+02 -0.13118709545E+02 -0.36032745801E+01  0.28257276797E+02  0.51100000000E-03 0. -1.
        -11    1    3    3    0    0 -0.37532488836E+01  0.22127113136E+02  0.79382204365E+00  0.22457207454E+02  0.51100000000E-03 0.  1.
         12    1    3    3    0    0  0.17070616013E+01  0.57328980675E+01 -0.61615986962E+01  0.85875187369E+01  0.00000000000E+00 0. -1.
</event>
<event>
 7    1  0.5979290E-013  0.5930190E+02  0.7816164E-02  0.1266605E+00
        -11   -1    0    0    0    0  0.00000000000E+00  0.00000000000E+00  0.45593999997E+02  0.45594000000E+02  0.51100000000E-03 0.  1.
         11   -1    0    0    0    0 -0.00000000000E+00 -0.00000000000E+00 -0.45593999997E+02  0.45594000000E+02  0.51100000000E-03 0. -1.
    9900012    2    1    2    0    0  0.11979791978E+02  0.17250331031E+02  0.23992379380E+02  0.59301896368E+02  0.49999913080E+02 0.  0.
        -12    1    1    2    0    0 -0.11979791978E+02 -0.17250331031E+02 -0.23992379380E+02  0.31886103632E+02  0.00000000000E+00 0.  1.
         11    1    3    3    0    0 -0.75695847215E+01  0.28172040288E+02  0.20558398996E+02  0.35687676254E+02  0.51100000000E-03 0. -1.
        -11    1    3    3    0    0  0.56519666201E+01 -0.71758283013E+00  0.28320997975E+01  0.63624241698E+01  0.51100000000E-03 0.  1.
         12    1    3    3    0    0  0.13897410079E+02 -0.10204126428E+02  0.60188058709E+00  0.17251795944E+02  0.00000000000E+00 0. -1.
</event>
<event>
 7    1  0.5979290E-013  0.5930198E+02  0.7816164E-02  0.1266605E+00
        -11   -1    0    0    0    0  0.00000000000E+00  0.00000000000E+00  0.45593999997E+02  0.45594000000E+02  0.51100000000E-03 0.  1.
         11   -1    0    0    0    0 -0.00000000000E+00 -0.00000000000E+00 -0.45593999997E+02  0.45594000000E+02  0.51100000000E-03 0. -1.
    9900012    2    1    2    0    0 -0.34125069706E+01 -0.12750530945E+02 -0.29025799725E+02  0.59301979664E+02  0.50000064992E+02 0.  0.
        -12    1    1    2    0    0  0.34125069706E+01  0.12750530945E+02  0.29025799725E+02  0.31886020336E+02  0.00000000000E+00 0.  1.
         11    1    3    3    0    0 -0.84876762412E+01 -0.18416437051E+02 -0.30737003713E+02  0.36823487058E+02  0.51100000000E-03 0. -1.
        -11    1    3    3    0    0 -0.96169590305E+00 -0.63868888898E+01  0.54920451668E+01  0.84781937390E+01  0.51100000000E-03 0.  1.
         12    1    3    3    0    0  0.60368651737E+01  0.12052794996E+02 -0.37808411792E+01  0.14000298867E+02  0.00000000000E+00 0. -1.
</event>
<event>
 7    1  0.5979290E-013  0.5930203E+02  0.7816164E-02  0.1266604E+00
        -11   -1    0    0    0    0  0.00000000000E+00  0.00000000000E+00  0.45593999997E+02  0.45594000000E+02  0.51100000000E-03 0. -1.
         11   -1    0    0    0    0 -0.00000000000E+00 -0.00000000000E+00 -0.45593999997E+02  0.45594000000E+02  0.51100000000E-03 0.  1.
    9900012    2    1    2    0    0 -0.12139298255E+02  0.94450767605E+01  0.27931035924E+02  0.59302034358E+02  0.50000164740E+02 0.  0.
        -12    1    1    2    0    0  0.12139298255E+02 -0.94450767605E+01 -0.27931035924E+02  0.31885965642E+02  0.00000000000E+00 0.  1.
         11    1    3    3    0    0 -0.11376194584E+02 -0.11121656354E+02  0.94470852938E+01  0.18502877184E+02  0.51100000000E-03 0. -1.
        -11    1    3    3    0    0 -0.78245069633E+01  0.23819094788E+02  0.55029857792E+01  0.25668171701E+02  0.51100000000E-03 0.  1.
        -12    1    3    3    0    0  0.70614032920E+01 -0.32523616731E+01  0.12980964851E+02  0.15130985473E+02  0.00000000000E+00 0.  1.
</event>
<event>
 7    1  0.5979290E-013  0.5930164E+02  0.7816164E-02  0.1266606E+00
        -11   -1    0    0    0    0  0.00000000000E+00  0.00000000000E+00  0.45593999997E+02  0.45594000000E+02  0.51100000000E-03 0.  1.
         11   -1    0    0    0    0 -0.00000000000E+00 -0.00000000000E+00 -0.45593999997E+02  0.45594000000E+02  0.51100000000E-03 0. -1.
    9900012    2    1    2    0    0  0.49206230259E+01 -0.11244327720E+02 -0.29429446820E+02  0.59301642776E+02  0.49999450587E+02 0.  0.
        -12    1    1    2    0    0 -0.49206230259E+01  0.11244327720E+02  0.29429446820E+02  0.31886357224E+02  0.00000000000E+00 0.  1.
         11    1    3    3    0    0 -0.14164752651E+02 -0.12590318798E+02 -0.33236310682E+02  0.38259752915E+02  0.51100000000E-03 0. -1.
        -11    1    3    3    0    0  0.66665295014E+01 -0.25829434001E+01 -0.87006247653E+00  0.72021678108E+01  0.51100000000E-03 0.  1.
         12    1    3    3    0    0  0.12418846176E+02  0.39289344783E+01  0.46769263377E+01  0.13839722051E+02  0.00000000000E+00 0. -1.
</event>
<event>
 7    1  0.5979290E-013  0.5930195E+02  0.7816164E-02  0.1266605E+00
        -11   -1    0    0    0    0  0.00000000000E+00  0.00000000000E+00  0.45593999997E+02  0.45594000000E+02  0.51100000000E-03 0.  1.
         11   -1    0    0    0    0 -0.00000000000E+00 -0.00000000000E+00 -0.45593999997E+02  0.45594000000E+02  0.51100000000E-03 0. -1.
    9900012    2    1    2    0    0  0.14606747470E+01 -0.22167902605E+02 -0.22872928440E+02  0.59301947688E+02  0.50000006675E+02 0.  0.
        -12    1    1    2    0    0 -0.14606747470E+01  0.22167902605E+02  0.22872928440E+02  0.31886052312E+02  0.00000000000E+00 0.  1.
         11    1    3    3    0    0 -0.88204281131E+01 -0.10101169508E+02 -0.27176514651E+02  0.30305057769E+02  0.51100000000E-03 0. -1.
        -11    1    3    3    0    0  0.26500300944E+01  0.54661322824E+01  0.74558532305E+01  0.96172246145E+01  0.51100000000E-03 0.  1.
        -12    1    3    3    0    0  0.76310727656E+01 -0.17532865379E+02 -0.31522670195E+01  0.19379665305E+02  0.00000000000E+00 0.  1.
</event>
<event>
 7    1  0.5979290E-013  0.5930198E+02  0.7816164E-02  0.1266605E+00
        -11   -1    0    0    0    0  0.00000000000E+00  0.00000000000E+00  0.45593999997E+02  0.45594000000E+02  0.51100000000E-03 0.  1.
         11   -1    0    0    0    0 -0.00000000000E+00 -0.00000000000E+00 -0.45593999997E+02  0.45594000000E+02  0.51100000000E-03 0. -1.
    9900012    2    1    2    0    0  0.82415548996E+01  0.24794433303E+02 -0.18276513788E+02  0.59301982591E+02  0.50000070330E+02 0.  0.
        -12    1    1    2    0    0 -0.82415548996E+01 -0.24794433303E+02  0.18276513788E+02  0.31886017409E+02  0.00000000000E+00 0.  1.
         11    1    3    3    0    0  0.66079952581E+01  0.30354848148E+02  0.41744265021E+01  0.31344987547E+02  0.51100000000E-03 0. -1.
        -11    1    3    3    0    0 -0.30174795308E+01 -0.85516650673E+01 -0.67330114853E+01  0.11294671401E+02  0.51100000000E-03 0.  1.
         12    1    3    3    0    0  0.46510391723E+01  0.29912502219E+01 -0.15717928805E+02  0.16662323643E+02  0.00000000000E+00 0. -1.
</event>
<event>
 7    1  0.5979290E-013  0.5930176E+02  0.7816164E-02  0.1266605E+00
        -11   -1    0    0    0    0  0.00000000000E+00  0.00000000000E+00  0.45593999997E+02  0.45594000000E+02  0.51100000000E-03 0. -1.
         11   -1    0    0    0    0 -0.00000000000E+00 -0.00000000000E+00 -0.45593999997E+02  0.45594000000E+02  0.51100000000E-03 0.  1.
    9900012    2    1    2    0    0 -0.18207812032E+02 -0.92122462035E+01  0.24501889817E+02  0.59301756827E+02  0.49999658589E+02 0.  0.
        -12    1    1    2    0    0  0.18207812032E+02  0.92122462035E+01 -0.24501889817E+02  0.31886243173E+02  0.00000000000E+00 0.  1.
         11    1    3    3    0    0  0.48234380557E+00 -0.21115935947E+02  0.26317328771E+02  0.33744884062E+02  0.51100000000E-03 0. -1.
        -11    1    3    3    0    0 -0.16422044737E+02  0.56603522641E+01 -0.51592228835E+01  0.18120174450E+02  0.51100000000E-03 0.  1.
         12    1    3    3    0    0 -0.22681111011E+01  0.62433374794E+01  0.33437839290E+01  0.74366983140E+01  0.00000000000E+00 0. -1.
</event>
<event>
 7    1  0.5979290E-013  0.5930192E+02  0.7816164E-02  0.1266605E+00
        -11   -1    0    0    0    0  0.00000000000E+00  0.00000000000E+00  0.45593999997E+02  0.45594000000E+02  0.51100000000E-03 0. -1.
         11   -1    0    0    0    0 -0.00000000000E+00 -0.00000000000E+00 -0.45593999997E+02  0.45594000000E+02  0.51100000000E-03 0.  1.
    9900012    2    1    2    0    0  0.17833468869E+02 -0.18777042176E+02  0.18604092664E+02  0.59301918575E+02  0.49999953580E+02 0.  0.
        -12    1    1    2    0    0 -0.17833468869E+02  0.18777042176E+02 -0.18604092664E+02  0.31886081425E+02  0.00000000000E+00 0.  1.
         11    1    3    3    0    0  0.87718676026E+00  0.11152075346E+01  0.20263012428E+02  0.20312627043E+02  0.51100000000E-03 0. -1.
        -11    1    3    3    0    0  0.22402657533E+02 -0.11865199617E+02 -0.89179169635E+01  0.26873616611E+02  0.51100000000E-03 0.  1.
        -12    1    3    3    0    0 -0.54463754240E+01 -0.80270500929E+01  0.72589971999E+01  0.12115674921E+02  0.00000000000E+00 0.  1.
</event>
<event>
 7    1  0.5979290E-013  0.5930195E+02  0.7816164E-02  0.1266605E+00
        -11   -1    0    0    0    0  0.00000000000E+00  0.00000000000E+00  0.45593999997E+02  0.45594000000E+02  0.51100000000E-03 0. -1.
         11   -1    0    0    0    0 -0.00000000000E+00 -0.00000000000E+00 -0.45593999997E+02  0.45594000000E+02  0.51100000000E-03 0.  1.
    9900012    2    1    2    0    0 -0.64389471159E+01  0.60672912050E+01  0.30634098882E+02  0.59301951689E+02  0.50000013973E+02 0.  0.
        -12    1    1    2    0    0  0.64389471159E+01 -0.60672912050E+01 -0.30634098882E+02  0.31886048311E+02  0.00000000000E+00 0.  1.
         11    1    3    3    0    0 -0.91802346577E+01  0.21441388891E+01 -0.15593966564E+01  0.95554046560E+01  0.51100000000E-03 0. -1.
        -11    1    3    3    0    0  0.84879729119E+01  0.17193631506E+02  0.29271958990E+02  0.34993059768E+02  0.51100000000E-03 0.  1.
        -12    1    3    3    0    0 -0.57466853701E+01 -0.13270479190E+02  0.29215365484E+01  0.14753487265E+02  0.00000000000E+00 0.  1.
</event>
<event>
 7    1  0.5979290E-013  0.5930196E+02  0.7816164E-02  0.1266605E+00
        -11   -1    0    0    0    0  0.00000000000E+00  0.00000000000E+00  0.45593999997E+02  0.45594000000E+02  0.51100000000E-03 0.  1.
         11   -1    0    0    0    0 -0.00000000000E+00 -0.00000000000E+00 -0.45593999997E+02  0.45594000000E+02  0.51100000000E-03 0. -1.
    9900012    2    1    2    0    0  0.22254399592E+02 -0.19807490092E+02 -0.11363308408E+02  0.59301956926E+02  0.50000023524E+02 0.  0.
        -12    1    1    2    0    0 -0.22254399592E+02  0.19807490092E+02  0.11363308408E+02  0.31886043074E+02  0.00000000000E+00 0.  1.
         11    1    3    3    0    0  0.10217050344E+02  0.75943012962E+01 -0.47867432096E+01  0.13600530899E+02  0.51100000000E-03 0. -1.
        -11    1    3    3    0    0  0.10670278280E+02 -0.34936708807E+02 -0.15926980236E+01  0.36564534020E+02  0.51100000000E-03 0.  1.
        -12    1    3    3    0    0  0.13670709671E+01  0.75349174191E+01 -0.49838671745E+01  0.91368920074E+01  0.00000000000E+00 0.  1.
</event>
<event>
 7    1  0.5979290E-013  0.5930194E+02  0.7816164E-02  0.1266605E+00
        -11   -1    0    0    0    0  0.00000000000E+00  0.00000000000E+00  0.45593999997E+02  0.45594000000E+02  0.51100000000E-03 0.  1.
         11   -1    0    0    0    0 -0.00000000000E+00 -0.00000000000E+00 -0.45593999997E+02  0.45594000000E+02  0.51100000000E-03 0. -1.
    9900012    2    1    2    0    0 -0.14177491561E+02 -0.87902892605E+01 -0.27174440058E+02  0.59301942785E+02  0.49999997733E+02 0.  0.
        -12    1    1    2    0    0  0.14177491561E+02  0.87902892605E+01  0.27174440058E+02  0.31886057215E+02  0.00000000000E+00 0.  1.
         11    1    3    3    0    0 -0.14081138963E+02 -0.12536301528E+02  0.76322025330E+01  0.20339317743E+02  0.51100000000E-03 0.  1.
        -11    1    3    3    0    0 -0.73691007555E+00 -0.50506567492E+01 -0.26008963585E+02  0.26505062857E+02  0.51100000000E-03 0. -1.
        -12    1    3    3    0    0  0.64055747804E+00  0.87966690166E+01 -0.87976790065E+01  0.12457562184E+02  0.00000000000E+00 0.  1.
</event>
<event>
 7    1  0.5979290E-013  0.5930195E+02  0.7816164E-02  0.1266605E+00
        -11   -1    0    0    0    0  0.00000000000E+00  0.00000000000E+00  0.45593999997E+02  0.45594000000E+02  0.51100000000E-03 0. -1.
         11   -1    0    0    0    0 -0.00000000000E+00 -0.00000000000E+00 -0.45593999997E+02  0.45594000000E+02  0.51100000000E-03 0.  1.
    9900012    2    1    2    0    0  0.21844108250E+02 -0.16260809621E+02  0.16587374417E+02  0.59301953133E+02  0.50000016606E+02 0.  0.
        -12    1    1    2    0    0 -0.21844108250E+02  0.16260809621E+02 -0.16587374417E+02  0.31886046867E+02  0.00000000000E+00 0.  1.
         11    1    3    3    0    0 -0.89616194984E+01 -0.84296021027E+01  0.22725538792E+02  0.25842192811E+02  0.51100000000E-03 0. -1.
        -11    1    3    3    0    0  0.17552328662E+02 -0.68761043995E+01 -0.70843450550E+01  0.20138346464E+02  0.51100000000E-03 0.  1.
         12    1    3    3    0    0  0.13253399086E+02 -0.95510311836E+00  0.94618067984E+00  0.13321413858E+02  0.00000000000E+00 0. -1.
</event>
<event>
 7    1  0.5979290E-013  0.5930182E+02  0.7816164E-02  0.1266605E+00
        -11   -1    0    0    0    0  0.00000000000E+00  0.00000000000E+00  0.45593999997E+02  0.45594000000E+02  0.51100000000E-03 0. -1.
         11   -1    0    0    0    0 -0.00000000000E+00 -0.00000000000E+00 -0.45593999997E+02  0.45594000000E+02  0.51100000000E-03 0.  1.
    9900012    2    1    2    0    0 -0.29453174994E+02  0.34691020749E+01  0.11713422537E+02  0.59301820330E+02  0.49999774404E+02 0.  0.
        -12    1    1    2    0    0  0.29453174994E+02 -0.34691020749E+01 -0.11713422537E+02  0.31886179670E+02  0.00000000000E+00 0.  1.
         11    1    3    3    0    0 -0.16066523269E+02 -0.23335120501E+00 -0.12090893463E+02  0.20109135430E+02  0.51100000000E-03 0. -1.
        -11    1    3    3    0    0 -0.80234298482E+01  0.38034803817E+01  0.29831050215E+02  0.31124483076E+02  0.51100000000E-03 0.  1.
        -12    1    3    3    0    0 -0.53632218764E+01 -0.10102710171E+00 -0.60267342150E+01  0.80682018238E+01  0.00000000000E+00 0.  1.
</event>
<event>
 7    1  0.9032799E-013  0.5930194E+02  0.7816164E-02  0.1266605E+00
        -11   -1    0    0    0    0  0.00000000000E+00  0.00000000000E+00  0.45593999997E+02  0.45594000000E+02  0.51100000000E-03 0. -1.
         11   -1    0    0    0    0 -0.00000000000E+00 -0.00000000000E+00 -0.45593999997E+02  0.45594000000E+02  0.51100000000E-03 0.  1.
    9900012    2    1    2    0    0 -0.26034585720E+01  0.17350973267E+02  0.26624926761E+02  0.59301937294E+02  0.49999987720E+02 0.  0.
        -12    1    1    2    0    0  0.26034585720E+01 -0.17350973267E+02 -0.26624926761E+02  0.31886062706E+02  0.00000000000E+00 0.  1.
         11    1    3    3    0    0 -0.17840372568E+02  0.23853533531E+02  0.18289626051E+02  0.34953975120E+02  0.51100000000E-03 0. -1.
        -11    1    3    3    0    0  0.54048657832E+01 -0.15454645276E+01 -0.46694419709E+01  0.73078535372E+01  0.51100000000E-03 0.  1.
         12    1    3    3    0    0  0.98320482128E+01 -0.49570957371E+01  0.13004742680E+02  0.17040108638E+02  0.00000000000E+00 0. -1.
</event>
<event>
 7    1  0.5979290E-013  0.5930193E+02  0.7816164E-02  0.1266605E+00
        -11   -1    0    0    0    0  0.00000000000E+00  0.00000000000E+00  0.45593999997E+02  0.45594000000E+02  0.51100000000E-03 0.  1.
         11   -1    0    0    0    0 -0.00000000000E+00 -0.00000000000E+00 -0.45593999997E+02  0.45594000000E+02  0.51100000000E-03 0. -1.
    9900012    2    1    2    0    0 -0.18390080468E+02 -0.20252418874E+02 -0.16381873022E+02  0.59301932610E+02  0.49999979177E+02 0.  0.
        -12    1    1    2    0    0  0.18390080468E+02  0.20252418874E+02  0.16381873022E+02  0.31886067390E+02  0.00000000000E+00 0.  1.
         11    1    3    3    0    0 -0.23979039227E+02 -0.14544711153E+02  0.53584411491E+01  0.28552685278E+02  0.51100000000E-03 0. -1.
        -11    1    3    3    0    0  0.12135115822E+02 -0.39117226209E+01 -0.70567861427E+01  0.14572605834E+02  0.51100000000E-03 0.  1.
        -12    1    3    3    0    0 -0.65461570633E+01 -0.17959851004E+01 -0.14683528029E+02  0.16176641498E+02  0.00000000000E+00 0.  1.
</event>
<event>
 7    1  0.5979290E-013  0.5930193E+02  0.7816164E-02  0.1266605E+00
        -11   -1    0    0    0    0  0.00000000000E+00  0.00000000000E+00  0.45593999997E+02  0.45594000000E+02  0.51100000000E-03 0.  1.
         11   -1    0    0    0    0 -0.00000000000E+00 -0.00000000000E+00 -0.45593999997E+02  0.45594000000E+02  0.51100000000E-03 0. -1.
    9900012    2    1    2    0    0 -0.11897250342E+02  0.26813033081E+02 -0.12499527746E+02  0.59301929333E+02  0.49999973201E+02 0.  0.
        -12    1    1    2    0    0  0.11897250342E+02 -0.26813033081E+02  0.12499527746E+02  0.31886070667E+02  0.00000000000E+00 0.  1.
         11    1    3    3    0    0  0.12536228489E+01  0.18065627613E+02 -0.19442792685E+02  0.26569920191E+02  0.51100000000E-03 0. -1.
        -11    1    3    3    0    0 -0.26761008527E+01  0.14707259586E+02  0.12476192231E+02  0.19471013665E+02  0.51100000000E-03 0.  1.
        -12    1    3    3    0    0 -0.10474772338E+02 -0.59598541181E+01 -0.55329272920E+01  0.13260995478E+02  0.00000000000E+00 0.  1.
</event>
<event>
 7    1  0.5979290E-013  0.5930191E+02  0.7816164E-02  0.1266605E+00
        -11   -1    0    0    0    0  0.00000000000E+00  0.00000000000E+00  0.45593999997E+02  0.45594000000E+02  0.51100000000E-03 0. -1.
         11   -1    0    0    0    0 -0.00000000000E+00 -0.00000000000E+00 -0.45593999997E+02  0.45594000000E+02  0.51100000000E-03 0.  1.
    9900012    2    1    2    0    0 -0.26136862448E+01  0.31494517218E+02 -0.42410767974E+01  0.59301910510E+02  0.49999938872E+02 0.  0.
        -12    1    1    2    0    0  0.26136862448E+01 -0.31494517218E+02  0.42410767974E+01  0.31886089490E+02  0.00000000000E+00 0.  1.
         11    1    3    3    0    0 -0.77602834596E+01  0.39803464628E+01 -0.38350562501E+01  0.95274767929E+01  0.51100000000E-03 0. -1.
        -11    1    3    3    0    0  0.19249638604E+02  0.56733221747E+00 -0.16981864676E+01  0.19332725875E+02  0.51100000000E-03 0.  1.
        -12    1    3    3    0    0 -0.14103041389E+02  0.26946838538E+02  0.12921659203E+01  0.30441707842E+02  0.00000000000E+00 0.  1.
</event>
<event>
 7    1  0.5979290E-013  0.5930196E+02  0.7816164E-02  0.1266605E+00
        -11   -1    0    0    0    0  0.00000000000E+00  0.00000000000E+00  0.45593999997E+02  0.45594000000E+02  0.51100000000E-03 0.  1.
         11   -1    0    0    0    0 -0.00000000000E+00 -0.00000000000E+00 -0.45593999997E+02  0.45594000000E+02  0.51100000000E-03 0. -1.
    9900012    2    1    2    0    0 -0.14485924040E+02  0.24035855861E+02 -0.15137872590E+02  0.59301959970E+02  0.50000029075E+02 0.  0.
        -12    1    1    2    0    0  0.14485924040E+02 -0.24035855861E+02  0.15137872590E+02  0.31886040030E+02  0.00000000000E+00 0.  1.
         11    1    3    3    0    0  0.21430322907E+01  0.22093217528E+02 -0.19903286933E+02  0.29813481499E+02  0.51100000000E-03 0. -1.
        -11    1    3    3    0    0 -0.11234191150E+02  0.36533349216E+01  0.14209322272E+02  0.18478602397E+02  0.51100000000E-03 0.  1.
         12    1    3    3    0    0 -0.53947651814E+01 -0.17106965887E+01 -0.94439079295E+01  0.11009876074E+02  0.00000000000E+00 0. -1.
</event>
<event>
 7    1  0.5979290E-013  0.5930194E+02  0.7816164E-02  0.1266605E+00
        -11   -1    0    0    0    0  0.00000000000E+00  0.00000000000E+00  0.45593999997E+02  0.45594000000E+02  0.51100000000E-03 0.  1.
         11   -1    0    0    0    0 -0.00000000000E+00 -0.00000000000E+00 -0.45593999997E+02  0.45594000000E+02  0.51100000000E-03 0. -1.
    9900012    2    1    2    0    0  0.13998703929E+02  0.16419843890E+02  0.23476495911E+02  0.59301939640E+02  0.49999991998E+02 0.  0.
        -12    1    1    2    0    0 -0.13998703929E+02 -0.16419843890E+02 -0.23476495911E+02  0.31886060360E+02  0.00000000000E+00 0.  1.
         11    1    3    3    0    0  0.15785728843E+02 -0.11907751827E+00 -0.79731996891E+01  0.17685455270E+02  0.51100000000E-03 0. -1.
        -11    1    3    3    0    0  0.71407519183E+01  0.73145249533E+01  0.25490002492E+02  0.27463299885E+02  0.51100000000E-03 0.  1.
         12    1    3    3    0    0 -0.89277768330E+01  0.92243964547E+01  0.59596931078E+01  0.14153184485E+02  0.00000000000E+00 0. -1.
</event>
<event>
 7    1  0.5979290E-013  0.5930197E+02  0.7816164E-02  0.1266605E+00
        -11   -1    0    0    0    0  0.00000000000E+00  0.00000000000E+00  0.45593999997E+02  0.45594000000E+02  0.51100000000E-03 0. -1.
         11   -1    0    0    0    0 -0.00000000000E+00 -0.00000000000E+00 -0.45593999997E+02  0.45594000000E+02  0.51100000000E-03 0.  1.
    9900012    2    1    2    0    0  0.74033473657E+01 -0.30554731562E+02 -0.53214615927E+01  0.59301966591E+02  0.50000041151E+02 0.  0.
        -12    1    1    2    0    0 -0.74033473657E+01  0.30554731562E+02  0.53214615927E+01  0.31886033409E+02  0.00000000000E+00 0.  1.
         11    1    3    3    0    0  0.73345552695E+01  0.78747914271E+01  0.10936013402E+02  0.15342895112E+02  0.51100000000E-03 0.  1.
        -11    1    3    3    0    0 -0.65326962520E+00 -0.39477061078E+02 -0.15209258924E+02  0.42310597607E+02  0.51100000000E-03 0. -1.
         12    1    3    3    0    0  0.72206172134E+00  0.10475380889E+01 -0.10482160711E+01  0.16484738726E+01  0.00000000000E+00 0. -1.
</event>
<event>
 7    1  0.5979290E-013  0.5930195E+02  0.7816164E-02  0.1266605E+00
        -11   -1    0    0    0    0  0.00000000000E+00  0.00000000000E+00  0.45593999997E+02  0.45594000000E+02  0.51100000000E-03 0.  1.
         11   -1    0    0    0    0 -0.00000000000E+00 -0.00000000000E+00 -0.45593999997E+02  0.45594000000E+02  0.51100000000E-03 0. -1.
    9900012    2    1    2    0    0  0.10949506163E+02  0.24977794798E+02 -0.16520846188E+02  0.59301948552E+02  0.50000008251E+02 0.  0.
        -12    1    1    2    0    0 -0.10949506163E+02 -0.24977794798E+02  0.16520846188E+02  0.31886051448E+02  0.00000000000E+00 0.  1.
         11    1    3    3    0    0  0.25509525948E+02  0.21990374748E+02  0.29979644930E+01  0.33812723744E+02  0.51100000000E-03 0. -1.
        -11    1    3    3    0    0 -0.39686692532E+01  0.22756208854E+01 -0.19728658331E+01  0.49820664299E+01  0.51100000000E-03 0.  1.
         12    1    3    3    0    0 -0.10591350531E+02  0.71179916471E+00 -0.17545944848E+02  0.20507158378E+02  0.00000000000E+00 0. -1.
</event>
<event>
 7    1  0.5979290E-013  0.5930196E+02  0.7816164E-02  0.1266605E+00
        -11   -1    0    0    0    0  0.00000000000E+00  0.00000000000E+00  0.45593999997E+02  0.45594000000E+02  0.51100000000E-03 0.  1.
         11   -1    0    0    0    0 -0.00000000000E+00 -0.00000000000E+00 -0.45593999997E+02  0.45594000000E+02  0.51100000000E-03 0. -1.
    9900012    2    1    2    0    0  0.27501185868E+02  0.16087072555E+02 -0.12691046573E+01  0.59301956750E+02  0.50000023202E+02 0.  0.
        -12    1    1    2    0    0 -0.27501185868E+02 -0.16087072555E+02  0.12691046573E+01  0.31886043250E+02  0.00000000000E+00 0.  1.
         11    1    3    3    0    0 -0.49642264422E+01  0.42008301708E+00  0.94459317279E+00  0.50707268151E+01  0.51100000000E-03 0. -1.
        -11    1    3    3    0    0  0.16411833560E+02  0.19750882124E+02 -0.17991233698E+02  0.31354905768E+02  0.51100000000E-03 0.  1.
        -12    1    3    3    0    0  0.16053578750E+02 -0.40838925861E+01  0.15777535868E+02  0.22876324167E+02  0.00000000000E+00 0.  1.
</event>
<event>
 7    1  0.5979290E-013  0.5930192E+02  0.7816164E-02  0.1266605E+00
        -11   -1    0    0    0    0  0.00000000000E+00  0.00000000000E+00  0.45593999997E+02  0.45594000000E+02  0.51100000000E-03 0.  1.
         11   -1    0    0    0    0 -0.00000000000E+00 -0.00000000000E+00 -0.45593999997E+02  0.45594000000E+02  0.51100000000E-03 0. -1.
    9900012    2    1    2    0    0 -0.17101059281E+02 -0.26270742870E+02  0.58415578505E+01  0.59301922198E+02  0.49999960188E+02 0.  0.
        -12    1    1    2    0    0  0.17101059281E+02  0.26270742870E+02 -0.58415578505E+01  0.31886077802E+02  0.00000000000E+00 0.  1.
         11    1    3    3    0    0 -0.16275289864E+02 -0.14607592701E+02 -0.16335243805E+02  0.27296648422E+02  0.51100000000E-03 0. -1.
        -11    1    3    3    0    0 -0.36465073403E+01 -0.63239664547E+01  0.24477862913E+02  0.25543205369E+02  0.51100000000E-03 0.  1.
        -12    1    3    3    0    0  0.28207379236E+01 -0.53391837148E+01 -0.23010612575E+01  0.64620684061E+01  0.00000000000E+00 0.  1.
</event>
<event>
 7    1  0.5979290E-013  0.5930193E+02  0.7816164E-02  0.1266605E+00
        -11   -1    0    0    0    0  0.00000000000E+00  0.00000000000E+00  0.45593999997E+02  0.45594000000E+02  0.51100000000E-03 0.  1.
         11   -1    0    0    0    0 -0.00000000000E+00 -0.00000000000E+00 -0.45593999997E+02  0.45594000000E+02  0.51100000000E-03 0. -1.
    9900012    2    1    2    0    0  0.22191328197E+02  0.14467790571E+02 -0.17746808336E+02  0.59301933807E+02  0.49999981359E+02 0.  0.
        -12    1    1    2    0    0 -0.22191328197E+02 -0.14467790571E+02  0.17746808336E+02  0.31886066193E+02  0.00000000000E+00 0.  1.
         11    1    3    3    0    0  0.48539368177E+01 -0.81436482450E+01 -0.77874976498E+01  0.12268856070E+02  0.51100000000E-03 0. -1.
        -11    1    3    3    0    0  0.18266075561E+02  0.23101639121E+02  0.68126652114E+01  0.30228259197E+02  0.51100000000E-03 0.  1.
        -12    1    3    3    0    0 -0.92868418196E+00 -0.49020030526E+00 -0.16771975898E+02  0.16804818540E+02  0.00000000000E+00 0.  1.
</event>
<event>
 7    1  0.5979290E-013  0.5930192E+02  0.7816164E-02  0.1266605E+00
        -11   -1    0    0    0    0  0.00000000000E+00  0.00000000000E+00  0.45593999997E+02  0.45594000000E+02  0.51100000000E-03 0. -1.
         11   -1    0    0    0    0 -0.00000000000E+00 -0.00000000000E+00 -0.45593999997E+02  0.45594000000E+02  0.51100000000E-03 0.  1.
    9900012    2    1    2    0    0 -0.19773183636E+02  0.21556186260E+02 -0.12691496189E+02  0.59301921020E+02  0.49999958040E+02 0.  0.
        -12    1    1    2    0    0  0.19773183636E+02 -0.21556186260E+02  0.12691496189E+02  0.31886078980E+02  0.00000000000E+00 0.  1.
         11    1    3    3    0    0  0.82135324430E+00  0.21342537443E+02 -0.59717042473E+01  0.22177461026E+02  0.51100000000E-03 0. -1.
        -11    1    3    3    0    0 -0.20512542580E+02 -0.12309429153E+02 -0.33522075008E+01  0.24156236142E+02  0.51100000000E-03 0.  1.
        -12    1    3    3    0    0 -0.81994300504E-01  0.12523077971E+02 -0.33675844410E+01  0.12968223852E+02  0.00000000000E+00 0.  1.
</event>
<event>
 7    1  0.5979290E-013  0.5930197E+02  0.7816164E-02  0.1266605E+00
        -11   -1    0    0    0    0  0.00000000000E+00  0.00000000000E+00  0.45593999997E+02  0.45594000000E+02  0.51100000000E-03 0. -1.
         11   -1    0    0    0    0 -0.00000000000E+00 -0.00000000000E+00 -0.45593999997E+02  0.45594000000E+02  0.51100000000E-03 0.  1.
    9900012    2    1    2    0    0  0.45306113705E+01  0.31485881201E+02  0.21981889098E+01  0.59301965614E+02  0.50000039369E+02 0.  0.
        -12    1    1    2    0    0 -0.45306113705E+01 -0.31485881201E+02 -0.21981889098E+01  0.31886034386E+02  0.00000000000E+00 0.  1.
         11    1    3    3    0    0  0.22486983131E+01  0.71929407728E+01  0.34720926306E+01  0.82976182463E+01  0.51100000000E-03 0. -1.
        -11    1    3    3    0    0 -0.11990989027E+02 -0.85822240710E+01  0.25371800103E+01  0.14962475414E+02  0.51100000000E-03 0.  1.
        -12    1    3    3    0    0  0.14272902085E+02  0.32875164499E+02 -0.38110837311E+01  0.36041871954E+02  0.00000000000E+00 0.  1.
</event>
<event>
 7    1  0.5979290E-013  0.5930193E+02  0.7816164E-02  0.1266605E+00
        -11   -1    0    0    0    0  0.00000000000E+00  0.00000000000E+00  0.45593999997E+02  0.45594000000E+02  0.51100000000E-03 0.  1.
         11   -1    0    0    0    0 -0.00000000000E+00 -0.00000000000E+00 -0.45593999997E+02  0.45594000000E+02  0.51100000000E-03 0. -1.
    9900012    2    1    2    0    0  0.15280592171E+00 -0.86716741744E+01 -0.30683871029E+02  0.59301933702E+02  0.49999981169E+02 0.  0.
        -12    1    1    2    0    0 -0.15280592171E+00  0.86716741744E+01  0.30683871029E+02  0.31886066298E+02  0.00000000000E+00 0.  1.
         11    1    3    3    0    0  0.41714542634E+01  0.24589969853E+01 -0.34832623894E+02  0.35167589972E+02  0.51100000000E-03 0. -1.
        -11    1    3    3    0    0 -0.85437339018E+01  0.22295693475E+01  0.47293485424E+01  0.10016641471E+02  0.51100000000E-03 0.  1.
        -12    1    3    3    0    0  0.45250855601E+01 -0.13360240507E+02 -0.58059567673E+00  0.14117702259E+02  0.00000000000E+00 0.  1.
</event>
<event>
 7    1  0.5979290E-013  0.5930195E+02  0.7816164E-02  0.1266605E+00
        -11   -1    0    0    0    0  0.00000000000E+00  0.00000000000E+00  0.45593999997E+02  0.45594000000E+02  0.51100000000E-03 0.  1.
         11   -1    0    0    0    0 -0.00000000000E+00 -0.00000000000E+00 -0.45593999997E+02  0.45594000000E+02  0.51100000000E-03 0. -1.
    9900012    2    1    2    0    0  0.13733851845E+02 -0.14078259821E+02 -0.25097892868E+02  0.59301947994E+02  0.50000007233E+02 0.  0.
        -12    1    1    2    0    0 -0.13733851845E+02  0.14078259821E+02  0.25097892868E+02  0.31886052006E+02  0.00000000000E+00 0.  1.
         11    1    3    3    0    0 -0.28828410594E+01  0.13734476433E+02 -0.15355497359E+02  0.20802353590E+02  0.51100000000E-03 0. -1.
        -11    1    3    3    0    0  0.94540008753E+01 -0.22608264623E+02 -0.14474086315E+02  0.28460691080E+02  0.51100000000E-03 0.  1.
        -12    1    3    3    0    0  0.71626920297E+01 -0.52044716309E+01  0.47316908063E+01  0.10038903324E+02  0.00000000000E+00 0.  1.
</event>
<event>
 7    1  0.5979290E-013  0.5930196E+02  0.7816164E-02  0.1266605E+00
        -11   -1    0    0    0    0  0.00000000000E+00  0.00000000000E+00  0.45593999997E+02  0.45594000000E+02  0.51100000000E-03 0.  1.
         11   -1    0    0    0    0 -0.00000000000E+00 -0.00000000000E+00 -0.45593999997E+02  0.45594000000E+02  0.51100000000E-03 0. -1.
    9900012    2    1    2    0    0 -0.35055440995E+01  0.25943725295E+02  0.18203127458E+02  0.59301959624E+02  0.50000028443E+02 0.  0.
        -12    1    1    2    0    0  0.35055440995E+01 -0.25943725295E+02 -0.18203127458E+02  0.31886040376E+02  0.00000000000E+00 0.  1.
         11    1    3    3    0    0 -0.81972806275E+00  0.20126713006E+02  0.24972983489E+02  0.32084364340E+02  0.51100000000E-03 0. -1.
        -11    1    3    3    0    0 -0.73016428323E+01 -0.85367032546E+01 -0.37308473700E+01  0.11836744184E+02  0.51100000000E-03 0.  1.
         12    1    3    3    0    0  0.46158267955E+01  0.14353715544E+02 -0.30390086605E+01  0.15380851100E+02  0.00000000000E+00 0. -1.
</event>
<event>
 7    1  0.5979290E-013  0.5930194E+02  0.7816164E-02  0.1266605E+00
        -11   -1    0    0    0    0  0.00000000000E+00  0.00000000000E+00  0.45593999997E+02  0.45594000000E+02  0.51100000000E-03 0.  1.
         11   -1    0    0    0    0 -0.00000000000E+00 -0.00000000000E+00 -0.45593999997E+02  0.45594000000E+02  0.51100000000E-03 0. -1.
    9900012    2    1    2    0    0 -0.19905821178E+01  0.26419152110E+02 -0.17742234482E+02  0.59301938785E+02  0.49999990438E+02 0.  0.
        -12    1    1    2    0    0  0.19905821178E+01 -0.26419152110E+02  0.17742234482E+02  0.31886061215E+02  0.00000000000E+00 0.  1.
         11    1    3    3    0    0 -0.14422363711E+01  0.51655812581E+01 -0.12546169953E+02  0.13644400179E+02  0.51100000000E-03 0. -1.
        -11    1    3    3    0    0 -0.10894903679E+02  0.26363142409E+02  0.64681760360E+01  0.29249812057E+02  0.51100000000E-03 0.  1.
        -12    1    3    3    0    0  0.10346557933E+02 -0.51095715574E+01 -0.11664240565E+02  0.16407726549E+02  0.00000000000E+00 0.  1.
</event>
<event>
 7    1  0.6242026E-013  0.5930193E+02  0.7816164E-02  0.1266605E+00
        -11   -1    0    0    0    0  0.00000000000E+00  0.00000000000E+00  0.45593999997E+02  0.45594000000E+02  0.51100000000E-03 0. -1.
         11   -1    0    0    0    0 -0.00000000000E+00 -0.00000000000E+00 -0.45593999997E+02  0.45594000000E+02  0.51100000000E-03 0.  1.
    9900012    2    1    2    0    0  0.64337208199E+01 -0.26077001468E+02  0.17184835938E+02  0.59301931642E+02  0.49999977411E+02 0.  0.
        -12    1    1    2    0    0 -0.64337208199E+01  0.26077001468E+02 -0.17184835938E+02  0.31886068358E+02  0.00000000000E+00 0.  1.
         11    1    3    3    0    0 -0.95812057286E+00 -0.11589645143E+02  0.26776990559E+02  0.29193237114E+02  0.51100000000E-03 0. -1.
        -11    1    3    3    0    0  0.12234794264E+02 -0.25910355582E+01 -0.11660553710E+02  0.17098893796E+02  0.51100000000E-03 0.  1.
         12    1    3    3    0    0 -0.48429528716E+01 -0.11896320766E+02  0.20683990892E+01  0.13009800732E+02  0.00000000000E+00 0. -1.
</event>
<event>
 7    1  0.5979290E-013  0.5930194E+02  0.7816164E-02  0.1266605E+00
        -11   -1    0    0    0    0  0.00000000000E+00  0.00000000000E+00  0.45593999997E+02  0.45594000000E+02  0.51100000000E-03 0. -1.
         11   -1    0    0    0    0 -0.00000000000E+00 -0.00000000000E+00 -0.45593999997E+02  0.45594000000E+02  0.51100000000E-03 0.  1.
    9900012    2    1    2    0    0  0.50960209678E+01  0.18569914314E+02  0.25414751140E+02  0.59301941560E+02  0.49999995499E+02 0.  0.
        -12    1    1    2    0    0 -0.50960209678E+01 -0.18569914314E+02 -0.25414751140E+02  0.31886058440E+02  0.00000000000E+00 0.  1.
         11    1    3    3    0    0  0.26417843890E+01  0.19051083559E+02  0.39561435658E+02  0.43988975904E+02  0.51100000000E-03 0. -1.
        -11    1    3    3    0    0 -0.10685347633E+01  0.14744689405E+01 -0.48568824329E+01  0.51870157533E+01  0.51100000000E-03 0.  1.
         12    1    3    3    0    0  0.35227713422E+01 -0.19556381855E+01 -0.92898020847E+01  0.10125949902E+02  0.00000000000E+00 0. -1.
</event>
<event>
 7    1  0.5979290E-013  0.5930194E+02  0.7816164E-02  0.1266605E+00
        -11   -1    0    0    0    0  0.00000000000E+00  0.00000000000E+00  0.45593999997E+02  0.45594000000E+02  0.51100000000E-03 0. -1.
         11   -1    0    0    0    0 -0.00000000000E+00 -0.00000000000E+00 -0.45593999997E+02  0.45594000000E+02  0.51100000000E-03 0.  1.
    9900012    2    1    2    0    0  0.80224013495E+01 -0.12398037163E+02  0.28260405424E+02  0.59301940920E+02  0.49999994332E+02 0.  0.
        -12    1    1    2    0    0 -0.80224013495E+01  0.12398037163E+02 -0.28260405424E+02  0.31886059080E+02  0.00000000000E+00 0.  1.
         11    1    3    3    0    0  0.17478075098E+02 -0.15390027108E+02 -0.22998633272E+01  0.23401397717E+02  0.51100000000E-03 0. -1.
        -11    1    3    3    0    0 -0.82328500373E+01 -0.27415583070E+01  0.57559181628E+01  0.10412807299E+02  0.51100000000E-03 0.  1.
         12    1    3    3    0    0 -0.12228237107E+01  0.57335482524E+01  0.24804350589E+02  0.25487735904E+02  0.00000000000E+00 0. -1.
</event>
<event>
 7    1  0.5979290E-013  0.5930195E+02  0.7816164E-02  0.1266605E+00
        -11   -1    0    0    0    0  0.00000000000E+00  0.00000000000E+00  0.45593999997E+02  0.45594000000E+02  0.51100000000E-03 0.  1.
         11   -1    0    0    0    0 -0.00000000000E+00 -0.00000000000E+00 -0.45593999997E+02  0.45594000000E+02  0.51100000000E-03 0. -1.
    9900012    2    1    2    0    0  0.95722127575E+01  0.18681432572E+01 -0.30357917556E+02  0.59301947020E+02  0.50000005458E+02 0.  0.
        -12    1    1    2    0    0 -0.95722127575E+01 -0.18681432572E+01  0.30357917556E+02  0.31886052980E+02  0.00000000000E+00 0.  1.
         11    1    3    3    0    0 -0.35273907407E+01  0.76469787899E+01  0.77005710678E+01  0.11411291122E+02  0.51100000000E-03 0. -1.
        -11    1    3    3    0    0 -0.20320593933E+01 -0.12266898290E+02 -0.18982658185E+02  0.22692451853E+02  0.51100000000E-03 0.  1.
         12    1    3    3    0    0  0.15131662891E+02  0.64880627575E+01 -0.19075830438E+02  0.25198204045E+02  0.00000000000E+00 0. -1.
</event>
<event>
 7    1  0.5979290E-013  0.5930195E+02  0.7816164E-02  0.1266605E+00
        -11   -1    0    0    0    0  0.00000000000E+00  0.00000000000E+00  0.45593999997E+02  0.45594000000E+02  0.51100000000E-03 0. -1.
         11   -1    0    0    0    0 -0.00000000000E+00 -0.00000000000E+00 -0.45593999997E+02  0.45594000000E+02  0.51100000000E-03 0.  1.
    9900012    2    1    2    0    0 -0.27796481488E+01 -0.13971224868E+02  0.28527157457E+02  0.59301948493E+02  0.50000008144E+02 0.  0.
        -12    1    1    2    0    0  0.27796481488E+01  0.13971224868E+02 -0.28527157457E+02  0.31886051507E+02  0.00000000000E+00 0.  1.
         11    1    3    3    0    0 -0.13767692002E+02 -0.52505314207E+01  0.21759798768E+02  0.26279388614E+02  0.51100000000E-03 0. -1.
        -11    1    3    3    0    0  0.15510481587E+02 -0.44507658349E+01 -0.72477092831E+01  0.17689365328E+02  0.51100000000E-03 0.  1.
        -12    1    3    3    0    0 -0.45224377337E+01 -0.42699276120E+01  0.14015067972E+02  0.15333194551E+02  0.00000000000E+00 0.  1.
</event>
<event>
 7    1  0.5979290E-013  0.5930198E+02  0.7816164E-02  0.1266605E+00
        -11   -1    0    0    0    0  0.00000000000E+00  0.00000000000E+00  0.45593999997E+02  0.45594000000E+02  0.51100000000E-03 0.  1.
         11   -1    0    0    0    0 -0.00000000000E+00 -0.00000000000E+00 -0.45593999997E+02  0.45594000000E+02  0.51100000000E-03 0. -1.
    9900012    2    1    2    0    0  0.21995965619E+02  0.17087719224E+02 -0.15521142821E+02  0.59301976004E+02  0.50000058317E+02 0.  0.
        -12    1    1    2    0    0 -0.21995965619E+02 -0.17087719224E+02  0.15521142821E+02  0.31886023996E+02  0.00000000000E+00 0.  1.
         11    1    3    3    0    0  0.10389235760E+02  0.19272236921E+01 -0.74707375759E+00  0.10592852793E+02  0.51100000000E-03 0. -1.
        -11    1    3    3    0    0 -0.86627635620E+01  0.15931215240E+02  0.65478190389E+01  0.19280068101E+02  0.51100000000E-03 0.  1.
        -12    1    3    3    0    0  0.20269493422E+02 -0.77071970854E+00 -0.21321888102E+02  0.29429055110E+02  0.00000000000E+00 0.  1.
</event>
<event>
 7    1  0.5979290E-013  0.5930195E+02  0.7816164E-02  0.1266605E+00
        -11   -1    0    0    0    0  0.00000000000E+00  0.00000000000E+00  0.45593999997E+02  0.45594000000E+02  0.51100000000E-03 0.  1.
         11   -1    0    0    0    0 -0.00000000000E+00 -0.00000000000E+00 -0.45593999997E+02  0.45594000000E+02  0.51100000000E-03 0. -1.
    9900012    2    1    2    0    0 -0.16346079723E+02  0.27242436039E+02 -0.27157551627E+01  0.59301953369E+02  0.50000017036E+02 0.  0.
        -12    1    1    2    0    0  0.16346079723E+02 -0.27242436039E+02  0.27157551627E+01  0.31886046631E+02  0.00000000000E+00 0.  1.
         11    1    3    3    0    0  0.31778125919E+01  0.29458726467E+02 -0.49645922305E+01  0.30042673553E+02  0.51100000000E-03 0. -1.
        -11    1    3    3    0    0 -0.20463606619E+02  0.52534171330E+01  0.40651000011E+01  0.21514707195E+02  0.51100000000E-03 0.  1.
         12    1    3    3    0    0  0.93971430350E+00 -0.74697075618E+01 -0.18162629332E+01  0.77445726205E+01  0.00000000000E+00 0. -1.
</event>
<event>
 7    1  0.5979290E-013  0.5930194E+02  0.7816164E-02  0.1266605E+00
        -11   -1    0    0    0    0  0.00000000000E+00  0.00000000000E+00  0.45593999997E+02  0.45594000000E+02  0.51100000000E-03 0.  1.
         11   -1    0    0    0    0 -0.00000000000E+00 -0.00000000000E+00 -0.45593999997E+02  0.45594000000E+02  0.51100000000E-03 0. -1.
    9900012    2    1    2    0    0 -0.84963450955E+01 -0.29722600463E+01 -0.30589188951E+02  0.59301942068E+02  0.49999996427E+02 0.  0.
        -12    1    1    2    0    0  0.84963450955E+01  0.29722600463E+01  0.30589188951E+02  0.31886057932E+02  0.00000000000E+00 0.  1.
         11    1    3    3    0    0  0.13962885195E+01  0.10091428806E+02 -0.23377889829E+02  0.25501221345E+02  0.51100000000E-03 0. -1.
        -11    1    3    3    0    0 -0.19010796425E+02 -0.14301386856E+02 -0.58561825954E+01  0.24499692275E+02  0.51100000000E-03 0.  1.
        -12    1    3    3    0    0  0.91181628104E+01  0.12376980036E+01 -0.13551165262E+01  0.93010284477E+01  0.00000000000E+00 0.  1.
</event>
<event>
 7    1  0.5979290E-013  0.5930192E+02  0.7816164E-02  0.1266605E+00
        -11   -1    0    0    0    0  0.00000000000E+00  0.00000000000E+00  0.45593999997E+02  0.45594000000E+02  0.51100000000E-03 0.  1.
         11   -1    0    0    0    0 -0.00000000000E+00 -0.00000000000E+00 -0.45593999997E+02  0.45594000000E+02  0.51100000000E-03 0. -1.
    9900012    2    1    2    0    0  0.17338300552E+02 -0.11720264130E+02 -0.24057033805E+02  0.59301919451E+02  0.49999955178E+02 0.  0.
        -12    1    1    2    0    0 -0.17338300552E+02  0.11720264130E+02  0.24057033805E+02  0.31886080549E+02  0.00000000000E+00 0.  1.
         11    1    3    3    0    0 -0.54005927447E+01 -0.83656036358E+01 -0.23736644627E+02  0.25740590991E+02  0.51100000000E-03 0. -1.
        -11    1    3    3    0    0  0.13989538121E+01  0.49218349026E+01  0.77540555019E+01  0.92901511055E+01  0.51100000000E-03 0.  1.
         12    1    3    3    0    0  0.21339939485E+02 -0.82764953964E+01 -0.80744446799E+01  0.24271177354E+02  0.00000000000E+00 0. -1.
</event>
<event>
 7    1  0.5979290E-013  0.5930192E+02  0.7816164E-02  0.1266605E+00
        -11   -1    0    0    0    0  0.00000000000E+00  0.00000000000E+00  0.45593999997E+02  0.45594000000E+02  0.51100000000E-03 0. -1.
         11   -1    0    0    0    0 -0.00000000000E+00 -0.00000000000E+00 -0.45593999997E+02  0.45594000000E+02  0.51100000000E-03 0.  1.
    9900012    2    1    2    0    0  0.16662044574E+02 -0.83741264290E+01  0.25864496603E+02  0.59301922986E+02  0.49999961625E+02 0.  0.
        -12    1    1    2    0    0 -0.16662044574E+02  0.83741264290E+01 -0.25864496603E+02  0.31886077014E+02  0.00000000000E+00 0.  1.
         11    1    3    3    0    0  0.38497949616E+01 -0.43461513771E+01  0.36774443086E+02  0.37229955917E+02  0.51100000000E-03 0. -1.
        -11    1    3    3    0    0  0.55155530395E+01  0.41433296151E+01 -0.43060557653E+00  0.69118685646E+01  0.51100000000E-03 0.  1.
         12    1    3    3    0    0  0.72966965729E+01 -0.81713046670E+01 -0.10479340906E+02  0.15160098505E+02  0.00000000000E+00 0. -1.
</event>
<event>
 7    1  0.5979290E-013  0.5930195E+02  0.7816164E-02  0.1266605E+00
        -11   -1    0    0    0    0  0.00000000000E+00  0.00000000000E+00  0.45593999997E+02  0.45594000000E+02  0.51100000000E-03 0. -1.
         11   -1    0    0    0    0 -0.00000000000E+00 -0.00000000000E+00 -0.45593999997E+02  0.45594000000E+02  0.51100000000E-03 0.  1.
    9900012    2    1    2    0    0 -0.30127680522E+02 -0.95673493505E+01  0.41843430196E+01  0.59301952366E+02  0.50000015207E+02 0.  0.
        -12    1    1    2    0    0  0.30127680522E+02  0.95673493505E+01 -0.41843430196E+01  0.31886047634E+02  0.00000000000E+00 0.  1.
         11    1    3    3    0    0 -0.17550402620E+02  0.29135771333E+01  0.78022165998E+01  0.19426274680E+02  0.51100000000E-03 0. -1.
        -11    1    3    3    0    0  0.67019868185E+01 -0.15773200337E+02  0.58990096155E+01  0.18124811472E+02  0.51100000000E-03 0.  1.
        -12    1    3    3    0    0 -0.19279264721E+02  0.32922738530E+01 -0.95168831956E+01  0.21750866214E+02  0.00000000000E+00 0.  1.
</event>
<event>
 7    1  0.5979290E-013  0.5930194E+02  0.7816164E-02  0.1266605E+00
        -11   -1    0    0    0    0  0.00000000000E+00  0.00000000000E+00  0.45593999997E+02  0.45594000000E+02  0.51100000000E-03 0.  1.
         11   -1    0    0    0    0 -0.00000000000E+00 -0.00000000000E+00 -0.45593999997E+02  0.45594000000E+02  0.51100000000E-03 0. -1.
    9900012    2    1    2    0    0 -0.21729575390E+02  0.97176243180E+01 -0.21215894871E+02  0.59301939344E+02  0.49999991457E+02 0.  0.
        -12    1    1    2    0    0  0.21729575390E+02 -0.97176243180E+01  0.21215894871E+02  0.31886060656E+02  0.00000000000E+00 0.  1.
         11    1    3    3    0    0 -0.12918400991E+02  0.97424361901E+01 -0.34172050566E+02  0.37809115134E+02  0.51100000000E-03 0. -1.
        -11    1    3    3    0    0 -0.19021769839E+01 -0.57803331989E+01  0.10558268022E+02  0.12186367509E+02  0.51100000000E-03 0.  1.
         12    1    3    3    0    0 -0.69089974152E+01  0.57555213268E+01  0.23978876734E+01  0.93064567006E+01  0.00000000000E+00 0. -1.
</event>
<event>
 7    1  0.5979290E-013  0.5930195E+02  0.7816164E-02  0.1266605E+00
        -11   -1    0    0    0    0  0.00000000000E+00  0.00000000000E+00  0.45593999997E+02  0.45594000000E+02  0.51100000000E-03 0. -1.
         11   -1    0    0    0    0 -0.00000000000E+00 -0.00000000000E+00 -0.45593999997E+02  0.45594000000E+02  0.51100000000E-03 0.  1.
    9900012    2    1    2    0    0 -0.81548158570E+01  0.27380978956E+02  0.14159842311E+02  0.59301950315E+02  0.50000011467E+02 0.  0.
        -12    1    1    2    0    0  0.81548158570E+01 -0.27380978956E+02 -0.14159842311E+02  0.31886049685E+02  0.00000000000E+00 0.  1.
         11    1    3    3    0    0 -0.15883079844E+02  0.49088083494E+01  0.47573473573E+01  0.17291644771E+02  0.51100000000E-03 0. -1.
        -11    1    3    3    0    0  0.12867587147E+02 -0.43719512637E+01  0.37860129568E+01  0.14107538808E+02  0.51100000000E-03 0.  1.
        -12    1    3    3    0    0 -0.51393231601E+01  0.26844121870E+02  0.56164819964E+01  0.27902766736E+02  0.00000000000E+00 0.  1.
</event>
<event>
 7    1  0.8099199E-013  0.5930195E+02  0.7816164E-02  0.1266605E+00
        -11   -1    0    0    0    0  0.00000000000E+00  0.00000000000E+00  0.45593999997E+02  0.45594000000E+02  0.51100000000E-03 0. -1.
         11   -1    0    0    0    0 -0.00000000000E+00 -0.00000000000E+00 -0.45593999997E+02  0.45594000000E+02  0.51100000000E-03 0.  1.
    9900012    2    1    2    0    0  0.71983646172E+01 -0.14523352560E+02  0.27458621724E+02  0.59301950861E+02  0.50000012462E+02 0.  0.
        -12    1    1    2    0    0 -0.71983646172E+01  0.14523352560E+02 -0.27458621724E+02  0.31886049139E+02  0.00000000000E+00 0.  1.
         11    1    3    3    0    0 -0.13783433760E+02  0.13084515293E+00  0.17858722127E+02  0.22559568324E+02  0.51100000000E-03 0. -1.
        -11    1    3    3    0    0  0.11150451867E+02  0.51323047995E+00 -0.61708369054E+01  0.12754419263E+02  0.51100000000E-03 0.  1.
         12    1    3    3    0    0  0.98313465107E+01 -0.15167428193E+02  0.15770736502E+02  0.23987963274E+02  0.00000000000E+00 0. -1.
</event>
<event>
 7    1  0.5979290E-013  0.5930185E+02  0.7816164E-02  0.1266605E+00
        -11   -1    0    0    0    0  0.00000000000E+00  0.00000000000E+00  0.45593999997E+02  0.45594000000E+02  0.51100000000E-03 0.  1.
         11   -1    0    0    0    0 -0.00000000000E+00 -0.00000000000E+00 -0.45593999997E+02  0.45594000000E+02  0.51100000000E-03 0. -1.
    9900012    2    1    2    0    0 -0.30688556473E+02 -0.44258521757E+01 -0.74398259329E+01  0.59301848213E+02  0.49999825257E+02 0.  0.
        -12    1    1    2    0    0  0.30688556473E+02  0.44258521757E+01  0.74398259329E+01  0.31886151787E+02  0.00000000000E+00 0.  1.
         11    1    3    3    0    0 -0.17519405405E+02  0.75542542508E+01 -0.52803127019E+01  0.19795909313E+02  0.51100000000E-03 0. -1.
        -11    1    3    3    0    0 -0.19444722111E+02 -0.20886892704E+02 -0.20382893899E+01  0.28609685924E+02  0.51100000000E-03 0.  1.
        -12    1    3    3    0    0  0.62755710426E+01  0.89067862776E+01 -0.12122384112E+00  0.10896252976E+02  0.00000000000E+00 0.  1.
</event>
<event>
 7    1  0.5979290E-013  0.5930197E+02  0.7816164E-02  0.1266605E+00
        -11   -1    0    0    0    0  0.00000000000E+00  0.00000000000E+00  0.45593999997E+02  0.45594000000E+02  0.51100000000E-03 0. -1.
         11   -1    0    0    0    0 -0.00000000000E+00 -0.00000000000E+00 -0.45593999997E+02  0.45594000000E+02  0.51100000000E-03 0.  1.
    9900012    2    1    2    0    0 -0.26488862577E+02 -0.16848872227E+02  0.55834301066E+01  0.59301968141E+02  0.50000043977E+02 0.  0.
        -12    1    1    2    0    0  0.26488862577E+02  0.16848872227E+02 -0.55834301066E+01  0.31886031859E+02  0.00000000000E+00 0.  1.
         11    1    3    3    0    0 -0.19237081666E+01  0.34436506367E+01 -0.10937855068E+02  0.11627383909E+02  0.51100000000E-03 0. -1.
        -11    1    3    3    0    0 -0.31808613752E+02 -0.13071489451E+02  0.14072320272E+02  0.37157528757E+02  0.51100000000E-03 0.  1.
         12    1    3    3    0    0  0.72434593408E+01 -0.72210334125E+01  0.24489649026E+01  0.10517055475E+02  0.00000000000E+00 0. -1.
</event>
<event>
 7    1  0.5979290E-013  0.5930192E+02  0.7816164E-02  0.1266605E+00
        -11   -1    0    0    0    0  0.00000000000E+00  0.00000000000E+00  0.45593999997E+02  0.45594000000E+02  0.51100000000E-03 0. -1.
         11   -1    0    0    0    0 -0.00000000000E+00 -0.00000000000E+00 -0.45593999997E+02  0.45594000000E+02  0.51100000000E-03 0.  1.
    9900012    2    1    2    0    0  0.22317849872E+02 -0.16765811746E+02  0.15412437183E+02  0.59301920179E+02  0.49999956505E+02 0.  0.
        -12    1    1    2    0    0 -0.22317849872E+02  0.16765811746E+02 -0.15412437183E+02  0.31886079821E+02  0.00000000000E+00 0.  1.
         11    1    3    3    0    0  0.35426191357E+01  0.10748724726E+01  0.13395417365E+02  0.13897579207E+02  0.51100000000E-03 0. -1.
        -11    1    3    3    0    0  0.12149028366E+01 -0.23621775037E+02 -0.72299209613E+01  0.24733297438E+02  0.51100000000E-03 0.  1.
        -12    1    3    3    0    0  0.17560327900E+02  0.57810908176E+01  0.92469407795E+01  0.20671043534E+02  0.00000000000E+00 0.  1.
</event>
<event>
 7    1  0.5979290E-013  0.5930193E+02  0.7816164E-02  0.1266605E+00
        -11   -1    0    0    0    0  0.00000000000E+00  0.00000000000E+00  0.45593999997E+02  0.45594000000E+02  0.51100000000E-03 0.  1.
         11   -1    0    0    0    0 -0.00000000000E+00 -0.00000000000E+00 -0.45593999997E+02  0.45594000000E+02  0.51100000000E-03 0. -1.
    9900012    2    1    2    0    0  0.34218305208E+01  0.95519099873E+01 -0.30228688372E+02  0.59301929229E+02  0.49999973010E+02 0.  0.
        -12    1    1    2    0    0 -0.34218305208E+01 -0.95519099873E+01  0.30228688372E+02  0.31886070771E+02  0.00000000000E+00 0.  1.
         11    1    3    3    0    0 -0.83969289867E+01 -0.59270876684E+01 -0.15347237728E+02  0.18470963451E+02  0.51100000000E-03 0. -1.
        -11    1    3    3    0    0  0.18194444419E+01  0.11339227289E+02  0.90137726470E+01  0.14599196936E+02  0.51100000000E-03 0.  1.
         12    1    3    3    0    0  0.99993150656E+01  0.41397703667E+01 -0.23895223291E+02  0.26231768842E+02  0.00000000000E+00 0. -1.
</event>
<event>
 7    1  0.5979290E-013  0.5930194E+02  0.7816164E-02  0.1266605E+00
        -11   -1    0    0    0    0  0.00000000000E+00  0.00000000000E+00  0.45593999997E+02  0.45594000000E+02  0.51100000000E-03 0.  1.
         11   -1    0    0    0    0 -0.00000000000E+00 -0.00000000000E+00 -0.45593999997E+02  0.45594000000E+02  0.51100000000E-03 0. -1.
    9900012    2    1    2    0    0 -0.56537868668E+01  0.90672783055E+01 -0.30042301569E+02  0.59301941521E+02  0.49999995428E+02 0.  0.
        -12    1    1    2    0    0  0.56537868668E+01 -0.90672783055E+01  0.30042301569E+02  0.31886058479E+02  0.00000000000E+00 0.  1.
         11    1    3    3    0    0 -0.29409060929E+01  0.20841514042E+02 -0.20064597404E+02  0.29079300292E+02  0.51100000000E-03 0. -1.
        -11    1    3    3    0    0  0.14960581731E+01 -0.18512319853E+02 -0.11888106789E+02  0.22051559121E+02  0.51100000000E-03 0.  1.
        -12    1    3    3    0    0 -0.42089389469E+01  0.67380841164E+01  0.19104026250E+01  0.81710821076E+01  0.00000000000E+00 0.  1.
</event>
<event>
 7    1  0.5979290E-013  0.5930195E+02  0.7816164E-02  0.1266605E+00
        -11   -1    0    0    0    0  0.00000000000E+00  0.00000000000E+00  0.45593999997E+02  0.45594000000E+02  0.51100000000E-03 0. -1.
         11   -1    0    0    0    0 -0.00000000000E+00 -0.00000000000E+00 -0.45593999997E+02  0.45594000000E+02  0.51100000000E-03 0.  1.
    9900012    2    1    2    0    0 -0.10673178332E+02 -0.92401255271E+01 -0.28590622652E+02  0.59301947264E+02  0.50000005903E+02 0.  0.
        -12    1    1    2    0    0  0.10673178332E+02  0.92401255271E+01  0.28590622652E+02  0.31886052736E+02  0.00000000000E+00 0.  1.
         11    1    3    3    0    0 -0.23266173238E+02 -0.21824750519E+01 -0.24693401387E+02  0.33997677668E+02  0.51100000000E-03 0. -1.
        -11    1    3    3    0    0  0.12942783208E+02  0.40481340745E+01 -0.41759310791E+01  0.14189482982E+02  0.51100000000E-03 0.  1.
         12    1    3    3    0    0 -0.34978830197E+00 -0.11105784550E+02  0.27870981469E+00  0.11114786614E+02  0.00000000000E+00 0. -1.
</event>
<event>
 7    1  0.5979290E-013  0.5930186E+02  0.7816164E-02  0.1266605E+00
        -11   -1    0    0    0    0  0.00000000000E+00  0.00000000000E+00  0.45593999997E+02  0.45594000000E+02  0.51100000000E-03 0.  1.
         11   -1    0    0    0    0 -0.00000000000E+00 -0.00000000000E+00 -0.45593999997E+02  0.45594000000E+02  0.51100000000E-03 0. -1.
    9900012    2    1    2    0    0  0.87802800209E+01  0.12539140404E+02 -0.27971454348E+02  0.59301864806E+02  0.49999855518E+02 0.  0.
        -12    1    1    2    0    0 -0.87802800209E+01 -0.12539140404E+02  0.27971454348E+02  0.31886135194E+02  0.00000000000E+00 0.  1.
         11    1    3    3    0    0 -0.13753996228E+02  0.99996444198E+01 -0.27193570373E+02  0.32072660797E+02  0.51100000000E-03 0. -1.
        -11    1    3    3    0    0  0.13038348020E+02 -0.33993715220E+01  0.53084523986E+01  0.14482192961E+02  0.51100000000E-03 0.  1.
        -12    1    3    3    0    0  0.94959282289E+01  0.59388675062E+01 -0.60863363735E+01  0.12747011047E+02  0.00000000000E+00 0.  1.
</event>
<event>
 7    1  0.5979290E-013  0.5930195E+02  0.7816164E-02  0.1266605E+00
        -11   -1    0    0    0    0  0.00000000000E+00  0.00000000000E+00  0.45593999997E+02  0.45594000000E+02  0.51100000000E-03 0.  1.
         11   -1    0    0    0    0 -0.00000000000E+00 -0.00000000000E+00 -0.45593999997E+02  0.45594000000E+02  0.51100000000E-03 0. -1.
    9900012    2    1    2    0    0 -0.10064818369E+02  0.79971537463E+01 -0.29179870814E+02  0.59301954501E+02  0.50000019101E+02 0.  0.
        -12    1    1    2    0    0  0.10064818369E+02 -0.79971537463E+01  0.29179870814E+02  0.31886045499E+02  0.00000000000E+00 0.  1.
         11    1    3    3    0    0 -0.31883927403E+01  0.12456549701E+02 -0.20512259139E+02  0.24209177061E+02  0.51100000000E-03 0. -1.
        -11    1    3    3    0    0 -0.14613081661E+02 -0.18616758025E+01  0.78330009826E+01  0.16684240980E+02  0.51100000000E-03 0.  1.
        -12    1    3    3    0    0  0.77366560322E+01 -0.25977201519E+01 -0.16500612658E+02  0.18408536461E+02  0.00000000000E+00 0.  1.
</event>
<event>
 7    1  0.5979290E-013  0.5930194E+02  0.7816164E-02  0.1266605E+00
        -11   -1    0    0    0    0  0.00000000000E+00  0.00000000000E+00  0.45593999997E+02  0.45594000000E+02  0.51100000000E-03 0.  1.
         11   -1    0    0    0    0 -0.00000000000E+00 -0.00000000000E+00 -0.45593999997E+02  0.45594000000E+02  0.51100000000E-03 0. -1.
    9900012    2    1    2    0    0 -0.48423098892E+01  0.11603901188E+01 -0.31494863581E+02  0.59301938747E+02  0.49999990369E+02 0.  0.
        -12    1    1    2    0    0  0.48423098892E+01 -0.11603901188E+01  0.31494863581E+02  0.31886061253E+02  0.00000000000E+00 0.  1.
         11    1    3    3    0    0 -0.47828553228E+00 -0.17347450117E+02 -0.20162232339E+02  0.26602225391E+02  0.51100000000E-03 0. -1.
        -11    1    3    3    0    0  0.24177666890E+00  0.19553139876E+02  0.91190993102E+00  0.19575886057E+02  0.51100000000E-03 0.  1.
        -12    1    3    3    0    0 -0.46058010258E+01 -0.10452996400E+01 -0.12244541173E+02  0.13123827298E+02  0.00000000000E+00 0.  1.
</event>
<event>
 7    1  0.5979290E-013  0.5930195E+02  0.7816164E-02  0.1266605E+00
        -11   -1    0    0    0    0  0.00000000000E+00  0.00000000000E+00  0.45593999997E+02  0.45594000000E+02  0.51100000000E-03 0. -1.
         11   -1    0    0    0    0 -0.00000000000E+00 -0.00000000000E+00 -0.45593999997E+02  0.45594000000E+02  0.51100000000E-03 0.  1.
    9900012    2    1    2    0    0  0.11485480977E+02  0.21688735388E+02  0.20356890410E+02  0.59301945005E+02  0.50000001782E+02 0.  0.
        -12    1    1    2    0    0 -0.11485480977E+02 -0.21688735388E+02 -0.20356890410E+02  0.31886054995E+02  0.00000000000E+00 0.  1.
         11    1    3    3    0    0 -0.25878749053E+01 -0.20469059728E+01  0.96365483541E+01  0.10185773659E+02  0.51100000000E-03 0. -1.
        -11    1    3    3    0    0  0.16648803113E+02  0.23004854174E+02 -0.85533243457E+01  0.29657466484E+02  0.51100000000E-03 0.  1.
        -12    1    3    3    0    0 -0.25754472302E+01  0.73078718764E+00  0.19273666401E+02  0.19458704862E+02  0.00000000000E+00 0.  1.
</event>
<event>
 7    1  0.5979290E-013  0.5930197E+02  0.7816164E-02  0.1266605E+00
        -11   -1    0    0    0    0  0.00000000000E+00  0.00000000000E+00  0.45593999997E+02  0.45594000000E+02  0.51100000000E-03 0. -1.
         11   -1    0    0    0    0 -0.00000000000E+00 -0.00000000000E+00 -0.45593999997E+02  0.45594000000E+02  0.51100000000E-03 0.  1.
    9900012    2    1    2    0    0  0.29798387246E+02 -0.68353840623E+01  0.90582841343E+01  0.59301970626E+02  0.50000048510E+02 0.  0.
        -12    1    1    2    0    0 -0.29798387246E+02  0.68353840623E+01 -0.90582841343E+01  0.31886029374E+02  0.00000000000E+00 0.  1.
         11    1    3    3    0    0  0.84491938949E+01 -0.10471621606E+02 -0.14509677931E+02  0.19788241217E+02  0.51100000000E-03 0. -1.
        -11    1    3    3    0    0  0.74929532385E+01  0.11699901916E+01  0.24264969929E+02  0.25422470203E+02  0.51100000000E-03 0.  1.
        -12    1    3    3    0    0  0.13856240113E+02  0.24662473519E+01 -0.69700786390E+00  0.14091259207E+02  0.00000000000E+00 0.  1.
</event>
<event>
 7    1  0.5979290E-013  0.5930192E+02  0.7816164E-02  0.1266605E+00
        -11   -1    0    0    0    0  0.00000000000E+00  0.00000000000E+00  0.45593999997E+02  0.45594000000E+02  0.51100000000E-03 0.  1.
         11   -1    0    0    0    0 -0.00000000000E+00 -0.00000000000E+00 -0.45593999997E+02  0.45594000000E+02  0.51100000000E-03 0. -1.
    9900012    2    1    2    0    0  0.73453747823E+01 -0.25626186559E+02 -0.17494751337E+02  0.59301916946E+02  0.49999950609E+02 0.  0.
        -12    1    1    2    0    0 -0.73453747823E+01  0.25626186559E+02  0.17494751337E+02  0.31886083054E+02  0.00000000000E+00 0.  1.
         11    1    3    3    0    0  0.51178350757E+01 -0.49883671693E+00  0.12052893914E+02  0.13103943143E+02  0.51100000000E-03 0.  1.
        -11    1    3    3    0    0  0.20886599675E+01 -0.25286497853E+02 -0.11008869696E+02  0.27657994981E+02  0.51100000000E-03 0. -1.
         12    1    3    3    0    0  0.13887973914E+00  0.15914801145E+00 -0.18538775554E+02  0.18539978822E+02  0.00000000000E+00 0. -1.
</event>
<event>
 7    1  0.5979290E-013  0.5930194E+02  0.7816164E-02  0.1266605E+00
        -11   -1    0    0    0    0  0.00000000000E+00  0.00000000000E+00  0.45593999997E+02  0.45594000000E+02  0.51100000000E-03 0.  1.
         11   -1    0    0    0    0 -0.00000000000E+00 -0.00000000000E+00 -0.45593999997E+02  0.45594000000E+02  0.51100000000E-03 0. -1.
    9900012    2    1    2    0    0  0.13796506731E+02  0.22672655541E+02 -0.17672808518E+02  0.59301936145E+02  0.49999985623E+02 0.  0.
        -12    1    1    2    0    0 -0.13796506731E+02 -0.22672655541E+02  0.17672808518E+02  0.31886063855E+02  0.00000000000E+00 0.  1.
         11    1    3    3    0    0 -0.87059315057E+01  0.21065230013E+02 -0.17528026209E+02  0.28753588679E+02  0.51100000000E-03 0. -1.
        -11    1    3    3    0    0  0.84202750501E+01 -0.74783079406E+01  0.59237127083E+01  0.12724641216E+02  0.51100000000E-03 0.  1.
        -12    1    3    3    0    0  0.14082163186E+02  0.90857334686E+01 -0.60684950173E+01  0.17823706249E+02  0.00000000000E+00 0.  1.
</event>
<event>
 7    1  0.6262696E-013  0.5930193E+02  0.7816164E-02  0.1266605E+00
        -11   -1    0    0    0    0  0.00000000000E+00  0.00000000000E+00  0.45593999997E+02  0.45594000000E+02  0.51100000000E-03 0. -1.
         11   -1    0    0    0    0 -0.00000000000E+00 -0.00000000000E+00 -0.45593999997E+02  0.45594000000E+02  0.51100000000E-03 0.  1.
    9900012    2    1    2    0    0  0.11726728470E+02 -0.12474835778E+02  0.26899510245E+02  0.59301931887E+02  0.49999977858E+02 0.  0.
        -12    1    1    2    0    0 -0.11726728470E+02  0.12474835778E+02 -0.26899510245E+02  0.31886068113E+02  0.00000000000E+00 0.  1.
         11    1    3    3    0    0  0.12283728639E+02  0.89568814790E+01  0.10187122570E+01  0.15236583935E+02  0.51100000000E-03 0. -1.
        -11    1    3    3    0    0 -0.13466818215E+02 -0.15196876504E+02  0.98798047575E+01  0.22581204366E+02  0.51100000000E-03 0.  1.
         12    1    3    3    0    0  0.12909818047E+02 -0.62348407534E+01  0.16000993231E+02  0.21484143585E+02  0.00000000000E+00 0. -1.
</event>
<event>
 7    1  0.5979290E-013  0.5930195E+02  0.7816164E-02  0.1266605E+00
        -11   -1    0    0    0    0  0.00000000000E+00  0.00000000000E+00  0.45593999997E+02  0.45594000000E+02  0.51100000000E-03 0. -1.
         11   -1    0    0    0    0 -0.00000000000E+00 -0.00000000000E+00 -0.45593999997E+02  0.45594000000E+02  0.51100000000E-03 0.  1.
    9900012    2    1    2    0    0  0.13943489956E+02 -0.26715205485E+02  0.10420981323E+02  0.59301953397E+02  0.50000017087E+02 0.  0.
        -12    1    1    2    0    0 -0.13943489956E+02  0.26715205485E+02 -0.10420981323E+02  0.31886046603E+02  0.00000000000E+00 0.  1.
         11    1    3    3    0    0 -0.12713442900E+02 -0.25182733460E+01  0.24550034159E+01  0.13190920099E+02  0.51100000000E-03 0. -1.
        -11    1    3    3    0    0  0.28032938209E+02 -0.10578497614E+02  0.11300965318E+02  0.32022836441E+02  0.51100000000E-03 0.  1.
        -12    1    3    3    0    0 -0.13760053524E+01 -0.13618434525E+02 -0.33349874108E+01  0.14088196857E+02  0.00000000000E+00 0.  1.
</event>
<event>
 7    1  0.5979290E-013  0.5930194E+02  0.7816164E-02  0.1266605E+00
        -11   -1    0    0    0    0  0.00000000000E+00  0.00000000000E+00  0.45593999997E+02  0.45594000000E+02  0.51100000000E-03 0.  1.
         11   -1    0    0    0    0 -0.00000000000E+00 -0.00000000000E+00 -0.45593999997E+02  0.45594000000E+02  0.51100000000E-03 0. -1.
    9900012    2    1    2    0    0 -0.21417210489E+01  0.16885949978E+02 -0.26962915511E+02  0.59301935825E+02  0.49999985040E+02 0.  0.
        -12    1    1    2    0    0  0.21417210489E+01 -0.16885949978E+02  0.26962915511E+02  0.31886064175E+02  0.00000000000E+00 0.  1.
         11    1    3    3    0    0  0.52977082794E+01  0.13732438403E+01 -0.19022099005E+02  0.19793730383E+02  0.51100000000E-03 0. -1.
        -11    1    3    3    0    0 -0.11193277326E+02  0.19942001431E+02  0.66407099756E+01  0.23813271669E+02  0.51100000000E-03 0.  1.
        -12    1    3    3    0    0  0.37538479972E+01 -0.44292952934E+01 -0.14581526482E+02  0.15694933772E+02  0.00000000000E+00 0.  1.
</event>
<event>
 7    1  0.5979290E-013  0.5930194E+02  0.7816164E-02  0.1266605E+00
        -11   -1    0    0    0    0  0.00000000000E+00  0.00000000000E+00  0.45593999997E+02  0.45594000000E+02  0.51100000000E-03 0.  1.
         11   -1    0    0    0    0 -0.00000000000E+00 -0.00000000000E+00 -0.45593999997E+02  0.45594000000E+02  0.51100000000E-03 0. -1.
    9900012    2    1    2    0    0  0.29663467180E+02 -0.71428099228E+01  0.92617339734E+01  0.59301941371E+02  0.49999995155E+02 0.  0.
        -12    1    1    2    0    0 -0.29663467180E+02  0.71428099228E+01 -0.92617339734E+01  0.31886058629E+02  0.00000000000E+00 0.  1.
         11    1    3    3    0    0  0.13240650225E+02 -0.76582320276E+01  0.10919969825E+02  0.18793857439E+02  0.51100000000E-03 0. -1.
        -11    1    3    3    0    0 -0.85327758678E+01 -0.96361018719E+01 -0.39657839821E+01  0.13468116652E+02  0.51100000000E-03 0.  1.
        -12    1    3    3    0    0  0.24955592822E+02  0.10151523977E+02  0.23075481303E+01  0.27039967280E+02  0.00000000000E+00 0.  1.
</event>
<event>
 7    1  0.5979290E-013  0.5930197E+02  0.7816164E-02  0.1266605E+00
        -11   -1    0    0    0    0  0.00000000000E+00  0.00000000000E+00  0.45593999997E+02  0.45594000000E+02  0.51100000000E-03 0.  1.
         11   -1    0    0    0    0 -0.00000000000E+00 -0.00000000000E+00 -0.45593999997E+02  0.45594000000E+02  0.51100000000E-03 0. -1.
    9900012    2    1    2    0    0 -0.56655260078E+01 -0.86101357210E+01  0.30174261752E+02  0.59301973368E+02  0.50000053510E+02 0.  0.
        -12    1    1    2    0    0  0.56655260078E+01  0.86101357210E+01 -0.30174261752E+02  0.31886026632E+02  0.00000000000E+00 0.  1.
         11    1    3    3    0    0 -0.83253329510E-01 -0.39224291180E+01 -0.90298165966E+01  0.98453018913E+01  0.51100000000E-03 0. -1.
        -11    1    3    3    0    0  0.54474578569E+01 -0.12902082134E+02  0.29406213633E+02  0.32570906051E+02  0.51100000000E-03 0.  1.
        -12    1    3    3    0    0 -0.11029730535E+02  0.82143755307E+01  0.97978647155E+01  0.16885765426E+02  0.00000000000E+00 0.  1.
</event>
<event>
 7    1  0.5979290E-013  0.5930204E+02  0.7816164E-02  0.1266604E+00
        -11   -1    0    0    0    0  0.00000000000E+00  0.00000000000E+00  0.45593999997E+02  0.45594000000E+02  0.51100000000E-03 0.  1.
         11   -1    0    0    0    0 -0.00000000000E+00 -0.00000000000E+00 -0.45593999997E+02  0.45594000000E+02  0.51100000000E-03 0. -1.
    9900012    2    1    2    0    0  0.72143287879E+01 -0.15597546670E+02 -0.26858603948E+02  0.59302037446E+02  0.50000170371E+02 0.  0.
        -12    1    1    2    0    0 -0.72143287879E+01  0.15597546670E+02  0.26858603948E+02  0.31885962554E+02  0.00000000000E+00 0.  1.
         11    1    3    3    0    0  0.84143109415E+01 -0.10318001376E+02 -0.36213348450E+02  0.38583265637E+02  0.51100000000E-03 0. -1.
        -11    1    3    3    0    0  0.72162290736E+01 -0.66337932273E+01  0.36407482775E+01  0.10456396268E+02  0.51100000000E-03 0.  1.
         12    1    3    3    0    0 -0.84162112273E+01  0.13542479342E+01  0.57139962240E+01  0.10262375541E+02  0.00000000000E+00 0. -1.
</event>
<event>
 7    1  0.5979290E-013  0.5930196E+02  0.7816164E-02  0.1266605E+00
        -11   -1    0    0    0    0  0.00000000000E+00  0.00000000000E+00  0.45593999997E+02  0.45594000000E+02  0.51100000000E-03 0. -1.
         11   -1    0    0    0    0 -0.00000000000E+00 -0.00000000000E+00 -0.45593999997E+02  0.45594000000E+02  0.51100000000E-03 0.  1.
    9900012    2    1    2    0    0 -0.16245055965E+02 -0.18768810463E+02 -0.20013736750E+02  0.59301956843E+02  0.50000023373E+02 0.  0.
        -12    1    1    2    0    0  0.16245055965E+02  0.18768810463E+02  0.20013736750E+02  0.31886043157E+02  0.00000000000E+00 0.  1.
         11    1    3    3    0    0 -0.10959031182E+02 -0.31147593849E+02 -0.11458825741E+02  0.34951075157E+02  0.51100000000E-03 0. -1.
        -11    1    3    3    0    0  0.19863908753E+01  0.12936077621E+02  0.27631216750E-01  0.13087727712E+02  0.51100000000E-03 0.  1.
        -12    1    3    3    0    0 -0.72724156582E+01 -0.55729423478E+00 -0.85825422260E+01  0.11263153973E+02  0.00000000000E+00 0.  1.
</event>
<event>
 7    1  0.5979290E-013  0.5930195E+02  0.7816164E-02  0.1266605E+00
        -11   -1    0    0    0    0  0.00000000000E+00  0.00000000000E+00  0.45593999997E+02  0.45594000000E+02  0.51100000000E-03 0. -1.
         11   -1    0    0    0    0 -0.00000000000E+00 -0.00000000000E+00 -0.45593999997E+02  0.45594000000E+02  0.51100000000E-03 0.  1.
    9900012    2    1    2    0    0 -0.23900023540E+02  0.11592904036E+02  0.17638420609E+02  0.59301946139E+02  0.50000003851E+02 0.  0.
        -12    1    1    2    0    0  0.23900023540E+02 -0.11592904036E+02 -0.17638420609E+02  0.31886053861E+02  0.00000000000E+00 0.  1.
         11    1    3    3    0    0 -0.16249620836E+02 -0.13704814807E+02  0.22879903008E+02  0.31230787504E+02  0.51100000000E-03 0. -1.
        -11    1    3    3    0    0  0.57630176370E+00  0.11354231271E+02 -0.16482393317E+01  0.11487705804E+02  0.51100000000E-03 0.  1.
         12    1    3    3    0    0 -0.82267044684E+01  0.13943487572E+02 -0.35932430669E+01  0.16583452832E+02  0.00000000000E+00 0. -1.
</event>
<event>
 7    1  0.5979290E-013  0.5930194E+02  0.7816164E-02  0.1266605E+00
        -11   -1    0    0    0    0  0.00000000000E+00  0.00000000000E+00  0.45593999997E+02  0.45594000000E+02  0.51100000000E-03 0.  1.
         11   -1    0    0    0    0 -0.00000000000E+00 -0.00000000000E+00 -0.45593999997E+02  0.45594000000E+02  0.51100000000E-03 0. -1.
    9900012    2    1    2    0    0 -0.27757680213E+02 -0.14478027309E+02 -0.60513645775E+01  0.59301935664E+02  0.49999984747E+02 0.  0.
        -12    1    1    2    0    0  0.27757680213E+02  0.14478027309E+02  0.60513645775E+01  0.31886064336E+02  0.00000000000E+00 0.  1.
         11    1    3    3    0    0 -0.91258923834E+01 -0.24820444433E+02 -0.16399237530E+02  0.31117059075E+02  0.51100000000E-03 0. -1.
        -11    1    3    3    0    0 -0.11638468920E+02  0.13051150181E+01  0.11848470158E+02  0.16659637732E+02  0.51100000000E-03 0.  1.
        -12    1    3    3    0    0 -0.69933189098E+01  0.90373021059E+01 -0.15005972055E+01  0.11525238857E+02  0.00000000000E+00 0.  1.
</event>
<event>
 7    1  0.5979290E-013  0.5930199E+02  0.7816164E-02  0.1266605E+00
        -11   -1    0    0    0    0  0.00000000000E+00  0.00000000000E+00  0.45593999997E+02  0.45594000000E+02  0.51100000000E-03 0.  1.
         11   -1    0    0    0    0 -0.00000000000E+00 -0.00000000000E+00 -0.45593999997E+02  0.45594000000E+02  0.51100000000E-03 0. -1.
    9900012    2    1    2    0    0 -0.16540181905E+01 -0.10595800117E+02 -0.30028496467E+02  0.59301994349E+02  0.50000091774E+02 0.  0.
        -12    1    1    2    0    0  0.16540181905E+01  0.10595800117E+02  0.30028496467E+02  0.31886005651E+02  0.00000000000E+00 0.  1.
         11    1    3    3    0    0  0.64953173740E+01 -0.10098071371E+02 -0.76327322195E+01  0.14227395918E+02  0.51100000000E-03 0. -1.
        -11    1    3    3    0    0 -0.11488452870E+02 -0.36633175427E+01  0.79101864201E+01  0.14421355492E+02  0.51100000000E-03 0.  1.
        -12    1    3    3    0    0  0.33391173055E+01  0.31655887968E+01 -0.30305950668E+02  0.30653242939E+02  0.00000000000E+00 0.  1.
</event>
<event>
 7    1  0.5979290E-013  0.5930195E+02  0.7816164E-02  0.1266605E+00
        -11   -1    0    0    0    0  0.00000000000E+00  0.00000000000E+00  0.45593999997E+02  0.45594000000E+02  0.51100000000E-03 0.  1.
         11   -1    0    0    0    0 -0.00000000000E+00 -0.00000000000E+00 -0.45593999997E+02  0.45594000000E+02  0.51100000000E-03 0. -1.
    9900012    2    1    2    0    0 -0.77236546814E+01 -0.17498803532E+02 -0.25511903104E+02  0.59301950281E+02  0.50000011404E+02 0.  0.
        -12    1    1    2    0    0  0.77236546814E+01  0.17498803532E+02  0.25511903104E+02  0.31886049719E+02  0.00000000000E+00 0.  1.
         11    1    3    3    0    0  0.70561190017E+01 -0.47744762201E+01 -0.91395394685E+01  0.12494623664E+02  0.51100000000E-03 0. -1.
        -11    1    3    3    0    0 -0.17887502761E+02 -0.70695320795E+01  0.85606387313E+01  0.21052923185E+02  0.51100000000E-03 0.  1.
        -12    1    3    3    0    0  0.31077290783E+01 -0.56547952326E+01 -0.24933002367E+02  0.25754403433E+02  0.00000000000E+00 0.  1.
</event>
<event>
 7    1  0.5979290E-013  0.5930197E+02  0.7816164E-02  0.1266605E+00
        -11   -1    0    0    0    0  0.00000000000E+00  0.00000000000E+00  0.45593999997E+02  0.45594000000E+02  0.51100000000E-03 0. -1.
         11   -1    0    0    0    0 -0.00000000000E+00 -0.00000000000E+00 -0.45593999997E+02  0.45594000000E+02  0.51100000000E-03 0.  1.
    9900012    2    1    2    0    0 -0.82106380357E+01 -0.13934182889E+02  0.27479863281E+02  0.59301969897E+02  0.50000047180E+02 0.  0.
        -12    1    1    2    0    0  0.82106380357E+01  0.13934182889E+02 -0.27479863281E+02  0.31886030103E+02  0.00000000000E+00 0.  1.
         11    1    3    3    0    0  0.10341306965E+02  0.11688634911E+02  0.15796421332E+02  0.22205714197E+02  0.51100000000E-03 0. -1.
        -11    1    3    3    0    0 -0.13797645854E+02 -0.61247609575E+01  0.59258469508E+01  0.16217379265E+02  0.51100000000E-03 0.  1.
         12    1    3    3    0    0 -0.47542991468E+01 -0.19498056843E+02  0.57575949981E+01  0.20878876435E+02  0.00000000000E+00 0. -1.
</event>
<event>
 7    1  0.5979290E-013  0.5930195E+02  0.7816164E-02  0.1266605E+00
        -11   -1    0    0    0    0  0.00000000000E+00  0.00000000000E+00  0.45593999997E+02  0.45594000000E+02  0.51100000000E-03 0.  1.
         11   -1    0    0    0    0 -0.00000000000E+00 -0.00000000000E+00 -0.45593999997E+02  0.45594000000E+02  0.51100000000E-03 0. -1.
    9900012    2    1    2    0    0 -0.76140390524E-01  0.11618707267E+02 -0.29693775263E+02  0.59301945913E+02  0.50000003438E+02 0.  0.
        -12    1    1    2    0    0  0.76140390524E-01 -0.11618707267E+02  0.29693775263E+02  0.31886054087E+02  0.00000000000E+00 0.  1.
         11    1    3    3    0    0  0.10256034460E+02 -0.14015694262E+01  0.39296224772E+01  0.11072153032E+02  0.51100000000E-03 0. -1.
        -11    1    3    3    0    0 -0.12333458112E+02 -0.19509482271E+01 -0.30288723389E+02  0.32761672008E+02  0.51100000000E-03 0.  1.
        -12    1    3    3    0    0  0.20012832616E+01  0.14971224920E+02 -0.33346743508E+01  0.15468120872E+02  0.00000000000E+00 0.  1.
</event>
<event>
 7    1  0.5979290E-013  0.5930198E+02  0.7816164E-02  0.1266605E+00
        -11   -1    0    0    0    0  0.00000000000E+00  0.00000000000E+00  0.45593999997E+02  0.45594000000E+02  0.51100000000E-03 0.  1.
         11   -1    0    0    0    0 -0.00000000000E+00 -0.00000000000E+00 -0.45593999997E+02  0.45594000000E+02  0.51100000000E-03 0. -1.
    9900012    2    1    2    0    0 -0.12320360514E+02 -0.16197991851E+02 -0.24546932420E+02  0.59301982462E+02  0.50000070095E+02 0.  0.
        -12    1    1    2    0    0  0.12320360514E+02  0.16197991851E+02  0.24546932420E+02  0.31886017538E+02  0.00000000000E+00 0.  1.
         11    1    3    3    0    0 -0.23141451976E+01 -0.53999443577E+01 -0.38778015439E+01  0.70393190109E+01  0.51100000000E-03 0. -1.
        -11    1    3    3    0    0  0.13583598626E+02  0.12441830688E+01  0.57959542673E+01  0.14820770198E+02  0.51100000000E-03 0.  1.
        -12    1    3    3    0    0 -0.23589813942E+02 -0.12042230562E+02 -0.26465085143E+02  0.37441893253E+02  0.00000000000E+00 0.  1.
</event>
<event>
 7    1  0.5979290E-013  0.5930194E+02  0.7816164E-02  0.1266605E+00
        -11   -1    0    0    0    0  0.00000000000E+00  0.00000000000E+00  0.45593999997E+02  0.45594000000E+02  0.51100000000E-03 0. -1.
         11   -1    0    0    0    0 -0.00000000000E+00 -0.00000000000E+00 -0.45593999997E+02  0.45594000000E+02  0.51100000000E-03 0.  1.
    9900012    2    1    2    0    0 -0.11705146167E+02 -0.29290872486E+02 -0.46642397493E+01  0.59301940503E+02  0.49999993572E+02 0.  0.
        -12    1    1    2    0    0  0.11705146167E+02  0.29290872486E+02  0.46642397493E+01  0.31886059497E+02  0.00000000000E+00 0.  1.
         11    1    3    3    0    0 -0.49589966040E+01 -0.11495794283E+01 -0.60445513683E+00  0.51262604747E+01  0.51100000000E-03 0. -1.
        -11    1    3    3    0    0  0.15206569202E+02 -0.79067413804E+01 -0.14599293836E+02  0.22514344026E+02  0.51100000000E-03 0.  1.
        -12    1    3    3    0    0 -0.21952718766E+02 -0.20234551677E+02  0.10539509223E+02  0.31661336002E+02  0.00000000000E+00 0.  1.
</event>
<event>
 7    1  0.5979290E-013  0.5930205E+02  0.7816164E-02  0.1266604E+00
        -11   -1    0    0    0    0  0.00000000000E+00  0.00000000000E+00  0.45593999997E+02  0.45594000000E+02  0.51100000000E-03 0. -1.
         11   -1    0    0    0    0 -0.00000000000E+00 -0.00000000000E+00 -0.45593999997E+02  0.45594000000E+02  0.51100000000E-03 0.  1.
    9900012    2    1    2    0    0 -0.15565031879E+02  0.18914933873E+02  0.20412472295E+02  0.59302047513E+02  0.50000188733E+02 0.  0.
        -12    1    1    2    0    0  0.15565031879E+02 -0.18914933873E+02 -0.20412472295E+02  0.31885952487E+02  0.00000000000E+00 0.  1.
         11    1    3    3    0    0 -0.14429245940E+02 -0.43684527872E+01 -0.65998035954E+01  0.16457336538E+02  0.51100000000E-03 0. -1.
        -11    1    3    3    0    0 -0.48177980754E+01  0.18580360285E+02  0.47206873683E+01  0.19766786691E+02  0.51100000000E-03 0.  1.
         12    1    3    3    0    0  0.36820121368E+01  0.47030263750E+01  0.22291588522E+02  0.23077924285E+02  0.00000000000E+00 0. -1.
</event>
<event>
 7    1  0.5979290E-013  0.5930196E+02  0.7816164E-02  0.1266605E+00
        -11   -1    0    0    0    0  0.00000000000E+00  0.00000000000E+00  0.45593999997E+02  0.45594000000E+02  0.51100000000E-03 0.  1.
         11   -1    0    0    0    0 -0.00000000000E+00 -0.00000000000E+00 -0.45593999997E+02  0.45594000000E+02  0.51100000000E-03 0. -1.
    9900012    2    1    2    0    0  0.30643019336E+02 -0.86503683988E+01 -0.17017423134E+01  0.59301961764E+02  0.50000032347E+02 0.  0.
        -12    1    1    2    0    0 -0.30643019336E+02  0.86503683988E+01  0.17017423134E+01  0.31886038236E+02  0.00000000000E+00 0.  1.
         11    1    3    3    0    0  0.32073317096E+02 -0.44324861424E+01  0.58648598808E+01  0.32905032816E+02  0.51100000000E-03 0. -1.
        -11    1    3    3    0    0 -0.31483993881E+01 -0.12235929502E+02  0.30352212996E+01  0.12993958522E+02  0.51100000000E-03 0.  1.
         12    1    3    3    0    0  0.17181016282E+01  0.80180472455E+01 -0.10601823494E+02  0.13402970426E+02  0.00000000000E+00 0. -1.
</event>
<event>
 7    1  0.5979290E-013  0.5930191E+02  0.7816164E-02  0.1266605E+00
        -11   -1    0    0    0    0  0.00000000000E+00  0.00000000000E+00  0.45593999997E+02  0.45594000000E+02  0.51100000000E-03 0.  1.
         11   -1    0    0    0    0 -0.00000000000E+00 -0.00000000000E+00 -0.45593999997E+02  0.45594000000E+02  0.51100000000E-03 0. -1.
    9900012    2    1    2    0    0 -0.40547184769E+01  0.67359743285E+01 -0.30901593876E+02  0.59301912185E+02  0.49999941926E+02 0.  0.
        -12    1    1    2    0    0  0.40547184769E+01 -0.67359743285E+01  0.30901593876E+02  0.31886087815E+02  0.00000000000E+00 0.  1.
         11    1    3    3    0    0 -0.22977261152E+01 -0.26862233753E+01 -0.26874019406E+02  0.27105502405E+02  0.51100000000E-03 0. -1.
        -11    1    3    3    0    0  0.12738673507E+02  0.57117396960E+01  0.48726241187E+01  0.14786488398E+02  0.51100000000E-03 0.  1.
        -12    1    3    3    0    0 -0.14495665869E+02  0.37104580078E+01 -0.89001985886E+01  0.17409921382E+02  0.00000000000E+00 0.  1.
</event>
<event>
 7    1  0.5979290E-013  0.5930196E+02  0.7816164E-02  0.1266605E+00
        -11   -1    0    0    0    0  0.00000000000E+00  0.00000000000E+00  0.45593999997E+02  0.45594000000E+02  0.51100000000E-03 0.  1.
         11   -1    0    0    0    0 -0.00000000000E+00 -0.00000000000E+00 -0.45593999997E+02  0.45594000000E+02  0.51100000000E-03 0. -1.
    9900012    2    1    2    0    0 -0.64850224477E+01 -0.31206103357E+02  0.91817824129E+00  0.59301961454E+02  0.50000031781E+02 0.  0.
        -12    1    1    2    0    0  0.64850224477E+01  0.31206103357E+02 -0.91817824129E+00  0.31886038546E+02  0.00000000000E+00 0.  1.
         11    1    3    3    0    0 -0.68245347898E+00  0.18356883307E+01 -0.43317260800E+01  0.47538768907E+01  0.51100000000E-03 0. -1.
        -11    1    3    3    0    0 -0.19381633257E+02 -0.32838643949E+02 -0.36579394367E+01  0.38306719585E+02  0.51100000000E-03 0.  1.
        -12    1    3    3    0    0  0.13579064288E+02 -0.20314773833E+00  0.89078437581E+01  0.16241364979E+02  0.00000000000E+00 0.  1.
</event>
<event>
 7    1  0.5979290E-013  0.5930186E+02  0.7816164E-02  0.1266605E+00
        -11   -1    0    0    0    0  0.00000000000E+00  0.00000000000E+00  0.45593999997E+02  0.45594000000E+02  0.51100000000E-03 0.  1.
         11   -1    0    0    0    0 -0.00000000000E+00 -0.00000000000E+00 -0.45593999997E+02  0.45594000000E+02  0.51100000000E-03 0. -1.
    9900012    2    1    2    0    0  0.48862824540E+01 -0.16602555713E+02 -0.26780684398E+02  0.59301863996E+02  0.49999854042E+02 0.  0.
        -12    1    1    2    0    0 -0.48862824540E+01  0.16602555713E+02  0.26780684398E+02  0.31886136004E+02  0.00000000000E+00 0.  1.
         11    1    3    3    0    0 -0.63080754591E+01 -0.72812643155E+00 -0.16709421736E+02  0.17875311441E+02  0.51100000000E-03 0. -1.
        -11    1    3    3    0    0 -0.33385156901E+01 -0.36757691163E+01  0.11602807598E+02  0.12620701646E+02  0.51100000000E-03 0.  1.
         12    1    3    3    0    0  0.14532873603E+02 -0.12198660165E+02 -0.21674070261E+02  0.28805850910E+02  0.00000000000E+00 0. -1.
</event>
<event>
 7    1  0.5979290E-013  0.5930195E+02  0.7816164E-02  0.1266605E+00
        -11   -1    0    0    0    0  0.00000000000E+00  0.00000000000E+00  0.45593999997E+02  0.45594000000E+02  0.51100000000E-03 0. -1.
         11   -1    0    0    0    0 -0.00000000000E+00 -0.00000000000E+00 -0.45593999997E+02  0.45594000000E+02  0.51100000000E-03 0.  1.
    9900012    2    1    2    0    0  0.19822666048E+02 -0.17482680596E+02  0.17836424621E+02  0.59301948922E+02  0.50000008926E+02 0.  0.
        -12    1    1    2    0    0 -0.19822666048E+02  0.17482680596E+02 -0.17836424621E+02  0.31886051078E+02  0.00000000000E+00 0.  1.
         11    1    3    3    0    0  0.17040818755E+02 -0.17542433866E+01 -0.93910002023E+01  0.19536063032E+02  0.51100000000E-03 0. -1.
        -11    1    3    3    0    0  0.10290552384E+02 -0.68046107890E+01  0.25020066595E+02  0.27896270881E+02  0.51100000000E-03 0.  1.
        -12    1    3    3    0    0 -0.75087050909E+01 -0.89238264205E+01  0.22073582283E+01  0.11869615010E+02  0.00000000000E+00 0.  1.
</event>
<event>
 7    1  0.5979290E-013  0.5930199E+02  0.7816164E-02  0.1266605E+00
        -11   -1    0    0    0    0  0.00000000000E+00  0.00000000000E+00  0.45593999997E+02  0.45594000000E+02  0.51100000000E-03 0.  1.
         11   -1    0    0    0    0 -0.00000000000E+00 -0.00000000000E+00 -0.45593999997E+02  0.45594000000E+02  0.51100000000E-03 0. -1.
    9900012    2    1    2    0    0 -0.12311949845E+02  0.23555501089E+02  0.17614536902E+02  0.59301989732E+02  0.50000083353E+02 0.  0.
        -12    1    1    2    0    0  0.12311949845E+02 -0.23555501089E+02 -0.17614536902E+02  0.31886010268E+02  0.00000000000E+00 0.  1.
         11    1    3    3    0    0  0.72666347809E+01 -0.64674840680E+01 -0.60706420628E+01  0.11466692048E+02  0.51100000000E-03 0. -1.
        -11    1    3    3    0    0 -0.12179168008E+02  0.20308935564E+01  0.46959465022E+01  0.13210169409E+02  0.51100000000E-03 0.  1.
         12    1    3    3    0    0 -0.73994166175E+01  0.27992091601E+02  0.18989232463E+02  0.34625128274E+02  0.00000000000E+00 0. -1.
</event>
<event>
 7    1  0.5979290E-013  0.5930193E+02  0.7816164E-02  0.1266605E+00
        -11   -1    0    0    0    0  0.00000000000E+00  0.00000000000E+00  0.45593999997E+02  0.45594000000E+02  0.51100000000E-03 0. -1.
         11   -1    0    0    0    0 -0.00000000000E+00 -0.00000000000E+00 -0.45593999997E+02  0.45594000000E+02  0.51100000000E-03 0.  1.
    9900012    2    1    2    0    0  0.89211826050E+01 -0.27865139165E+02  0.12675483818E+02  0.59301931415E+02  0.49999976998E+02 0.  0.
        -12    1    1    2    0    0 -0.89211826050E+01  0.27865139165E+02 -0.12675483818E+02  0.31886068585E+02  0.00000000000E+00 0.  1.
         11    1    3    3    0    0  0.16137588957E+02 -0.15770680108E+02 -0.41068404487E+01  0.22934739309E+02  0.51100000000E-03 0. -1.
        -11    1    3    3    0    0 -0.14510558210E+02 -0.11844359515E+02  0.74320587530E+00  0.18745599674E+02  0.51100000000E-03 0.  1.
         12    1    3    3    0    0  0.72941518581E+01 -0.25009954236E+00  0.16039118391E+02  0.17621592433E+02  0.00000000000E+00 0. -1.
</event>
<event>
 7    1  0.5979290E-013  0.5930194E+02  0.7816164E-02  0.1266605E+00
        -11   -1    0    0    0    0  0.00000000000E+00  0.00000000000E+00  0.45593999997E+02  0.45594000000E+02  0.51100000000E-03 0.  1.
         11   -1    0    0    0    0 -0.00000000000E+00 -0.00000000000E+00 -0.45593999997E+02  0.45594000000E+02  0.51100000000E-03 0. -1.
    9900012    2    1    2    0    0  0.31465339555E+02 -0.50427095920E+01  0.11065712231E+01  0.59301937007E+02  0.49999987195E+02 0.  0.
        -12    1    1    2    0    0 -0.31465339555E+02  0.50427095920E+01 -0.11065712231E+01  0.31886062993E+02  0.00000000000E+00 0.  1.
         11    1    3    3    0    0 -0.10483618482E+02 -0.11181964938E+00 -0.11332586072E+01  0.10545284986E+02  0.51100000000E-03 0. -1.
        -11    1    3    3    0    0  0.32950139950E+02 -0.65792959283E+01  0.11716335698E+02  0.35584707110E+02  0.51100000000E-03 0.  1.
         12    1    3    3    0    0  0.89988180870E+01  0.16484059857E+01 -0.94765058679E+01  0.13171944910E+02  0.00000000000E+00 0. -1.
</event>
<event>
 7    1  0.5979290E-013  0.5930194E+02  0.7816164E-02  0.1266605E+00
        -11   -1    0    0    0    0  0.00000000000E+00  0.00000000000E+00  0.45593999997E+02  0.45594000000E+02  0.51100000000E-03 0.  1.
         11   -1    0    0    0    0 -0.00000000000E+00 -0.00000000000E+00 -0.45593999997E+02  0.45594000000E+02  0.51100000000E-03 0. -1.
    9900012    2    1    2    0    0  0.40998937530E+01  0.28373128550E+02 -0.13959837870E+02  0.59301943081E+02  0.49999998273E+02 0.  0.
        -12    1    1    2    0    0 -0.40998937530E+01 -0.28373128550E+02  0.13959837870E+02  0.31886056919E+02  0.00000000000E+00 0.  1.
         11    1    3    3    0    0 -0.11971644927E-01  0.34595641007E+02 -0.17077895663E+02  0.38581252449E+02  0.51100000000E-03 0. -1.
        -11    1    3    3    0    0  0.31119969877E+01 -0.10979417262E+01  0.10878114527E+02  0.11367646072E+02  0.51100000000E-03 0.  1.
         12    1    3    3    0    0  0.99986841029E+00 -0.51245707308E+01 -0.77600567343E+01  0.93530445595E+01  0.00000000000E+00 0. -1.
</event>
<event>
 7    1  0.5979290E-013  0.5930193E+02  0.7816164E-02  0.1266605E+00
        -11   -1    0    0    0    0  0.00000000000E+00  0.00000000000E+00  0.45593999997E+02  0.45594000000E+02  0.51100000000E-03 0.  1.
         11   -1    0    0    0    0 -0.00000000000E+00 -0.00000000000E+00 -0.45593999997E+02  0.45594000000E+02  0.51100000000E-03 0. -1.
    9900012    2    1    2    0    0  0.13831077021E+02  0.68664903912E+01 -0.27897560562E+02  0.59301933025E+02  0.49999979933E+02 0.  0.
        -12    1    1    2    0    0 -0.13831077021E+02 -0.68664903912E+01  0.27897560562E+02  0.31886066975E+02  0.00000000000E+00 0.  1.
         11    1    3    3    0    0  0.44553158921E+01 -0.11774977134E+01 -0.38810108063E+02  0.39082743362E+02  0.51100000000E-03 0. -1.
        -11    1    3    3    0    0  0.46785822334E+01  0.10161986566E+02  0.99615082639E+01  0.14979544380E+02  0.51100000000E-03 0.  1.
        -12    1    3    3    0    0  0.46971788953E+01 -0.21179984612E+01  0.95103923735E+00  0.52396452826E+01  0.00000000000E+00 0.  1.
</event>
<event>
 7    1  0.5979290E-013  0.5930196E+02  0.7816164E-02  0.1266605E+00
        -11   -1    0    0    0    0  0.00000000000E+00  0.00000000000E+00  0.45593999997E+02  0.45594000000E+02  0.51100000000E-03 0.  1.
         11   -1    0    0    0    0 -0.00000000000E+00 -0.00000000000E+00 -0.45593999997E+02  0.45594000000E+02  0.51100000000E-03 0. -1.
    9900012    2    1    2    0    0  0.20053347985E+02  0.18641086163E+02 -0.16342967074E+02  0.59301961809E+02  0.50000032429E+02 0.  0.
        -12    1    1    2    0    0 -0.20053347985E+02 -0.18641086163E+02  0.16342967074E+02  0.31886038191E+02  0.00000000000E+00 0.  1.
         11    1    3    3    0    0  0.34900058920E+01 -0.87105725439E+00 -0.19842335821E+02  0.20165742559E+02  0.51100000000E-03 0. -1.
        -11    1    3    3    0    0  0.23347329457E+02  0.20046168650E+02 -0.13147120456E+01  0.30800570422E+02  0.51100000000E-03 0.  1.
        -12    1    3    3    0    0 -0.67839873637E+01 -0.53402523289E+00  0.48140807928E+01  0.83356488278E+01  0.00000000000E+00 0.  1.
</event>
<event>
 7    1  0.5979290E-013  0.5930194E+02  0.7816164E-02  0.1266605E+00
        -11   -1    0    0    0    0  0.00000000000E+00  0.00000000000E+00  0.45593999997E+02  0.45594000000E+02  0.51100000000E-03 0.  1.
         11   -1    0    0    0    0 -0.00000000000E+00 -0.00000000000E+00 -0.45593999997E+02  0.45594000000E+02  0.51100000000E-03 0. -1.
    9900012    2    1    2    0    0 -0.95103884798E+01  0.20074482112E+01 -0.30368463873E+02  0.59301938228E+02  0.49999989422E+02 0.  0.
        -12    1    1    2    0    0  0.95103884798E+01 -0.20074482112E+01  0.30368463873E+02  0.31886061772E+02  0.00000000000E+00 0.  1.
         11    1    3    3    0    0 -0.13526421118E+02 -0.11219237438E+02 -0.24911850224E+02  0.30486646893E+02  0.51100000000E-03 0. -1.
        -11    1    3    3    0    0  0.17258503619E+01  0.85026172496E+01 -0.15340319338E+02  0.17623803710E+02  0.51100000000E-03 0.  1.
         12    1    3    3    0    0  0.22901822760E+01  0.47240683996E+01  0.98837056890E+01  0.11191487624E+02  0.00000000000E+00 0. -1.
</event>
<event>
 7    1  0.5979290E-013  0.5930195E+02  0.7816164E-02  0.1266605E+00
        -11   -1    0    0    0    0  0.00000000000E+00  0.00000000000E+00  0.45593999997E+02  0.45594000000E+02  0.51100000000E-03 0. -1.
         11   -1    0    0    0    0 -0.00000000000E+00 -0.00000000000E+00 -0.45593999997E+02  0.45594000000E+02  0.51100000000E-03 0.  1.
    9900012    2    1    2    0    0  0.30383495044E+02 -0.96708605381E+01 -0.19457456056E+00  0.59301950168E+02  0.50000011198E+02 0.  0.
        -12    1    1    2    0    0 -0.30383495044E+02  0.96708605381E+01  0.19457456056E+00  0.31886049832E+02  0.00000000000E+00 0.  1.
         11    1    3    3    0    0  0.26098141472E+02  0.31124134187E+01  0.81179119672E+01  0.27508191518E+02  0.51100000000E-03 0. -1.
        -11    1    3    3    0    0  0.11027068147E+02 -0.18341650648E+02 -0.85674375994E+01  0.23052404813E+02  0.51100000000E-03 0.  1.
        -12    1    3    3    0    0 -0.67417145752E+01  0.55583766910E+01  0.25495107164E+00  0.87413538369E+01  0.00000000000E+00 0.  1.
</event>
<event>
 7    1  0.5979290E-013  0.5930194E+02  0.7816164E-02  0.1266605E+00
        -11   -1    0    0    0    0  0.00000000000E+00  0.00000000000E+00  0.45593999997E+02  0.45594000000E+02  0.51100000000E-03 0.  1.
         11   -1    0    0    0    0 -0.00000000000E+00 -0.00000000000E+00 -0.45593999997E+02  0.45594000000E+02  0.51100000000E-03 0. -1.
    9900012    2    1    2    0    0  0.48661802702E-02  0.27167356063E+02 -0.16692983825E+02  0.59301937714E+02  0.49999988486E+02 0.  0.
        -12    1    1    2    0    0 -0.48661802702E-02 -0.27167356063E+02  0.16692983825E+02  0.31886062286E+02  0.00000000000E+00 0.  1.
         11    1    3    3    0    0 -0.38545592582E+01  0.37684719879E+02 -0.12631751305E+02  0.39931903044E+02  0.51100000000E-03 0. -1.
        -11    1    3    3    0    0  0.28185152627E+01 -0.39197287955E+01  0.57456104755E+01  0.75046880091E+01  0.51100000000E-03 0.  1.
         12    1    3    3    0    0  0.10409101758E+01 -0.65976350206E+01 -0.98068429952E+01  0.11865346661E+02  0.00000000000E+00 0. -1.
</event>
<event>
 7    1  0.5979290E-013  0.5930195E+02  0.7816164E-02  0.1266605E+00
        -11   -1    0    0    0    0  0.00000000000E+00  0.00000000000E+00  0.45593999997E+02  0.45594000000E+02  0.51100000000E-03 0.  1.
         11   -1    0    0    0    0 -0.00000000000E+00 -0.00000000000E+00 -0.45593999997E+02  0.45594000000E+02  0.51100000000E-03 0. -1.
    9900012    2    1    2    0    0  0.17329351348E+02 -0.25413912652E+02 -0.83992178913E+01  0.59301949200E+02  0.50000009433E+02 0.  0.
        -12    1    1    2    0    0 -0.17329351348E+02  0.25413912652E+02  0.83992178913E+01  0.31886050800E+02  0.00000000000E+00 0.  1.
         11    1    3    3    0    0  0.15315774915E+01 -0.25890162733E+02  0.11329322405E+01  0.25960157775E+02  0.51100000000E-03 0.  1.
        -11    1    3    3    0    0  0.21057609229E+02 -0.48582188218E+00 -0.14872448967E+02  0.25784659545E+02  0.51100000000E-03 0. -1.
         12    1    3    3    0    0 -0.52598353725E+01  0.96207196278E+00  0.53402988349E+01  0.75571318801E+01  0.00000000000E+00 0. -1.
</event>
<event>
 7    1  0.5979290E-013  0.5930194E+02  0.7816164E-02  0.1266605E+00
        -11   -1    0    0    0    0  0.00000000000E+00  0.00000000000E+00  0.45593999997E+02  0.45594000000E+02  0.51100000000E-03 0.  1.
         11   -1    0    0    0    0 -0.00000000000E+00 -0.00000000000E+00 -0.45593999997E+02  0.45594000000E+02  0.51100000000E-03 0. -1.
    9900012    2    1    2    0    0  0.17946345157E+01  0.26518647819E+02 -0.17614240591E+02  0.59301939303E+02  0.49999991383E+02 0.  0.
        -12    1    1    2    0    0 -0.17946345157E+01 -0.26518647819E+02  0.17614240591E+02  0.31886060697E+02  0.00000000000E+00 0.  1.
         11    1    3    3    0    0  0.34167558034E+01  0.12743606542E+02  0.96682952408E+01  0.16356945346E+02  0.51100000000E-03 0. -1.
        -11    1    3    3    0    0  0.50307922553E+01  0.15057822565E+01 -0.28458184646E+02  0.28938633771E+02  0.51100000000E-03 0.  1.
        -12    1    3    3    0    0 -0.66529135431E+01  0.12269259020E+02  0.11756488146E+01  0.14006360186E+02  0.00000000000E+00 0.  1.
</event>
<event>
 7    1  0.5979290E-013  0.5930199E+02  0.7816164E-02  0.1266605E+00
        -11   -1    0    0    0    0  0.00000000000E+00  0.00000000000E+00  0.45593999997E+02  0.45594000000E+02  0.51100000000E-03 0.  1.
         11   -1    0    0    0    0 -0.00000000000E+00 -0.00000000000E+00 -0.45593999997E+02  0.45594000000E+02  0.51100000000E-03 0. -1.
    9900012    2    1    2    0    0  0.11563239570E+02 -0.13177662150E+02 -0.26633779742E+02  0.59301991901E+02  0.50000087310E+02 0.  0.
        -12    1    1    2    0    0 -0.11563239570E+02  0.13177662150E+02  0.26633779742E+02  0.31886008099E+02  0.00000000000E+00 0.  1.
         11    1    3    3    0    0 -0.13983820406E+02 -0.35385363088E+01 -0.20216911501E+02  0.24835297124E+02  0.51100000000E-03 0. -1.
        -11    1    3    3    0    0  0.28293700090E+02 -0.66870275078E+01 -0.79697755257E+01  0.30145764609E+02  0.51100000000E-03 0.  1.
        -12    1    3    3    0    0 -0.27466401134E+01 -0.29520983336E+01  0.15529072843E+01  0.43209301681E+01  0.00000000000E+00 0.  1.
</event>
<event>
 7    1  0.5979290E-013  0.5930193E+02  0.7816164E-02  0.1266605E+00
        -11   -1    0    0    0    0  0.00000000000E+00  0.00000000000E+00  0.45593999997E+02  0.45594000000E+02  0.51100000000E-03 0.  1.
         11   -1    0    0    0    0 -0.00000000000E+00 -0.00000000000E+00 -0.45593999997E+02  0.45594000000E+02  0.51100000000E-03 0. -1.
    9900012    2    1    2    0    0 -0.26361541762E+02  0.12061654177E+02 -0.13278072069E+02  0.59301928066E+02  0.49999970889E+02 0.  0.
        -12    1    1    2    0    0  0.26361541762E+02 -0.12061654177E+02  0.13278072069E+02  0.31886071934E+02  0.00000000000E+00 0.  1.
         11    1    3    3    0    0 -0.62706439337E+01 -0.14332934497E+02 -0.10163808149E+02  0.18656285349E+02  0.51100000000E-03 0. -1.
        -11    1    3    3    0    0 -0.58427588546E+01  0.25015766581E+02 -0.51104644884E+01  0.26192427460E+02  0.51100000000E-03 0.  1.
         12    1    3    3    0    0 -0.14248138973E+02  0.13788220934E+01  0.19962005692E+01  0.14453215258E+02  0.00000000000E+00 0. -1.
</event>
<event>
 7    1  0.5979290E-013  0.5930195E+02  0.7816164E-02  0.1266605E+00
        -11   -1    0    0    0    0  0.00000000000E+00  0.00000000000E+00  0.45593999997E+02  0.45594000000E+02  0.51100000000E-03 0.  1.
         11   -1    0    0    0    0 -0.00000000000E+00 -0.00000000000E+00 -0.45593999997E+02  0.45594000000E+02  0.51100000000E-03 0. -1.
    9900012    2    1    2    0    0  0.18827062081E+02 -0.58142050631E+01 -0.25069042687E+02  0.59301950568E+02  0.50000011928E+02 0.  0.
        -12    1    1    2    0    0 -0.18827062081E+02  0.58142050631E+01  0.25069042687E+02  0.31886049432E+02  0.00000000000E+00 0.  1.
         11    1    3    3    0    0  0.38144803291E+01 -0.10816232323E+02  0.77919040899E+01  0.13865601734E+02  0.51100000000E-03 0. -1.
        -11    1    3    3    0    0 -0.13495915581E+01 -0.53223349456E+01 -0.23143451528E+02  0.23785878070E+02  0.51100000000E-03 0.  1.
         12    1    3    3    0    0  0.16362173310E+02  0.10324362205E+02 -0.97174952491E+01  0.21650470764E+02  0.00000000000E+00 0. -1.
</event>
<event>
 7    1  0.5979290E-013  0.5930195E+02  0.7816164E-02  0.1266605E+00
        -11   -1    0    0    0    0  0.00000000000E+00  0.00000000000E+00  0.45593999997E+02  0.45594000000E+02  0.51100000000E-03 0.  1.
         11   -1    0    0    0    0 -0.00000000000E+00 -0.00000000000E+00 -0.45593999997E+02  0.45594000000E+02  0.51100000000E-03 0. -1.
    9900012    2    1    2    0    0  0.88866893598E+01  0.30599901647E+02 -0.11801540162E+01  0.59301953019E+02  0.50000016398E+02 0.  0.
        -12    1    1    2    0    0 -0.88866893598E+01 -0.30599901647E+02  0.11801540162E+01  0.31886046981E+02  0.00000000000E+00 0.  1.
         11    1    3    3    0    0 -0.31588726861E+01  0.16930881863E+02 -0.26724455994E+00  0.17225117045E+02  0.51100000000E-03 0. -1.
        -11    1    3    3    0    0 -0.35570864271E+01 -0.10703743790E+02  0.53248538976E+01  0.12473053526E+02  0.51100000000E-03 0.  1.
        -12    1    3    3    0    0  0.15602648473E+02  0.24372763573E+02 -0.62377633538E+01  0.29603782448E+02  0.00000000000E+00 0.  1.
</event>
<event>
 7    1  0.6150495E-013  0.5930193E+02  0.7816164E-02  0.1266605E+00
        -11   -1    0    0    0    0  0.00000000000E+00  0.00000000000E+00  0.45593999997E+02  0.45594000000E+02  0.51100000000E-03 0. -1.
         11   -1    0    0    0    0 -0.00000000000E+00 -0.00000000000E+00 -0.45593999997E+02  0.45594000000E+02  0.51100000000E-03 0.  1.
    9900012    2    1    2    0    0 -0.80938665514E+01 -0.21817871678E+02  0.21798878436E+02  0.59301932488E+02  0.49999978955E+02 0.  0.
        -12    1    1    2    0    0  0.80938665514E+01  0.21817871678E+02 -0.21798878436E+02  0.31886067512E+02  0.00000000000E+00 0.  1.
         11    1    3    3    0    0 -0.50120936298E+01 -0.10368304468E+02  0.31601132473E+02  0.33634125437E+02  0.51100000000E-03 0. -1.
        -11    1    3    3    0    0  0.41591487120E+00 -0.11062158603E+01 -0.13940993189E+02  0.13990996751E+02  0.51100000000E-03 0.  1.
         12    1    3    3    0    0 -0.34976877928E+01 -0.10343351349E+02  0.41387391521E+01  0.11676810301E+02  0.00000000000E+00 0. -1.
</event>
<event>
 7    1  0.5979290E-013  0.5930194E+02  0.7816164E-02  0.1266605E+00
        -11   -1    0    0    0    0  0.00000000000E+00  0.00000000000E+00  0.45593999997E+02  0.45594000000E+02  0.51100000000E-03 0.  1.
         11   -1    0    0    0    0 -0.00000000000E+00 -0.00000000000E+00 -0.45593999997E+02  0.45594000000E+02  0.51100000000E-03 0. -1.
    9900012    2    1    2    0    0 -0.28834151379E+02 -0.11572144396E+02 -0.71692268981E+01  0.59301943079E+02  0.49999998269E+02 0.  0.
        -12    1    1    2    0    0  0.28834151379E+02  0.11572144396E+02  0.71692268981E+01  0.31886056921E+02  0.00000000000E+00 0.  1.
         11    1    3    3    0    0  0.85615758828E+01  0.77829065448E+01  0.78317903305E+01  0.13971798593E+02  0.51100000000E-03 0. -1.
        -11    1    3    3    0    0 -0.18665527347E+02 -0.55017589203E+01 -0.75170088705E+01  0.20860888883E+02  0.51100000000E-03 0.  1.
         12    1    3    3    0    0 -0.18730199915E+02 -0.13853292020E+02 -0.74840083581E+01  0.24469255603E+02  0.00000000000E+00 0. -1.
</event>
<event>
 7    1  0.5979290E-013  0.5930194E+02  0.7816164E-02  0.1266605E+00
        -11   -1    0    0    0    0  0.00000000000E+00  0.00000000000E+00  0.45593999997E+02  0.45594000000E+02  0.51100000000E-03 0. -1.
         11   -1    0    0    0    0 -0.00000000000E+00 -0.00000000000E+00 -0.45593999997E+02  0.45594000000E+02  0.51100000000E-03 0.  1.
    9900012    2    1    2    0    0  0.27638446624E+02  0.14960168578E+02  0.53879682356E+01  0.59301943841E+02  0.49999999659E+02 0.  0.
        -12    1    1    2    0    0 -0.27638446624E+02 -0.14960168578E+02 -0.53879682356E+01  0.31886056159E+02  0.00000000000E+00 0.  1.
         11    1    3    3    0    0  0.20796136567E+02 -0.13584136828E+01  0.17743617662E+01  0.20915853886E+02  0.51100000000E-03 0. -1.
        -11    1    3    3    0    0 -0.52719472408E+01  0.22332134449E+02 -0.33245495707E+01  0.23185562035E+02  0.51100000000E-03 0.  1.
         12    1    3    3    0    0  0.12114257298E+02 -0.60135521879E+01  0.69381560401E+01  0.15200527920E+02  0.00000000000E+00 0. -1.
</event>
<event>
 7    1  0.5979290E-013  0.5930195E+02  0.7816164E-02  0.1266605E+00
        -11   -1    0    0    0    0  0.00000000000E+00  0.00000000000E+00  0.45593999997E+02  0.45594000000E+02  0.51100000000E-03 0.  1.
         11   -1    0    0    0    0 -0.00000000000E+00 -0.00000000000E+00 -0.45593999997E+02  0.45594000000E+02  0.51100000000E-03 0. -1.
    9900012    2    1    2    0    0 -0.57155261588E+01 -0.11860884666E+02 -0.29040874457E+02  0.59301949546E+02  0.50000010063E+02 0.  0.
        -12    1    1    2    0    0  0.57155261588E+01  0.11860884666E+02  0.29040874457E+02  0.31886050454E+02  0.00000000000E+00 0.  1.
         11    1    3    3    0    0 -0.10142181320E+02 -0.85681915123E+01  0.27286743330E+01  0.13554460948E+02  0.51100000000E-03 0. -1.
        -11    1    3    3    0    0  0.11777444569E+02  0.84384921544E+01 -0.27794653829E+02  0.31344204124E+02  0.51100000000E-03 0.  1.
        -12    1    3    3    0    0 -0.73507894080E+01 -0.11731185308E+02 -0.39748949610E+01  0.14403284473E+02  0.00000000000E+00 0.  1.
</event>
<event>
 7    1  0.5979290E-013  0.5930197E+02  0.7816164E-02  0.1266605E+00
        -11   -1    0    0    0    0  0.00000000000E+00  0.00000000000E+00  0.45593999997E+02  0.45594000000E+02  0.51100000000E-03 0. -1.
         11   -1    0    0    0    0 -0.00000000000E+00 -0.00000000000E+00 -0.45593999997E+02  0.45594000000E+02  0.51100000000E-03 0.  1.
    9900012    2    1    2    0    0 -0.18501879858E+02  0.25579203266E+02  0.44837440765E+01  0.59301966083E+02  0.50000040223E+02 0.  0.
        -12    1    1    2    0    0  0.18501879858E+02 -0.25579203266E+02 -0.44837440765E+01  0.31886033917E+02  0.00000000000E+00 0.  1.
         11    1    3    3    0    0  0.11003156463E+01  0.12858307637E+02  0.19938696169E+02  0.23750755251E+02  0.51100000000E-03 0.  1.
        -11    1    3    3    0    0 -0.20554546843E+02  0.27966424266E+01 -0.54965073546E+01  0.21459780944E+02  0.51100000000E-03 0. -1.
         12    1    3    3    0    0  0.95235133891E+00  0.99242532024E+01 -0.99584447378E+01  0.14091429888E+02  0.00000000000E+00 0. -1.
</event>
<event>
 7    1  0.5979290E-013  0.5930194E+02  0.7816164E-02  0.1266605E+00
        -11   -1    0    0    0    0  0.00000000000E+00  0.00000000000E+00  0.45593999997E+02  0.45594000000E+02  0.51100000000E-03 0. -1.
         11   -1    0    0    0    0 -0.00000000000E+00 -0.00000000000E+00 -0.45593999997E+02  0.45594000000E+02  0.51100000000E-03 0.  1.
    9900012    2    1    2    0    0 -0.26448747294E+02 -0.15034265951E+02 -0.95475373653E+01  0.59301939474E+02  0.49999991696E+02 0.  0.
        -12    1    1    2    0    0  0.26448747294E+02  0.15034265951E+02  0.95475373653E+01  0.31886060526E+02  0.00000000000E+00 0.  1.
         11    1    3    3    0    0 -0.69521849758E+01  0.56264596138E+01  0.25069934579E+01  0.92884304478E+01  0.51100000000E-03 0. -1.
        -11    1    3    3    0    0  0.89809760148E+01 -0.15726829742E+02  0.13373676668E+01  0.18159836355E+02  0.51100000000E-03 0.  1.
        -12    1    3    3    0    0 -0.28477538333E+02 -0.49338958233E+01 -0.13391898490E+02  0.31853672671E+02  0.00000000000E+00 0.  1.
</event>
<event>
 7    1  0.5979290E-013  0.5930197E+02  0.7816164E-02  0.1266605E+00
        -11   -1    0    0    0    0  0.00000000000E+00  0.00000000000E+00  0.45593999997E+02  0.45594000000E+02  0.51100000000E-03 0.  1.
         11   -1    0    0    0    0 -0.00000000000E+00 -0.00000000000E+00 -0.45593999997E+02  0.45594000000E+02  0.51100000000E-03 0. -1.
    9900012    2    1    2    0    0  0.11909674218E+02  0.16462138189E+02 -0.24573895422E+02  0.59301973751E+02  0.50000054208E+02 0.  0.
        -12    1    1    2    0    0 -0.11909674218E+02 -0.16462138189E+02  0.24573895422E+02  0.31886026249E+02  0.00000000000E+00 0.  1.
         11    1    3    3    0    0  0.10723711265E+02  0.31043847150E+01  0.60057100601E+01  0.12676897938E+02  0.51100000000E-03 0. -1.
        -11    1    3    3    0    0  0.26912491644E+01 -0.89665268545E+01 -0.19557434986E+02  0.21682589546E+02  0.51100000000E-03 0.  1.
        -12    1    3    3    0    0 -0.15052862111E+01  0.22324280328E+02 -0.11022170496E+02  0.24942486267E+02  0.00000000000E+00 0.  1.
</event>
<event>
 7    1  0.5979290E-013  0.5930195E+02  0.7816164E-02  0.1266605E+00
        -11   -1    0    0    0    0  0.00000000000E+00  0.00000000000E+00  0.45593999997E+02  0.45594000000E+02  0.51100000000E-03 0.  1.
         11   -1    0    0    0    0 -0.00000000000E+00 -0.00000000000E+00 -0.45593999997E+02  0.45594000000E+02  0.51100000000E-03 0. -1.
    9900012    2    1    2    0    0  0.31831713858E+02  0.13415751942E+01  0.12893202555E+01  0.59301950106E+02  0.50000011085E+02 0.  0.
        -12    1    1    2    0    0 -0.31831713858E+02 -0.13415751942E+01 -0.12893202555E+01  0.31886049894E+02  0.00000000000E+00 0.  1.
         11    1    3    3    0    0  0.26267084060E+02 -0.68518639921E+01 -0.87974436326E+00  0.27160296309E+02  0.51100000000E-03 0. -1.
        -11    1    3    3    0    0 -0.50227629938E+01 -0.25300265005E+01  0.12610921960E+02  0.13808132934E+02  0.51100000000E-03 0.  1.
        -12    1    3    3    0    0  0.10587392792E+02  0.10723465687E+02 -0.10441857342E+02  0.18333520862E+02  0.00000000000E+00 0.  1.
</event>
<event>
 7    1  0.5979290E-013  0.5930194E+02  0.7816164E-02  0.1266605E+00
        -11   -1    0    0    0    0  0.00000000000E+00  0.00000000000E+00  0.45593999997E+02  0.45594000000E+02  0.51100000000E-03 0. -1.
         11   -1    0    0    0    0 -0.00000000000E+00 -0.00000000000E+00 -0.45593999997E+02  0.45594000000E+02  0.51100000000E-03 0.  1.
    9900012    2    1    2    0    0 -0.16313330286E+02 -0.10769032894E+02  0.25191741525E+02  0.59301942615E+02  0.49999997424E+02 0.  0.
        -12    1    1    2    0    0  0.16313330286E+02  0.10769032894E+02 -0.25191741525E+02  0.31886057385E+02  0.00000000000E+00 0.  1.
         11    1    3    3    0    0 -0.65661000543E+01  0.84885973770E+01 -0.87252588394E+01  0.13831127844E+02  0.51100000000E-03 0. -1.
        -11    1    3    3    0    0 -0.10725782432E+02 -0.38213062585E+01  0.45151356279E+01  0.12248724027E+02  0.51100000000E-03 0.  1.
         12    1    3    3    0    0  0.97855219990E+00 -0.15436324012E+02  0.29401864737E+02  0.33222090744E+02  0.00000000000E+00 0. -1.
</event>
<event>
 7    1  0.5979290E-013  0.5930198E+02  0.7816164E-02  0.1266605E+00
        -11   -1    0    0    0    0  0.00000000000E+00  0.00000000000E+00  0.45593999997E+02  0.45594000000E+02  0.51100000000E-03 0.  1.
         11   -1    0    0    0    0 -0.00000000000E+00 -0.00000000000E+00 -0.45593999997E+02  0.45594000000E+02  0.51100000000E-03 0. -1.
    9900012    2    1    2    0    0 -0.21759807140E+02  0.17576357228E+02 -0.15306892077E+02  0.59301976648E+02  0.50000059492E+02 0.  0.
        -12    1    1    2    0    0  0.21759807140E+02 -0.17576357228E+02  0.15306892077E+02  0.31886023352E+02  0.00000000000E+00 0.  1.
         11    1    3    3    0    0 -0.24050603628E+02  0.26176408922E+02 -0.21588101484E+02  0.41589446316E+02  0.51100000000E-03 0. -1.
        -11    1    3    3    0    0 -0.12864024782E+01 -0.11202275715E+02  0.18052172463E+01  0.11419484318E+02  0.51100000000E-03 0.  1.
        -12    1    3    3    0    0  0.35771989668E+01  0.26022240203E+01  0.44759921611E+01  0.62930460134E+01  0.00000000000E+00 0.  1.
</event>
<event>
 7    1  0.5979290E-013  0.5930195E+02  0.7816164E-02  0.1266605E+00
        -11   -1    0    0    0    0  0.00000000000E+00  0.00000000000E+00  0.45593999997E+02  0.45594000000E+02  0.51100000000E-03 0. -1.
         11   -1    0    0    0    0 -0.00000000000E+00 -0.00000000000E+00 -0.45593999997E+02  0.45594000000E+02  0.51100000000E-03 0.  1.
    9900012    2    1    2    0    0  0.28755328464E+02  0.74512198606E+01 -0.11590105653E+02  0.59301950675E+02  0.50000012123E+02 0.  0.
        -12    1    1    2    0    0 -0.28755328464E+02 -0.74512198606E+01  0.11590105653E+02  0.31886049325E+02  0.00000000000E+00 0.  1.
         11    1    3    3    0    0  0.33944770808E+02  0.11988253536E+02 -0.15882355205E+02  0.39347361985E+02  0.51100000000E-03 0. -1.
        -11    1    3    3    0    0 -0.65256156420E+01 -0.73551859370E+01 -0.43610037570E+01  0.10756429412E+02  0.51100000000E-03 0.  1.
        -12    1    3    3    0    0  0.13361732986E+01  0.28181522615E+01  0.86532533098E+01  0.91981592776E+01  0.00000000000E+00 0.  1.
</event>
<event>
 7    1  0.5979290E-013  0.5930194E+02  0.7816164E-02  0.1266605E+00
        -11   -1    0    0    0    0  0.00000000000E+00  0.00000000000E+00  0.45593999997E+02  0.45594000000E+02  0.51100000000E-03 0.  1.
         11   -1    0    0    0    0 -0.00000000000E+00 -0.00000000000E+00 -0.45593999997E+02  0.45594000000E+02  0.51100000000E-03 0. -1.
    9900012    2    1    2    0    0 -0.99681486655E+01  0.62353838513E+01 -0.29639109346E+02  0.59301940312E+02  0.49999993223E+02 0.  0.
        -12    1    1    2    0    0  0.99681486655E+01 -0.62353838513E+01  0.29639109346E+02  0.31886059688E+02  0.00000000000E+00 0.  1.
         11    1    3    3    0    0  0.12606486213E+01  0.24207513943E+02 -0.95129334657E+01  0.26040139586E+02  0.51100000000E-03 0. -1.
        -11    1    3    3    0    0 -0.10850168229E+01 -0.82871080635E+01 -0.16925179422E+02  0.18876311088E+02  0.51100000000E-03 0.  1.
        -12    1    3    3    0    0 -0.10143780464E+02 -0.96850220287E+01 -0.32009964584E+01  0.14385489638E+02  0.00000000000E+00 0.  1.
</event>
<event>
 7    1  0.5979290E-013  0.5930198E+02  0.7816164E-02  0.1266605E+00
        -11   -1    0    0    0    0  0.00000000000E+00  0.00000000000E+00  0.45593999997E+02  0.45594000000E+02  0.51100000000E-03 0.  1.
         11   -1    0    0    0    0 -0.00000000000E+00 -0.00000000000E+00 -0.45593999997E+02  0.45594000000E+02  0.51100000000E-03 0. -1.
    9900012    2    1    2    0    0  0.30251791706E+01  0.19739590063E+02  0.24857899901E+02  0.59301979358E+02  0.50000064434E+02 0.  0.
        -12    1    1    2    0    0 -0.30251791706E+01 -0.19739590063E+02 -0.24857899901E+02  0.31886020642E+02  0.00000000000E+00 0.  1.
         11    1    3    3    0    0 -0.44184339771E+01  0.97370068537E+01 -0.12312009291E+02  0.16306975020E+02  0.51100000000E-03 0. -1.
        -11    1    3    3    0    0 -0.40012531905E+01  0.35599226875E+01  0.23243126087E+02  0.23852169444E+02  0.51100000000E-03 0.  1.
         12    1    3    3    0    0  0.11444866338E+02  0.64426605219E+01  0.13926783106E+02  0.19142834894E+02  0.00000000000E+00 0. -1.
</event>
<event>
 7    1  0.5979290E-013  0.5930193E+02  0.7816164E-02  0.1266605E+00
        -11   -1    0    0    0    0  0.00000000000E+00  0.00000000000E+00  0.45593999997E+02  0.45594000000E+02  0.51100000000E-03 0.  1.
         11   -1    0    0    0    0 -0.00000000000E+00 -0.00000000000E+00 -0.45593999997E+02  0.45594000000E+02  0.51100000000E-03 0. -1.
    9900012    2    1    2    0    0  0.10611953786E+02 -0.29522217839E+02 -0.57049768837E+01  0.59301926699E+02  0.49999968397E+02 0.  0.
        -12    1    1    2    0    0 -0.10611953786E+02  0.29522217839E+02  0.57049768837E+01  0.31886073301E+02  0.00000000000E+00 0.  1.
         11    1    3    3    0    0 -0.22496389316E+01 -0.17340539054E+01 -0.88295291517E+01  0.92751497870E+01  0.51100000000E-03 0. -1.
        -11    1    3    3    0    0  0.35534304260E+01  0.30093078926E+01  0.15019636559E+02  0.15724893780E+02  0.51100000000E-03 0.  1.
        -12    1    3    3    0    0  0.93081622920E+01 -0.30797471826E+02 -0.11895084291E+02  0.34301883132E+02  0.00000000000E+00 0.  1.
</event>
<event>
 7    1  0.5979290E-013  0.5930194E+02  0.7816164E-02  0.1266605E+00
        -11   -1    0    0    0    0  0.00000000000E+00  0.00000000000E+00  0.45593999997E+02  0.45594000000E+02  0.51100000000E-03 0.  1.
         11   -1    0    0    0    0 -0.00000000000E+00 -0.00000000000E+00 -0.45593999997E+02  0.45594000000E+02  0.51100000000E-03 0. -1.
    9900012    2    1    2    0    0 -0.31162422677E+02 -0.47629864999E+00 -0.67377734366E+01  0.59301936612E+02  0.49999986475E+02 0.  0.
        -12    1    1    2    0    0  0.31162422677E+02  0.47629864999E+00  0.67377734366E+01  0.31886063388E+02  0.00000000000E+00 0.  1.
         11    1    3    3    0    0 -0.56235249231E+01 -0.66815025943E+01 -0.12047459058E+02  0.14879777535E+02  0.51100000000E-03 0. -1.
        -11    1    3    3    0    0 -0.51165337557E+01  0.18877081623E+02 -0.96585723029E+00  0.19582032804E+02  0.51100000000E-03 0.  1.
        -12    1    3    3    0    0 -0.20422363998E+02 -0.12671877679E+02  0.62755428515E+01  0.24840126273E+02  0.00000000000E+00 0.  1.
</event>
<event>
 7    1  0.5979290E-013  0.5930180E+02  0.7816164E-02  0.1266605E+00
        -11   -1    0    0    0    0  0.00000000000E+00  0.00000000000E+00  0.45593999997E+02  0.45594000000E+02  0.51100000000E-03 0. -1.
         11   -1    0    0    0    0 -0.00000000000E+00 -0.00000000000E+00 -0.45593999997E+02  0.45594000000E+02  0.51100000000E-03 0.  1.
    9900012    2    1    2    0    0 -0.21069366072E+02 -0.21633645374E+02  0.10237029770E+02  0.59301802715E+02  0.49999742278E+02 0.  0.
        -12    1    1    2    0    0  0.21069366072E+02  0.21633645374E+02 -0.10237029770E+02  0.31886197285E+02  0.00000000000E+00 0.  1.
         11    1    3    3    0    0 -0.54726991897E+00 -0.26643143871E+02 -0.71519914028E+01  0.27591803148E+02  0.51100000000E-03 0. -1.
        -11    1    3    3    0    0 -0.94805815565E+01  0.77376991993E+01  0.17340219406E+01  0.12359621673E+02  0.51100000000E-03 0.  1.
         12    1    3    3    0    0 -0.11041514596E+02 -0.27282007023E+01  0.15654999232E+02  0.19350377893E+02  0.00000000000E+00 0. -1.
</event>
<event>
 7    1  0.5979290E-013  0.5930196E+02  0.7816164E-02  0.1266605E+00
        -11   -1    0    0    0    0  0.00000000000E+00  0.00000000000E+00  0.45593999997E+02  0.45594000000E+02  0.51100000000E-03 0.  1.
         11   -1    0    0    0    0 -0.00000000000E+00 -0.00000000000E+00 -0.45593999997E+02  0.45594000000E+02  0.51100000000E-03 0. -1.
    9900012    2    1    2    0    0 -0.34775553386E+01  0.12847691568E+02 -0.28975214820E+02  0.59301958483E+02  0.50000026363E+02 0.  0.
        -12    1    1    2    0    0  0.34775553386E+01 -0.12847691568E+02  0.28975214820E+02  0.31886041517E+02  0.00000000000E+00 0.  1.
         11    1    3    3    0    0 -0.91925728746E+01 -0.10491207920E+02  0.66545082098E+01  0.15454815413E+02  0.51100000000E-03 0. -1.
        -11    1    3    3    0    0  0.63984139483E+01  0.12565607625E+02 -0.15151498249E+02  0.20697876594E+02  0.51100000000E-03 0.  1.
         12    1    3    3    0    0 -0.68339641229E+00  0.10773291863E+02 -0.20478224780E+02  0.23149266476E+02  0.00000000000E+00 0. -1.
</event>
<event>
 7    1  0.5979290E-013  0.5930191E+02  0.7816164E-02  0.1266605E+00
        -11   -1    0    0    0    0  0.00000000000E+00  0.00000000000E+00  0.45593999997E+02  0.45594000000E+02  0.51100000000E-03 0. -1.
         11   -1    0    0    0    0 -0.00000000000E+00 -0.00000000000E+00 -0.45593999997E+02  0.45594000000E+02  0.51100000000E-03 0.  1.
    9900012    2    1    2    0    0 -0.73525115323E+00  0.30176919974E+02  0.10273052643E+02  0.59301910494E+02  0.49999938843E+02 0.  0.
        -12    1    1    2    0    0  0.73525115323E+00 -0.30176919974E+02 -0.10273052643E+02  0.31886089506E+02  0.00000000000E+00 0.  1.
         11    1    3    3    0    0 -0.27937852118E+01  0.26979817474E+01  0.11074766837E+01  0.40386688630E+01  0.51100000000E-03 0. -1.
        -11    1    3    3    0    0  0.11514264961E+02 -0.10199239804E+02  0.14266959758E+00  0.15382559769E+02  0.51100000000E-03 0.  1.
        -12    1    3    3    0    0 -0.94557309027E+01  0.37678178030E+02  0.90229063613E+01  0.39880681862E+02  0.00000000000E+00 0.  1.
</event>
<event>
 7    1  0.5979290E-013  0.5930195E+02  0.7816164E-02  0.1266605E+00
        -11   -1    0    0    0    0  0.00000000000E+00  0.00000000000E+00  0.45593999997E+02  0.45594000000E+02  0.51100000000E-03 0.  1.
         11   -1    0    0    0    0 -0.00000000000E+00 -0.00000000000E+00 -0.45593999997E+02  0.45594000000E+02  0.51100000000E-03 0. -1.
    9900012    2    1    2    0    0  0.21622807410E+02 -0.23434374524E+02  0.68018841758E-01  0.59301947623E+02  0.50000006556E+02 0.  0.
        -12    1    1    2    0    0 -0.21622807410E+02  0.23434374524E+02 -0.68018841758E-01  0.31886052377E+02  0.00000000000E+00 0.  1.
         11    1    3    3    0    0  0.16139847029E+02 -0.57734306014E+01 -0.75503787052E+01  0.18730600147E+02  0.51100000000E-03 0. -1.
        -11    1    3    3    0    0 -0.68546702522E+01 -0.24476310571E+02  0.74054392511E+01  0.26474833601E+02  0.51100000000E-03 0.  1.
         12    1    3    3    0    0  0.12337630633E+02  0.68153666475E+01  0.21295829587E+00  0.14096513875E+02  0.00000000000E+00 0. -1.
</event>
<event>
 7    1  0.5979290E-013  0.5930189E+02  0.7816164E-02  0.1266605E+00
        -11   -1    0    0    0    0  0.00000000000E+00  0.00000000000E+00  0.45593999997E+02  0.45594000000E+02  0.51100000000E-03 0.  1.
         11   -1    0    0    0    0 -0.00000000000E+00 -0.00000000000E+00 -0.45593999997E+02  0.45594000000E+02  0.51100000000E-03 0. -1.
    9900012    2    1    2    0    0 -0.12420506250E+02  0.14893969998E+02 -0.25310560105E+02  0.59301893768E+02  0.49999908338E+02 0.  0.
        -12    1    1    2    0    0  0.12420506250E+02 -0.14893969998E+02  0.25310560105E+02  0.31886106232E+02  0.00000000000E+00 0.  1.
         11    1    3    3    0    0  0.17243310883E+02  0.44100724768E+01 -0.22695269085E+01  0.17942443037E+02  0.51100000000E-03 0.  1.
        -11    1    3    3    0    0 -0.28415390562E+02  0.10559203649E+02 -0.16133858353E+02  0.34339956146E+02  0.51100000000E-03 0. -1.
        -12    1    3    3    0    0 -0.12484265714E+01 -0.75306127333E-01 -0.69071748435E+01  0.70194945855E+01  0.00000000000E+00 0.  1.
</event>
<event>
 7    1  0.5979290E-013  0.5930195E+02  0.7816164E-02  0.1266605E+00
        -11   -1    0    0    0    0  0.00000000000E+00  0.00000000000E+00  0.45593999997E+02  0.45594000000E+02  0.51100000000E-03 0.  1.
         11   -1    0    0    0    0 -0.00000000000E+00 -0.00000000000E+00 -0.45593999997E+02  0.45594000000E+02  0.51100000000E-03 0. -1.
    9900012    2    1    2    0    0  0.20286771292E+02 -0.22636251160E+02 -0.96315864734E+01  0.59301946403E+02  0.50000004331E+02 0.  0.
        -12    1    1    2    0    0 -0.20286771292E+02  0.22636251160E+02  0.96315864734E+01  0.31886053597E+02  0.00000000000E+00 0.  1.
         11    1    3    3    0    0 -0.34240219219E+01  0.68459774240E-01 -0.12573572928E+02  0.13031628805E+02  0.51100000000E-03 0. -1.
        -11    1    3    3    0    0  0.61210636019E+01 -0.15579032892E+02  0.16062153991E+02  0.23198415389E+02  0.51100000000E-03 0.  1.
         12    1    3    3    0    0  0.17589729612E+02 -0.71256780418E+01 -0.13120167536E+02  0.23071902209E+02  0.00000000000E+00 0. -1.
</event>
<event>
 7    1  0.5979290E-013  0.5930194E+02  0.7816164E-02  0.1266605E+00
        -11   -1    0    0    0    0  0.00000000000E+00  0.00000000000E+00  0.45593999997E+02  0.45594000000E+02  0.51100000000E-03 0.  1.
         11   -1    0    0    0    0 -0.00000000000E+00 -0.00000000000E+00 -0.45593999997E+02  0.45594000000E+02  0.51100000000E-03 0. -1.
    9900012    2    1    2    0    0 -0.37141896567E+01  0.30667240042E+02  0.79022708962E+01  0.59301941888E+02  0.49999996097E+02 0.  0.
        -12    1    1    2    0    0  0.37141896567E+01 -0.30667240042E+02 -0.79022708962E+01  0.31886058112E+02  0.00000000000E+00 0.  1.
         11    1    3    3    0    0 -0.27940924106E+01  0.10514353554E+02 -0.20398923258E+02  0.23118707866E+02  0.51100000000E-03 0. -1.
        -11    1    3    3    0    0 -0.35954017157E+01  0.69632224069E+01  0.50651654801E+01  0.93310921862E+01  0.51100000000E-03 0.  1.
         12    1    3    3    0    0  0.26753044697E+01  0.13189664082E+02  0.23236028674E+02  0.26852141835E+02  0.00000000000E+00 0. -1.
</event>
<event>
 7    1  0.5979290E-013  0.5930193E+02  0.7816164E-02  0.1266605E+00
        -11   -1    0    0    0    0  0.00000000000E+00  0.00000000000E+00  0.45593999997E+02  0.45594000000E+02  0.51100000000E-03 0.  1.
         11   -1    0    0    0    0 -0.00000000000E+00 -0.00000000000E+00 -0.45593999997E+02  0.45594000000E+02  0.51100000000E-03 0. -1.
    9900012    2    1    2    0    0  0.86895004977E+01 -0.19306827188E+02 -0.23842406695E+02  0.59301931694E+02  0.49999977507E+02 0.  0.
        -12    1    1    2    0    0 -0.86895004977E+01  0.19306827188E+02  0.23842406695E+02  0.31886068306E+02  0.00000000000E+00 0.  1.
         11    1    3    3    0    0 -0.65191953343E+01 -0.48211695058E+01 -0.15552892851E+02  0.17539556993E+02  0.51100000000E-03 0. -1.
        -11    1    3    3    0    0  0.35856156627E+01 -0.80424814932E+00  0.13234118263E+02  0.13734822213E+02  0.51100000000E-03 0.  1.
         12    1    3    3    0    0  0.11623080169E+02 -0.13681409533E+02 -0.21523632107E+02  0.28027552489E+02  0.00000000000E+00 0. -1.
</event>
<event>
 7    1  0.5979290E-013  0.5930194E+02  0.7816164E-02  0.1266605E+00
        -11   -1    0    0    0    0  0.00000000000E+00  0.00000000000E+00  0.45593999997E+02  0.45594000000E+02  0.51100000000E-03 0.  1.
         11   -1    0    0    0    0 -0.00000000000E+00 -0.00000000000E+00 -0.45593999997E+02  0.45594000000E+02  0.51100000000E-03 0. -1.
    9900012    2    1    2    0    0 -0.27369813125E+02  0.56609775170E+01  0.15348200804E+02  0.59301943410E+02  0.49999998873E+02 0.  0.
        -12    1    1    2    0    0  0.27369813125E+02 -0.56609775170E+01 -0.15348200804E+02  0.31886056590E+02  0.00000000000E+00 0.  1.
         11    1    3    3    0    0 -0.19048597763E+02  0.15555763447E+02 -0.33315967364E+01  0.24817944924E+02  0.51100000000E-03 0.  1.
        -11    1    3    3    0    0 -0.25095242104E+01 -0.18445685521E+02  0.12778245079E+02  0.22579295243E+02  0.51100000000E-03 0. -1.
         12    1    3    3    0    0 -0.58116911520E+01  0.85508995909E+01  0.59015524618E+01  0.11904703244E+02  0.00000000000E+00 0. -1.
</event>
<event>
 7    1  0.5979290E-013  0.5930197E+02  0.7816164E-02  0.1266605E+00
        -11   -1    0    0    0    0  0.00000000000E+00  0.00000000000E+00  0.45593999997E+02  0.45594000000E+02  0.51100000000E-03 0. -1.
         11   -1    0    0    0    0 -0.00000000000E+00 -0.00000000000E+00 -0.45593999997E+02  0.45594000000E+02  0.51100000000E-03 0.  1.
    9900012    2    1    2    0    0 -0.26761862068E+02  0.16988535817E+02  0.34512502065E+01  0.59301972676E+02  0.50000052247E+02 0.  0.
        -12    1    1    2    0    0  0.26761862068E+02 -0.16988535817E+02 -0.34512502065E+01  0.31886027324E+02  0.00000000000E+00 0.  1.
         11    1    3    3    0    0 -0.24377350544E+02  0.35654515144E+01  0.43468653520E+01  0.25017252101E+02  0.51100000000E-03 0. -1.
        -11    1    3    3    0    0  0.96548020546E+01  0.89351255710E+01 -0.11617281047E+02  0.17550296034E+02  0.51100000000E-03 0.  1.
        -12    1    3    3    0    0 -0.12039313579E+02  0.44879587316E+01  0.10721665901E+02  0.16734424541E+02  0.00000000000E+00 0.  1.
</event>
<event>
 7    1  0.5979290E-013  0.5930195E+02  0.7816164E-02  0.1266605E+00
        -11   -1    0    0    0    0  0.00000000000E+00  0.00000000000E+00  0.45593999997E+02  0.45594000000E+02  0.51100000000E-03 0.  1.
         11   -1    0    0    0    0 -0.00000000000E+00 -0.00000000000E+00 -0.45593999997E+02  0.45594000000E+02  0.51100000000E-03 0. -1.
    9900012    2    1    2    0    0  0.29586995509E+02 -0.46432789512E+00 -0.11879159590E+02  0.59301947622E+02  0.50000006556E+02 0.  0.
        -12    1    1    2    0    0 -0.29586995509E+02  0.46432789512E+00  0.11879159590E+02  0.31886052378E+02  0.00000000000E+00 0.  1.
         11    1    3    3    0    0  0.11602276350E+02  0.58792945821E+01 -0.28000934638E+02  0.30874443512E+02  0.51100000000E-03 0. -1.
        -11    1    3    3    0    0  0.28338793639E+01 -0.75090161993E+01  0.38819779988E+01  0.89154893290E+01  0.51100000000E-03 0.  1.
         12    1    3    3    0    0  0.15150839795E+02  0.11653937221E+01  0.12239797050E+02  0.19512014782E+02  0.00000000000E+00 0. -1.
</event>
<event>
 7    1  0.5979290E-013  0.5930196E+02  0.7816164E-02  0.1266605E+00
        -11   -1    0    0    0    0  0.00000000000E+00  0.00000000000E+00  0.45593999997E+02  0.45594000000E+02  0.51100000000E-03 0.  1.
         11   -1    0    0    0    0 -0.00000000000E+00 -0.00000000000E+00 -0.45593999997E+02  0.45594000000E+02  0.51100000000E-03 0. -1.
    9900012    2    1    2    0    0 -0.11016839775E+02 -0.26651556777E+02 -0.13603055519E+02  0.59301962982E+02  0.50000034568E+02 0.  0.
        -12    1    1    2    0    0  0.11016839775E+02  0.26651556777E+02  0.13603055519E+02  0.31886037018E+02  0.00000000000E+00 0.  1.
         11    1    3    3    0    0 -0.15640422898E+02 -0.98578176682E+01 -0.19463771390E+01  0.18589991443E+02  0.51100000000E-03 0. -1.
        -11    1    3    3    0    0  0.17945138512E+02 -0.47766910768E+01 -0.13081000685E+02  0.22714694651E+02  0.51100000000E-03 0.  1.
        -12    1    3    3    0    0 -0.13321555389E+02 -0.12017048032E+02  0.14243223056E+01  0.17997276889E+02  0.00000000000E+00 0.  1.
</event>
<event>
 7    1  0.5979290E-013  0.5930191E+02  0.7816164E-02  0.1266605E+00
        -11   -1    0    0    0    0  0.00000000000E+00  0.00000000000E+00  0.45593999997E+02  0.45594000000E+02  0.51100000000E-03 0. -1.
         11   -1    0    0    0    0 -0.00000000000E+00 -0.00000000000E+00 -0.45593999997E+02  0.45594000000E+02  0.51100000000E-03 0.  1.
    9900012    2    1    2    0    0  0.15475675537E+02  0.19137291653E+02  0.20272902312E+02  0.59301905330E+02  0.49999929424E+02 0.  0.
        -12    1    1    2    0    0 -0.15475675537E+02 -0.19137291653E+02 -0.20272902312E+02  0.31886094670E+02  0.00000000000E+00 0.  1.
         11    1    3    3    0    0  0.13323928194E+02 -0.11970967884E+02 -0.28020751426E+01  0.18129610033E+02  0.51100000000E-03 0. -1.
        -11    1    3    3    0    0 -0.23039136502E+01  0.22241513469E+02  0.21691379763E+02  0.31152991763E+02  0.51100000000E-03 0.  1.
        -12    1    3    3    0    0  0.44556609936E+01  0.88667460681E+01  0.13835976916E+01  0.10019303534E+02  0.00000000000E+00 0.  1.
</event>
<event>
 7    1  0.5979290E-013  0.5930194E+02  0.7816164E-02  0.1266605E+00
        -11   -1    0    0    0    0  0.00000000000E+00  0.00000000000E+00  0.45593999997E+02  0.45594000000E+02  0.51100000000E-03 0. -1.
         11   -1    0    0    0    0 -0.00000000000E+00 -0.00000000000E+00 -0.45593999997E+02  0.45594000000E+02  0.51100000000E-03 0.  1.
    9900012    2    1    2    0    0  0.25536176133E+02 -0.18950551866E+02 -0.23453834635E+01  0.59301944566E+02  0.50000000982E+02 0.  0.
        -12    1    1    2    0    0 -0.25536176133E+02  0.18950551866E+02  0.23453834635E+01  0.31886055434E+02  0.00000000000E+00 0.  1.
         11    1    3    3    0    0 -0.17841691288E+00 -0.17456579861E+02 -0.16153733953E+01  0.17532069031E+02  0.51100000000E-03 0. -1.
        -11    1    3    3    0    0  0.14649199066E+02  0.12759030733E+02 -0.95935725338E+01  0.21666299471E+02  0.51100000000E-03 0.  1.
         12    1    3    3    0    0  0.11065393980E+02 -0.14253002738E+02  0.88635624656E+01  0.20103576064E+02  0.00000000000E+00 0. -1.
</event>
<event>
 7    1  0.5979290E-013  0.5930196E+02  0.7816164E-02  0.1266605E+00
        -11   -1    0    0    0    0  0.00000000000E+00  0.00000000000E+00  0.45593999997E+02  0.45594000000E+02  0.51100000000E-03 0.  1.
         11   -1    0    0    0    0 -0.00000000000E+00 -0.00000000000E+00 -0.45593999997E+02  0.45594000000E+02  0.51100000000E-03 0. -1.
    9900012    2    1    2    0    0 -0.22442569074E+02 -0.19533473335E+02 -0.11467092827E+02  0.59301957520E+02  0.50000024606E+02 0.  0.
        -12    1    1    2    0    0  0.22442569074E+02  0.19533473335E+02  0.11467092827E+02  0.31886042480E+02  0.00000000000E+00 0.  1.
         11    1    3    3    0    0 -0.11048256302E+02 -0.28366852076E+02 -0.14426381488E+02  0.33687723983E+02  0.51100000000E-03 0. -1.
        -11    1    3    3    0    0  0.55738574688E+01  0.51254019822E+01 -0.14150984044E+01  0.77032549171E+01  0.51100000000E-03 0.  1.
         12    1    3    3    0    0 -0.16968170240E+02  0.37079767591E+01  0.43743870652E+01  0.17910978620E+02  0.00000000000E+00 0. -1.
</event>
<event>
 7    1  0.5979290E-013  0.5930195E+02  0.7816164E-02  0.1266605E+00
        -11   -1    0    0    0    0  0.00000000000E+00  0.00000000000E+00  0.45593999997E+02  0.45594000000E+02  0.51100000000E-03 0. -1.
         11   -1    0    0    0    0 -0.00000000000E+00 -0.00000000000E+00 -0.45593999997E+02  0.45594000000E+02  0.51100000000E-03 0.  1.
    9900012    2    1    2    0    0 -0.22948042992E+02  0.63631017985E+01  0.21204206561E+02  0.59301951051E+02  0.50000012809E+02 0.  0.
        -12    1    1    2    0    0  0.22948042992E+02 -0.63631017985E+01 -0.21204206561E+02  0.31886048949E+02  0.00000000000E+00 0.  1.
         11    1    3    3    0    0 -0.75744482707E+01 -0.43799571670E+01  0.81963615580E+01  0.11989021413E+02  0.51100000000E-03 0. -1.
        -11    1    3    3    0    0 -0.83710629195E+01  0.52684213186E+01 -0.14978169700E+02  0.17949276460E+02  0.51100000000E-03 0.  1.
        -12    1    3    3    0    0 -0.70025318021E+01  0.54746376468E+01  0.27986014704E+02  0.29363653179E+02  0.00000000000E+00 0.  1.
</event>
<event>
 7    1  0.5979290E-013  0.5930195E+02  0.7816164E-02  0.1266605E+00
        -11   -1    0    0    0    0  0.00000000000E+00  0.00000000000E+00  0.45593999997E+02  0.45594000000E+02  0.51100000000E-03 0.  1.
         11   -1    0    0    0    0 -0.00000000000E+00 -0.00000000000E+00 -0.45593999997E+02  0.45594000000E+02  0.51100000000E-03 0. -1.
    9900012    2    1    2    0    0 -0.24870857447E+02  0.16090732349E+02 -0.11800374668E+02  0.59301951954E+02  0.50000014456E+02 0.  0.
        -12    1    1    2    0    0  0.24870857447E+02 -0.16090732349E+02  0.11800374668E+02  0.31886048046E+02  0.00000000000E+00 0.  1.
         11    1    3    3    0    0 -0.17900897257E+02  0.17748149557E+02 -0.29281127423E+02  0.38637072337E+02  0.51100000000E-03 0. -1.
        -11    1    3    3    0    0  0.10741245373E+01  0.14489997012E+01  0.99456913720E+00  0.20597358291E+01  0.51100000000E-03 0.  1.
         12    1    3    3    0    0 -0.80440847269E+01 -0.31064169095E+01  0.16486183618E+02  0.18605143789E+02  0.00000000000E+00 0. -1.
</event>
<event>
 7    1  0.5979290E-013  0.5930191E+02  0.7816164E-02  0.1266605E+00
        -11   -1    0    0    0    0  0.00000000000E+00  0.00000000000E+00  0.45593999997E+02  0.45594000000E+02  0.51100000000E-03 0. -1.
         11   -1    0    0    0    0 -0.00000000000E+00 -0.00000000000E+00 -0.45593999997E+02  0.45594000000E+02  0.51100000000E-03 0.  1.
    9900012    2    1    2    0    0 -0.29760907956E+02 -0.11445243645E+02 -0.13158111449E+00  0.59301912783E+02  0.49999943017E+02 0.  0.
        -12    1    1    2    0    0  0.29760907956E+02  0.11445243645E+02  0.13158111449E+00  0.31886087217E+02  0.00000000000E+00 0.  1.
         11    1    3    3    0    0 -0.88953074754E+01 -0.70722110472E+01 -0.49118591300E+01  0.12380186774E+02  0.51100000000E-03 0. -1.
        -11    1    3    3    0    0 -0.79768556592E+01 -0.13356775573E+02  0.19803854409E+02  0.25183850571E+02  0.51100000000E-03 0.  1.
        -12    1    3    3    0    0 -0.12888744821E+02  0.89837429747E+01 -0.15023576393E+02  0.21737875437E+02  0.00000000000E+00 0.  1.
</event>
<event>
 7    1  0.5979290E-013  0.5930194E+02  0.7816164E-02  0.1266605E+00
        -11   -1    0    0    0    0  0.00000000000E+00  0.00000000000E+00  0.45593999997E+02  0.45594000000E+02  0.51100000000E-03 0.  1.
         11   -1    0    0    0    0 -0.00000000000E+00 -0.00000000000E+00 -0.45593999997E+02  0.45594000000E+02  0.51100000000E-03 0. -1.
    9900012    2    1    2    0    0  0.74301300058E+01  0.30231342664E+02 -0.68978379435E+01  0.59301935968E+02  0.49999985300E+02 0.  0.
        -12    1    1    2    0    0 -0.74301300058E+01 -0.30231342664E+02  0.68978379435E+01  0.31886064032E+02  0.00000000000E+00 0.  1.
         11    1    3    3    0    0  0.23159958681E+02  0.81792965648E+01 -0.17278813923E+01  0.24622553742E+02  0.51100000000E-03 0. -1.
        -11    1    3    3    0    0 -0.17424636728E+02  0.12723055178E+02  0.34688623600E+01  0.21852393564E+02  0.51100000000E-03 0.  1.
        -12    1    3    3    0    0  0.16948080525E+01  0.93289909210E+01 -0.86388189112E+01  0.12826988661E+02  0.00000000000E+00 0.  1.
</event>
<event>
 7    1  0.5979290E-013  0.5930196E+02  0.7816164E-02  0.1266605E+00
        -11   -1    0    0    0    0  0.00000000000E+00  0.00000000000E+00  0.45593999997E+02  0.45594000000E+02  0.51100000000E-03 0.  1.
         11   -1    0    0    0    0 -0.00000000000E+00 -0.00000000000E+00 -0.45593999997E+02  0.45594000000E+02  0.51100000000E-03 0. -1.
    9900012    2    1    2    0    0  0.12943786133E+02 -0.28759266483E+02  0.46992297182E+01  0.59301956532E+02  0.50000022805E+02 0.  0.
        -12    1    1    2    0    0 -0.12943786133E+02  0.28759266483E+02 -0.46992297182E+01  0.31886043468E+02  0.00000000000E+00 0.  1.
         11    1    3    3    0    0  0.17402337953E+02 -0.16107601667E+02 -0.11776019668E+02  0.26475853852E+02  0.51100000000E-03 0. -1.
        -11    1    3    3    0    0 -0.57670106167E+01  0.67780019857E+01  0.57309351800E+01  0.10585052700E+02  0.51100000000E-03 0.  1.
         12    1    3    3    0    0  0.13084587968E+01 -0.19429666801E+02  0.10744314207E+02  0.22241049980E+02  0.00000000000E+00 0. -1.
</event>
<event>
 7    1  0.5979290E-013  0.5930196E+02  0.7816164E-02  0.1266605E+00
        -11   -1    0    0    0    0  0.00000000000E+00  0.00000000000E+00  0.45593999997E+02  0.45594000000E+02  0.51100000000E-03 0.  1.
         11   -1    0    0    0    0 -0.00000000000E+00 -0.00000000000E+00 -0.45593999997E+02  0.45594000000E+02  0.51100000000E-03 0. -1.
    9900012    2    1    2    0    0  0.42931302318E+01  0.21105859854E+02  0.23512366255E+02  0.59301958316E+02  0.50000026058E+02 0.  0.
        -12    1    1    2    0    0 -0.42931302318E+01 -0.21105859854E+02 -0.23512366255E+02  0.31886041684E+02  0.00000000000E+00 0.  1.
         11    1    3    3    0    0 -0.20720384333E+02  0.11584710346E+02  0.12541989127E+02  0.26848488453E+02  0.51100000000E-03 0. -1.
        -11    1    3    3    0    0  0.81512217485E+01  0.23311876720E+01  0.11290831718E+02  0.14119480624E+02  0.51100000000E-03 0.  1.
         12    1    3    3    0    0  0.16862292816E+02  0.71899618363E+01 -0.32045459000E+00  0.18333989238E+02  0.00000000000E+00 0. -1.
</event>
<event>
 7    1  0.5979290E-013  0.5930194E+02  0.7816164E-02  0.1266605E+00
        -11   -1    0    0    0    0  0.00000000000E+00  0.00000000000E+00  0.45593999997E+02  0.45594000000E+02  0.51100000000E-03 0. -1.
         11   -1    0    0    0    0 -0.00000000000E+00 -0.00000000000E+00 -0.45593999997E+02  0.45594000000E+02  0.51100000000E-03 0.  1.
    9900012    2    1    2    0    0  0.74910380422E+01  0.12828270580E+02  0.28214187160E+02  0.59301944519E+02  0.50000000897E+02 0.  0.
        -12    1    1    2    0    0 -0.74910380422E+01 -0.12828270580E+02 -0.28214187160E+02  0.31886055481E+02  0.00000000000E+00 0.  1.
         11    1    3    3    0    0 -0.65262687454E+01 -0.31832770811E+01  0.26048962605E+02  0.27042076284E+02  0.51100000000E-03 0. -1.
        -11    1    3    3    0    0  0.63118062725E+01  0.41228031492E+01 -0.10722501240E+02  0.13107571756E+02  0.51100000000E-03 0.  1.
        -12    1    3    3    0    0  0.77055005151E+01  0.11888744511E+02  0.12887725795E+02  0.19152296479E+02  0.00000000000E+00 0.  1.
</event>
<event>
 7    1  0.5979290E-013  0.5930193E+02  0.7816164E-02  0.1266605E+00
        -11   -1    0    0    0    0  0.00000000000E+00  0.00000000000E+00  0.45593999997E+02  0.45594000000E+02  0.51100000000E-03 0.  1.
         11   -1    0    0    0    0 -0.00000000000E+00 -0.00000000000E+00 -0.45593999997E+02  0.45594000000E+02  0.51100000000E-03 0. -1.
    9900012    2    1    2    0    0  0.14143719902E+02 -0.80351375694E+01 -0.27424681802E+02  0.59301930622E+02  0.49999975552E+02 0.  0.
        -12    1    1    2    0    0 -0.14143719902E+02  0.80351375694E+01  0.27424681802E+02  0.31886069378E+02  0.00000000000E+00 0.  1.
         11    1    3    3    0    0  0.57071565561E+01  0.13029257314E+01 -0.12409065619E+02  0.13720574377E+02  0.51100000000E-03 0. -1.
        -11    1    3    3    0    0  0.71238305193E+01 -0.25672058514E+02 -0.97310132200E+01  0.28363641659E+02  0.51100000000E-03 0.  1.
        -12    1    3    3    0    0  0.13127328262E+01  0.16333995213E+02 -0.52846029625E+01  0.17217714586E+02  0.00000000000E+00 0.  1.
</event>
<event>
 7    1  0.5979290E-013  0.5930190E+02  0.7816164E-02  0.1266605E+00
        -11   -1    0    0    0    0  0.00000000000E+00  0.00000000000E+00  0.45593999997E+02  0.45594000000E+02  0.51100000000E-03 0. -1.
         11   -1    0    0    0    0 -0.00000000000E+00 -0.00000000000E+00 -0.45593999997E+02  0.45594000000E+02  0.51100000000E-03 0.  1.
    9900012    2    1    2    0    0 -0.25414356715E+02  0.93055449509E+01 -0.16859443723E+02  0.59301897436E+02  0.49999915028E+02 0.  0.
        -12    1    1    2    0    0  0.25414356715E+02 -0.93055449509E+01  0.16859443723E+02  0.31886102564E+02  0.00000000000E+00 0.  1.
         11    1    3    3    0    0 -0.20277836281E+02  0.26677796932E+01 -0.14697152716E+02  0.25185590939E+02  0.51100000000E-03 0. -1.
        -11    1    3    3    0    0  0.82386746146E+00  0.16613995825E+02  0.82004286350E+01  0.18545906420E+02  0.51100000000E-03 0.  1.
        -12    1    3    3    0    0 -0.59603878956E+01 -0.99762305676E+01 -0.10362719642E+02  0.15570400078E+02  0.00000000000E+00 0.  1.
</event>
<event>
 7    1  0.5979290E-013  0.5930198E+02  0.7816164E-02  0.1266605E+00
        -11   -1    0    0    0    0  0.00000000000E+00  0.00000000000E+00  0.45593999997E+02  0.45594000000E+02  0.51100000000E-03 0.  1.
         11   -1    0    0    0    0 -0.00000000000E+00 -0.00000000000E+00 -0.45593999997E+02  0.45594000000E+02  0.51100000000E-03 0. -1.
    9900012    2    1    2    0    0 -0.25864090950E+02  0.12453948061E+02 -0.13880435544E+02  0.59301976198E+02  0.50000058671E+02 0.  0.
        -12    1    1    2    0    0  0.25864090950E+02 -0.12453948061E+02  0.13880435544E+02  0.31886023802E+02  0.00000000000E+00 0.  1.
         11    1    3    3    0    0 -0.27716674924E+02  0.72859125424E+00 -0.15941486066E+02  0.31982430994E+02  0.51100000000E-03 0. -1.
        -11    1    3    3    0    0  0.88674654224E+01  0.80776958622E+01  0.10365457407E+02  0.15853195923E+02  0.51100000000E-03 0.  1.
         12    1    3    3    0    0 -0.70148814491E+01  0.36476609450E+01 -0.83044068854E+01  0.11466349281E+02  0.00000000000E+00 0. -1.
</event>
<event>
 7    1  0.5979290E-013  0.5930196E+02  0.7816164E-02  0.1266605E+00
        -11   -1    0    0    0    0  0.00000000000E+00  0.00000000000E+00  0.45593999997E+02  0.45594000000E+02  0.51100000000E-03 0. -1.
         11   -1    0    0    0    0 -0.00000000000E+00 -0.00000000000E+00 -0.45593999997E+02  0.45594000000E+02  0.51100000000E-03 0.  1.
    9900012    2    1    2    0    0  0.27760283601E+02 -0.42991637304E+01 -0.15086537927E+02  0.59301956328E+02  0.50000022433E+02 0.  0.
        -12    1    1    2    0    0 -0.27760283601E+02  0.42991637304E+01  0.15086537927E+02  0.31886043672E+02  0.00000000000E+00 0.  1.
         11    1    3    3    0    0  0.28569200709E+02  0.10181520791E+02 -0.79213020230E+01  0.31346604613E+02  0.51100000000E-03 0. -1.
        -11    1    3    3    0    0 -0.76664393019E+01  0.19481040689E+01 -0.63337450574E+01  0.10133396654E+02  0.51100000000E-03 0.  1.
        -12    1    3    3    0    0  0.68575221946E+01 -0.16428788590E+02 -0.83149084669E+00  0.17821955061E+02  0.00000000000E+00 0.  1.
</event>
<event>
 7    1  0.5979290E-013  0.5930195E+02  0.7816164E-02  0.1266605E+00
        -11   -1    0    0    0    0  0.00000000000E+00  0.00000000000E+00  0.45593999997E+02  0.45594000000E+02  0.51100000000E-03 0.  1.
         11   -1    0    0    0    0 -0.00000000000E+00 -0.00000000000E+00 -0.45593999997E+02  0.45594000000E+02  0.51100000000E-03 0. -1.
    9900012    2    1    2    0    0 -0.39368515655E+01 -0.20149861016E+02 -0.24396819438E+02  0.59301945087E+02  0.50000001933E+02 0.  0.
        -12    1    1    2    0    0  0.39368515655E+01  0.20149861016E+02  0.24396819438E+02  0.31886054913E+02  0.00000000000E+00 0.  1.
         11    1    3    3    0    0  0.17559209521E+02 -0.15680786648E+02 -0.79730651453E+01  0.24855234398E+02  0.51100000000E-03 0. -1.
        -11    1    3    3    0    0 -0.82882136860E+01 -0.84468306530E+01  0.13915322912E+01  0.11915527540E+02  0.51100000000E-03 0.  1.
         12    1    3    3    0    0 -0.13207847401E+02  0.39777562857E+01 -0.17815286584E+02  0.22531183149E+02  0.00000000000E+00 0. -1.
</event>
<event>
 7    1  0.5979290E-013  0.5930203E+02  0.7816164E-02  0.1266604E+00
        -11   -1    0    0    0    0  0.00000000000E+00  0.00000000000E+00  0.45593999997E+02  0.45594000000E+02  0.51100000000E-03 0. -1.
         11   -1    0    0    0    0 -0.00000000000E+00 -0.00000000000E+00 -0.45593999997E+02  0.45594000000E+02  0.51100000000E-03 0.  1.
    9900012    2    1    2    0    0 -0.46031945401E+01 -0.91811187267E+01  0.30186628052E+02  0.59302033585E+02  0.50000163331E+02 0.  0.
        -12    1    1    2    0    0  0.46031945401E+01  0.91811187267E+01 -0.30186628052E+02  0.31885966415E+02  0.00000000000E+00 0.  1.
         11    1    3    3    0    0 -0.12926728172E+02  0.57236310132E+01 -0.71809966788E+01  0.15856448744E+02  0.51100000000E-03 0. -1.
        -11    1    3    3    0    0 -0.10921476891E+01 -0.85324790612E+01  0.72374793703E+01  0.11241756687E+02  0.51100000000E-03 0.  1.
         12    1    3    3    0    0  0.94156813213E+01 -0.63722706787E+01  0.30130145361E+02  0.32203828154E+02  0.00000000000E+00 0. -1.
</event>
<event>
 7    1  0.5979290E-013  0.5930195E+02  0.7816164E-02  0.1266605E+00
        -11   -1    0    0    0    0  0.00000000000E+00  0.00000000000E+00  0.45593999997E+02  0.45594000000E+02  0.51100000000E-03 0.  1.
         11   -1    0    0    0    0 -0.00000000000E+00 -0.00000000000E+00 -0.45593999997E+02  0.45594000000E+02  0.51100000000E-03 0. -1.
    9900012    2    1    2    0    0 -0.21698011843E+02 -0.23310258807E+02 -0.15963742564E+01  0.59301948279E+02  0.50000007754E+02 0.  0.
        -12    1    1    2    0    0  0.21698011843E+02  0.23310258807E+02  0.15963742564E+01  0.31886051721E+02  0.00000000000E+00 0.  1.
         11    1    3    3    0    0 -0.51232579146E+01 -0.16575823339E+02  0.12289256553E+02  0.21261032851E+02  0.51100000000E-03 0. -1.
        -11    1    3    3    0    0  0.77238067750E+01  0.11317576626E+01 -0.92154057201E+01  0.12077324594E+02  0.51100000000E-03 0.  1.
        -12    1    3    3    0    0 -0.24298560703E+02 -0.78661931307E+01 -0.46702250898E+01  0.25963590834E+02  0.00000000000E+00 0.  1.
</event>
<event>
 7    1  0.5979290E-013  0.5930195E+02  0.7816164E-02  0.1266605E+00
        -11   -1    0    0    0    0  0.00000000000E+00  0.00000000000E+00  0.45593999997E+02  0.45594000000E+02  0.51100000000E-03 0.  1.
         11   -1    0    0    0    0 -0.00000000000E+00 -0.00000000000E+00 -0.45593999997E+02  0.45594000000E+02  0.51100000000E-03 0. -1.
    9900012    2    1    2    0    0 -0.16607635195E+01  0.14848264546E+01 -0.31808137473E+02  0.59301945767E+02  0.50000003171E+02 0.  0.
        -12    1    1    2    0    0  0.16607635195E+01 -0.14848264546E+01  0.31808137473E+02  0.31886054233E+02  0.00000000000E+00 0.  1.
         11    1    3    3    0    0 -0.18668004205E+02  0.38085027163E+01  0.32212808284E+01  0.19322932602E+02  0.51100000000E-03 0. -1.
        -11    1    3    3    0    0  0.10110731937E+02  0.30016010517E+01 -0.18606029780E+02  0.21387399412E+02  0.51100000000E-03 0.  1.
         12    1    3    3    0    0  0.68965087485E+01 -0.53252773135E+01 -0.16423388522E+02  0.18591613753E+02  0.00000000000E+00 0. -1.
</event>
<event>
 7    1  0.5979290E-013  0.5930191E+02  0.7816164E-02  0.1266605E+00
        -11   -1    0    0    0    0  0.00000000000E+00  0.00000000000E+00  0.45593999997E+02  0.45594000000E+02  0.51100000000E-03 0.  1.
         11   -1    0    0    0    0 -0.00000000000E+00 -0.00000000000E+00 -0.45593999997E+02  0.45594000000E+02  0.51100000000E-03 0. -1.
    9900012    2    1    2    0    0 -0.13853530293E+02 -0.20314347659E+02 -0.20300976380E+02  0.59301911115E+02  0.49999939975E+02 0.  0.
        -12    1    1    2    0    0  0.13853530293E+02  0.20314347659E+02  0.20300976380E+02  0.31886088885E+02  0.00000000000E+00 0.  1.
         11    1    3    3    0    0 -0.60033417077E+00 -0.20613662113E+02  0.85928859659E+01  0.22341019590E+02  0.51100000000E-03 0. -1.
        -11    1    3    3    0    0 -0.80709808203E+01 -0.23547727989E+01 -0.29893567747E+02  0.31053358582E+02  0.51100000000E-03 0.  1.
        -12    1    3    3    0    0 -0.51822153017E+01  0.26540872534E+01  0.99970540045E+00  0.59075329428E+01  0.00000000000E+00 0.  1.
</event>
<event>
 7    1  0.5979290E-013  0.5930194E+02  0.7816164E-02  0.1266605E+00
        -11   -1    0    0    0    0  0.00000000000E+00  0.00000000000E+00  0.45593999997E+02  0.45594000000E+02  0.51100000000E-03 0.  1.
         11   -1    0    0    0    0 -0.00000000000E+00 -0.00000000000E+00 -0.45593999997E+02  0.45594000000E+02  0.51100000000E-03 0. -1.
    9900012    2    1    2    0    0 -0.26184447239E+01  0.12187918160E+02 -0.29348239232E+02  0.59301941168E+02  0.49999994785E+02 0.  0.
        -12    1    1    2    0    0  0.26184447239E+01 -0.12187918160E+02  0.29348239232E+02  0.31886058832E+02  0.00000000000E+00 0.  1.
         11    1    3    3    0    0  0.12709756197E+02 -0.84530470294E+01 -0.16548826498E+02  0.22513452987E+02  0.51100000000E-03 0. -1.
        -11    1    3    3    0    0 -0.14110832089E+01  0.12741736618E+02  0.41535150591E+01  0.13475707605E+02  0.51100000000E-03 0.  1.
         12    1    3    3    0    0 -0.13917117712E+02  0.78992285715E+01 -0.16952927792E+02  0.23312780576E+02  0.00000000000E+00 0. -1.
</event>
<event>
 7    1  0.5979290E-013  0.5930195E+02  0.7816164E-02  0.1266605E+00
        -11   -1    0    0    0    0  0.00000000000E+00  0.00000000000E+00  0.45593999997E+02  0.45594000000E+02  0.51100000000E-03 0.  1.
         11   -1    0    0    0    0 -0.00000000000E+00 -0.00000000000E+00 -0.45593999997E+02  0.45594000000E+02  0.51100000000E-03 0. -1.
    9900012    2    1    2    0    0  0.16154412281E+02 -0.25170714359E+02 -0.11053979679E+02  0.59301947183E+02  0.50000005754E+02 0.  0.
        -12    1    1    2    0    0 -0.16154412281E+02  0.25170714359E+02  0.11053979679E+02  0.31886052817E+02  0.00000000000E+00 0.  1.
         11    1    3    3    0    0 -0.31678434202E+01 -0.17970812914E+02 -0.44295085661E+01  0.18777803257E+02  0.51100000000E-03 0. -1.
        -11    1    3    3    0    0 -0.18705756540E+01  0.85046955552E+01  0.66859218986E+01  0.10978636148E+02  0.51100000000E-03 0.  1.
        -12    1    3    3    0    0  0.21192831356E+02 -0.15704597000E+02 -0.13310393011E+02  0.29545507779E+02  0.00000000000E+00 0.  1.
</event>
<event>
 7    1  0.5979290E-013  0.5930196E+02  0.7816164E-02  0.1266605E+00
        -11   -1    0    0    0    0  0.00000000000E+00  0.00000000000E+00  0.45593999997E+02  0.45594000000E+02  0.51100000000E-03 0. -1.
         11   -1    0    0    0    0 -0.00000000000E+00 -0.00000000000E+00 -0.45593999997E+02  0.45594000000E+02  0.51100000000E-03 0.  1.
    9900012    2    1    2    0    0 -0.43444808734E+01  0.29903905043E+02  0.10178476887E+02  0.59301961635E+02  0.50000032112E+02 0.  0.
        -12    1    1    2    0    0  0.43444808734E+01 -0.29903905043E+02 -0.10178476887E+02  0.31886038365E+02  0.00000000000E+00 0.  1.
         11    1    3    3    0    0 -0.88014852286E+01  0.10581278538E+02  0.15005571112E+02  0.20361649304E+02  0.51100000000E-03 0. -1.
        -11    1    3    3    0    0 -0.89451343625E+00  0.19770521628E+02 -0.16709082285E+02  0.25901102502E+02  0.51100000000E-03 0.  1.
         12    1    3    3    0    0  0.53515177914E+01 -0.44789512289E+00  0.11881988060E+02  0.13039209829E+02  0.00000000000E+00 0. -1.
</event>
<event>
 7    1  0.5979290E-013  0.5930195E+02  0.7816164E-02  0.1266605E+00
        -11   -1    0    0    0    0  0.00000000000E+00  0.00000000000E+00  0.45593999997E+02  0.45594000000E+02  0.51100000000E-03 0.  1.
         11   -1    0    0    0    0 -0.00000000000E+00 -0.00000000000E+00 -0.45593999997E+02  0.45594000000E+02  0.51100000000E-03 0. -1.
    9900012    2    1    2    0    0  0.20948515583E+02 -0.24006484175E+02 -0.12525311564E+01  0.59301946280E+02  0.50000004107E+02 0.  0.
        -12    1    1    2    0    0 -0.20948515583E+02  0.24006484175E+02  0.12525311564E+01  0.31886053720E+02  0.00000000000E+00 0.  1.
         11    1    3    3    0    0  0.16309014748E+02 -0.11663573594E+02 -0.21285321740E+02  0.29241884907E+02  0.51100000000E-03 0. -1.
        -11    1    3    3    0    0 -0.54588039013E+00 -0.12801151979E+02  0.43423230478E+01  0.13528608469E+02  0.51100000000E-03 0.  1.
         12    1    3    3    0    0  0.51853812248E+01  0.45824139927E+00  0.15690467536E+02  0.16531452904E+02  0.00000000000E+00 0. -1.
</event>
<event>
 7    1  0.5979290E-013  0.5930195E+02  0.7816164E-02  0.1266605E+00
        -11   -1    0    0    0    0  0.00000000000E+00  0.00000000000E+00  0.45593999997E+02  0.45594000000E+02  0.51100000000E-03 0.  1.
         11   -1    0    0    0    0 -0.00000000000E+00 -0.00000000000E+00 -0.45593999997E+02  0.45594000000E+02  0.51100000000E-03 0. -1.
    9900012    2    1    2    0    0  0.93696759263E+01  0.47396465196E+01 -0.30107557565E+02  0.59301951349E+02  0.50000013351E+02 0.  0.
        -12    1    1    2    0    0 -0.93696759263E+01 -0.47396465196E+01  0.30107557565E+02  0.31886048651E+02  0.00000000000E+00 0.  1.
         11    1    3    3    0    0  0.88066318055E+01  0.12594375844E+02 -0.28144524703E+02  0.32066950863E+02  0.51100000000E-03 0. -1.
        -11    1    3    3    0    0 -0.10969792552E+02 -0.31401677714E+01  0.55471136969E+01  0.12687295728E+02  0.51100000000E-03 0.  1.
         12    1    3    3    0    0  0.11532836673E+02 -0.47145615532E+01 -0.75101465589E+01  0.14547704757E+02  0.00000000000E+00 0. -1.
</event>
<event>
 7    1  0.5979290E-013  0.5930194E+02  0.7816164E-02  0.1266605E+00
        -11   -1    0    0    0    0  0.00000000000E+00  0.00000000000E+00  0.45593999997E+02  0.45594000000E+02  0.51100000000E-03 0.  1.
         11   -1    0    0    0    0 -0.00000000000E+00 -0.00000000000E+00 -0.45593999997E+02  0.45594000000E+02  0.51100000000E-03 0. -1.
    9900012    2    1    2    0    0 -0.42783308761E+01 -0.28860417004E+02 -0.12864411348E+02  0.59301939346E+02  0.49999991461E+02 0.  0.
        -12    1    1    2    0    0  0.42783308761E+01  0.28860417004E+02  0.12864411348E+02  0.31886060654E+02  0.00000000000E+00 0.  1.
         11    1    3    3    0    0 -0.79404296669E+01  0.62021598917E+01 -0.13870681252E+02  0.17143891311E+02  0.51100000000E-03 0. -1.
        -11    1    3    3    0    0  0.12212245020E+02 -0.15424656773E+02 -0.41971373922E+01  0.20116533686E+02  0.51100000000E-03 0.  1.
         12    1    3    3    0    0 -0.85501462294E+01 -0.19637920123E+02  0.52034072969E+01  0.22041514349E+02  0.00000000000E+00 0. -1.
</event>
<event>
 7    1  0.5979290E-013  0.5930194E+02  0.7816164E-02  0.1266605E+00
        -11   -1    0    0    0    0  0.00000000000E+00  0.00000000000E+00  0.45593999997E+02  0.45594000000E+02  0.51100000000E-03 0.  1.
         11   -1    0    0    0    0 -0.00000000000E+00 -0.00000000000E+00 -0.45593999997E+02  0.45594000000E+02  0.51100000000E-03 0. -1.
    9900012    2    1    2    0    0 -0.13548381695E+02  0.19028775094E+02 -0.21704104567E+02  0.59301935910E+02  0.49999985195E+02 0.  0.
        -12    1    1    2    0    0  0.13548381695E+02 -0.19028775094E+02  0.21704104567E+02  0.31886064090E+02  0.00000000000E+00 0.  1.
         11    1    3    3    0    0  0.40700921736E+01 -0.14818406447E+01 -0.13717560265E+02  0.14385164645E+02  0.51100000000E-03 0. -1.
        -11    1    3    3    0    0 -0.72783748458E+01 -0.83473016771E+01  0.43154596558E+01  0.11885931936E+02  0.51100000000E-03 0.  1.
        -12    1    3    3    0    0 -0.10340099023E+02  0.28857917415E+02 -0.12302003958E+02  0.33030839328E+02  0.00000000000E+00 0.  1.
</event>
<event>
 7    1  0.5979290E-013  0.5930191E+02  0.7816164E-02  0.1266605E+00
        -11   -1    0    0    0    0  0.00000000000E+00  0.00000000000E+00  0.45593999997E+02  0.45594000000E+02  0.51100000000E-03 0. -1.
         11   -1    0    0    0    0 -0.00000000000E+00 -0.00000000000E+00 -0.45593999997E+02  0.45594000000E+02  0.51100000000E-03 0.  1.
    9900012    2    1    2    0    0  0.22965903942E+02  0.79362803033E+01 -0.20647162141E+02  0.59301912228E+02  0.49999942005E+02 0.  0.
        -12    1    1    2    0    0 -0.22965903942E+02 -0.79362803033E+01  0.20647162141E+02  0.31886087772E+02  0.00000000000E+00 0.  1.
         11    1    3    3    0    0  0.19572588575E+01  0.76745007598E+01  0.32072949574E+01  0.85449145901E+01  0.51100000000E-03 0. -1.
        -11    1    3    3    0    0 -0.62732743337E+01 -0.18782502170E+01 -0.22416633050E+02  0.23353527192E+02  0.51100000000E-03 0.  1.
        -12    1    3    3    0    0  0.27281919418E+02  0.21400297605E+01 -0.14378240488E+01  0.27403470446E+02  0.00000000000E+00 0.  1.
</event>
<event>
 7    1  0.5979290E-013  0.5930194E+02  0.7816164E-02  0.1266605E+00
        -11   -1    0    0    0    0  0.00000000000E+00  0.00000000000E+00  0.45593999997E+02  0.45594000000E+02  0.51100000000E-03 0.  1.
         11   -1    0    0    0    0 -0.00000000000E+00 -0.00000000000E+00 -0.45593999997E+02  0.45594000000E+02  0.51100000000E-03 0. -1.
    9900012    2    1    2    0    0 -0.34072283402E+00  0.23839270941E+02 -0.21172953430E+02  0.59301938970E+02  0.49999990776E+02 0.  0.
        -12    1    1    2    0    0  0.34072283402E+00 -0.23839270941E+02  0.21172953430E+02  0.31886061030E+02  0.00000000000E+00 0.  1.
         11    1    3    3    0    0  0.21217008134E+02 -0.15566751339E+01 -0.88875324676E+01  0.23055864878E+02  0.51100000000E-03 0. -1.
        -11    1    3    3    0    0 -0.53162353395E+01  0.38458306829E+01  0.81963636526E-01  0.65619730360E+01  0.51100000000E-03 0.  1.
         12    1    3    3    0    0 -0.16241495629E+02  0.21550115392E+02 -0.12367384599E+02  0.29684101056E+02  0.00000000000E+00 0. -1.
</event>
<event>
 7    1  0.5979290E-013  0.5930189E+02  0.7816164E-02  0.1266605E+00
        -11   -1    0    0    0    0  0.00000000000E+00  0.00000000000E+00  0.45593999997E+02  0.45594000000E+02  0.51100000000E-03 0. -1.
         11   -1    0    0    0    0 -0.00000000000E+00 -0.00000000000E+00 -0.45593999997E+02  0.45594000000E+02  0.51100000000E-03 0.  1.
    9900012    2    1    2    0    0 -0.71098579266E+01 -0.21096268007E+02  0.22828078600E+02  0.59301893682E+02  0.49999908181E+02 0.  0.
        -12    1    1    2    0    0  0.71098579266E+01  0.21096268007E+02 -0.22828078600E+02  0.31886106318E+02  0.00000000000E+00 0.  1.
         11    1    3    3    0    0  0.10413475451E+02 -0.15443795540E+02 -0.74227082864E+00  0.18641412444E+02  0.51100000000E-03 0. -1.
        -11    1    3    3    0    0  0.30667978841E+01  0.74003718689E+01  0.23729058789E+01  0.83547253474E+01  0.51100000000E-03 0.  1.
         12    1    3    3    0    0 -0.20590131261E+02 -0.13052844335E+02  0.21197443550E+02  0.32305755891E+02  0.00000000000E+00 0. -1.
</event>
<event>
 7    1  0.5979290E-013  0.5930193E+02  0.7816164E-02  0.1266605E+00
        -11   -1    0    0    0    0  0.00000000000E+00  0.00000000000E+00  0.45593999997E+02  0.45594000000E+02  0.51100000000E-03 0.  1.
         11   -1    0    0    0    0 -0.00000000000E+00 -0.00000000000E+00 -0.45593999997E+02  0.45594000000E+02  0.51100000000E-03 0. -1.
    9900012    2    1    2    0    0 -0.12201761201E+02  0.15086785625E+02 -0.25302713676E+02  0.59301931000E+02  0.49999976240E+02 0.  0.
        -12    1    1    2    0    0  0.12201761201E+02 -0.15086785625E+02  0.25302713676E+02  0.31886069000E+02  0.00000000000E+00 0.  1.
         11    1    3    3    0    0  0.31707179663E+00  0.28793183340E+02 -0.13871063468E+02  0.31961763771E+02  0.51100000000E-03 0. -1.
        -11    1    3    3    0    0 -0.55027119072E+01 -0.74878184673E+01  0.33147270128E+01  0.98658339315E+01  0.51100000000E-03 0.  1.
         12    1    3    3    0    0 -0.70161210908E+01 -0.62185792477E+01 -0.14746377221E+02  0.17474333297E+02  0.00000000000E+00 0. -1.
</event>
<event>
 7    1  0.5979290E-013  0.5930195E+02  0.7816164E-02  0.1266605E+00
        -11   -1    0    0    0    0  0.00000000000E+00  0.00000000000E+00  0.45593999997E+02  0.45594000000E+02  0.51100000000E-03 0.  1.
         11   -1    0    0    0    0 -0.00000000000E+00 -0.00000000000E+00 -0.45593999997E+02  0.45594000000E+02  0.51100000000E-03 0. -1.
    9900012    2    1    2    0    0  0.13323116351E+02 -0.27283576362E+02  0.97376027971E+01  0.59301954829E+02  0.50000019699E+02 0.  0.
        -12    1    1    2    0    0 -0.13323116351E+02  0.27283576362E+02 -0.97376027971E+01  0.31886045171E+02  0.00000000000E+00 0.  1.
         11    1    3    3    0    0  0.79330781066E+01  0.12128602564E+02 -0.39818922641E+01  0.15029710399E+02  0.51100000000E-03 0. -1.
        -11    1    3    3    0    0 -0.31461829878E+01 -0.13315655535E+02  0.23907478004E+00  0.13684381854E+02  0.51100000000E-03 0.  1.
         12    1    3    3    0    0  0.85362212326E+01 -0.26096523391E+02  0.13480420281E+02  0.30587862576E+02  0.00000000000E+00 0. -1.
</event>
<event>
 7    1  0.5979290E-013  0.5930196E+02  0.7816164E-02  0.1266605E+00
        -11   -1    0    0    0    0  0.00000000000E+00  0.00000000000E+00  0.45593999997E+02  0.45594000000E+02  0.51100000000E-03 0. -1.
         11   -1    0    0    0    0 -0.00000000000E+00 -0.00000000000E+00 -0.45593999997E+02  0.45594000000E+02  0.51100000000E-03 0.  1.
    9900012    2    1    2    0    0 -0.66735298358E+01  0.13629906843E+02  0.28042990285E+02  0.59301958146E+02  0.50000025749E+02 0.  0.
        -12    1    1    2    0    0  0.66735298358E+01 -0.13629906843E+02 -0.28042990285E+02  0.31886041854E+02  0.00000000000E+00 0.  1.
         11    1    3    3    0    0  0.13252564234E+02  0.16207546606E+02  0.57836644192E+01  0.21720170352E+02  0.51100000000E-03 0. -1.
        -11    1    3    3    0    0 -0.58747684713E+01 -0.11884565886E+02  0.78451717338E+01  0.15404626924E+02  0.51100000000E-03 0.  1.
        -12    1    3    3    0    0 -0.14051325598E+02  0.93069261221E+01  0.14414154132E+02  0.22177160870E+02  0.00000000000E+00 0.  1.
</event>
<event>
 7    1  0.5979290E-013  0.5930191E+02  0.7816164E-02  0.1266605E+00
        -11   -1    0    0    0    0  0.00000000000E+00  0.00000000000E+00  0.45593999997E+02  0.45594000000E+02  0.51100000000E-03 0. -1.
         11   -1    0    0    0    0 -0.00000000000E+00 -0.00000000000E+00 -0.45593999997E+02  0.45594000000E+02  0.51100000000E-03 0.  1.
    9900012    2    1    2    0    0 -0.72876190582E+00  0.20084302488E+02  0.24755046314E+02  0.59301911836E+02  0.49999941291E+02 0.  0.
        -12    1    1    2    0    0  0.72876190582E+00 -0.20084302488E+02 -0.24755046314E+02  0.31886088164E+02  0.00000000000E+00 0.  1.
         11    1    3    3    0    0 -0.18373553367E+00  0.24371762198E+01  0.79713424056E+01  0.83376187656E+01  0.51100000000E-03 0. -1.
        -11    1    3    3    0    0  0.14377427452E+02  0.23164811360E+02 -0.76828798237E+00  0.27274698388E+02  0.51100000000E-03 0.  1.
        -12    1    3    3    0    0 -0.14922453824E+02 -0.55176850913E+01  0.17551991891E+02  0.23689594683E+02  0.00000000000E+00 0.  1.
</event>
<event>
 7    1  0.5979290E-013  0.5930195E+02  0.7816164E-02  0.1266605E+00
        -11   -1    0    0    0    0  0.00000000000E+00  0.00000000000E+00  0.45593999997E+02  0.45594000000E+02  0.51100000000E-03 0.  1.
         11   -1    0    0    0    0 -0.00000000000E+00 -0.00000000000E+00 -0.45593999997E+02  0.45594000000E+02  0.51100000000E-03 0. -1.
    9900012    2    1    2    0    0 -0.17305311585E+02  0.25218145650E+02  0.90161696703E+01  0.59301952980E+02  0.50000016327E+02 0.  0.
        -12    1    1    2    0    0  0.17305311585E+02 -0.25218145650E+02 -0.90161696703E+01  0.31886047020E+02  0.00000000000E+00 0.  1.
         11    1    3    3    0    0 -0.91559857706E+01 -0.21200677925E+01  0.70966746523E+01  0.11776652931E+02  0.51100000000E-03 0. -1.
        -11    1    3    3    0    0  0.63160879756E+01  0.20088878359E+02 -0.13630017580E+02  0.25084524722E+02  0.51100000000E-03 0.  1.
        -12    1    3    3    0    0 -0.14465413790E+02  0.72493350832E+01  0.15549512598E+02  0.22440775327E+02  0.00000000000E+00 0.  1.
</event>
<event>
 7    1  0.5979290E-013  0.5930195E+02  0.7816164E-02  0.1266605E+00
        -11   -1    0    0    0    0  0.00000000000E+00  0.00000000000E+00  0.45593999997E+02  0.45594000000E+02  0.51100000000E-03 0.  1.
         11   -1    0    0    0    0 -0.00000000000E+00 -0.00000000000E+00 -0.45593999997E+02  0.45594000000E+02  0.51100000000E-03 0. -1.
    9900012    2    1    2    0    0  0.50750090788E+01  0.13050581895E+02 -0.28646938169E+02  0.59301945503E+02  0.50000002690E+02 0.  0.
        -12    1    1    2    0    0 -0.50750090788E+01 -0.13050581895E+02  0.28646938169E+02  0.31886054497E+02  0.00000000000E+00 0.  1.
         11    1    3    3    0    0  0.13245542774E+02  0.14524694325E+00  0.24700647939E+01  0.13474669584E+02  0.51100000000E-03 0. -1.
        -11    1    3    3    0    0 -0.16913106226E+02  0.14475139778E+02 -0.29237890174E+02  0.36748293238E+02  0.51100000000E-03 0.  1.
        -12    1    3    3    0    0  0.87425725301E+01 -0.15698048267E+01 -0.18791127892E+01  0.90789826805E+01  0.00000000000E+00 0.  1.
</event>
<event>
 7    1  0.5979290E-013  0.5930197E+02  0.7816164E-02  0.1266605E+00
        -11   -1    0    0    0    0  0.00000000000E+00  0.00000000000E+00  0.45593999997E+02  0.45594000000E+02  0.51100000000E-03 0. -1.
         11   -1    0    0    0    0 -0.00000000000E+00 -0.00000000000E+00 -0.45593999997E+02  0.45594000000E+02  0.51100000000E-03 0.  1.
    9900012    2    1    2    0    0 -0.31570474376E+01  0.28483547910E+02  0.13979962097E+02  0.59301971863E+02  0.50000050766E+02 0.  0.
        -12    1    1    2    0    0  0.31570474376E+01 -0.28483547910E+02 -0.13979962097E+02  0.31886028137E+02  0.00000000000E+00 0.  1.
         11    1    3    3    0    0 -0.19821386104E+02  0.19537556620E+02  0.22707544084E+02  0.35919855573E+02  0.51100000000E-03 0. -1.
        -11    1    3    3    0    0  0.12429078248E+02  0.96300198951E+00 -0.65682233531E+01  0.14090809672E+02  0.51100000000E-03 0.  1.
         12    1    3    3    0    0  0.42352604181E+01  0.79829893005E+01 -0.21593586338E+01  0.92913066191E+01  0.00000000000E+00 0. -1.
</event>
<event>
 7    1  0.5979290E-013  0.5930198E+02  0.7816164E-02  0.1266605E+00
        -11   -1    0    0    0    0  0.00000000000E+00  0.00000000000E+00  0.45593999997E+02  0.45594000000E+02  0.51100000000E-03 0.  1.
         11   -1    0    0    0    0 -0.00000000000E+00 -0.00000000000E+00 -0.45593999997E+02  0.45594000000E+02  0.51100000000E-03 0. -1.
    9900012    2    1    2    0    0  0.10484057174E+02 -0.30093065414E+02 -0.11001836362E+01  0.59301977280E+02  0.50000060644E+02 0.  0.
        -12    1    1    2    0    0 -0.10484057174E+02  0.30093065414E+02  0.11001836362E+01  0.31886022720E+02  0.00000000000E+00 0.  1.
         11    1    3    3    0    0  0.11595649204E+02 -0.29326064831E+01 -0.16417355642E+02  0.20312282683E+02  0.51100000000E-03 0. -1.
        -11    1    3    3    0    0  0.31271597613E+01 -0.22246919695E+02  0.20707813410E+02  0.30553528447E+02  0.51100000000E-03 0.  1.
        -12    1    3    3    0    0 -0.42387517913E+01 -0.49135392363E+01 -0.53906414037E+01  0.84361661504E+01  0.00000000000E+00 0.  1.
</event>
<event>
 7    1  0.5979290E-013  0.5930193E+02  0.7816164E-02  0.1266605E+00
        -11   -1    0    0    0    0  0.00000000000E+00  0.00000000000E+00  0.45593999997E+02  0.45594000000E+02  0.51100000000E-03 0. -1.
         11   -1    0    0    0    0 -0.00000000000E+00 -0.00000000000E+00 -0.45593999997E+02  0.45594000000E+02  0.51100000000E-03 0.  1.
    9900012    2    1    2    0    0  0.20933264866E+02  0.42285489796E+01  0.23677817603E+02  0.59301933280E+02  0.49999980399E+02 0.  0.
        -12    1    1    2    0    0 -0.20933264866E+02 -0.42285489796E+01 -0.23677817603E+02  0.31886066720E+02  0.00000000000E+00 0.  1.
         11    1    3    3    0    0  0.14116887334E+02 -0.93176976702E+01  0.16280239991E+02  0.23476631196E+02  0.51100000000E-03 0. -1.
        -11    1    3    3    0    0  0.67211888457E+01  0.16972846543E+02 -0.80866914291E+01  0.19966133271E+02  0.51100000000E-03 0.  1.
        -12    1    3    3    0    0  0.95188686515E-01 -0.34265998932E+01  0.15484269041E+02  0.15859168813E+02  0.00000000000E+00 0.  1.
</event>
<event>
 7    1  0.5979290E-013  0.5930193E+02  0.7816164E-02  0.1266605E+00
        -11   -1    0    0    0    0  0.00000000000E+00  0.00000000000E+00  0.45593999997E+02  0.45594000000E+02  0.51100000000E-03 0.  1.
         11   -1    0    0    0    0 -0.00000000000E+00 -0.00000000000E+00 -0.45593999997E+02  0.45594000000E+02  0.51100000000E-03 0. -1.
    9900012    2    1    2    0    0  0.23854248362E+02 -0.11587430328E+02 -0.17703899396E+02  0.59301925291E+02  0.49999965828E+02 0.  0.
        -12    1    1    2    0    0 -0.23854248362E+02  0.11587430328E+02  0.17703899396E+02  0.31886074709E+02  0.00000000000E+00 0.  1.
         11    1    3    3    0    0  0.81609706491E+01 -0.51797877219E+01 -0.20206489589E+02  0.22399416612E+02  0.51100000000E-03 0. -1.
        -11    1    3    3    0    0  0.23172054652E+02  0.15971698526E+01  0.81020242914E+01  0.24599550123E+02  0.51100000000E-03 0.  1.
        -12    1    3    3    0    0 -0.74787769392E+01 -0.80048124591E+01 -0.55994340979E+01  0.12302958556E+02  0.00000000000E+00 0.  1.
</event>
<event>
 7    1  0.5979290E-013  0.5930196E+02  0.7816164E-02  0.1266605E+00
        -11   -1    0    0    0    0  0.00000000000E+00  0.00000000000E+00  0.45593999997E+02  0.45594000000E+02  0.51100000000E-03 0. -1.
         11   -1    0    0    0    0 -0.00000000000E+00 -0.00000000000E+00 -0.45593999997E+02  0.45594000000E+02  0.51100000000E-03 0.  1.
    9900012    2    1    2    0    0 -0.17386814765E+02 -0.24877212933E+02  0.97745685533E+01  0.59301964791E+02  0.50000037867E+02 0.  0.
        -12    1    1    2    0    0  0.17386814765E+02  0.24877212933E+02 -0.97745685533E+01  0.31886035209E+02  0.00000000000E+00 0.  1.
         11    1    3    3    0    0 -0.28950054856E+01  0.10046909026E+02  0.10555466914E+01  0.10508835179E+02  0.51100000000E-03 0. -1.
        -11    1    3    3    0    0 -0.12595165404E+01 -0.26709669332E+02 -0.59551704167E+01  0.27394467922E+02  0.51100000000E-03 0.  1.
         12    1    3    3    0    0 -0.13232292739E+02 -0.82144526269E+01  0.14674192279E+02  0.21398661690E+02  0.00000000000E+00 0. -1.
</event>
<event>
 7    1  0.5979290E-013  0.5930194E+02  0.7816164E-02  0.1266605E+00
        -11   -1    0    0    0    0  0.00000000000E+00  0.00000000000E+00  0.45593999997E+02  0.45594000000E+02  0.51100000000E-03 0.  1.
         11   -1    0    0    0    0 -0.00000000000E+00 -0.00000000000E+00 -0.45593999997E+02  0.45594000000E+02  0.51100000000E-03 0. -1.
    9900012    2    1    2    0    0  0.31582158473E+01 -0.96676450265E+01 -0.30220576379E+02  0.59301938400E+02  0.49999989736E+02 0.  0.
        -12    1    1    2    0    0 -0.31582158473E+01  0.96676450265E+01  0.30220576379E+02  0.31886061600E+02  0.00000000000E+00 0.  1.
         11    1    3    3    0    0 -0.17861909490E+02 -0.90564690161E+01 -0.53341175328E+01  0.20724870368E+02  0.51100000000E-03 0. -1.
        -11    1    3    3    0    0  0.23216931297E+02  0.37489064314E+01 -0.24024554866E+02  0.33619331270E+02  0.51100000000E-03 0.  1.
         12    1    3    3    0    0 -0.21968059594E+01 -0.43600824419E+01 -0.86190398002E+00  0.49577367613E+01  0.00000000000E+00 0. -1.
</event>
<event>
 7    1  0.5979290E-013  0.5930197E+02  0.7816164E-02  0.1266605E+00
        -11   -1    0    0    0    0  0.00000000000E+00  0.00000000000E+00  0.45593999997E+02  0.45594000000E+02  0.51100000000E-03 0.  1.
         11   -1    0    0    0    0 -0.00000000000E+00 -0.00000000000E+00 -0.45593999997E+02  0.45594000000E+02  0.51100000000E-03 0. -1.
    9900012    2    1    2    0    0  0.15993176111E+02  0.10776701366E+00 -0.27584879323E+02  0.59301970722E+02  0.50000048684E+02 0.  0.
        -12    1    1    2    0    0 -0.15993176111E+02 -0.10776701366E+00  0.27584879323E+02  0.31886029278E+02  0.00000000000E+00 0.  1.
         11    1    3    3    0    0  0.18170854496E+02  0.49413930413E+01 -0.54818379258E+01  0.19612441603E+02  0.51100000000E-03 0. -1.
        -11    1    3    3    0    0 -0.15917542302E+02  0.42709870465E+01 -0.11275779760E+02  0.19968792971E+02  0.51100000000E-03 0.  1.
         12    1    3    3    0    0  0.13739863916E+02 -0.91046130741E+01 -0.10827261637E+02  0.19720736148E+02  0.00000000000E+00 0. -1.
</event>
<event>
 7    1  0.5979290E-013  0.5930191E+02  0.7816164E-02  0.1266605E+00
        -11   -1    0    0    0    0  0.00000000000E+00  0.00000000000E+00  0.45593999997E+02  0.45594000000E+02  0.51100000000E-03 0. -1.
         11   -1    0    0    0    0 -0.00000000000E+00 -0.00000000000E+00 -0.45593999997E+02  0.45594000000E+02  0.51100000000E-03 0.  1.
    9900012    2    1    2    0    0  0.88006183437E+01  0.56232086429E+01  0.30127249067E+02  0.59301913771E+02  0.49999944819E+02 0.  0.
        -12    1    1    2    0    0 -0.88006183437E+01 -0.56232086429E+01 -0.30127249067E+02  0.31886086229E+02  0.00000000000E+00 0.  1.
         11    1    3    3    0    0  0.94839647909E+01  0.63997333798E+01  0.39791460675E+02  0.41403653442E+02  0.51100000000E-03 0. -1.
        -11    1    3    3    0    0  0.10489228383E+01 -0.62332018662E+01  0.38512892195E+00  0.63325641862E+01  0.51100000000E-03 0.  1.
         12    1    3    3    0    0 -0.17322692855E+01  0.54566771293E+01 -0.10049340530E+02  0.11565696142E+02  0.00000000000E+00 0. -1.
</event>
<event>
 7    1  0.5979290E-013  0.5930205E+02  0.7816164E-02  0.1266604E+00
        -11   -1    0    0    0    0  0.00000000000E+00  0.00000000000E+00  0.45593999997E+02  0.45594000000E+02  0.51100000000E-03 0.  1.
         11   -1    0    0    0    0 -0.00000000000E+00 -0.00000000000E+00 -0.45593999997E+02  0.45594000000E+02  0.51100000000E-03 0. -1.
    9900012    2    1    2    0    0  0.14529686537E+02 -0.28179577871E+02  0.33931338523E+01  0.59302050787E+02  0.50000194703E+02 0.  0.
        -12    1    1    2    0    0 -0.14529686537E+02  0.28179577871E+02 -0.33931338523E+01  0.31885949213E+02  0.00000000000E+00 0.  1.
         11    1    3    3    0    0  0.63016907751E+01 -0.16433789090E+02 -0.51189404495E+01  0.18329874033E+02  0.51100000000E-03 0. -1.
        -11    1    3    3    0    0 -0.47798054900E+01  0.89383599466E+01 -0.67361831465E+01  0.12170332070E+02  0.51100000000E-03 0.  1.
        -12    1    3    3    0    0  0.13007801252E+02 -0.20684148728E+02  0.15248257448E+02  0.28801844684E+02  0.00000000000E+00 0.  1.
</event>
<event>
 7    1  0.5979290E-013  0.5930195E+02  0.7816164E-02  0.1266605E+00
        -11   -1    0    0    0    0  0.00000000000E+00  0.00000000000E+00  0.45593999997E+02  0.45594000000E+02  0.51100000000E-03 0.  1.
         11   -1    0    0    0    0 -0.00000000000E+00 -0.00000000000E+00 -0.45593999997E+02  0.45594000000E+02  0.51100000000E-03 0. -1.
    9900012    2    1    2    0    0  0.28160764162E+02 -0.64697628187E+01  0.13484568340E+02  0.59301952073E+02  0.50000014672E+02 0.  0.
        -12    1    1    2    0    0 -0.28160764162E+02  0.64697628187E+01 -0.13484568340E+02  0.31886047927E+02  0.00000000000E+00 0.  1.
         11    1    3    3    0    0  0.33238869693E+02 -0.25774347000E+01 -0.51571609153E+01  0.33735173589E+02  0.51100000000E-03 0. -1.
        -11    1    3    3    0    0 -0.39777385269E+01 -0.33093172033E+01  0.21676988238E+02  0.22286000167E+02  0.51100000000E-03 0.  1.
        -12    1    3    3    0    0 -0.11003670042E+01 -0.58301091542E+00 -0.30352589825E+01  0.32807783165E+01  0.00000000000E+00 0.  1.
</event>
<event>
 7    1  0.5979290E-013  0.5930197E+02  0.7816164E-02  0.1266605E+00
        -11   -1    0    0    0    0  0.00000000000E+00  0.00000000000E+00  0.45593999997E+02  0.45594000000E+02  0.51100000000E-03 0.  1.
         11   -1    0    0    0    0 -0.00000000000E+00 -0.00000000000E+00 -0.45593999997E+02  0.45594000000E+02  0.51100000000E-03 0. -1.
    9900012    2    1    2    0    0 -0.14897679383E+01 -0.81282359891E+01 -0.30796612501E+02  0.59301969041E+02  0.50000045618E+02 0.  0.
        -12    1    1    2    0    0  0.14897679383E+01  0.81282359891E+01  0.30796612501E+02  0.31886030959E+02  0.00000000000E+00 0.  1.
         11    1    3    3    0    0  0.33049711948E+01 -0.84540325434E+01 -0.25405868005E+02  0.26978725511E+02  0.51100000000E-03 0. -1.
        -11    1    3    3    0    0  0.65586769694E+01 -0.90515425142E+01  0.69055912569E+01  0.13139020372E+02  0.51100000000E-03 0.  1.
        -12    1    3    3    0    0 -0.11353416103E+02  0.93773390686E+01 -0.12296335753E+02  0.19184223157E+02  0.00000000000E+00 0.  1.
</event>
<event>
 7    1  0.5979290E-013  0.5930194E+02  0.7816164E-02  0.1266605E+00
        -11   -1    0    0    0    0  0.00000000000E+00  0.00000000000E+00  0.45593999997E+02  0.45594000000E+02  0.51100000000E-03 0.  1.
         11   -1    0    0    0    0 -0.00000000000E+00 -0.00000000000E+00 -0.45593999997E+02  0.45594000000E+02  0.51100000000E-03 0. -1.
    9900012    2    1    2    0    0  0.22316480840E+02 -0.17335156496E+02 -0.14771174493E+02  0.59301944055E+02  0.50000000050E+02 0.  0.
        -12    1    1    2    0    0 -0.22316480840E+02  0.17335156496E+02  0.14771174493E+02  0.31886055945E+02  0.00000000000E+00 0.  1.
         11    1    3    3    0    0  0.22262570360E+02 -0.49770635751E+01 -0.17914892259E+02  0.29005802278E+02  0.51100000000E-03 0. -1.
        -11    1    3    3    0    0  0.69882777201E+01  0.23169434278E+01  0.10215062792E+02  0.12591733814E+02  0.51100000000E-03 0.  1.
        -12    1    3    3    0    0 -0.69343672403E+01 -0.14675036349E+02 -0.70713450254E+01  0.17704407963E+02  0.00000000000E+00 0.  1.
</event>
<event>
 7    1  0.5979290E-013  0.5930195E+02  0.7816164E-02  0.1266605E+00
        -11   -1    0    0    0    0  0.00000000000E+00  0.00000000000E+00  0.45593999997E+02  0.45594000000E+02  0.51100000000E-03 0. -1.
         11   -1    0    0    0    0 -0.00000000000E+00 -0.00000000000E+00 -0.45593999997E+02  0.45594000000E+02  0.51100000000E-03 0.  1.
    9900012    2    1    2    0    0  0.88995332581E+01  0.30472345135E+02 -0.29924498039E+01  0.59301948722E+02  0.50000008562E+02 0.  0.
        -12    1    1    2    0    0 -0.88995332581E+01 -0.30472345135E+02  0.29924498039E+01  0.31886051278E+02  0.00000000000E+00 0.  1.
         11    1    3    3    0    0 -0.12785155702E+01  0.33441894216E+02  0.12352098824E+02  0.35673088406E+02  0.51100000000E-03 0. -1.
        -11    1    3    3    0    0  0.19992554365E+01 -0.97871174305E+00  0.28294662940E+01  0.36001081576E+01  0.51100000000E-03 0.  1.
         12    1    3    3    0    0  0.81787933917E+01 -0.19908373377E+01 -0.18174014922E+02  0.20028752159E+02  0.00000000000E+00 0. -1.
</event>
<event>
 7    1  0.5979290E-013  0.5930190E+02  0.7816164E-02  0.1266605E+00
        -11   -1    0    0    0    0  0.00000000000E+00  0.00000000000E+00  0.45593999997E+02  0.45594000000E+02  0.51100000000E-03 0.  1.
         11   -1    0    0    0    0 -0.00000000000E+00 -0.00000000000E+00 -0.45593999997E+02  0.45594000000E+02  0.51100000000E-03 0. -1.
    9900012    2    1    2    0    0  0.14812905880E+02 -0.16205390231E+02 -0.23123284868E+02  0.59301903403E+02  0.49999925909E+02 0.  0.
        -12    1    1    2    0    0 -0.14812905880E+02  0.16205390231E+02  0.23123284868E+02  0.31886096597E+02  0.00000000000E+00 0.  1.
         11    1    3    3    0    0  0.21578669822E+02 -0.12583549399E+02 -0.20092592550E+02  0.32057713306E+02  0.51100000000E-03 0. -1.
        -11    1    3    3    0    0 -0.88968742884E+01  0.79159569030E+01 -0.81629810841E+01  0.14437832463E+02  0.51100000000E-03 0.  1.
         12    1    3    3    0    0  0.21311103459E+01 -0.11537797734E+02  0.51322887654E+01  0.12806357633E+02  0.00000000000E+00 0. -1.
</event>
<event>
 7    1  0.5979290E-013  0.5930192E+02  0.7816164E-02  0.1266605E+00
        -11   -1    0    0    0    0  0.00000000000E+00  0.00000000000E+00  0.45593999997E+02  0.45594000000E+02  0.51100000000E-03 0.  1.
         11   -1    0    0    0    0 -0.00000000000E+00 -0.00000000000E+00 -0.45593999997E+02  0.45594000000E+02  0.51100000000E-03 0. -1.
    9900012    2    1    2    0    0  0.20834186199E+02 -0.90590552781E+01 -0.22373914997E+02  0.59301923581E+02  0.49999962710E+02 0.  0.
        -12    1    1    2    0    0 -0.20834186199E+02  0.90590552781E+01  0.22373914997E+02  0.31886076419E+02  0.00000000000E+00 0.  1.
         11    1    3    3    0    0  0.14884683504E+02  0.18683585457E+02 -0.36258886142E+01  0.24161482509E+02  0.51100000000E-03 0. -1.
        -11    1    3    3    0    0 -0.12434504688E+01 -0.11476122529E+02 -0.10212652623E+02  0.15412521897E+02  0.51100000000E-03 0.  1.
         12    1    3    3    0    0  0.71929531634E+01 -0.16266518206E+02 -0.85353737594E+01  0.19727919174E+02  0.00000000000E+00 0. -1.
</event>
<event>
 7    1  0.5979290E-013  0.5930196E+02  0.7816164E-02  0.1266605E+00
        -11   -1    0    0    0    0  0.00000000000E+00  0.00000000000E+00  0.45593999997E+02  0.45594000000E+02  0.51100000000E-03 0.  1.
         11   -1    0    0    0    0 -0.00000000000E+00 -0.00000000000E+00 -0.45593999997E+02  0.45594000000E+02  0.51100000000E-03 0. -1.
    9900012    2    1    2    0    0  0.20467999178E+02  0.23104490437E+02 -0.79977038863E+01  0.59301957032E+02  0.50000023717E+02 0.  0.
        -12    1    1    2    0    0 -0.20467999178E+02 -0.23104490437E+02  0.79977038863E+01  0.31886042968E+02  0.00000000000E+00 0.  1.
         11    1    3    3    0    0  0.14625881739E+02  0.30827432168E+02  0.10874593797E+02  0.35812061952E+02  0.51100000000E-03 0. -1.
        -11    1    3    3    0    0  0.80876124544E+01 -0.28894444749E+01 -0.12750718477E+02  0.15373327113E+02  0.51100000000E-03 0.  1.
         12    1    3    3    0    0 -0.22454950149E+01 -0.48334972564E+01 -0.61215792062E+01  0.81165679673E+01  0.00000000000E+00 0. -1.
</event>
<event>
 7    1  0.5979290E-013  0.5930196E+02  0.7816164E-02  0.1266605E+00
        -11   -1    0    0    0    0  0.00000000000E+00  0.00000000000E+00  0.45593999997E+02  0.45594000000E+02  0.51100000000E-03 0. -1.
         11   -1    0    0    0    0 -0.00000000000E+00 -0.00000000000E+00 -0.45593999997E+02  0.45594000000E+02  0.51100000000E-03 0.  1.
    9900012    2    1    2    0    0 -0.12517500166E+02 -0.27785110559E+02  0.93818735154E+01  0.59301957131E+02  0.50000023897E+02 0.  0.
        -12    1    1    2    0    0  0.12517500166E+02  0.27785110559E+02 -0.93818735154E+01  0.31886042869E+02  0.00000000000E+00 0.  1.
         11    1    3    3    0    0 -0.17609885980E+02 -0.11409057449E+02  0.16930944278E+02  0.26961668170E+02  0.51100000000E-03 0. -1.
        -11    1    3    3    0    0  0.13040587956E+02 -0.13457968973E+02  0.28230850053E+01  0.18951086310E+02  0.51100000000E-03 0.  1.
         12    1    3    3    0    0 -0.79482021425E+01 -0.29180841369E+01 -0.10372155768E+02  0.13389202650E+02  0.00000000000E+00 0. -1.
</event>
<event>
 7    1  0.5979290E-013  0.5930189E+02  0.7816164E-02  0.1266605E+00
        -11   -1    0    0    0    0  0.00000000000E+00  0.00000000000E+00  0.45593999997E+02  0.45594000000E+02  0.51100000000E-03 0.  1.
         11   -1    0    0    0    0 -0.00000000000E+00 -0.00000000000E+00 -0.45593999997E+02  0.45594000000E+02  0.51100000000E-03 0. -1.
    9900012    2    1    2    0    0 -0.11377481618E+02 -0.28834404053E+02  0.74735725600E+01  0.59301886535E+02  0.49999895147E+02 0.  0.
        -12    1    1    2    0    0  0.11377481618E+02  0.28834404053E+02 -0.74735725600E+01  0.31886113465E+02  0.00000000000E+00 0.  1.
         11    1    3    3    0    0  0.14693597022E+02 -0.18820754855E+02 -0.11396492146E+01  0.23904422339E+02  0.51100000000E-03 0. -1.
        -11    1    3    3    0    0 -0.25202579349E+01  0.29729975410E+01  0.75331314535E+01  0.84816557460E+01  0.51100000000E-03 0.  1.
         12    1    3    3    0    0 -0.23550820705E+02 -0.12986646740E+02  0.10800903211E+01  0.26915808451E+02  0.00000000000E+00 0. -1.
</event>
<event>
 7    1  0.5979290E-013  0.5930190E+02  0.7816164E-02  0.1266605E+00
        -11   -1    0    0    0    0  0.00000000000E+00  0.00000000000E+00  0.45593999997E+02  0.45594000000E+02  0.51100000000E-03 0. -1.
         11   -1    0    0    0    0 -0.00000000000E+00 -0.00000000000E+00 -0.45593999997E+02  0.45594000000E+02  0.51100000000E-03 0.  1.
    9900012    2    1    2    0    0  0.23920821570E+02 -0.65212678260E+01  0.20049699140E+02  0.59301904688E+02  0.49999928253E+02 0.  0.
        -12    1    1    2    0    0 -0.23920821570E+02  0.65212678260E+01 -0.20049699140E+02  0.31886095312E+02  0.00000000000E+00 0.  1.
         11    1    3    3    0    0  0.19457637243E+02  0.99964385451E+01 -0.85524760609E+01  0.23487726108E+02  0.51100000000E-03 0.  1.
        -11    1    3    3    0    0 -0.14399700476E+01 -0.14117232911E+02  0.24251390242E+02  0.28098037436E+02  0.51100000000E-03 0. -1.
         12    1    3    3    0    0  0.59031543746E+01 -0.24004734601E+01  0.43507849588E+01  0.77161411444E+01  0.00000000000E+00 0. -1.
</event>
<event>
 7    1  0.5979290E-013  0.5930191E+02  0.7816164E-02  0.1266605E+00
        -11   -1    0    0    0    0  0.00000000000E+00  0.00000000000E+00  0.45593999997E+02  0.45594000000E+02  0.51100000000E-03 0.  1.
         11   -1    0    0    0    0 -0.00000000000E+00 -0.00000000000E+00 -0.45593999997E+02  0.45594000000E+02  0.51100000000E-03 0. -1.
    9900012    2    1    2    0    0  0.17980308123E+02 -0.25507470595E+02 -0.65421652929E+01  0.59301914272E+02  0.49999945732E+02 0.  0.
        -12    1    1    2    0    0 -0.17980308123E+02  0.25507470595E+02  0.65421652929E+01  0.31886085728E+02  0.00000000000E+00 0.  1.
         11    1    3    3    0    0  0.56823241037E+01 -0.22937112010E+02 -0.92206980167E+01  0.25365748299E+02  0.51100000000E-03 0. -1.
        -11    1    3    3    0    0 -0.32819996523E+01  0.97034013317E+01  0.84508043347E+01  0.13279443260E+02  0.51100000000E-03 0.  1.
         12    1    3    3    0    0  0.15579983672E+02 -0.12273759917E+02 -0.57722716109E+01  0.20656722713E+02  0.00000000000E+00 0. -1.
</event>
<event>
 7    1  0.5979290E-013  0.5930195E+02  0.7816164E-02  0.1266605E+00
        -11   -1    0    0    0    0  0.00000000000E+00  0.00000000000E+00  0.45593999997E+02  0.45594000000E+02  0.51100000000E-03 0. -1.
         11   -1    0    0    0    0 -0.00000000000E+00 -0.00000000000E+00 -0.45593999997E+02  0.45594000000E+02  0.51100000000E-03 0.  1.
    9900012    2    1    2    0    0 -0.42074624724E+01  0.53875205228E+01  0.31144691074E+02  0.59301954464E+02  0.50000019033E+02 0.  0.
        -12    1    1    2    0    0  0.42074624724E+01 -0.53875205228E+01 -0.31144691074E+02  0.31886045536E+02  0.00000000000E+00 0.  1.
         11    1    3    3    0    0  0.16758686078E+01 -0.10619964565E+02  0.37987260619E+02  0.39479414288E+02  0.51100000000E-03 0. -1.
        -11    1    3    3    0    0 -0.47728685156E+01  0.16083585500E+02 -0.76587473402E+01  0.18442299409E+02  0.51100000000E-03 0.  1.
        -12    1    3    3    0    0 -0.11104625646E+01 -0.76100412583E-01  0.81617779526E+00  0.13802407666E+01  0.00000000000E+00 0.  1.
</event>
<event>
 7    1  0.5979290E-013  0.5930193E+02  0.7816164E-02  0.1266605E+00
        -11   -1    0    0    0    0  0.00000000000E+00  0.00000000000E+00  0.45593999997E+02  0.45594000000E+02  0.51100000000E-03 0.  1.
         11   -1    0    0    0    0 -0.00000000000E+00 -0.00000000000E+00 -0.45593999997E+02  0.45594000000E+02  0.51100000000E-03 0. -1.
    9900012    2    1    2    0    0  0.11417294887E+02 -0.29709704774E+02  0.19236547705E+01  0.59301927367E+02  0.49999969615E+02 0.  0.
        -12    1    1    2    0    0 -0.11417294887E+02  0.29709704774E+02 -0.19236547705E+01  0.31886072633E+02  0.00000000000E+00 0.  1.
         11    1    3    3    0    0 -0.20210984682E+00 -0.10758269653E+01 -0.61885363077E+00  0.12574705272E+01  0.51100000000E-03 0. -1.
        -11    1    3    3    0    0  0.80447807477E+01 -0.21267951578E+02 -0.22323580177E+02  0.31865129747E+02  0.51100000000E-03 0.  1.
        -12    1    3    3    0    0  0.35746239862E+01 -0.73659262303E+01  0.24866088578E+02  0.26179327093E+02  0.00000000000E+00 0.  1.
</event>
<event>
 7    1  0.5979290E-013  0.5930195E+02  0.7816164E-02  0.1266605E+00
        -11   -1    0    0    0    0  0.00000000000E+00  0.00000000000E+00  0.45593999997E+02  0.45594000000E+02  0.51100000000E-03 0.  1.
         11   -1    0    0    0    0 -0.00000000000E+00 -0.00000000000E+00 -0.45593999997E+02  0.45594000000E+02  0.51100000000E-03 0. -1.
    9900012    2    1    2    0    0  0.21583740533E+02 -0.96562233114E+00 -0.23450580055E+02  0.59301953101E+02  0.50000016548E+02 0.  0.
        -12    1    1    2    0    0 -0.21583740533E+02  0.96562233114E+00  0.23450580055E+02  0.31886046899E+02  0.00000000000E+00 0.  1.
         11    1    3    3    0    0  0.89906728629E+01 -0.16458341116E+02 -0.13734327539E+02  0.23245234867E+02  0.51100000000E-03 0. -1.
        -11    1    3    3    0    0  0.71779558279E+01  0.22682087654E+02 -0.14479167112E+01  0.23834777391E+02  0.51100000000E-03 0.  1.
        -12    1    3    3    0    0  0.54151118426E+01 -0.71893688686E+01 -0.82683358049E+01  0.12221940843E+02  0.00000000000E+00 0.  1.
</event>
<event>
 7    1  0.5979290E-013  0.5930198E+02  0.7816164E-02  0.1266605E+00
        -11   -1    0    0    0    0  0.00000000000E+00  0.00000000000E+00  0.45593999997E+02  0.45594000000E+02  0.51100000000E-03 0.  1.
         11   -1    0    0    0    0 -0.00000000000E+00 -0.00000000000E+00 -0.45593999997E+02  0.45594000000E+02  0.51100000000E-03 0. -1.
    9900012    2    1    2    0    0  0.15377040866E+02  0.13450936569E+02 -0.24481370544E+02  0.59301975097E+02  0.50000056663E+02 0.  0.
        -12    1    1    2    0    0 -0.15377040866E+02 -0.13450936569E+02  0.24481370544E+02  0.31886024903E+02  0.00000000000E+00 0.  1.
         11    1    3    3    0    0 -0.14425322187E+02  0.41816625882E+01 -0.66882014688E+01  0.16441054144E+02  0.51100000000E-03 0. -1.
        -11    1    3    3    0    0  0.14170442790E+02  0.83752409129E+01  0.31021263473E+01  0.16750202905E+02  0.51100000000E-03 0.  1.
         12    1    3    3    0    0  0.15631920263E+02  0.89403306789E+00 -0.20895295422E+02  0.26110718049E+02  0.00000000000E+00 0. -1.
</event>
<event>
 7    1  0.5979290E-013  0.5930194E+02  0.7816164E-02  0.1266605E+00
        -11   -1    0    0    0    0  0.00000000000E+00  0.00000000000E+00  0.45593999997E+02  0.45594000000E+02  0.51100000000E-03 0.  1.
         11   -1    0    0    0    0 -0.00000000000E+00 -0.00000000000E+00 -0.45593999997E+02  0.45594000000E+02  0.51100000000E-03 0. -1.
    9900012    2    1    2    0    0 -0.31838494235E+02 -0.11072130514E+01 -0.13434556164E+01  0.59301944915E+02  0.50000001618E+02 0.  0.
        -12    1    1    2    0    0  0.31838494235E+02  0.11072130514E+01  0.13434556164E+01  0.31886055085E+02  0.00000000000E+00 0.  1.
         11    1    3    3    0    0 -0.16266186871E+02 -0.89677718554E+01 -0.16523812959E+02  0.24860534233E+02  0.51100000000E-03 0. -1.
        -11    1    3    3    0    0 -0.13244382358E+02  0.16945427710E+02  0.11261251774E+02  0.24277087472E+02  0.51100000000E-03 0.  1.
         12    1    3    3    0    0 -0.23279250061E+01 -0.90848689063E+01  0.39191055685E+01  0.10164323211E+02  0.00000000000E+00 0. -1.
</event>
<event>
 7    1  0.5979290E-013  0.5930195E+02  0.7816164E-02  0.1266605E+00
        -11   -1    0    0    0    0  0.00000000000E+00  0.00000000000E+00  0.45593999997E+02  0.45594000000E+02  0.51100000000E-03 0.  1.
         11   -1    0    0    0    0 -0.00000000000E+00 -0.00000000000E+00 -0.45593999997E+02  0.45594000000E+02  0.51100000000E-03 0. -1.
    9900012    2    1    2    0    0 -0.30979511834E+02 -0.57837547342E+01 -0.48516224151E+01  0.59301949565E+02  0.50000010098E+02 0.  0.
        -12    1    1    2    0    0  0.30979511834E+02  0.57837547342E+01  0.48516224151E+01  0.31886050435E+02  0.00000000000E+00 0.  1.
         11    1    3    3    0    0 -0.16504735966E+02 -0.80405918089E+01  0.83541371757E+01  0.20170499105E+02  0.51100000000E-03 0. -1.
        -11    1    3    3    0    0 -0.15074459496E+01 -0.60269975470E+01 -0.20987854181E+02  0.21888058756E+02  0.51100000000E-03 0.  1.
        -12    1    3    3    0    0 -0.12967329918E+02  0.82838346216E+01  0.77820945898E+01  0.17243391704E+02  0.00000000000E+00 0.  1.
</event>
<event>
 7    1  0.5979290E-013  0.5930195E+02  0.7816164E-02  0.1266605E+00
        -11   -1    0    0    0    0  0.00000000000E+00  0.00000000000E+00  0.45593999997E+02  0.45594000000E+02  0.51100000000E-03 0.  1.
         11   -1    0    0    0    0 -0.00000000000E+00 -0.00000000000E+00 -0.45593999997E+02  0.45594000000E+02  0.51100000000E-03 0. -1.
    9900012    2    1    2    0    0  0.86054464729E+01 -0.64280561300E+01 -0.30022437403E+02  0.59301947215E+02  0.50000005813E+02 0.  0.
        -12    1    1    2    0    0 -0.86054464729E+01  0.64280561300E+01  0.30022437403E+02  0.31886052785E+02  0.00000000000E+00 0.  1.
         11    1    3    3    0    0  0.15949702458E+02 -0.15714195328E+02 -0.54982869886E+01  0.23055587249E+02  0.51100000000E-03 0. -1.
        -11    1    3    3    0    0 -0.74111408658E+00  0.84886967613E+01  0.21231762042E+01  0.87815203837E+01  0.51100000000E-03 0.  1.
         12    1    3    3    0    0 -0.66031418985E+01  0.79744243706E+00 -0.26647326618E+02  0.27464839582E+02  0.00000000000E+00 0. -1.
</event>
<event>
 7    1  0.5979290E-013  0.5930196E+02  0.7816164E-02  0.1266605E+00
        -11   -1    0    0    0    0  0.00000000000E+00  0.00000000000E+00  0.45593999997E+02  0.45594000000E+02  0.51100000000E-03 0.  1.
         11   -1    0    0    0    0 -0.00000000000E+00 -0.00000000000E+00 -0.45593999997E+02  0.45594000000E+02  0.51100000000E-03 0. -1.
    9900012    2    1    2    0    0 -0.25180821970E+02 -0.31732417856E+01 -0.19302234883E+02  0.59301960265E+02  0.50000029613E+02 0.  0.
        -12    1    1    2    0    0  0.25180821970E+02  0.31732417856E+01  0.19302234883E+02  0.31886039735E+02  0.00000000000E+00 0.  1.
         11    1    3    3    0    0  0.12858228924E+01  0.87444292271E+01 -0.16930182025E+02  0.19098414769E+02  0.51100000000E-03 0. -1.
        -11    1    3    3    0    0 -0.26824115941E+02 -0.16119125723E+02 -0.88068093506E+01  0.32510295312E+02  0.51100000000E-03 0.  1.
         12    1    3    3    0    0  0.35747107885E+00  0.42014547106E+01  0.64347564934E+01  0.76932501836E+01  0.00000000000E+00 0. -1.
</event>
<event>
 7    1  0.5979290E-013  0.5930194E+02  0.7816164E-02  0.1266605E+00
        -11   -1    0    0    0    0  0.00000000000E+00  0.00000000000E+00  0.45593999997E+02  0.45594000000E+02  0.51100000000E-03 0. -1.
         11   -1    0    0    0    0 -0.00000000000E+00 -0.00000000000E+00 -0.45593999997E+02  0.45594000000E+02  0.51100000000E-03 0.  1.
    9900012    2    1    2    0    0 -0.27205280615E+02  0.16585811889E+01  0.16548181816E+02  0.59301944955E+02  0.50000001691E+02 0.  0.
        -12    1    1    2    0    0  0.27205280615E+02 -0.16585811889E+01 -0.16548181816E+02  0.31886055045E+02  0.00000000000E+00 0.  1.
         11    1    3    3    0    0 -0.22709452947E+02  0.10254964494E+02  0.23799489568E+02  0.34457209026E+02  0.51100000000E-03 0. -1.
        -11    1    3    3    0    0  0.24252638752E+01  0.65538082915E+01 -0.10255461920E+01  0.70630059634E+01  0.51100000000E-03 0.  1.
         12    1    3    3    0    0 -0.69210915439E+01 -0.15150191596E+02 -0.62257615605E+01  0.17781729965E+02  0.00000000000E+00 0. -1.
</event>
<event>
 7    1  0.5979290E-013  0.5930194E+02  0.7816164E-02  0.1266605E+00
        -11   -1    0    0    0    0  0.00000000000E+00  0.00000000000E+00  0.45593999997E+02  0.45594000000E+02  0.51100000000E-03 0. -1.
         11   -1    0    0    0    0 -0.00000000000E+00 -0.00000000000E+00 -0.45593999997E+02  0.45594000000E+02  0.51100000000E-03 0.  1.
    9900012    2    1    2    0    0 -0.17352270388E+02  0.11562526050E+02  0.24123174870E+02  0.59301939376E+02  0.49999991517E+02 0.  0.
        -12    1    1    2    0    0  0.17352270388E+02 -0.11562526050E+02 -0.24123174870E+02  0.31886060624E+02  0.00000000000E+00 0.  1.
         11    1    3    3    0    0  0.10371649822E+02 -0.72023258040E+01  0.12619510039E+01  0.12690040883E+02  0.51100000000E-03 0. -1.
        -11    1    3    3    0    0 -0.12432143228E+02 -0.13239817079E+01  0.16270079557E+02  0.20518932766E+02  0.51100000000E-03 0.  1.
         12    1    3    3    0    0 -0.15291776982E+02  0.20088833562E+02  0.65911443084E+01  0.26092965727E+02  0.00000000000E+00 0. -1.
</event>
<event>
 7    1  0.5979290E-013  0.5930178E+02  0.7816164E-02  0.1266605E+00
        -11   -1    0    0    0    0  0.00000000000E+00  0.00000000000E+00  0.45593999997E+02  0.45594000000E+02  0.51100000000E-03 0.  1.
         11   -1    0    0    0    0 -0.00000000000E+00 -0.00000000000E+00 -0.45593999997E+02  0.45594000000E+02  0.51100000000E-03 0. -1.
    9900012    2    1    2    0    0 -0.11164301964E+02  0.22302282632E+02 -0.19867002098E+02  0.59301776936E+02  0.49999695264E+02 0.  0.
        -12    1    1    2    0    0  0.11164301964E+02 -0.22302282632E+02  0.19867002098E+02  0.31886223064E+02  0.00000000000E+00 0.  1.
         11    1    3    3    0    0 -0.25120104944E+02  0.10030192277E+02 -0.25921253716E+02  0.37463793508E+02  0.51100000000E-03 0. -1.
        -11    1    3    3    0    0  0.14050863913E+02  0.73614621577E+01  0.58994722408E+01  0.16923997010E+02  0.51100000000E-03 0.  1.
         12    1    3    3    0    0 -0.95060933014E-01  0.49106281968E+01  0.15477937736E+00  0.49139864188E+01  0.00000000000E+00 0. -1.
</event>
<event>
 7    1  0.5979290E-013  0.5930197E+02  0.7816164E-02  0.1266605E+00
        -11   -1    0    0    0    0  0.00000000000E+00  0.00000000000E+00  0.45593999997E+02  0.45594000000E+02  0.51100000000E-03 0. -1.
         11   -1    0    0    0    0 -0.00000000000E+00 -0.00000000000E+00 -0.45593999997E+02  0.45594000000E+02  0.51100000000E-03 0.  1.
    9900012    2    1    2    0    0  0.19072086287E+02 -0.24414719575E+02 -0.75429188753E+01  0.59301974339E+02  0.50000055281E+02 0.  0.
        -12    1    1    2    0    0 -0.19072086287E+02  0.24414719575E+02  0.75429188753E+01  0.31886025661E+02  0.00000000000E+00 0.  1.
         11    1    3    3    0    0  0.50771716349E+01  0.63557656842E+01  0.40822726370E+01  0.91015591734E+01  0.51100000000E-03 0. -1.
        -11    1    3    3    0    0  0.21460789615E+02 -0.32912642273E+02 -0.14552932486E+02  0.41899825256E+02  0.51100000000E-03 0.  1.
        -12    1    3    3    0    0 -0.74658749629E+01  0.21421570137E+01  0.29277409740E+01  0.83005899094E+01  0.00000000000E+00 0.  1.
</event>
<event>
 7    1  0.5979290E-013  0.5930184E+02  0.7816164E-02  0.1266605E+00
        -11   -1    0    0    0    0  0.00000000000E+00  0.00000000000E+00  0.45593999997E+02  0.45594000000E+02  0.51100000000E-03 0. -1.
         11   -1    0    0    0    0 -0.00000000000E+00 -0.00000000000E+00 -0.45593999997E+02  0.45594000000E+02  0.51100000000E-03 0.  1.
    9900012    2    1    2    0    0 -0.23717445132E+02 -0.63989344806E+01  0.20328885804E+02  0.59301840556E+02  0.49999811292E+02 0.  0.
        -12    1    1    2    0    0  0.23717445132E+02  0.63989344806E+01 -0.20328885804E+02  0.31886159444E+02  0.00000000000E+00 0.  1.
         11    1    3    3    0    0  0.10637174672E+02  0.10500013717E+02  0.39391894943E+01  0.15456939774E+02  0.51100000000E-03 0. -1.
        -11    1    3    3    0    0 -0.12205740254E+02 -0.39067914463E+01 -0.96511080012E+00  0.12852025275E+02  0.51100000000E-03 0.  1.
         12    1    3    3    0    0 -0.22148879550E+02 -0.12992156751E+02  0.17354807109E+02  0.30992875506E+02  0.00000000000E+00 0. -1.
</event>
<event>
 7    1  0.5979290E-013  0.5930192E+02  0.7816164E-02  0.1266605E+00
        -11   -1    0    0    0    0  0.00000000000E+00  0.00000000000E+00  0.45593999997E+02  0.45594000000E+02  0.51100000000E-03 0. -1.
         11   -1    0    0    0    0 -0.00000000000E+00 -0.00000000000E+00 -0.45593999997E+02  0.45594000000E+02  0.51100000000E-03 0.  1.
    9900012    2    1    2    0    0  0.59240047963E+01 -0.28896239782E+02  0.12109320290E+02  0.59301919271E+02  0.49999954849E+02 0.  0.
        -12    1    1    2    0    0 -0.59240047963E+01  0.28896239782E+02 -0.12109320290E+02  0.31886080729E+02  0.00000000000E+00 0.  1.
         11    1    3    3    0    0 -0.12837961663E+02 -0.27722903342E+02  0.10003605139E+02  0.32147235424E+02  0.51100000000E-03 0. -1.
        -11    1    3    3    0    0  0.19196747464E+02 -0.23101310738E+01 -0.49791268722E+01  0.19966059287E+02  0.51100000000E-03 0.  1.
         12    1    3    3    0    0 -0.43478100503E+00  0.11367946333E+01  0.70848420236E+01  0.71886245597E+01  0.00000000000E+00 0. -1.
</event>
<event>
 7    1  0.5979290E-013  0.5930185E+02  0.7816164E-02  0.1266605E+00
        -11   -1    0    0    0    0  0.00000000000E+00  0.00000000000E+00  0.45593999997E+02  0.45594000000E+02  0.51100000000E-03 0.  1.
         11   -1    0    0    0    0 -0.00000000000E+00 -0.00000000000E+00 -0.45593999997E+02  0.45594000000E+02  0.51100000000E-03 0. -1.
    9900012    2    1    2    0    0  0.31294792087E+02  0.18979245186E+01  0.58103778083E+01  0.59301849095E+02  0.49999826865E+02 0.  0.
        -12    1    1    2    0    0 -0.31294792087E+02 -0.18979245186E+01 -0.58103778083E+01  0.31886150905E+02  0.00000000000E+00 0.  1.
         11    1    3    3    0    0  0.16671581514E+02  0.49255137949E+01 -0.15073637302E+02  0.23009060348E+02  0.51100000000E-03 0. -1.
        -11    1    3    3    0    0  0.14125882013E+02  0.31128821194E+01  0.25000483011E+02  0.28883468087E+02  0.51100000000E-03 0.  1.
        -12    1    3    3    0    0  0.49732856066E+00 -0.61404713957E+01 -0.41164679003E+01  0.74093206594E+01  0.00000000000E+00 0.  1.
</event>
<event>
 7    1  0.5979290E-013  0.5930194E+02  0.7816164E-02  0.1266605E+00
        -11   -1    0    0    0    0  0.00000000000E+00  0.00000000000E+00  0.45593999997E+02  0.45594000000E+02  0.51100000000E-03 0. -1.
         11   -1    0    0    0    0 -0.00000000000E+00 -0.00000000000E+00 -0.45593999997E+02  0.45594000000E+02  0.51100000000E-03 0.  1.
    9900012    2    1    2    0    0  0.25723910805E+02 -0.18478662769E+02 -0.36797264757E+01  0.59301937971E+02  0.49999988953E+02 0.  0.
        -12    1    1    2    0    0 -0.25723910805E+02  0.18478662769E+02  0.36797264757E+01  0.31886062029E+02  0.00000000000E+00 0.  1.
         11    1    3    3    0    0  0.86610411608E+01 -0.72758169002E+01  0.15973623485E+02  0.19573139581E+02  0.51100000000E-03 0. -1.
        -11    1    3    3    0    0  0.23301206017E+01 -0.13576590945E+02 -0.20594118737E+02  0.24776420454E+02  0.51100000000E-03 0.  1.
         12    1    3    3    0    0  0.14732749042E+02  0.23737450766E+01  0.94076877699E+00  0.14952377935E+02  0.00000000000E+00 0. -1.
</event>
<event>
 7    1  0.5979290E-013  0.5930196E+02  0.7816164E-02  0.1266605E+00
        -11   -1    0    0    0    0  0.00000000000E+00  0.00000000000E+00  0.45593999997E+02  0.45594000000E+02  0.51100000000E-03 0. -1.
         11   -1    0    0    0    0 -0.00000000000E+00 -0.00000000000E+00 -0.45593999997E+02  0.45594000000E+02  0.51100000000E-03 0.  1.
    9900012    2    1    2    0    0  0.58917701916E+01  0.31327198354E+02  0.78322223329E+00  0.59301956818E+02  0.50000023327E+02 0.  0.
        -12    1    1    2    0    0 -0.58917701916E+01 -0.31327198354E+02 -0.78322223329E+00  0.31886043182E+02  0.00000000000E+00 0.  1.
         11    1    3    3    0    0 -0.47756542213E+01 -0.95631567299E+00  0.25716604353E+01  0.55077082860E+01  0.51100000000E-03 0. -1.
        -11    1    3    3    0    0  0.81537288312E+01  0.92289540428E+01 -0.20554587575E+02  0.23961384710E+02  0.51100000000E-03 0.  1.
        -12    1    3    3    0    0  0.25136955818E+01  0.23054559984E+02  0.18766149373E+02  0.29832863822E+02  0.00000000000E+00 0.  1.
</event>
<event>
 7    1  0.5979290E-013  0.5930196E+02  0.7816164E-02  0.1266605E+00
        -11   -1    0    0    0    0  0.00000000000E+00  0.00000000000E+00  0.45593999997E+02  0.45594000000E+02  0.51100000000E-03 0.  1.
         11   -1    0    0    0    0 -0.00000000000E+00 -0.00000000000E+00 -0.45593999997E+02  0.45594000000E+02  0.51100000000E-03 0. -1.
    9900012    2    1    2    0    0 -0.16609960807E+02  0.23083832936E+02 -0.14421001583E+02  0.59301961869E+02  0.50000032538E+02 0.  0.
        -12    1    1    2    0    0  0.16609960807E+02 -0.23083832936E+02  0.14421001583E+02  0.31886038131E+02  0.00000000000E+00 0.  1.
         11    1    3    3    0    0 -0.19306848234E+02 -0.35511968496E+01 -0.55814263140E+01  0.20408765464E+02  0.51100000000E-03 0. -1.
        -11    1    3    3    0    0  0.85542327800E+01  0.29623992394E+02 -0.48824717639E+01  0.31218493792E+02  0.51100000000E-03 0.  1.
        -12    1    3    3    0    0 -0.58573453522E+01 -0.29889626085E+01 -0.39571035054E+01  0.76747026133E+01  0.00000000000E+00 0.  1.
</event>
<event>
 7    1  0.5979290E-013  0.5930193E+02  0.7816164E-02  0.1266605E+00
        -11   -1    0    0    0    0  0.00000000000E+00  0.00000000000E+00  0.45593999997E+02  0.45594000000E+02  0.51100000000E-03 0.  1.
         11   -1    0    0    0    0 -0.00000000000E+00 -0.00000000000E+00 -0.45593999997E+02  0.45594000000E+02  0.51100000000E-03 0. -1.
    9900012    2    1    2    0    0 -0.11135837396E+02 -0.10724093806E+02 -0.27887418482E+02  0.59301934515E+02  0.49999982652E+02 0.  0.
        -12    1    1    2    0    0  0.11135837396E+02  0.10724093806E+02  0.27887418482E+02  0.31886065485E+02  0.00000000000E+00 0.  1.
         11    1    3    3    0    0 -0.12064666591E+02  0.22493397713E+01 -0.19631604903E+02  0.23152011159E+02  0.51100000000E-03 0. -1.
        -11    1    3    3    0    0  0.15564170214E+02 -0.10633487432E+02  0.64605916479E+00  0.18860854756E+02  0.51100000000E-03 0.  1.
         12    1    3    3    0    0 -0.14635341020E+02 -0.23399461455E+01 -0.89018727442E+01  0.17289068601E+02  0.00000000000E+00 0. -1.
</event>
<event>
 7    1  0.7922858E-013  0.5930193E+02  0.7816164E-02  0.1266605E+00
        -11   -1    0    0    0    0  0.00000000000E+00  0.00000000000E+00  0.45593999997E+02  0.45594000000E+02  0.51100000000E-03 0. -1.
         11   -1    0    0    0    0 -0.00000000000E+00 -0.00000000000E+00 -0.45593999997E+02  0.45594000000E+02  0.51100000000E-03 0.  1.
    9900012    2    1    2    0    0 -0.20575679664E+02  0.13844412232E+02  0.20042327922E+02  0.59301933259E+02  0.49999980361E+02 0.  0.
        -12    1    1    2    0    0  0.20575679664E+02 -0.13844412232E+02 -0.20042327922E+02  0.31886066741E+02  0.00000000000E+00 0.  1.
         11    1    3    3    0    0 -0.27996726925E+02  0.24463896086E+02  0.10739708712E+02  0.38699357536E+02  0.51100000000E-03 0. -1.
        -11    1    3    3    0    0  0.80791479973E+01 -0.45722875413E+01 -0.23969538991E+00  0.92863286537E+01  0.51100000000E-03 0.  1.
         12    1    3    3    0    0 -0.65810073556E+00 -0.60471963121E+01  0.95423145999E+01  0.11316247070E+02  0.00000000000E+00 0. -1.
</event>
<event>
 7    1  0.5979290E-013  0.5930194E+02  0.7816164E-02  0.1266605E+00
        -11   -1    0    0    0    0  0.00000000000E+00  0.00000000000E+00  0.45593999997E+02  0.45594000000E+02  0.51100000000E-03 0.  1.
         11   -1    0    0    0    0 -0.00000000000E+00 -0.00000000000E+00 -0.45593999997E+02  0.45594000000E+02  0.51100000000E-03 0. -1.
    9900012    2    1    2    0    0 -0.14257787366E+02  0.18236960458E+02 -0.21928283613E+02  0.59301939574E+02  0.49999991877E+02 0.  0.
        -12    1    1    2    0    0  0.14257787366E+02 -0.18236960458E+02  0.21928283613E+02  0.31886060426E+02  0.00000000000E+00 0.  1.
         11    1    3    3    0    0 -0.86612905800E+01  0.17818377316E+02 -0.28250764635E+02  0.34505336217E+02  0.51100000000E-03 0. -1.
        -11    1    3    3    0    0 -0.40801186633E+00  0.53932414045E+01  0.13558336238E+02  0.14597328809E+02  0.51100000000E-03 0.  1.
        -12    1    3    3    0    0 -0.51884849195E+01 -0.49746582633E+01 -0.72358552164E+01  0.10199274548E+02  0.00000000000E+00 0.  1.
</event>
<event>
 7    1  0.5979290E-013  0.5930195E+02  0.7816164E-02  0.1266605E+00
        -11   -1    0    0    0    0  0.00000000000E+00  0.00000000000E+00  0.45593999997E+02  0.45594000000E+02  0.51100000000E-03 0.  1.
         11   -1    0    0    0    0 -0.00000000000E+00 -0.00000000000E+00 -0.45593999997E+02  0.45594000000E+02  0.51100000000E-03 0. -1.
    9900012    2    1    2    0    0 -0.29299021235E+02  0.95251266736E+01  0.82194686839E+01  0.59301947423E+02  0.50000006193E+02 0.  0.
        -12    1    1    2    0    0  0.29299021235E+02 -0.95251266736E+01 -0.82194686839E+01  0.31886052577E+02  0.00000000000E+00 0.  1.
         11    1    3    3    0    0  0.81463081598E+01 -0.38959688399E+01  0.74131595027E+01  0.11683143580E+02  0.51100000000E-03 0.  1.
        -11    1    3    3    0    0 -0.36228418272E+02  0.73200168045E+01 -0.70197506429E+01  0.37621241817E+02  0.51100000000E-03 0. -1.
         12    1    3    3    0    0 -0.12169111225E+01  0.61010787090E+01  0.78260598241E+01  0.99975620260E+01  0.00000000000E+00 0. -1.
</event>
<event>
 7    1  0.5979290E-013  0.5930207E+02  0.7816164E-02  0.1266604E+00
        -11   -1    0    0    0    0  0.00000000000E+00  0.00000000000E+00  0.45593999997E+02  0.45594000000E+02  0.51100000000E-03 0.  1.
         11   -1    0    0    0    0 -0.00000000000E+00 -0.00000000000E+00 -0.45593999997E+02  0.45594000000E+02  0.51100000000E-03 0. -1.
    9900012    2    1    2    0    0 -0.27253583903E+02  0.98591793258E+01 -0.13294788084E+02  0.59302068263E+02  0.50000226574E+02 0.  0.
        -12    1    1    2    0    0  0.27253583903E+02 -0.98591793258E+01  0.13294788084E+02  0.31885931737E+02  0.00000000000E+00 0.  1.
         11    1    3    3    0    0 -0.10963265646E+02 -0.11720907013E+01 -0.25334288974E+02  0.27629570904E+02  0.51100000000E-03 0. -1.
        -11    1    3    3    0    0 -0.49688338692E+01 -0.22994519588E+01  0.13051815464E+02  0.14153680669E+02  0.51100000000E-03 0.  1.
        -12    1    3    3    0    0 -0.11321484388E+02  0.13330721986E+02 -0.10123145737E+01  0.17518816690E+02  0.00000000000E+00 0.  1.
</event>
<event>
 7    1  0.5979290E-013  0.5930196E+02  0.7816164E-02  0.1266605E+00
        -11   -1    0    0    0    0  0.00000000000E+00  0.00000000000E+00  0.45593999997E+02  0.45594000000E+02  0.51100000000E-03 0.  1.
         11   -1    0    0    0    0 -0.00000000000E+00 -0.00000000000E+00 -0.45593999997E+02  0.45594000000E+02  0.51100000000E-03 0. -1.
    9900012    2    1    2    0    0 -0.30827251879E+02  0.80148668483E+01 -0.14704090824E+01  0.59301958354E+02  0.50000026127E+02 0.  0.
        -12    1    1    2    0    0  0.30827251879E+02 -0.80148668483E+01  0.14704090824E+01  0.31886041646E+02  0.00000000000E+00 0.  1.
         11    1    3    3    0    0 -0.96722346727E+01  0.51431009594E+01 -0.12111289556E+02  0.16330552532E+02  0.51100000000E-03 0. -1.
        -11    1    3    3    0    0  0.20588690233E+01 -0.13151642825E+02  0.49076482702E+01  0.14187658808E+02  0.51100000000E-03 0.  1.
        -12    1    3    3    0    0 -0.23213886229E+02  0.16023408713E+02  0.57332322030E+01  0.28783747014E+02  0.00000000000E+00 0.  1.
</event>
<event>
 7    1  0.5979290E-013  0.5930195E+02  0.7816164E-02  0.1266605E+00
        -11   -1    0    0    0    0  0.00000000000E+00  0.00000000000E+00  0.45593999997E+02  0.45594000000E+02  0.51100000000E-03 0.  1.
         11   -1    0    0    0    0 -0.00000000000E+00 -0.00000000000E+00 -0.45593999997E+02  0.45594000000E+02  0.51100000000E-03 0. -1.
    9900012    2    1    2    0    0 -0.77315638605E+01  0.25690063850E+02  0.17232641416E+02  0.59301946771E+02  0.50000005003E+02 0.  0.
        -12    1    1    2    0    0  0.77315638605E+01 -0.25690063850E+02 -0.17232641416E+02  0.31886053229E+02  0.00000000000E+00 0.  1.
         11    1    3    3    0    0 -0.11764058145E+02  0.16465993912E+02  0.51330409547E+01  0.20877502946E+02  0.51100000000E-03 0. -1.
        -11    1    3    3    0    0  0.18990350286E+02  0.13445617367E+01  0.31542915800E+01  0.19297430033E+02  0.51100000000E-03 0.  1.
        -12    1    3    3    0    0 -0.14957856001E+02  0.78795082018E+01  0.89453088813E+01  0.19127013793E+02  0.00000000000E+00 0.  1.
</event>
<event>
 7    1  0.5979290E-013  0.5930194E+02  0.7816164E-02  0.1266605E+00
        -11   -1    0    0    0    0  0.00000000000E+00  0.00000000000E+00  0.45593999997E+02  0.45594000000E+02  0.51100000000E-03 0.  1.
         11   -1    0    0    0    0 -0.00000000000E+00 -0.00000000000E+00 -0.45593999997E+02  0.45594000000E+02  0.51100000000E-03 0. -1.
    9900012    2    1    2    0    0 -0.24217475042E+02 -0.92563215733E+01 -0.18562196084E+02  0.59301941762E+02  0.49999995868E+02 0.  0.
        -12    1    1    2    0    0  0.24217475042E+02  0.92563215733E+01  0.18562196084E+02  0.31886058238E+02  0.00000000000E+00 0.  1.
         11    1    3    3    0    0 -0.69479531696E+01 -0.19157450386E+02 -0.29643196107E+02  0.35972225872E+02  0.51100000000E-03 0. -1.
        -11    1    3    3    0    0 -0.16392330753E+02  0.95436608787E+01  0.89008655393E+01  0.20952693815E+02  0.51100000000E-03 0.  1.
         12    1    3    3    0    0 -0.87719111929E+00  0.35746793378E+00  0.21801344829E+01  0.23770220755E+01  0.00000000000E+00 0. -1.
</event>
<event>
 7    1  0.5979290E-013  0.5930195E+02  0.7816164E-02  0.1266605E+00
        -11   -1    0    0    0    0  0.00000000000E+00  0.00000000000E+00  0.45593999997E+02  0.45594000000E+02  0.51100000000E-03 0.  1.
         11   -1    0    0    0    0 -0.00000000000E+00 -0.00000000000E+00 -0.45593999997E+02  0.45594000000E+02  0.51100000000E-03 0. -1.
    9900012    2    1    2    0    0 -0.30150198526E+02 -0.56265983797E+01 -0.87193684417E+01  0.59301945580E+02  0.50000002831E+02 0.  0.
        -12    1    1    2    0    0  0.30150198526E+02  0.56265983797E+01  0.87193684417E+01  0.31886054420E+02  0.00000000000E+00 0.  1.
         11    1    3    3    0    0 -0.74526595189E+01 -0.50774837881E+00 -0.26236036848E+02  0.27278738462E+02  0.51100000000E-03 0. -1.
        -11    1    3    3    0    0  0.77116248583E+00  0.20660424609E+01  0.20606025188E+01  0.30181626913E+01  0.51100000000E-03 0.  1.
         12    1    3    3    0    0 -0.23468701493E+02 -0.71848924618E+01  0.15456065888E+02  0.29005044426E+02  0.00000000000E+00 0. -1.
</event>
<event>
 7    1  0.5979290E-013  0.5930193E+02  0.7816164E-02  0.1266605E+00
        -11   -1    0    0    0    0  0.00000000000E+00  0.00000000000E+00  0.45593999997E+02  0.45594000000E+02  0.51100000000E-03 0.  1.
         11   -1    0    0    0    0 -0.00000000000E+00 -0.00000000000E+00 -0.45593999997E+02  0.45594000000E+02  0.51100000000E-03 0. -1.
    9900012    2    1    2    0    0  0.17668464223E+02  0.22425039339E+02 -0.14200863658E+02  0.59301928652E+02  0.49999971959E+02 0.  0.
        -12    1    1    2    0    0 -0.17668464223E+02 -0.22425039339E+02  0.14200863658E+02  0.31886071348E+02  0.00000000000E+00 0.  1.
         11    1    3    3    0    0  0.15059535692E+02  0.10218515847E+02 -0.16289922267E+01  0.18271871752E+02  0.51100000000E-03 0. -1.
        -11    1    3    3    0    0  0.49578934208E+01  0.23172991940E+02 -0.16795629668E+02  0.29045850630E+02  0.51100000000E-03 0.  1.
        -12    1    3    3    0    0 -0.23489648895E+01 -0.10966468449E+02  0.42237582362E+01  0.11984206270E+02  0.00000000000E+00 0.  1.
</event>
<event>
 7    1  0.5979290E-013  0.5930199E+02  0.7816164E-02  0.1266605E+00
        -11   -1    0    0    0    0  0.00000000000E+00  0.00000000000E+00  0.45593999997E+02  0.45594000000E+02  0.51100000000E-03 0.  1.
         11   -1    0    0    0    0 -0.00000000000E+00 -0.00000000000E+00 -0.45593999997E+02  0.45594000000E+02  0.51100000000E-03 0. -1.
    9900012    2    1    2    0    0 -0.99767522993E+00  0.11909755260E+02 -0.29561456376E+02  0.59301994774E+02  0.50000092549E+02 0.  0.
        -12    1    1    2    0    0  0.99767522993E+00 -0.11909755260E+02  0.29561456376E+02  0.31886005226E+02  0.00000000000E+00 0.  1.
         11    1    3    3    0    0 -0.85850807171E+00  0.19363123912E+02 -0.24474058592E+01  0.19536053835E+02  0.51100000000E-03 0. -1.
        -11    1    3    3    0    0  0.88690260651E+01 -0.92400969935E+01 -0.19207749937E+01  0.12950999677E+02  0.51100000000E-03 0.  1.
         12    1    3    3    0    0 -0.90081932233E+01  0.17867283417E+01 -0.25193275523E+02  0.26814941262E+02  0.00000000000E+00 0. -1.
</event>
<event>
 7    1  0.5979290E-013  0.5930199E+02  0.7816164E-02  0.1266605E+00
        -11   -1    0    0    0    0  0.00000000000E+00  0.00000000000E+00  0.45593999997E+02  0.45594000000E+02  0.51100000000E-03 0.  1.
         11   -1    0    0    0    0 -0.00000000000E+00 -0.00000000000E+00 -0.45593999997E+02  0.45594000000E+02  0.51100000000E-03 0. -1.
    9900012    2    1    2    0    0  0.23620817615E+02  0.57085630242E+01 -0.20644292945E+02  0.59301991348E+02  0.50000086300E+02 0.  0.
        -12    1    1    2    0    0 -0.23620817615E+02 -0.57085630242E+01  0.20644292945E+02  0.31886008652E+02  0.00000000000E+00 0.  1.
         11    1    3    3    0    0  0.18825994927E+02  0.15986226828E+01  0.11124559611E+02  0.21925544606E+02  0.51100000000E-03 0. -1.
        -11    1    3    3    0    0 -0.26603278420E+01 -0.60607575309E+01 -0.73319211707E+01  0.98776107632E+01  0.51100000000E-03 0.  1.
         12    1    3    3    0    0  0.74551505300E+01  0.10170697872E+02 -0.24436931385E+02  0.27498835978E+02  0.00000000000E+00 0. -1.
</event>
<event>
 7    1  0.5979290E-013  0.5930188E+02  0.7816164E-02  0.1266605E+00
        -11   -1    0    0    0    0  0.00000000000E+00  0.00000000000E+00  0.45593999997E+02  0.45594000000E+02  0.51100000000E-03 0.  1.
         11   -1    0    0    0    0 -0.00000000000E+00 -0.00000000000E+00 -0.45593999997E+02  0.45594000000E+02  0.51100000000E-03 0. -1.
    9900012    2    1    2    0    0  0.17789890312E+02  0.51406934461E+01 -0.25958004536E+02  0.59301875652E+02  0.49999875299E+02 0.  0.
        -12    1    1    2    0    0 -0.17789890312E+02 -0.51406934461E+01  0.25958004536E+02  0.31886124348E+02  0.00000000000E+00 0.  1.
         11    1    3    3    0    0 -0.48443785275E+01 -0.12746140455E+00 -0.14593699394E+02  0.15377266076E+02  0.51100000000E-03 0. -1.
        -11    1    3    3    0    0  0.21661307752E+02  0.35055434076E+01  0.88132416300E+01  0.23646866947E+02  0.51100000000E-03 0.  1.
        -12    1    3    3    0    0  0.97296108774E+00  0.17626114431E+01 -0.20177546773E+02  0.20277742629E+02  0.00000000000E+00 0.  1.
</event>
<event>
 7    1  0.5979290E-013  0.5930192E+02  0.7816164E-02  0.1266605E+00
        -11   -1    0    0    0    0  0.00000000000E+00  0.00000000000E+00  0.45593999997E+02  0.45594000000E+02  0.51100000000E-03 0.  1.
         11   -1    0    0    0    0 -0.00000000000E+00 -0.00000000000E+00 -0.45593999997E+02  0.45594000000E+02  0.51100000000E-03 0. -1.
    9900012    2    1    2    0    0  0.19894957675E+02  0.31328664041E+01 -0.24720399090E+02  0.59301916453E+02  0.49999949711E+02 0.  0.
        -12    1    1    2    0    0 -0.19894957675E+02 -0.31328664041E+01  0.24720399090E+02  0.31886083547E+02  0.00000000000E+00 0.  1.
         11    1    3    3    0    0 -0.13452268046E+02  0.11705998199E+02 -0.11129957138E+02  0.21020700645E+02  0.51100000000E-03 0. -1.
        -11    1    3    3    0    0  0.10901285871E+02  0.15871297705E+01 -0.57426244928E+01  0.12423153822E+02  0.51100000000E-03 0.  1.
         12    1    3    3    0    0  0.22445939850E+02 -0.10160261566E+02 -0.78478174588E+01  0.25858061987E+02  0.00000000000E+00 0. -1.
</event>
<event>
 7    1  0.5979290E-013  0.5930190E+02  0.7816164E-02  0.1266605E+00
        -11   -1    0    0    0    0  0.00000000000E+00  0.00000000000E+00  0.45593999997E+02  0.45594000000E+02  0.51100000000E-03 0.  1.
         11   -1    0    0    0    0 -0.00000000000E+00 -0.00000000000E+00 -0.45593999997E+02  0.45594000000E+02  0.51100000000E-03 0. -1.
    9900012    2    1    2    0    0  0.30865628198E+02  0.76664660824E+01 -0.22938783227E+01  0.59301896695E+02  0.49999913676E+02 0.  0.
        -12    1    1    2    0    0 -0.30865628198E+02 -0.76664660824E+01  0.22938783227E+01  0.31886103305E+02  0.00000000000E+00 0.  1.
         11    1    3    3    0    0 -0.84217279121E-01  0.72311031963E+00 -0.17481413146E+02  0.17496565004E+02  0.51100000000E-03 0. -1.
        -11    1    3    3    0    0  0.10636645614E+02 -0.15111647531E+01  0.16582718434E+02  0.19758755015E+02  0.51100000000E-03 0.  1.
         12    1    3    3    0    0  0.20313199863E+02  0.84545205158E+01 -0.13951836111E+01  0.22046576676E+02  0.00000000000E+00 0. -1.
</event>
<event>
 7    1  0.5979290E-013  0.5930194E+02  0.7816164E-02  0.1266605E+00
        -11   -1    0    0    0    0  0.00000000000E+00  0.00000000000E+00  0.45593999997E+02  0.45594000000E+02  0.51100000000E-03 0.  1.
         11   -1    0    0    0    0 -0.00000000000E+00 -0.00000000000E+00 -0.45593999997E+02  0.45594000000E+02  0.51100000000E-03 0. -1.
    9900012    2    1    2    0    0 -0.82903063865E+01 -0.16070195447E+02 -0.26262906142E+02  0.59301943475E+02  0.49999998991E+02 0.  0.
        -12    1    1    2    0    0  0.82903063865E+01  0.16070195447E+02  0.26262906142E+02  0.31886056525E+02  0.00000000000E+00 0.  1.
         11    1    3    3    0    0 -0.99803150352E+01 -0.26422740361E+02 -0.88477447921E+01  0.29598150019E+02  0.51100000000E-03 0.  1.
        -11    1    3    3    0    0  0.45436928850E+01  0.93149699705E+01  0.15656355827E+01  0.10481651856E+02  0.51100000000E-03 0. -1.
         12    1    3    3    0    0 -0.28536842364E+01  0.10375749429E+01 -0.18980796933E+02  0.19222141600E+02  0.00000000000E+00 0. -1.
</event>
<event>
 7    1  0.5979290E-013  0.5930197E+02  0.7816164E-02  0.1266605E+00
        -11   -1    0    0    0    0  0.00000000000E+00  0.00000000000E+00  0.45593999997E+02  0.45594000000E+02  0.51100000000E-03 0.  1.
         11   -1    0    0    0    0 -0.00000000000E+00 -0.00000000000E+00 -0.45593999997E+02  0.45594000000E+02  0.51100000000E-03 0. -1.
    9900012    2    1    2    0    0  0.11625091364E+02  0.25590067902E+02 -0.15057382465E+02  0.59301967146E+02  0.50000042162E+02 0.  0.
        -12    1    1    2    0    0 -0.11625091364E+02 -0.25590067902E+02  0.15057382465E+02  0.31886032854E+02  0.00000000000E+00 0.  1.
         11    1    3    3    0    0  0.37327387853E+01 -0.51807380936E+01  0.80778824107E+00  0.64362961505E+01  0.51100000000E-03 0. -1.
        -11    1    3    3    0    0  0.78209099231E+00  0.18810871622E+02 -0.28442868211E+02  0.34109490025E+02  0.51100000000E-03 0.  1.
        -12    1    3    3    0    0  0.71102615867E+01  0.11959934374E+02  0.12577697505E+02  0.18756180970E+02  0.00000000000E+00 0.  1.
</event>
<event>
 7    1  0.5979290E-013  0.5930191E+02  0.7816164E-02  0.1266605E+00
        -11   -1    0    0    0    0  0.00000000000E+00  0.00000000000E+00  0.45593999997E+02  0.45594000000E+02  0.51100000000E-03 0.  1.
         11   -1    0    0    0    0 -0.00000000000E+00 -0.00000000000E+00 -0.45593999997E+02  0.45594000000E+02  0.51100000000E-03 0. -1.
    9900012    2    1    2    0    0  0.31714100370E+02 -0.26885887025E+01  0.19262205682E+01  0.59301905897E+02  0.49999930458E+02 0.  0.
        -12    1    1    2    0    0 -0.31714100370E+02  0.26885887025E+01 -0.19262205682E+01  0.31886094103E+02  0.00000000000E+00 0.  1.
         11    1    3    3    0    0  0.32821140991E+01  0.14706794593E+02 -0.12245195962E+02  0.19416665640E+02  0.51100000000E-03 0. -1.
        -11    1    3    3    0    0  0.23808216639E+01 -0.20090420565E+01  0.85658306603E+01  0.91147143094E+01  0.51100000000E-03 0.  1.
         12    1    3    3    0    0  0.26051164607E+02 -0.15386341239E+02  0.56055858700E+01  0.30770525947E+02  0.00000000000E+00 0. -1.
</event>
<event>
 7    1  0.5979290E-013  0.5930196E+02  0.7816164E-02  0.1266605E+00
        -11   -1    0    0    0    0  0.00000000000E+00  0.00000000000E+00  0.45593999997E+02  0.45594000000E+02  0.51100000000E-03 0.  1.
         11   -1    0    0    0    0 -0.00000000000E+00 -0.00000000000E+00 -0.45593999997E+02  0.45594000000E+02  0.51100000000E-03 0. -1.
    9900012    2    1    2    0    0 -0.20832344639E+01  0.16455562325E+01 -0.31775332928E+02  0.59301960675E+02  0.50000030361E+02 0.  0.
        -12    1    1    2    0    0  0.20832344639E+01 -0.16455562325E+01  0.31775332928E+02  0.31886039325E+02  0.00000000000E+00 0.  1.
         11    1    3    3    0    0  0.14194791055E+02 -0.13709128830E+01 -0.11467538784E+02  0.18299615878E+02  0.51100000000E-03 0. -1.
        -11    1    3    3    0    0 -0.16869805103E+02 -0.72307504689E+00  0.32049203883E+01  0.17186758761E+02  0.51100000000E-03 0.  1.
         12    1    3    3    0    0  0.59177958409E+00  0.37395441624E+01 -0.23512714532E+02  0.23815586037E+02  0.00000000000E+00 0. -1.
</event>
<event>
 7    1  0.5979290E-013  0.5930194E+02  0.7816164E-02  0.1266605E+00
        -11   -1    0    0    0    0  0.00000000000E+00  0.00000000000E+00  0.45593999997E+02  0.45594000000E+02  0.51100000000E-03 0. -1.
         11   -1    0    0    0    0 -0.00000000000E+00 -0.00000000000E+00 -0.45593999997E+02  0.45594000000E+02  0.51100000000E-03 0.  1.
    9900012    2    1    2    0    0 -0.19474228854E+02  0.24406307872E+02  0.64658761394E+01  0.59301937094E+02  0.49999987355E+02 0.  0.
        -12    1    1    2    0    0  0.19474228854E+02 -0.24406307872E+02 -0.64658761394E+01  0.31886062906E+02  0.00000000000E+00 0.  1.
         11    1    3    3    0    0 -0.24520162515E+01  0.26957965453E+01  0.50470779951E+01  0.62251666051E+01  0.51100000000E-03 0. -1.
        -11    1    3    3    0    0  0.19630431115E+01 -0.13185809731E+02  0.41832995650E+00  0.13337695330E+02  0.51100000000E-03 0.  1.
        -12    1    3    3    0    0 -0.18985255714E+02  0.34896321057E+02  0.10004681877E+01  0.39739075159E+02  0.00000000000E+00 0.  1.
</event>
<event>
 7    1  0.5979290E-013  0.5930194E+02  0.7816164E-02  0.1266605E+00
        -11   -1    0    0    0    0  0.00000000000E+00  0.00000000000E+00  0.45593999997E+02  0.45594000000E+02  0.51100000000E-03 0.  1.
         11   -1    0    0    0    0 -0.00000000000E+00 -0.00000000000E+00 -0.45593999997E+02  0.45594000000E+02  0.51100000000E-03 0. -1.
    9900012    2    1    2    0    0  0.31381516181E+02 -0.34052245813E+01  0.45084087327E+01  0.59301939385E+02  0.49999991533E+02 0.  0.
        -12    1    1    2    0    0 -0.31381516181E+02  0.34052245813E+01 -0.45084087327E+01  0.31886060615E+02  0.00000000000E+00 0.  1.
         11    1    3    3    0    0  0.26593166912E+02  0.42116092409E+01  0.12790828985E+02  0.29808379446E+02  0.51100000000E-03 0. -1.
        -11    1    3    3    0    0  0.88013704099E+01 -0.16391442353E+02 -0.63052688275E+01  0.19644335538E+02  0.51100000000E-03 0.  1.
        -12    1    3    3    0    0 -0.40130211412E+01  0.87746085304E+01 -0.19771514245E+01  0.98492244008E+01  0.00000000000E+00 0.  1.
</event>
<event>
 7    1  0.5979290E-013  0.5930200E+02  0.7816164E-02  0.1266605E+00
        -11   -1    0    0    0    0  0.00000000000E+00  0.00000000000E+00  0.45593999997E+02  0.45594000000E+02  0.51100000000E-03 0. -1.
         11   -1    0    0    0    0 -0.00000000000E+00 -0.00000000000E+00 -0.45593999997E+02  0.45594000000E+02  0.51100000000E-03 0.  1.
    9900012    2    1    2    0    0 -0.51295434964E+01 -0.38094382777E+01  0.31239288522E+02  0.59301997054E+02  0.50000096708E+02 0.  0.
        -12    1    1    2    0    0  0.51295434964E+01  0.38094382777E+01 -0.31239288522E+02  0.31886002946E+02  0.00000000000E+00 0.  1.
         11    1    3    3    0    0 -0.15664032034E+02  0.16401341233E+02  0.19570995158E+02  0.29956464170E+02  0.51100000000E-03 0. -1.
        -11    1    3    3    0    0  0.52967475204E+01 -0.20132875845E+02  0.12117820852E+02  0.24087959784E+02  0.51100000000E-03 0.  1.
        -12    1    3    3    0    0  0.52377410176E+01 -0.77903665992E-01 -0.44952748752E+00  0.52575731008E+01  0.00000000000E+00 0.  1.
</event>
<event>
 7    1  0.5979290E-013  0.5930197E+02  0.7816164E-02  0.1266605E+00
        -11   -1    0    0    0    0  0.00000000000E+00  0.00000000000E+00  0.45593999997E+02  0.45594000000E+02  0.51100000000E-03 0. -1.
         11   -1    0    0    0    0 -0.00000000000E+00 -0.00000000000E+00 -0.45593999997E+02  0.45594000000E+02  0.51100000000E-03 0.  1.
    9900012    2    1    2    0    0  0.22748788284E+02 -0.10781260839E+02  0.19569771941E+02  0.59301969713E+02  0.50000046843E+02 0.  0.
        -12    1    1    2    0    0 -0.22748788284E+02  0.10781260839E+02 -0.19569771941E+02  0.31886030287E+02  0.00000000000E+00 0.  1.
         11    1    3    3    0    0 -0.10774130844E+02 -0.46649887149E+01  0.81682262156E+00  0.11769078749E+02  0.51100000000E-03 0. -1.
        -11    1    3    3    0    0  0.15444834444E+02  0.97768446665E+01  0.13933716172E+02  0.22984300061E+02  0.51100000000E-03 0.  1.
         12    1    3    3    0    0  0.18078084684E+02 -0.15893116791E+02  0.48192331470E+01  0.24548590902E+02  0.00000000000E+00 0. -1.
</event>
<event>
 7    1  0.5979290E-013  0.5930194E+02  0.7816164E-02  0.1266605E+00
        -11   -1    0    0    0    0  0.00000000000E+00  0.00000000000E+00  0.45593999997E+02  0.45594000000E+02  0.51100000000E-03 0.  1.
         11   -1    0    0    0    0 -0.00000000000E+00 -0.00000000000E+00 -0.45593999997E+02  0.45594000000E+02  0.51100000000E-03 0. -1.
    9900012    2    1    2    0    0  0.72518862727E+00  0.78448291963E+01 -0.30897467142E+02  0.59301941613E+02  0.49999995597E+02 0.  0.
        -12    1    1    2    0    0 -0.72518862727E+00 -0.78448291963E+01  0.30897467142E+02  0.31886058387E+02  0.00000000000E+00 0.  1.
         11    1    3    3    0    0 -0.14216117039E+01 -0.38470319602E-01 -0.24033126735E+02  0.24075166473E+02  0.51100000000E-03 0. -1.
        -11    1    3    3    0    0  0.13494250302E+02  0.15679842674E+02 -0.28270253243E+01  0.20879279919E+02  0.51100000000E-03 0.  1.
        -12    1    3    3    0    0 -0.11347449971E+02 -0.77965431578E+01 -0.40373150826E+01  0.14347495221E+02  0.00000000000E+00 0.  1.
</event>
<event>
 7    1  0.5979290E-013  0.5930194E+02  0.7816164E-02  0.1266605E+00
        -11   -1    0    0    0    0  0.00000000000E+00  0.00000000000E+00  0.45593999997E+02  0.45594000000E+02  0.51100000000E-03 0. -1.
         11   -1    0    0    0    0 -0.00000000000E+00 -0.00000000000E+00 -0.45593999997E+02  0.45594000000E+02  0.51100000000E-03 0.  1.
    9900012    2    1    2    0    0 -0.12430338597E+02 -0.11832991374E+02  0.26873558210E+02  0.59301935123E+02  0.49999983759E+02 0.  0.
        -12    1    1    2    0    0  0.12430338597E+02  0.11832991374E+02 -0.26873558210E+02  0.31886064877E+02  0.00000000000E+00 0.  1.
         11    1    3    3    0    0 -0.10194438841E+02 -0.27385422886E+02  0.13204558914E+02  0.32066311705E+02  0.51100000000E-03 0. -1.
        -11    1    3    3    0    0  0.34976186770E+01  0.28005600009E+01  0.12413997262E+02  0.13197871078E+02  0.51100000000E-03 0.  1.
         12    1    3    3    0    0 -0.57335184327E+01  0.12751871511E+02  0.12550020338E+01  0.14037752340E+02  0.00000000000E+00 0. -1.
</event>
<event>
 7    1 -0.5979290E-013  0.5930192E+02  0.7816164E-02  0.1266605E+00
        -11   -1    0    0    0    0  0.00000000000E+00  0.00000000000E+00  0.45593999997E+02  0.45594000000E+02  0.51100000000E-03 0. -1.
         11   -1    0    0    0    0 -0.00000000000E+00 -0.00000000000E+00 -0.45593999997E+02  0.45594000000E+02  0.51100000000E-03 0.  1.
    9900012    2    1    2    0    0 -0.15983251456E+02 -0.27383986049E+02  0.33727362763E+01  0.59301915747E+02  0.49999948423E+02 0.  0.
        -12    1    1    2    0    0  0.15983251456E+02  0.27383986049E+02 -0.33727362763E+01  0.31886084253E+02  0.00000000000E+00 0.  1.
         11    1    3    3    0    0 -0.41659577947E+01 -0.17975545190E+02  0.25683661659E+02  0.31624767283E+02  0.51100000000E-03 0. -1.
        -11    1    3    3    0    0 -0.11696734736E+01 -0.18449496362E+01 -0.47835067304E+00  0.22362456982E+01  0.51100000000E-03 0.  1.
         12    1    3    3    0    0 -0.10647620187E+02 -0.75634912226E+01 -0.21832574709E+02  0.25440902766E+02  0.00000000000E+00 0. -1.
</event>
<event>
 7    1  0.5979290E-013  0.5930195E+02  0.7816164E-02  0.1266605E+00
        -11   -1    0    0    0    0  0.00000000000E+00  0.00000000000E+00  0.45593999997E+02  0.45594000000E+02  0.51100000000E-03 0.  1.
         11   -1    0    0    0    0 -0.00000000000E+00 -0.00000000000E+00 -0.45593999997E+02  0.45594000000E+02  0.51100000000E-03 0. -1.
    9900012    2    1    2    0    0  0.13739233891E+00 -0.30193078489E+01 -0.31742477552E+02  0.59301953245E+02  0.50000016810E+02 0.  0.
        -12    1    1    2    0    0 -0.13739233891E+00  0.30193078489E+01  0.31742477552E+02  0.31886046755E+02  0.00000000000E+00 0.  1.
         11    1    3    3    0    0  0.27569101096E+01 -0.10748232024E+02  0.10587513573E+02  0.15336899586E+02  0.51100000000E-03 0. -1.
        -11    1    3    3    0    0 -0.47423316654E+01  0.62761222687E+01 -0.20063772487E+02  0.21550739826E+02  0.51100000000E-03 0.  1.
         12    1    3    3    0    0  0.21228138948E+01  0.14528019067E+01 -0.22266218637E+02  0.22414313833E+02  0.00000000000E+00 0. -1.
</event>
<event>
 7    1  0.5979290E-013  0.5930192E+02  0.7816164E-02  0.1266605E+00
        -11   -1    0    0    0    0  0.00000000000E+00  0.00000000000E+00  0.45593999997E+02  0.45594000000E+02  0.51100000000E-03 0.  1.
         11   -1    0    0    0    0 -0.00000000000E+00 -0.00000000000E+00 -0.45593999997E+02  0.45594000000E+02  0.51100000000E-03 0. -1.
    9900012    2    1    2    0    0 -0.26990061224E+02 -0.14353093132E+02 -0.90690344560E+01  0.59301920384E+02  0.49999956879E+02 0.  0.
        -12    1    1    2    0    0  0.26990061224E+02  0.14353093132E+02  0.90690344560E+01  0.31886079616E+02  0.00000000000E+00 0.  1.
         11    1    3    3    0    0 -0.18924897413E+02  0.12198189582E+01 -0.19017641226E+02  0.26857222091E+02  0.51100000000E-03 0. -1.
        -11    1    3    3    0    0 -0.16700891901E+02 -0.92744974778E+01  0.10391948901E+02  0.21746923828E+02  0.51100000000E-03 0.  1.
         12    1    3    3    0    0  0.86357280896E+01 -0.62984146120E+01 -0.44334213028E+00  0.10697774465E+02  0.00000000000E+00 0. -1.
</event>
<event>
 7    1  0.5979290E-013  0.5930196E+02  0.7816164E-02  0.1266605E+00
        -11   -1    0    0    0    0  0.00000000000E+00  0.00000000000E+00  0.45593999997E+02  0.45594000000E+02  0.51100000000E-03 0.  1.
         11   -1    0    0    0    0 -0.00000000000E+00 -0.00000000000E+00 -0.45593999997E+02  0.45594000000E+02  0.51100000000E-03 0. -1.
    9900012    2    1    2    0    0  0.80638514664E+01  0.14146383388E+02 -0.27414845227E+02  0.59301959132E+02  0.50000027546E+02 0.  0.
        -12    1    1    2    0    0 -0.80638514664E+01 -0.14146383388E+02  0.27414845227E+02  0.31886040868E+02  0.00000000000E+00 0.  1.
         11    1    3    3    0    0 -0.17815898152E+02  0.81751656923E+01  0.90473251330E+00  0.19622897397E+02  0.51100000000E-03 0. -1.
        -11    1    3    3    0    0  0.15745603978E+02  0.26112864525E+01 -0.22297510681E+02  0.27421193344E+02  0.51100000000E-03 0.  1.
         12    1    3    3    0    0  0.10134145640E+02  0.33599312433E+01 -0.60220670589E+01  0.12257868391E+02  0.00000000000E+00 0. -1.
</event>
<event>
 7    1  0.5979290E-013  0.5930197E+02  0.7816164E-02  0.1266605E+00
        -11   -1    0    0    0    0  0.00000000000E+00  0.00000000000E+00  0.45593999997E+02  0.45594000000E+02  0.51100000000E-03 0.  1.
         11   -1    0    0    0    0 -0.00000000000E+00 -0.00000000000E+00 -0.45593999997E+02  0.45594000000E+02  0.51100000000E-03 0. -1.
    9900012    2    1    2    0    0 -0.16199012107E+02  0.25092012449E+02  0.11167002811E+02  0.59301968046E+02  0.50000043804E+02 0.  0.
        -12    1    1    2    0    0  0.16199012107E+02 -0.25092012449E+02 -0.11167002811E+02  0.31886031954E+02  0.00000000000E+00 0.  1.
         11    1    3    3    0    0 -0.15591768282E+02 -0.19485298988E+01  0.86115824637E+01  0.17918129358E+02  0.51100000000E-03 0. -1.
        -11    1    3    3    0    0  0.11137669985E+02  0.25474439033E+02 -0.35942599286E+01  0.28034147774E+02  0.51100000000E-03 0.  1.
        -12    1    3    3    0    0 -0.11744913810E+02  0.15661033148E+01  0.61496802762E+01  0.13349690914E+02  0.00000000000E+00 0.  1.
</event>
<event>
 7    1  0.5979290E-013  0.5930198E+02  0.7816164E-02  0.1266605E+00
        -11   -1    0    0    0    0  0.00000000000E+00  0.00000000000E+00  0.45593999997E+02  0.45594000000E+02  0.51100000000E-03 0.  1.
         11   -1    0    0    0    0 -0.00000000000E+00 -0.00000000000E+00 -0.45593999997E+02  0.45594000000E+02  0.51100000000E-03 0. -1.
    9900012    2    1    2    0    0  0.28287661672E+02  0.14238137768E+02 -0.37151056954E+01  0.59301978293E+02  0.50000062491E+02 0.  0.
        -12    1    1    2    0    0 -0.28287661672E+02 -0.14238137768E+02  0.37151056954E+01  0.31886021707E+02  0.00000000000E+00 0.  1.
         11    1    3    3    0    0  0.71370087702E+01  0.18444935215E+02  0.17092920010E+02  0.26140398696E+02  0.51100000000E-03 0. -1.
        -11    1    3    3    0    0  0.86725907918E+01 -0.89584584816E+01 -0.10030647950E+02  0.16002553171E+02  0.51100000000E-03 0.  1.
        -12    1    3    3    0    0  0.12478062110E+02  0.47516610345E+01 -0.10777377755E+02  0.17159026426E+02  0.00000000000E+00 0.  1.
</event>
<event>
 7    1  0.5979290E-013  0.5930193E+02  0.7816164E-02  0.1266605E+00
        -11   -1    0    0    0    0  0.00000000000E+00  0.00000000000E+00  0.45593999997E+02  0.45594000000E+02  0.51100000000E-03 0. -1.
         11   -1    0    0    0    0 -0.00000000000E+00 -0.00000000000E+00 -0.45593999997E+02  0.45594000000E+02  0.51100000000E-03 0.  1.
    9900012    2    1    2    0    0  0.61963646959E+01  0.37998703223E+01  0.31046542342E+02  0.59301925589E+02  0.49999966373E+02 0.  0.
        -12    1    1    2    0    0 -0.61963646959E+01 -0.37998703223E+01 -0.31046542342E+02  0.31886074411E+02  0.00000000000E+00 0.  1.
         11    1    3    3    0    0  0.12799123966E+01  0.57424040208E+01 -0.88978088604E+01  0.10666976257E+02  0.51100000000E-03 0. -1.
        -11    1    3    3    0    0  0.10593082419E+02 -0.83270766265E+01  0.82271800374E+01  0.15787339608E+02  0.51100000000E-03 0.  1.
         12    1    3    3    0    0 -0.56766301193E+01  0.63845429281E+01  0.31717171165E+02  0.32847609725E+02  0.00000000000E+00 0. -1.
</event>
<event>
 7    1  0.5979290E-013  0.5930195E+02  0.7816164E-02  0.1266605E+00
        -11   -1    0    0    0    0  0.00000000000E+00  0.00000000000E+00  0.45593999997E+02  0.45594000000E+02  0.51100000000E-03 0.  1.
         11   -1    0    0    0    0 -0.00000000000E+00 -0.00000000000E+00 -0.45593999997E+02  0.45594000000E+02  0.51100000000E-03 0. -1.
    9900012    2    1    2    0    0  0.39958335841E+01  0.19432256291E+01 -0.31574949467E+02  0.59301949041E+02  0.50000009144E+02 0.  0.
        -12    1    1    2    0    0 -0.39958335841E+01 -0.19432256291E+01  0.31574949467E+02  0.31886050959E+02  0.00000000000E+00 0.  1.
         11    1    3    3    0    0  0.77139980131E+01 -0.10567951380E+02 -0.28077790526E+02  0.30976598955E+02  0.51100000000E-03 0. -1.
        -11    1    3    3    0    0 -0.52323066828E+01 -0.37641060228E+00  0.89309210060E+01  0.10357609205E+02  0.51100000000E-03 0.  1.
         12    1    3    3    0    0  0.15141422537E+01  0.12887587612E+02 -0.12428079948E+02  0.17967740882E+02  0.00000000000E+00 0. -1.
</event>
<event>
 7    1  0.5979290E-013  0.5930195E+02  0.7816164E-02  0.1266605E+00
        -11   -1    0    0    0    0  0.00000000000E+00  0.00000000000E+00  0.45593999997E+02  0.45594000000E+02  0.51100000000E-03 0.  1.
         11   -1    0    0    0    0 -0.00000000000E+00 -0.00000000000E+00 -0.45593999997E+02  0.45594000000E+02  0.51100000000E-03 0. -1.
    9900012    2    1    2    0    0 -0.30837099963E+02 -0.36398738019E+01  0.72487627524E+01  0.59301953257E+02  0.50000016832E+02 0.  0.
        -12    1    1    2    0    0  0.30837099963E+02  0.36398738019E+01 -0.72487627524E+01  0.31886046743E+02  0.00000000000E+00 0.  1.
         11    1    3    3    0    0 -0.10186591189E+02  0.19179813569E+02  0.80750894757E+01  0.23169785474E+02  0.51100000000E-03 0. -1.
        -11    1    3    3    0    0 -0.26058147358E+01 -0.12694392787E+02 -0.67471667244E+01  0.14610343519E+02  0.51100000000E-03 0.  1.
         12    1    3    3    0    0 -0.18044694038E+02 -0.10125294584E+02  0.59208400011E+01  0.21521824264E+02  0.00000000000E+00 0. -1.
</event>
<event>
 7    1  0.5979290E-013  0.5930194E+02  0.7816164E-02  0.1266605E+00
        -11   -1    0    0    0    0  0.00000000000E+00  0.00000000000E+00  0.45593999997E+02  0.45594000000E+02  0.51100000000E-03 0.  1.
         11   -1    0    0    0    0 -0.00000000000E+00 -0.00000000000E+00 -0.45593999997E+02  0.45594000000E+02  0.51100000000E-03 0. -1.
    9900012    2    1    2    0    0  0.16221148156E+02  0.97944213628E-01 -0.27451510774E+02  0.59301942164E+02  0.49999996600E+02 0.  0.
        -12    1    1    2    0    0 -0.16221148156E+02 -0.97944213628E-01  0.27451510774E+02  0.31886057836E+02  0.00000000000E+00 0.  1.
         11    1    3    3    0    0  0.12721482541E+02 -0.11337957100E+02 -0.22111906173E+02  0.27916335434E+02  0.51100000000E-03 0. -1.
        -11    1    3    3    0    0  0.78996981064E+01  0.16036677474E+02 -0.12493114018E+02  0.21809588550E+02  0.51100000000E-03 0.  1.
        -12    1    3    3    0    0 -0.44000324909E+01 -0.46007761607E+01  0.71535094165E+01  0.95760181795E+01  0.00000000000E+00 0.  1.
</event>
<event>
 7    1  0.5979290E-013  0.5930193E+02  0.7816164E-02  0.1266605E+00
        -11   -1    0    0    0    0  0.00000000000E+00  0.00000000000E+00  0.45593999997E+02  0.45594000000E+02  0.51100000000E-03 0.  1.
         11   -1    0    0    0    0 -0.00000000000E+00 -0.00000000000E+00 -0.45593999997E+02  0.45594000000E+02  0.51100000000E-03 0. -1.
    9900012    2    1    2    0    0  0.22350722909E+02  0.63075361932E+01 -0.21849060347E+02  0.59301933052E+02  0.49999979983E+02 0.  0.
        -12    1    1    2    0    0 -0.22350722909E+02 -0.63075361932E+01  0.21849060347E+02  0.31886066948E+02  0.00000000000E+00 0.  1.
         11    1    3    3    0    0 -0.21457650632E+01  0.70313136236E+01 -0.16002249353E+02  0.17610101181E+02  0.51100000000E-03 0. -1.
        -11    1    3    3    0    0 -0.30457274708E+01  0.75464414693E+00  0.95856308735E+01  0.10086142133E+02  0.51100000000E-03 0.  1.
         12    1    3    3    0    0  0.27542215443E+02 -0.14784215774E+01 -0.15432441867E+02  0.31605689738E+02  0.00000000000E+00 0. -1.
</event>
<event>
 7    1  0.5979290E-013  0.5930226E+02  0.7816164E-02  0.1266604E+00
        -11   -1    0    0    0    0  0.00000000000E+00  0.00000000000E+00  0.45593999997E+02  0.45594000000E+02  0.51100000000E-03 0.  1.
         11   -1    0    0    0    0 -0.00000000000E+00 -0.00000000000E+00 -0.45593999997E+02  0.45594000000E+02  0.51100000000E-03 0. -1.
    9900012    2    1    2    0    0  0.19549620433E+02 -0.24337419233E+02  0.64963538138E+01  0.59302262642E+02  0.50000581072E+02 0.  0.
        -12    1    1    2    0    0 -0.19549620433E+02  0.24337419233E+02 -0.64963538138E+01  0.31885737358E+02  0.00000000000E+00 0.  1.
         11    1    3    3    0    0 -0.12784782412E+01  0.97970813766E+00 -0.17216573274E+02  0.17291753243E+02  0.51100000000E-03 0. -1.
        -11    1    3    3    0    0  0.10860362514E+02 -0.21337522698E+02  0.16630347689E+02  0.29151429010E+02  0.51100000000E-03 0.  1.
         12    1    3    3    0    0  0.99677361600E+01 -0.39796046729E+01  0.70825793988E+01  0.12859080389E+02  0.00000000000E+00 0. -1.
</event>
<event>
 7    1  0.5979290E-013  0.5930205E+02  0.7816164E-02  0.1266604E+00
        -11   -1    0    0    0    0  0.00000000000E+00  0.00000000000E+00  0.45593999997E+02  0.45594000000E+02  0.51100000000E-03 0. -1.
         11   -1    0    0    0    0 -0.00000000000E+00 -0.00000000000E+00 -0.45593999997E+02  0.45594000000E+02  0.51100000000E-03 0.  1.
    9900012    2    1    2    0    0 -0.25265143652E+02 -0.17363104429E+02  0.87697872800E+01  0.59302046226E+02  0.50000186385E+02 0.  0.
        -12    1    1    2    0    0  0.25265143652E+02  0.17363104429E+02 -0.87697872800E+01  0.31885953774E+02  0.00000000000E+00 0.  1.
         11    1    3    3    0    0 -0.14883319098E+02  0.11033271374E+02  0.13874028520E+02  0.23145948506E+02  0.51100000000E-03 0. -1.
        -11    1    3    3    0    0 -0.11154447869E+02 -0.66840844592E+01 -0.61921843181E+01  0.14402841359E+02  0.51100000000E-03 0.  1.
         12    1    3    3    0    0  0.77262331555E+00 -0.21712291344E+02  0.10879430778E+01  0.21753256361E+02  0.00000000000E+00 0. -1.
</event>
<event>
 7    1  0.5979290E-013  0.5930197E+02  0.7816164E-02  0.1266605E+00
        -11   -1    0    0    0    0  0.00000000000E+00  0.00000000000E+00  0.45593999997E+02  0.45594000000E+02  0.51100000000E-03 0.  1.
         11   -1    0    0    0    0 -0.00000000000E+00 -0.00000000000E+00 -0.45593999997E+02  0.45594000000E+02  0.51100000000E-03 0. -1.
    9900012    2    1    2    0    0  0.10443929173E+02  0.29569211078E+02  0.57710286530E+01  0.59301973718E+02  0.50000054148E+02 0.  0.
        -12    1    1    2    0    0 -0.10443929173E+02 -0.29569211078E+02 -0.57710286530E+01  0.31886026282E+02  0.00000000000E+00 0.  1.
         11    1    3    3    0    0 -0.17150166773E-01  0.56895952992E+01 -0.68219912194E+01  0.88832062486E+01  0.51100000000E-03 0. -1.
        -11    1    3    3    0    0  0.18314719722E+02 -0.21739547713E+01  0.14024124197E+02  0.23169615827E+02  0.51100000000E-03 0.  1.
        -12    1    3    3    0    0 -0.78536403819E+01  0.26053570550E+02 -0.14311043247E+01  0.27249151642E+02  0.00000000000E+00 0.  1.
</event>
<event>
 7    1  0.5979290E-013  0.5930192E+02  0.7816164E-02  0.1266605E+00
        -11   -1    0    0    0    0  0.00000000000E+00  0.00000000000E+00  0.45593999997E+02  0.45594000000E+02  0.51100000000E-03 0.  1.
         11   -1    0    0    0    0 -0.00000000000E+00 -0.00000000000E+00 -0.45593999997E+02  0.45594000000E+02  0.51100000000E-03 0. -1.
    9900012    2    1    2    0    0  0.10109219153E+02 -0.16352595016E+02 -0.25438522692E+02  0.59301919771E+02  0.49999955762E+02 0.  0.
        -12    1    1    2    0    0 -0.10109219153E+02  0.16352595016E+02  0.25438522692E+02  0.31886080229E+02  0.00000000000E+00 0.  1.
         11    1    3    3    0    0 -0.29019436364E+01  0.13971056575E+02 -0.17383276636E+02  0.22489775578E+02  0.51100000000E-03 0. -1.
        -11    1    3    3    0    0  0.64955344994E+01 -0.18955678626E+02 -0.11710858887E+02  0.23208919336E+02  0.51100000000E-03 0.  1.
         12    1    3    3    0    0  0.65156282896E+01 -0.11367972964E+02  0.36556128320E+01  0.13603224857E+02  0.00000000000E+00 0. -1.
</event>
<event>
 7    1  0.5979290E-013  0.5930197E+02  0.7816164E-02  0.1266605E+00
        -11   -1    0    0    0    0  0.00000000000E+00  0.00000000000E+00  0.45593999997E+02  0.45594000000E+02  0.51100000000E-03 0.  1.
         11   -1    0    0    0    0 -0.00000000000E+00 -0.00000000000E+00 -0.45593999997E+02  0.45594000000E+02  0.51100000000E-03 0. -1.
    9900012    2    1    2    0    0 -0.21360232703E+02 -0.13043370197E+02 -0.19756765516E+02  0.59301971228E+02  0.50000049606E+02 0.  0.
        -12    1    1    2    0    0  0.21360232703E+02  0.13043370197E+02  0.19756765516E+02  0.31886028772E+02  0.00000000000E+00 0.  1.
         11    1    3    3    0    0  0.74876621742E+01 -0.11125866323E+02 -0.25926484524E+02  0.29189597227E+02  0.51100000000E-03 0. -1.
        -11    1    3    3    0    0 -0.23158858555E+02  0.50978769287E+00  0.37274678273E+01  0.23462451486E+02  0.51100000000E-03 0.  1.
         12    1    3    3    0    0 -0.56890363217E+01 -0.24272915673E+01  0.24422511803E+01  0.66499225146E+01  0.00000000000E+00 0. -1.
</event>
<event>
 7    1  0.5979290E-013  0.5930194E+02  0.7816164E-02  0.1266605E+00
        -11   -1    0    0    0    0  0.00000000000E+00  0.00000000000E+00  0.45593999997E+02  0.45594000000E+02  0.51100000000E-03 0.  1.
         11   -1    0    0    0    0 -0.00000000000E+00 -0.00000000000E+00 -0.45593999997E+02  0.45594000000E+02  0.51100000000E-03 0. -1.
    9900012    2    1    2    0    0  0.17259860495E+02  0.15470492230E+02 -0.21897073934E+02  0.59301940962E+02  0.49999994408E+02 0.  0.
        -12    1    1    2    0    0 -0.17259860495E+02 -0.15470492230E+02  0.21897073934E+02  0.31886059038E+02  0.00000000000E+00 0.  1.
         11    1    3    3    0    0 -0.54350810315E+01 -0.74270912695E+01 -0.13000725528E+02  0.15928611210E+02  0.51100000000E-03 0. -1.
        -11    1    3    3    0    0  0.42691617718E+01  0.97773390225E+01  0.94473807940E+01  0.14250442264E+02  0.51100000000E-03 0.  1.
         12    1    3    3    0    0  0.18425779754E+02  0.13120244477E+02 -0.18343729200E+02  0.29122887488E+02  0.00000000000E+00 0. -1.
</event>
<event>
 7    1  0.5979290E-013  0.5930195E+02  0.7816164E-02  0.1266605E+00
        -11   -1    0    0    0    0  0.00000000000E+00  0.00000000000E+00  0.45593999997E+02  0.45594000000E+02  0.51100000000E-03 0.  1.
         11   -1    0    0    0    0 -0.00000000000E+00 -0.00000000000E+00 -0.45593999997E+02  0.45594000000E+02  0.51100000000E-03 0. -1.
    9900012    2    1    2    0    0 -0.21918141336E+01  0.31026752517E+02  0.70183166017E+01  0.59301949933E+02  0.50000010770E+02 0.  0.
        -12    1    1    2    0    0  0.21918141336E+01 -0.31026752517E+02 -0.70183166017E+01  0.31886050067E+02  0.00000000000E+00 0.  1.
         11    1    3    3    0    0  0.17129326811E+02  0.25353552992E+01 -0.80896059258E+01  0.19112393565E+02  0.51100000000E-03 0.  1.
        -11    1    3    3    0    0 -0.11882693650E+02  0.27148103313E+02  0.11202107089E+02  0.31681305614E+02  0.51100000000E-03 0. -1.
        -12    1    3    3    0    0 -0.74384472945E+01  0.13432939044E+01  0.39058154382E+01  0.85082507546E+01  0.00000000000E+00 0.  1.
</event>
<event>
 7    1  0.5979290E-013  0.5930192E+02  0.7816164E-02  0.1266605E+00
        -11   -1    0    0    0    0  0.00000000000E+00  0.00000000000E+00  0.45593999997E+02  0.45594000000E+02  0.51100000000E-03 0. -1.
         11   -1    0    0    0    0 -0.00000000000E+00 -0.00000000000E+00 -0.45593999997E+02  0.45594000000E+02  0.51100000000E-03 0.  1.
    9900012    2    1    2    0    0 -0.41696593612E+00  0.23634577143E+02  0.21399881797E+02  0.59301920933E+02  0.49999957881E+02 0.  0.
        -12    1    1    2    0    0  0.41696593612E+00 -0.23634577143E+02 -0.21399881797E+02  0.31886079067E+02  0.00000000000E+00 0.  1.
         11    1    3    3    0    0  0.13970796743E+01  0.23137240696E+02 -0.36008564564E+01  0.23457406210E+02  0.51100000000E-03 0. -1.
        -11    1    3    3    0    0  0.23094458240E+01 -0.88554644458E+01  0.23865730032E+02  0.25560239842E+02  0.51100000000E-03 0.  1.
        -12    1    3    3    0    0 -0.41234914344E+01  0.93528008937E+01  0.11350082209E+01  0.10284274881E+02  0.00000000000E+00 0.  1.
</event>
<event>
 7    1  0.5979290E-013  0.5930193E+02  0.7816164E-02  0.1266605E+00
        -11   -1    0    0    0    0  0.00000000000E+00  0.00000000000E+00  0.45593999997E+02  0.45594000000E+02  0.51100000000E-03 0.  1.
         11   -1    0    0    0    0 -0.00000000000E+00 -0.00000000000E+00 -0.45593999997E+02  0.45594000000E+02  0.51100000000E-03 0. -1.
    9900012    2    1    2    0    0 -0.28862140271E+02 -0.10725528998E+02  0.82862133407E+01  0.59301930239E+02  0.49999974852E+02 0.  0.
        -12    1    1    2    0    0  0.28862140271E+02  0.10725528998E+02 -0.82862133407E+01  0.31886069761E+02  0.00000000000E+00 0.  1.
         11    1    3    3    0    0 -0.23381996201E+02  0.44614923630E+01  0.17839806654E+02  0.29746955510E+02  0.51100000000E-03 0. -1.
        -11    1    3    3    0    0  0.80233135624E+01 -0.97485063499E+01 -0.79246765038E+01  0.14906623847E+02  0.51100000000E-03 0.  1.
         12    1    3    3    0    0 -0.13503457633E+02 -0.54385150109E+01 -0.16289168095E+01  0.14648350881E+02  0.00000000000E+00 0. -1.
</event>
<event>
 7    1  0.5979290E-013  0.5930198E+02  0.7816164E-02  0.1266605E+00
        -11   -1    0    0    0    0  0.00000000000E+00  0.00000000000E+00  0.45593999997E+02  0.45594000000E+02  0.51100000000E-03 0.  1.
         11   -1    0    0    0    0 -0.00000000000E+00 -0.00000000000E+00 -0.45593999997E+02  0.45594000000E+02  0.51100000000E-03 0. -1.
    9900012    2    1    2    0    0  0.15266946408E+02 -0.20315034546E+02 -0.19259750455E+02  0.59301980041E+02  0.50000065679E+02 0.  0.
        -12    1    1    2    0    0 -0.15266946408E+02  0.20315034546E+02  0.19259750455E+02  0.31886019959E+02  0.00000000000E+00 0.  1.
         11    1    3    3    0    0  0.84525722453E+01 -0.16664121087E+01 -0.34494442298E+01  0.92801709378E+01  0.51100000000E-03 0. -1.
        -11    1    3    3    0    0 -0.10271995142E+02 -0.22020446000E+02 -0.20713322928E+02  0.31928915942E+02  0.51100000000E-03 0.  1.
        -12    1    3    3    0    0  0.17086369305E+02  0.33718235624E+01  0.49030167025E+01  0.18092893161E+02  0.00000000000E+00 0.  1.
</event>
<event>
 7    1  0.5979290E-013  0.5930198E+02  0.7816164E-02  0.1266605E+00
        -11   -1    0    0    0    0  0.00000000000E+00  0.00000000000E+00  0.45593999997E+02  0.45594000000E+02  0.51100000000E-03 0. -1.
         11   -1    0    0    0    0 -0.00000000000E+00 -0.00000000000E+00 -0.45593999997E+02  0.45594000000E+02  0.51100000000E-03 0.  1.
    9900012    2    1    2    0    0  0.26351692906E+02  0.16843728211E+02  0.62125321562E+01  0.59301977124E+02  0.50000060359E+02 0.  0.
        -12    1    1    2    0    0 -0.26351692906E+02 -0.16843728211E+02 -0.62125321562E+01  0.31886022876E+02  0.00000000000E+00 0.  1.
         11    1    3    3    0    0  0.31504352982E+01  0.16490642973E+02 -0.13107372373E+02  0.21299524854E+02  0.51100000000E-03 0. -1.
        -11    1    3    3    0    0  0.15665057402E+02  0.43615983945E+01  0.23436896556E+02  0.28525526891E+02  0.51100000000E-03 0.  1.
        -12    1    3    3    0    0  0.75362002061E+01 -0.40085131568E+01 -0.41169920268E+01  0.94769253782E+01  0.00000000000E+00 0.  1.
</event>
<event>
 7    1  0.5979290E-013  0.5930196E+02  0.7816164E-02  0.1266605E+00
        -11   -1    0    0    0    0  0.00000000000E+00  0.00000000000E+00  0.45593999997E+02  0.45594000000E+02  0.51100000000E-03 0.  1.
         11   -1    0    0    0    0 -0.00000000000E+00 -0.00000000000E+00 -0.45593999997E+02  0.45594000000E+02  0.51100000000E-03 0. -1.
    9900012    2    1    2    0    0  0.40687783104E+01 -0.24884163319E+02 -0.19517756126E+02  0.59301963162E+02  0.50000034897E+02 0.  0.
        -12    1    1    2    0    0 -0.40687783104E+01  0.24884163319E+02  0.19517756126E+02  0.31886036838E+02  0.00000000000E+00 0.  1.
         11    1    3    3    0    0 -0.39843428460E+01  0.12262077966E+02 -0.53679449760E+01  0.13965972128E+02  0.51100000000E-03 0. -1.
        -11    1    3    3    0    0  0.10800818486E+02 -0.27062412385E+02 -0.18520390959E+01  0.29196950066E+02  0.51100000000E-03 0.  1.
         12    1    3    3    0    0 -0.27476973293E+01 -0.10083828899E+02 -0.12297772055E+02  0.16139040968E+02  0.00000000000E+00 0. -1.
</event>
<event>
 7    1  0.5979290E-013  0.5930193E+02  0.7816164E-02  0.1266605E+00
        -11   -1    0    0    0    0  0.00000000000E+00  0.00000000000E+00  0.45593999997E+02  0.45594000000E+02  0.51100000000E-03 0. -1.
         11   -1    0    0    0    0 -0.00000000000E+00 -0.00000000000E+00 -0.45593999997E+02  0.45594000000E+02  0.51100000000E-03 0.  1.
    9900012    2    1    2    0    0  0.22248884319E+02 -0.12213261682E+02  0.19301418143E+02  0.59301931620E+02  0.49999977372E+02 0.  0.
        -12    1    1    2    0    0 -0.22248884319E+02  0.12213261682E+02 -0.19301418143E+02  0.31886068380E+02  0.00000000000E+00 0.  1.
         11    1    3    3    0    0 -0.72169821515E+01 -0.16002714824E+02  0.50295109661E-01  0.17554892281E+02  0.51100000000E-03 0. -1.
        -11    1    3    3    0    0  0.20757414768E+02 -0.18097214928E+01  0.11175758530E+01  0.20866104950E+02  0.51100000000E-03 0.  1.
         12    1    3    3    0    0  0.87084517021E+01  0.55991746346E+01  0.18133547181E+02  0.20880934390E+02  0.00000000000E+00 0. -1.
</event>
<event>
 7    1  0.5979290E-013  0.5930206E+02  0.7816164E-02  0.1266604E+00
        -11   -1    0    0    0    0  0.00000000000E+00  0.00000000000E+00  0.45593999997E+02  0.45594000000E+02  0.51100000000E-03 0. -1.
         11   -1    0    0    0    0 -0.00000000000E+00 -0.00000000000E+00 -0.45593999997E+02  0.45594000000E+02  0.51100000000E-03 0.  1.
    9900012    2    1    2    0    0 -0.23259340806E+02 -0.31790295226E+01  0.21577998438E+02  0.59302059837E+02  0.50000211209E+02 0.  0.
        -12    1    1    2    0    0  0.23259340806E+02  0.31790295226E+01 -0.21577998438E+02  0.31885940163E+02  0.00000000000E+00 0.  1.
         11    1    3    3    0    0 -0.25658939406E+01  0.13350132040E+02  0.43364237151E+01  0.14269352056E+02  0.51100000000E-03 0. -1.
        -11    1    3    3    0    0 -0.69395803139E+01 -0.79987609783E+01 -0.92022825989E+01  0.14029253630E+02  0.51100000000E-03 0.  1.
        -12    1    3    3    0    0 -0.13753866552E+02 -0.85304005843E+01  0.26443857322E+02  0.31003454152E+02  0.00000000000E+00 0.  1.
</event>
<event>
 7    1  0.5979290E-013  0.5930194E+02  0.7816164E-02  0.1266605E+00
        -11   -1    0    0    0    0  0.00000000000E+00  0.00000000000E+00  0.45593999997E+02  0.45594000000E+02  0.51100000000E-03 0. -1.
         11   -1    0    0    0    0 -0.00000000000E+00 -0.00000000000E+00 -0.45593999997E+02  0.45594000000E+02  0.51100000000E-03 0.  1.
    9900012    2    1    2    0    0  0.14932675526E+02  0.26802022356E+02 -0.86826172281E+01  0.59301936545E+02  0.49999986352E+02 0.  0.
        -12    1    1    2    0    0 -0.14932675526E+02 -0.26802022356E+02  0.86826172281E+01  0.31886063455E+02  0.00000000000E+00 0.  1.
         11    1    3    3    0    0  0.28848207385E+02  0.27942820991E+02 -0.15704155895E+02  0.43123553042E+02  0.51100000000E-03 0. -1.
        -11    1    3    3    0    0 -0.36787606044E+01 -0.21873276937E+01  0.18665131989E+01  0.46692134034E+01  0.51100000000E-03 0.  1.
         12    1    3    3    0    0 -0.10236771255E+02  0.10465290586E+01  0.51550254685E+01  0.11509170099E+02  0.00000000000E+00 0. -1.
</event>
<event>
 7    1  0.5979290E-013  0.5930194E+02  0.7816164E-02  0.1266605E+00
        -11   -1    0    0    0    0  0.00000000000E+00  0.00000000000E+00  0.45593999997E+02  0.45594000000E+02  0.51100000000E-03 0. -1.
         11   -1    0    0    0    0 -0.00000000000E+00 -0.00000000000E+00 -0.45593999997E+02  0.45594000000E+02  0.51100000000E-03 0.  1.
    9900012    2    1    2    0    0 -0.10137163558E+02  0.17349585949E+02  0.24757840351E+02  0.59301939151E+02  0.49999991106E+02 0.  0.
        -12    1    1    2    0    0  0.10137163558E+02 -0.17349585949E+02 -0.24757840351E+02  0.31886060849E+02  0.00000000000E+00 0.  1.
         11    1    3    3    0    0 -0.27631498316E+01  0.85787645456E+01  0.28548345292E+02  0.29937237970E+02  0.51100000000E-03 0. -1.
        -11    1    3    3    0    0 -0.97908770701E+00  0.17566261233E+02  0.68114001184E+00  0.17606706064E+02  0.51100000000E-03 0.  1.
         12    1    3    3    0    0 -0.63949260196E+01 -0.87954398291E+01 -0.44716449531E+01  0.11757995117E+02  0.00000000000E+00 0. -1.
</event>
<event>
 7    1  0.5979290E-013  0.5930194E+02  0.7816164E-02  0.1266605E+00
        -11   -1    0    0    0    0  0.00000000000E+00  0.00000000000E+00  0.45593999997E+02  0.45594000000E+02  0.51100000000E-03 0.  1.
         11   -1    0    0    0    0 -0.00000000000E+00 -0.00000000000E+00 -0.45593999997E+02  0.45594000000E+02  0.51100000000E-03 0. -1.
    9900012    2    1    2    0    0  0.96487660795E+01  0.25316921881E+02 -0.16812956854E+02  0.59301941313E+02  0.49999995049E+02 0.  0.
        -12    1    1    2    0    0 -0.96487660795E+01 -0.25316921881E+02  0.16812956854E+02  0.31886058687E+02  0.00000000000E+00 0.  1.
         11    1    3    3    0    0  0.72750737398E+01  0.31753105811E+02  0.62002842444E+01  0.33160668744E+02  0.51100000000E-03 0. -1.
        -11    1    3    3    0    0  0.49249142994E+01 -0.38296274130E+01 -0.57081412108E+01  0.84559862418E+01  0.51100000000E-03 0.  1.
         12    1    3    3    0    0 -0.25512219597E+01 -0.26065565167E+01 -0.17305099888E+02  0.17685286328E+02  0.00000000000E+00 0. -1.
</event>
<event>
 7    1  0.5979290E-013  0.5930195E+02  0.7816164E-02  0.1266605E+00
        -11   -1    0    0    0    0  0.00000000000E+00  0.00000000000E+00  0.45593999997E+02  0.45594000000E+02  0.51100000000E-03 0.  1.
         11   -1    0    0    0    0 -0.00000000000E+00 -0.00000000000E+00 -0.45593999997E+02  0.45594000000E+02  0.51100000000E-03 0. -1.
    9900012    2    1    2    0    0 -0.12848721765E+02 -0.20511795322E+02 -0.20758059897E+02  0.59301945854E+02  0.50000003330E+02 0.  0.
        -12    1    1    2    0    0  0.12848721765E+02  0.20511795322E+02  0.20758059897E+02  0.31886054146E+02  0.00000000000E+00 0.  1.
         11    1    3    3    0    0 -0.96093374425E+01 -0.27688312721E+01 -0.20079218556E+02  0.22431692107E+02  0.51100000000E-03 0. -1.
        -11    1    3    3    0    0 -0.79809977147E+01 -0.25915241256E+02  0.15572637164E+01  0.27161022154E+02  0.51100000000E-03 0.  1.
        -12    1    3    3    0    0  0.47416133923E+01  0.81722772062E+01 -0.22361050579E+01  0.97092315930E+01  0.00000000000E+00 0.  1.
</event>
<event>
 7    1  0.5979290E-013  0.5930199E+02  0.7816164E-02  0.1266605E+00
        -11   -1    0    0    0    0  0.00000000000E+00  0.00000000000E+00  0.45593999997E+02  0.45594000000E+02  0.51100000000E-03 0. -1.
         11   -1    0    0    0    0 -0.00000000000E+00 -0.00000000000E+00 -0.45593999997E+02  0.45594000000E+02  0.51100000000E-03 0.  1.
    9900012    2    1    2    0    0 -0.20812261687E+02  0.24149759979E+02 -0.59699113038E+00  0.59301991438E+02  0.50000086465E+02 0.  0.
        -12    1    1    2    0    0  0.20812261687E+02 -0.24149759979E+02  0.59699113038E+00  0.31886008562E+02  0.00000000000E+00 0.  1.
         11    1    3    3    0    0 -0.20368656015E+02  0.11488069711E+02 -0.30245833592E+01  0.23579779437E+02  0.51100000000E-03 0. -1.
        -11    1    3    3    0    0  0.53263208058E+01  0.22225777604E+02 -0.34278431403E+01  0.23110711635E+02  0.51100000000E-03 0.  1.
        -12    1    3    3    0    0 -0.57699264786E+01 -0.95640873354E+01  0.58554353690E+01  0.12611500366E+02  0.00000000000E+00 0.  1.
</event>
<event>
 7    1  0.5979290E-013  0.5930196E+02  0.7816164E-02  0.1266605E+00
        -11   -1    0    0    0    0  0.00000000000E+00  0.00000000000E+00  0.45593999997E+02  0.45594000000E+02  0.51100000000E-03 0.  1.
         11   -1    0    0    0    0 -0.00000000000E+00 -0.00000000000E+00 -0.45593999997E+02  0.45594000000E+02  0.51100000000E-03 0. -1.
    9900012    2    1    2    0    0  0.11756173828E+02 -0.29132858875E+02  0.54579027397E+01  0.59301956163E+02  0.50000022131E+02 0.  0.
        -12    1    1    2    0    0 -0.11756173828E+02  0.29132858875E+02 -0.54579027397E+01  0.31886043837E+02  0.00000000000E+00 0.  1.
         11    1    3    3    0    0  0.39698124941E+01  0.21460771511E+01 -0.18523774399E+02  0.19065552093E+02  0.51100000000E-03 0. -1.
        -11    1    3    3    0    0  0.89953015240E+00 -0.29461105337E+01  0.15498112489E+01  0.34482802873E+01  0.51100000000E-03 0.  1.
         12    1    3    3    0    0  0.68868311812E+01 -0.28332825492E+02  0.22431865890E+02  0.36788123782E+02  0.00000000000E+00 0. -1.
</event>
<event>
 7    1  0.5979290E-013  0.5930194E+02  0.7816164E-02  0.1266605E+00
        -11   -1    0    0    0    0  0.00000000000E+00  0.00000000000E+00  0.45593999997E+02  0.45594000000E+02  0.51100000000E-03 0. -1.
         11   -1    0    0    0    0 -0.00000000000E+00 -0.00000000000E+00 -0.45593999997E+02  0.45594000000E+02  0.51100000000E-03 0.  1.
    9900012    2    1    2    0    0 -0.24113490766E+02 -0.49981713160E+01  0.20255342363E+02  0.59301936467E+02  0.49999986211E+02 0.  0.
        -12    1    1    2    0    0  0.24113490766E+02  0.49981713160E+01 -0.20255342363E+02  0.31886063533E+02  0.00000000000E+00 0.  1.
         11    1    3    3    0    0 -0.26639575698E+02 -0.11787176614E+02  0.26211104227E+02  0.39187070712E+02  0.51100000000E-03 0. -1.
        -11    1    3    3    0    0  0.90734190661E+01  0.64171513708E+01  0.20754627071E+00  0.11115297611E+02  0.51100000000E-03 0.  1.
         12    1    3    3    0    0 -0.65473341338E+01  0.37185392699E+00 -0.61633081356E+01  0.89995681439E+01  0.00000000000E+00 0. -1.
</event>
<event>
 7    1  0.5979290E-013  0.5930196E+02  0.7816164E-02  0.1266605E+00
        -11   -1    0    0    0    0  0.00000000000E+00  0.00000000000E+00  0.45593999997E+02  0.45594000000E+02  0.51100000000E-03 0.  1.
         11   -1    0    0    0    0 -0.00000000000E+00 -0.00000000000E+00 -0.45593999997E+02  0.45594000000E+02  0.51100000000E-03 0. -1.
    9900012    2    1    2    0    0  0.27718182477E+02 -0.78685565817E+01 -0.13656781816E+02  0.59301960546E+02  0.50000030125E+02 0.  0.
        -12    1    1    2    0    0 -0.27718182477E+02  0.78685565817E+01  0.13656781816E+02  0.31886039454E+02  0.00000000000E+00 0.  1.
         11    1    3    3    0    0  0.26069571491E+02  0.15960441879E+01  0.70151950101E+00  0.26127802140E+02  0.51100000000E-03 0.  1.
        -11    1    3    3    0    0 -0.17563552010E+00  0.52957086731E+01 -0.17230452141E+02  0.18026753991E+02  0.51100000000E-03 0. -1.
        -12    1    3    3    0    0  0.18242465059E+01 -0.14760309443E+02  0.28721508241E+01  0.15147404415E+02  0.00000000000E+00 0.  1.
</event>
<event>
 7    1  0.5979290E-013  0.5930194E+02  0.7816164E-02  0.1266605E+00
        -11   -1    0    0    0    0  0.00000000000E+00  0.00000000000E+00  0.45593999997E+02  0.45594000000E+02  0.51100000000E-03 0.  1.
         11   -1    0    0    0    0 -0.00000000000E+00 -0.00000000000E+00 -0.45593999997E+02  0.45594000000E+02  0.51100000000E-03 0. -1.
    9900012    2    1    2    0    0 -0.29168174556E+02  0.12709892979E+02  0.20969023443E+01  0.59301940571E+02  0.49999993695E+02 0.  0.
        -12    1    1    2    0    0  0.29168174556E+02 -0.12709892979E+02 -0.20969023443E+01  0.31886059429E+02  0.00000000000E+00 0.  1.
         11    1    3    3    0    0 -0.64560276868E+01 -0.11031536594E+02  0.82853965096E+00  0.12808652206E+02  0.51100000000E-03 0. -1.
        -11    1    3    3    0    0 -0.58404857071E+01  0.25880646507E+02  0.87171401645E+01  0.27926827063E+02  0.51100000000E-03 0.  1.
        -12    1    3    3    0    0 -0.16871661162E+02 -0.21392169338E+01 -0.74487774712E+01  0.18566461302E+02  0.00000000000E+00 0.  1.
</event>
<event>
 7    1  0.5979290E-013  0.5930198E+02  0.7816164E-02  0.1266605E+00
        -11   -1    0    0    0    0  0.00000000000E+00  0.00000000000E+00  0.45593999997E+02  0.45594000000E+02  0.51100000000E-03 0.  1.
         11   -1    0    0    0    0 -0.00000000000E+00 -0.00000000000E+00 -0.45593999997E+02  0.45594000000E+02  0.51100000000E-03 0. -1.
    9900012    2    1    2    0    0 -0.54719549324E+01  0.26401230354E+02 -0.17022079749E+02  0.59301977137E+02  0.50000060384E+02 0.  0.
        -12    1    1    2    0    0  0.54719549324E+01 -0.26401230354E+02  0.17022079749E+02  0.31886022863E+02  0.00000000000E+00 0.  1.
         11    1    3    3    0    0  0.94844867353E+01  0.26648559352E+01  0.11365580839E+02  0.15041056275E+02  0.51100000000E-03 0. -1.
        -11    1    3    3    0    0 -0.55660894307E+01  0.18306607708E+02 -0.71737917887E+01  0.20434689286E+02  0.51100000000E-03 0.  1.
         12    1    3    3    0    0 -0.93903522370E+01  0.54297667115E+01 -0.21213868800E+02  0.23826231577E+02  0.00000000000E+00 0. -1.
</event>
<event>
 7    1  0.5979290E-013  0.5930196E+02  0.7816164E-02  0.1266605E+00
        -11   -1    0    0    0    0  0.00000000000E+00  0.00000000000E+00  0.45593999997E+02  0.45594000000E+02  0.51100000000E-03 0.  1.
         11   -1    0    0    0    0 -0.00000000000E+00 -0.00000000000E+00 -0.45593999997E+02  0.45594000000E+02  0.51100000000E-03 0. -1.
    9900012    2    1    2    0    0 -0.14309809430E+02 -0.26242385324E+02  0.11103414065E+02  0.59301964854E+02  0.50000037983E+02 0.  0.
        -12    1    1    2    0    0  0.14309809430E+02  0.26242385324E+02 -0.11103414065E+02  0.31886035146E+02  0.00000000000E+00 0.  1.
         11    1    3    3    0    0 -0.20377732089E+02 -0.11150909545E+02 -0.75998907856E+01  0.24440807863E+02  0.51100000000E-03 0. -1.
        -11    1    3    3    0    0 -0.32263936354E+01 -0.51070795073E+01  0.20251005898E+02  0.21132797191E+02  0.51100000000E-03 0.  1.
         12    1    3    3    0    0  0.92943162942E+01 -0.99843962719E+01 -0.15477010474E+01  0.13728359801E+02  0.00000000000E+00 0. -1.
</event>
<event>
 7    1  0.5979290E-013  0.5930193E+02  0.7816164E-02  0.1266605E+00
        -11   -1    0    0    0    0  0.00000000000E+00  0.00000000000E+00  0.45593999997E+02  0.45594000000E+02  0.51100000000E-03 0.  1.
         11   -1    0    0    0    0 -0.00000000000E+00 -0.00000000000E+00 -0.45593999997E+02  0.45594000000E+02  0.51100000000E-03 0. -1.
    9900012    2    1    2    0    0  0.20490676145E+02 -0.20291666831E+02 -0.13605217116E+02  0.59301929617E+02  0.49999973719E+02 0.  0.
        -12    1    1    2    0    0 -0.20490676145E+02  0.20291666831E+02  0.13605217116E+02  0.31886070383E+02  0.00000000000E+00 0.  1.
         11    1    3    3    0    0  0.11590590543E+02 -0.26280305705E+02  0.66169987698E+01  0.29475089992E+02  0.51100000000E-03 0. -1.
        -11    1    3    3    0    0  0.16135994530E+01  0.94686921653E+01 -0.19478225337E+02  0.21717759945E+02  0.51100000000E-03 0.  1.
        -12    1    3    3    0    0  0.72864861494E+01 -0.34800532919E+01 -0.74399054936E+00  0.81090796800E+01  0.00000000000E+00 0.  1.
</event>
<event>
 7    1  0.5979290E-013  0.5930195E+02  0.7816164E-02  0.1266605E+00
        -11   -1    0    0    0    0  0.00000000000E+00  0.00000000000E+00  0.45593999997E+02  0.45594000000E+02  0.51100000000E-03 0.  1.
         11   -1    0    0    0    0 -0.00000000000E+00 -0.00000000000E+00 -0.45593999997E+02  0.45594000000E+02  0.51100000000E-03 0. -1.
    9900012    2    1    2    0    0  0.15549567032E+02  0.89936375288E+01 -0.26344742661E+02  0.59301952632E+02  0.50000015692E+02 0.  0.
        -12    1    1    2    0    0 -0.15549567032E+02 -0.89936375288E+01  0.26344742661E+02  0.31886047368E+02  0.00000000000E+00 0.  1.
         11    1    3    3    0    0  0.13880303431E+02 -0.15184106029E+02 -0.15891069892E+02  0.25995114961E+02  0.51100000000E-03 0. -1.
        -11    1    3    3    0    0  0.86756422975E+01  0.21219059812E+02 -0.38717817464E+01  0.23248784113E+02  0.51100000000E-03 0.  1.
         12    1    3    3    0    0 -0.70063786967E+01  0.29586837458E+01 -0.65818910226E+01  0.10058053558E+02  0.00000000000E+00 0. -1.
</event>
<event>
 7    1  0.5979290E-013  0.5930193E+02  0.7816164E-02  0.1266605E+00
        -11   -1    0    0    0    0  0.00000000000E+00  0.00000000000E+00  0.45593999997E+02  0.45594000000E+02  0.51100000000E-03 0.  1.
         11   -1    0    0    0    0 -0.00000000000E+00 -0.00000000000E+00 -0.45593999997E+02  0.45594000000E+02  0.51100000000E-03 0. -1.
    9900012    2    1    2    0    0 -0.19860211953E+02  0.12647197739E+01 -0.24913724498E+02  0.59301934026E+02  0.49999981759E+02 0.  0.
        -12    1    1    2    0    0  0.19860211953E+02 -0.12647197739E+01  0.24913724498E+02  0.31886065974E+02  0.00000000000E+00 0.  1.
         11    1    3    3    0    0 -0.11984388313E+02 -0.70420719762E+01 -0.14701140310E+02  0.20232149357E+02  0.51100000000E-03 0. -1.
        -11    1    3    3    0    0  0.59445083972E+01  0.18916188363E+02 -0.84642455049E+01  0.21559286039E+02  0.51100000000E-03 0.  1.
        -12    1    3    3    0    0 -0.13820332037E+02 -0.10609396613E+02 -0.17483386838E+01  0.17510498630E+02  0.00000000000E+00 0.  1.
</event>
<event>
 7    1  0.5979290E-013  0.5930193E+02  0.7816164E-02  0.1266605E+00
        -11   -1    0    0    0    0  0.00000000000E+00  0.00000000000E+00  0.45593999997E+02  0.45594000000E+02  0.51100000000E-03 0. -1.
         11   -1    0    0    0    0 -0.00000000000E+00 -0.00000000000E+00 -0.45593999997E+02  0.45594000000E+02  0.51100000000E-03 0.  1.
    9900012    2    1    2    0    0 -0.84474707022E+01 -0.13820573099E+02  0.27465499960E+02  0.59301926393E+02  0.49999967838E+02 0.  0.
        -12    1    1    2    0    0  0.84474707022E+01  0.13820573099E+02 -0.27465499960E+02  0.31886073607E+02  0.00000000000E+00 0.  1.
         11    1    3    3    0    0 -0.10597206899E+02  0.35812224327E+01  0.29280118603E+02  0.31344079088E+02  0.51100000000E-03 0. -1.
        -11    1    3    3    0    0 -0.16415629567E+01 -0.21384209720E+02 -0.43808447185E+01  0.21889973847E+02  0.51100000000E-03 0.  1.
         12    1    3    3    0    0  0.37912991535E+01  0.39824141882E+01  0.25662260750E+01  0.60678734583E+01  0.00000000000E+00 0. -1.
</event>
<event>
 7    1  0.5979290E-013  0.5930195E+02  0.7816164E-02  0.1266605E+00
        -11   -1    0    0    0    0  0.00000000000E+00  0.00000000000E+00  0.45593999997E+02  0.45594000000E+02  0.51100000000E-03 0. -1.
         11   -1    0    0    0    0 -0.00000000000E+00 -0.00000000000E+00 -0.45593999997E+02  0.45594000000E+02  0.51100000000E-03 0.  1.
    9900012    2    1    2    0    0 -0.27176631886E+02 -0.37462972296E+01 -0.16251642156E+02  0.59301953893E+02  0.50000017991E+02 0.  0.
        -12    1    1    2    0    0  0.27176631886E+02  0.37462972296E+01  0.16251642156E+02  0.31886046107E+02  0.00000000000E+00 0.  1.
         11    1    3    3    0    0 -0.11722120758E+02 -0.14727154859E+02 -0.64976903999E+01  0.19912739292E+02  0.51100000000E-03 0. -1.
        -11    1    3    3    0    0  0.40076279750E+01  0.10520725134E+02  0.73750407919E+01  0.13458750547E+02  0.51100000000E-03 0.  1.
         12    1    3    3    0    0 -0.19462139103E+02  0.46013249482E+00 -0.17128992548E+02  0.25930464054E+02  0.00000000000E+00 0. -1.
</event>
<event>
 7    1  0.5979290E-013  0.5930192E+02  0.7816164E-02  0.1266605E+00
        -11   -1    0    0    0    0  0.00000000000E+00  0.00000000000E+00  0.45593999997E+02  0.45594000000E+02  0.51100000000E-03 0. -1.
         11   -1    0    0    0    0 -0.00000000000E+00 -0.00000000000E+00 -0.45593999997E+02  0.45594000000E+02  0.51100000000E-03 0.  1.
    9900012    2    1    2    0    0 -0.43352313582E+01 -0.19128558281E+02  0.25140124379E+02  0.59301924252E+02  0.49999963934E+02 0.  0.
        -12    1    1    2    0    0  0.43352313582E+01  0.19128558281E+02 -0.25140124379E+02  0.31886075748E+02  0.00000000000E+00 0.  1.
         11    1    3    3    0    0  0.15953665466E+02 -0.12673752748E+02 -0.27958702113E+01  0.20565999636E+02  0.51100000000E-03 0. -1.
        -11    1    3    3    0    0 -0.13902541693E+02 -0.65521840322E+01  0.28441889053E+02  0.32328823583E+02  0.51100000000E-03 0.  1.
        -12    1    3    3    0    0 -0.63863551313E+01  0.97378499981E-01 -0.50589446251E+00  0.64071010327E+01  0.00000000000E+00 0.  1.
</event>
<event>
 7    1  0.5979290E-013  0.5930196E+02  0.7816164E-02  0.1266605E+00
        -11   -1    0    0    0    0  0.00000000000E+00  0.00000000000E+00  0.45593999997E+02  0.45594000000E+02  0.51100000000E-03 0. -1.
         11   -1    0    0    0    0 -0.00000000000E+00 -0.00000000000E+00 -0.45593999997E+02  0.45594000000E+02  0.51100000000E-03 0.  1.
    9900012    2    1    2    0    0 -0.44395923503E+01 -0.23223705461E+01  0.31489941688E+02  0.59301955832E+02  0.50000021528E+02 0.  0.
        -12    1    1    2    0    0  0.44395923503E+01  0.23223705461E+01 -0.31489941688E+02  0.31886044168E+02  0.00000000000E+00 0.  1.
         11    1    3    3    0    0 -0.85741593897E+01 -0.33647711830E+01  0.68883056617E+01  0.11501593346E+02  0.51100000000E-03 0. -1.
        -11    1    3    3    0    0  0.11103015129E+02 -0.16673710912E+02  0.19801577796E+02  0.28167216121E+02  0.51100000000E-03 0.  1.
        -12    1    3    3    0    0 -0.69684480892E+01  0.17716111548E+02  0.48000582303E+01  0.19633146365E+02  0.00000000000E+00 0.  1.
</event>
<event>
 7    1  0.5979290E-013  0.5930195E+02  0.7816164E-02  0.1266605E+00
        -11   -1    0    0    0    0  0.00000000000E+00  0.00000000000E+00  0.45593999997E+02  0.45594000000E+02  0.51100000000E-03 0.  1.
         11   -1    0    0    0    0 -0.00000000000E+00 -0.00000000000E+00 -0.45593999997E+02  0.45594000000E+02  0.51100000000E-03 0. -1.
    9900012    2    1    2    0    0 -0.23357121871E+02  0.88757086113E+01 -0.19808762846E+02  0.59301946137E+02  0.50000003847E+02 0.  0.
        -12    1    1    2    0    0  0.23357121871E+02 -0.88757086113E+01  0.19808762846E+02  0.31886053863E+02  0.00000000000E+00 0.  1.
         11    1    3    3    0    0  0.38765604109E+01  0.15363864041E+02 -0.13280542406E+01  0.15900936048E+02  0.51100000000E-03 0. -1.
        -11    1    3    3    0    0 -0.25518145694E+02 -0.10253517245E+02 -0.33377390735E+01  0.27702903782E+02  0.51100000000E-03 0.  1.
         12    1    3    3    0    0 -0.17155365876E+01  0.37653618155E+01 -0.15142969532E+02  0.15698106307E+02  0.00000000000E+00 0. -1.
</event>
<event>
 7    1  0.5979290E-013  0.5930195E+02  0.7816164E-02  0.1266605E+00
        -11   -1    0    0    0    0  0.00000000000E+00  0.00000000000E+00  0.45593999997E+02  0.45594000000E+02  0.51100000000E-03 0.  1.
         11   -1    0    0    0    0 -0.00000000000E+00 -0.00000000000E+00 -0.45593999997E+02  0.45594000000E+02  0.51100000000E-03 0. -1.
    9900012    2    1    2    0    0 -0.80230904318E+01  0.30766529672E+02 -0.24022755609E+01  0.59301948880E+02  0.50000008849E+02 0.  0.
        -12    1    1    2    0    0  0.80230904318E+01 -0.30766529672E+02  0.24022755609E+01  0.31886051120E+02  0.00000000000E+00 0.  1.
         11    1    3    3    0    0 -0.19369030581E+02  0.12188951924E+02 -0.45303434251E+01  0.23329250020E+02  0.51100000000E-03 0. -1.
        -11    1    3    3    0    0  0.18119718236E+02  0.12961736625E+02  0.97623113401E+01  0.24323518008E+02  0.51100000000E-03 0.  1.
        -12    1    3    3    0    0 -0.67737780868E+01  0.56158411232E+01 -0.76342434759E+01  0.11649180853E+02  0.00000000000E+00 0.  1.
</event>
<event>
 7    1  0.5979290E-013  0.5930194E+02  0.7816164E-02  0.1266605E+00
        -11   -1    0    0    0    0  0.00000000000E+00  0.00000000000E+00  0.45593999997E+02  0.45594000000E+02  0.51100000000E-03 0.  1.
         11   -1    0    0    0    0 -0.00000000000E+00 -0.00000000000E+00 -0.45593999997E+02  0.45594000000E+02  0.51100000000E-03 0. -1.
    9900012    2    1    2    0    0  0.26465761309E+02 -0.10532954934E+02 -0.14329737577E+02  0.59301936581E+02  0.49999986420E+02 0.  0.
        -12    1    1    2    0    0 -0.26465761309E+02  0.10532954934E+02  0.14329737577E+02  0.31886063419E+02  0.00000000000E+00 0.  1.
         11    1    3    3    0    0  0.14823738686E+02 -0.30966554370E+01 -0.19755493315E+02  0.24892007149E+02  0.51100000000E-03 0. -1.
        -11    1    3    3    0    0  0.11002098933E+02  0.98579521516E+01  0.81800339152E+01  0.16886040290E+02  0.51100000000E-03 0.  1.
        -12    1    3    3    0    0  0.63992369027E+00 -0.17294251648E+02 -0.27542781771E+01  0.17523889143E+02  0.00000000000E+00 0.  1.
</event>
<event>
 7    1  0.5979290E-013  0.5930197E+02  0.7816164E-02  0.1266605E+00
        -11   -1    0    0    0    0  0.00000000000E+00  0.00000000000E+00  0.45593999997E+02  0.45594000000E+02  0.51100000000E-03 0.  1.
         11   -1    0    0    0    0 -0.00000000000E+00 -0.00000000000E+00 -0.45593999997E+02  0.45594000000E+02  0.51100000000E-03 0. -1.
    9900012    2    1    2    0    0 -0.55735282308E+01 -0.47947709411E+01 -0.31026836812E+02  0.59301974098E+02  0.50000054840E+02 0.  0.
        -12    1    1    2    0    0  0.55735282308E+01  0.47947709411E+01  0.31026836812E+02  0.31886025902E+02  0.00000000000E+00 0.  1.
         11    1    3    3    0    0  0.10259199293E+02  0.19030688886E+01  0.94697880453E+00  0.10477099334E+02  0.51100000000E-03 0. -1.
        -11    1    3    3    0    0 -0.22513902088E+02  0.53332843085E+01 -0.20153339635E+02  0.30683494056E+02  0.51100000000E-03 0.  1.
         12    1    3    3    0    0  0.66811745643E+01 -0.12031124138E+02 -0.11820475981E+02  0.18141380708E+02  0.00000000000E+00 0. -1.
</event>
<event>
 7    1  0.5979290E-013  0.5930190E+02  0.7816164E-02  0.1266605E+00
        -11   -1    0    0    0    0  0.00000000000E+00  0.00000000000E+00  0.45593999997E+02  0.45594000000E+02  0.51100000000E-03 0.  1.
         11   -1    0    0    0    0 -0.00000000000E+00 -0.00000000000E+00 -0.45593999997E+02  0.45594000000E+02  0.51100000000E-03 0. -1.
    9900012    2    1    2    0    0 -0.51203221936E+01 -0.15751201855E+02 -0.27247117400E+02  0.59301898547E+02  0.49999917054E+02 0.  0.
        -12    1    1    2    0    0  0.51203221936E+01  0.15751201855E+02  0.27247117400E+02  0.31886101453E+02  0.00000000000E+00 0.  1.
         11    1    3    3    0    0 -0.15776612899E+02 -0.62096604574E+00 -0.32128305261E+02  0.35798255720E+02  0.51100000000E-03 0. -1.
        -11    1    3    3    0    0  0.33644562943E+01 -0.61426684809E+00  0.63297985701E+01  0.71946674778E+01  0.51100000000E-03 0.  1.
         12    1    3    3    0    0  0.72918344107E+01 -0.14515968961E+02 -0.14486107092E+01  0.16308975349E+02  0.00000000000E+00 0. -1.
</event>
<event>
 7    1  0.5979290E-013  0.5930194E+02  0.7816164E-02  0.1266605E+00
        -11   -1    0    0    0    0  0.00000000000E+00  0.00000000000E+00  0.45593999997E+02  0.45594000000E+02  0.51100000000E-03 0.  1.
         11   -1    0    0    0    0 -0.00000000000E+00 -0.00000000000E+00 -0.45593999997E+02  0.45594000000E+02  0.51100000000E-03 0. -1.
    9900012    2    1    2    0    0 -0.51313703383E+01  0.13329374722E+02 -0.28508200455E+02  0.59301942150E+02  0.49999996576E+02 0.  0.
        -12    1    1    2    0    0  0.51313703383E+01 -0.13329374722E+02  0.28508200455E+02  0.31886057850E+02  0.00000000000E+00 0.  1.
         11    1    3    3    0    0  0.81529389430E+00  0.95788473591E+01 -0.26736967370E+02  0.28412751455E+02  0.51100000000E-03 0. -1.
        -11    1    3    3    0    0 -0.73312515198E+01  0.10557227428E+02  0.10627250984E+02  0.16677552684E+02  0.51100000000E-03 0.  1.
        -12    1    3    3    0    0  0.13845872872E+01 -0.68067000652E+01 -0.12398484069E+02  0.14211638010E+02  0.00000000000E+00 0.  1.
</event>
<event>
 7    1  0.5979290E-013  0.5930194E+02  0.7816164E-02  0.1266605E+00
        -11   -1    0    0    0    0  0.00000000000E+00  0.00000000000E+00  0.45593999997E+02  0.45594000000E+02  0.51100000000E-03 0.  1.
         11   -1    0    0    0    0 -0.00000000000E+00 -0.00000000000E+00 -0.45593999997E+02  0.45594000000E+02  0.51100000000E-03 0. -1.
    9900012    2    1    2    0    0 -0.16487802624E+02 -0.93700706583E+01 -0.25633474694E+02  0.59301939027E+02  0.49999990880E+02 0.  0.
        -12    1    1    2    0    0  0.16487802624E+02  0.93700706583E+01  0.25633474694E+02  0.31886060973E+02  0.00000000000E+00 0.  1.
         11    1    3    3    0    0  0.39622335277E+01 -0.10086156462E+02 -0.23789493146E+02  0.26141343331E+02  0.51100000000E-03 0. -1.
        -11    1    3    3    0    0  0.39537699444E-01  0.72447987808E+01  0.68448782847E+01  0.99669971203E+01  0.51100000000E-03 0.  1.
         12    1    3    3    0    0 -0.20489573851E+02 -0.65287129766E+01 -0.86888598319E+01  0.23193598576E+02  0.00000000000E+00 0. -1.
</event>
<event>
 7    1  0.5979290E-013  0.5930201E+02  0.7816164E-02  0.1266605E+00
        -11   -1    0    0    0    0  0.00000000000E+00  0.00000000000E+00  0.45593999997E+02  0.45594000000E+02  0.51100000000E-03 0.  1.
         11   -1    0    0    0    0 -0.00000000000E+00 -0.00000000000E+00 -0.45593999997E+02  0.45594000000E+02  0.51100000000E-03 0. -1.
    9900012    2    1    2    0    0 -0.25814244100E+02  0.39651378608E+01 -0.18292581382E+02  0.59302014829E+02  0.50000129124E+02 0.  0.
        -12    1    1    2    0    0  0.25814244100E+02 -0.39651378608E+01  0.18292581382E+02  0.31885985171E+02  0.00000000000E+00 0.  1.
         11    1    3    3    0    0 -0.13316482887E+02 -0.17467657992E+01 -0.94710378171E+01  0.16434125010E+02  0.51100000000E-03 0. -1.
        -11    1    3    3    0    0  0.14491948538E+02  0.32232134574E+01 -0.31731165769E+01  0.15181381574E+02  0.51100000000E-03 0.  1.
        -12    1    3    3    0    0 -0.26989709751E+02  0.24886902026E+01 -0.56484269876E+01  0.27686508245E+02  0.00000000000E+00 0.  1.
</event>
<event>
 7    1  0.5979290E-013  0.5930194E+02  0.7816164E-02  0.1266605E+00
        -11   -1    0    0    0    0  0.00000000000E+00  0.00000000000E+00  0.45593999997E+02  0.45594000000E+02  0.51100000000E-03 0.  1.
         11   -1    0    0    0    0 -0.00000000000E+00 -0.00000000000E+00 -0.45593999997E+02  0.45594000000E+02  0.51100000000E-03 0. -1.
    9900012    2    1    2    0    0 -0.17569852000E+02 -0.11982391896E+02 -0.23758017618E+02  0.59301940100E+02  0.49999992836E+02 0.  0.
        -12    1    1    2    0    0  0.17569852000E+02  0.11982391896E+02  0.23758017618E+02  0.31886059900E+02  0.00000000000E+00 0.  1.
         11    1    3    3    0    0 -0.16118613236E+02  0.13086401084E+02 -0.11715206133E+02  0.23839245814E+02  0.51100000000E-03 0. -1.
        -11    1    3    3    0    0  0.83982212501E+01 -0.15189720175E+02 -0.12684461162E+02  0.21497750449E+02  0.51100000000E-03 0.  1.
         12    1    3    3    0    0 -0.98494600143E+01 -0.98790728050E+01  0.64164967665E+00  0.13964943837E+02  0.00000000000E+00 0. -1.
</event>
<event>
 7    1  0.5979290E-013  0.5930193E+02  0.7816164E-02  0.1266605E+00
        -11   -1    0    0    0    0  0.00000000000E+00  0.00000000000E+00  0.45593999997E+02  0.45594000000E+02  0.51100000000E-03 0.  1.
         11   -1    0    0    0    0 -0.00000000000E+00 -0.00000000000E+00 -0.45593999997E+02  0.45594000000E+02  0.51100000000E-03 0. -1.
    9900012    2    1    2    0    0 -0.23532868614E+02  0.21515700043E+02 -0.62117733067E-02  0.59301932633E+02  0.49999979219E+02 0.  0.
        -12    1    1    2    0    0  0.23532868614E+02 -0.21515700043E+02  0.62117733067E-02  0.31886067367E+02  0.00000000000E+00 0.  1.
         11    1    3    3    0    0 -0.32334297351E+01 -0.89269517193E+00 -0.65874236148E+00  0.34184666565E+01  0.51100000000E-03 0. -1.
        -11    1    3    3    0    0  0.62037499750E+01  0.18312716347E+02  0.15901020059E+02  0.25033667988E+02  0.51100000000E-03 0.  1.
        -12    1    3    3    0    0 -0.26503188854E+02  0.40956788683E+01 -0.15248489471E+02  0.30849797989E+02  0.00000000000E+00 0.  1.
</event>
<event>
 7    1  0.5979290E-013  0.5930200E+02  0.7816164E-02  0.1266605E+00
        -11   -1    0    0    0    0  0.00000000000E+00  0.00000000000E+00  0.45593999997E+02  0.45594000000E+02  0.51100000000E-03 0.  1.
         11   -1    0    0    0    0 -0.00000000000E+00 -0.00000000000E+00 -0.45593999997E+02  0.45594000000E+02  0.51100000000E-03 0. -1.
    9900012    2    1    2    0    0  0.18764340974E+01 -0.83796472752E+01 -0.30707936003E+02  0.59302002651E+02  0.50000106914E+02 0.  0.
        -12    1    1    2    0    0 -0.18764340974E+01  0.83796472752E+01  0.30707936003E+02  0.31885997349E+02  0.00000000000E+00 0.  1.
         11    1    3    3    0    0 -0.13566223133E+01 -0.20993735399E+02 -0.50724099857E+01  0.21640394946E+02  0.51100000000E-03 0. -1.
        -11    1    3    3    0    0 -0.42534450991E+01  0.15641483947E+02 -0.76041405400E+01  0.17904490188E+02  0.51100000000E-03 0.  1.
         12    1    3    3    0    0  0.74865015098E+01 -0.30273958229E+01 -0.18031385478E+02  0.19757117517E+02  0.00000000000E+00 0. -1.
</event>
<event>
 7    1  0.5979290E-013  0.5930197E+02  0.7816164E-02  0.1266605E+00
        -11   -1    0    0    0    0  0.00000000000E+00  0.00000000000E+00  0.45593999997E+02  0.45594000000E+02  0.51100000000E-03 0. -1.
         11   -1    0    0    0    0 -0.00000000000E+00 -0.00000000000E+00 -0.45593999997E+02  0.45594000000E+02  0.51100000000E-03 0.  1.
    9900012    2    1    2    0    0  0.25162039693E+02  0.21418162259E+01 -0.19468013994E+02  0.59301965641E+02  0.50000039418E+02 0.  0.
        -12    1    1    2    0    0 -0.25162039693E+02 -0.21418162259E+01  0.19468013994E+02  0.31886034359E+02  0.00000000000E+00 0.  1.
         11    1    3    3    0    0 -0.69880864343E+01  0.61452219962E+01  0.61884644732E+01  0.11175607285E+02  0.51100000000E-03 0. -1.
        -11    1    3    3    0    0  0.31713845625E+02 -0.10174008754E+02 -0.16745160154E+02  0.37278396522E+02  0.51100000000E-03 0.  1.
        -12    1    3    3    0    0  0.43628050241E+00  0.61706029840E+01 -0.89113183136E+01  0.10847961834E+02  0.00000000000E+00 0.  1.
</event>
<event>
 7    1  0.5979290E-013  0.5930193E+02  0.7816164E-02  0.1266605E+00
        -11   -1    0    0    0    0  0.00000000000E+00  0.00000000000E+00  0.45593999997E+02  0.45594000000E+02  0.51100000000E-03 0.  1.
         11   -1    0    0    0    0 -0.00000000000E+00 -0.00000000000E+00 -0.45593999997E+02  0.45594000000E+02  0.51100000000E-03 0. -1.
    9900012    2    1    2    0    0  0.15672513309E+01  0.29701507290E+01 -0.31708732098E+02  0.59301925244E+02  0.49999965744E+02 0.  0.
        -12    1    1    2    0    0 -0.15672513309E+01 -0.29701507290E+01  0.31708732098E+02  0.31886074756E+02  0.00000000000E+00 0.  1.
         11    1    3    3    0    0  0.28275900473E+00  0.48134095263E+01 -0.30291439724E+02  0.30672792255E+02  0.51100000000E-03 0. -1.
        -11    1    3    3    0    0  0.34352522054E+01  0.13065840287E+02 -0.12140358509E+01  0.13564329081E+02  0.51100000000E-03 0.  1.
         12    1    3    3    0    0 -0.21507598792E+01 -0.14909099084E+02 -0.20325652265E+00  0.15064803908E+02  0.00000000000E+00 0. -1.
</event>
<event>
 7    1  0.5979290E-013  0.5930199E+02  0.7816164E-02  0.1266605E+00
        -11   -1    0    0    0    0  0.00000000000E+00  0.00000000000E+00  0.45593999997E+02  0.45594000000E+02  0.51100000000E-03 0.  1.
         11   -1    0    0    0    0 -0.00000000000E+00 -0.00000000000E+00 -0.45593999997E+02  0.45594000000E+02  0.51100000000E-03 0. -1.
    9900012    2    1    2    0    0  0.28653572290E+01 -0.22886004011E+02 -0.22016771184E+02  0.59301989510E+02  0.50000082948E+02 0.  0.
        -12    1    1    2    0    0 -0.28653572290E+01  0.22886004011E+02  0.22016771184E+02  0.31886010490E+02  0.00000000000E+00 0.  1.
         11    1    3    3    0    0  0.13505561948E+02 -0.75147782342E+01 -0.28546583598E+02  0.32461970532E+02  0.51100000000E-03 0. -1.
        -11    1    3    3    0    0 -0.59416291858E+01 -0.23340646816E+01  0.10620069063E+02  0.12390991990E+02  0.51100000000E-03 0.  1.
         12    1    3    3    0    0 -0.46985755329E+01 -0.13037161095E+02 -0.40902566485E+01  0.14449026988E+02  0.00000000000E+00 0. -1.
</event>
<event>
 7    1  0.5979290E-013  0.5930196E+02  0.7816164E-02  0.1266605E+00
        -11   -1    0    0    0    0  0.00000000000E+00  0.00000000000E+00  0.45593999997E+02  0.45594000000E+02  0.51100000000E-03 0.  1.
         11   -1    0    0    0    0 -0.00000000000E+00 -0.00000000000E+00 -0.45593999997E+02  0.45594000000E+02  0.51100000000E-03 0. -1.
    9900012    2    1    2    0    0 -0.15916678401E+02 -0.26579902405E+02  0.75424016066E+01  0.59301957831E+02  0.50000025175E+02 0.  0.
        -12    1    1    2    0    0  0.15916678401E+02  0.26579902405E+02 -0.75424016066E+01  0.31886042169E+02  0.00000000000E+00 0.  1.
         11    1    3    3    0    0 -0.24255989889E+02 -0.12116728876E+02  0.10520216072E+02  0.29083382035E+02  0.51100000000E-03 0. -1.
        -11    1    3    3    0    0  0.15986935978E+02 -0.78006512822E+01  0.35736116577E+01  0.18143951690E+02  0.51100000000E-03 0.  1.
         12    1    3    3    0    0 -0.76476244901E+01 -0.66625222475E+01 -0.65514261235E+01  0.12074624106E+02  0.00000000000E+00 0. -1.
</event>
<event>
 7    1  0.5979290E-013  0.5930195E+02  0.7816164E-02  0.1266605E+00
        -11   -1    0    0    0    0  0.00000000000E+00  0.00000000000E+00  0.45593999997E+02  0.45594000000E+02  0.51100000000E-03 0.  1.
         11   -1    0    0    0    0 -0.00000000000E+00 -0.00000000000E+00 -0.45593999997E+02  0.45594000000E+02  0.51100000000E-03 0. -1.
    9900012    2    1    2    0    0 -0.17928092797E+02  0.86621234760E+01 -0.24905246964E+02  0.59301949432E+02  0.50000009857E+02 0.  0.
        -12    1    1    2    0    0  0.17928092797E+02 -0.86621234760E+01  0.24905246964E+02  0.31886050568E+02  0.00000000000E+00 0.  1.
         11    1    3    3    0    0 -0.19093773973E+02 -0.82550102365E+01 -0.21372910567E+02  0.29824800165E+02  0.51100000000E-03 0. -1.
        -11    1    3    3    0    0 -0.59704564863E+01  0.11023644453E+02  0.78617784496E+01  0.14797792009E+02  0.51100000000E-03 0.  1.
         12    1    3    3    0    0  0.71361376620E+01  0.58934892594E+01 -0.11394114847E+02  0.14679357259E+02  0.00000000000E+00 0. -1.
</event>
<event>
 7    1  0.5979290E-013  0.5930195E+02  0.7816164E-02  0.1266605E+00
        -11   -1    0    0    0    0  0.00000000000E+00  0.00000000000E+00  0.45593999997E+02  0.45594000000E+02  0.51100000000E-03 0.  1.
         11   -1    0    0    0    0 -0.00000000000E+00 -0.00000000000E+00 -0.45593999997E+02  0.45594000000E+02  0.51100000000E-03 0. -1.
    9900012    2    1    2    0    0  0.23268174429E+00 -0.15829370496E+02  0.27678462860E+02  0.59301946349E+02  0.50000004234E+02 0.  0.
        -12    1    1    2    0    0 -0.23268174429E+00  0.15829370496E+02 -0.27678462860E+02  0.31886053651E+02  0.00000000000E+00 0.  1.
         11    1    3    3    0    0 -0.52428787898E+01  0.32346526323E+01 -0.10444695477E+01  0.62483335821E+01  0.51100000000E-03 0. -1.
        -11    1    3    3    0    0  0.59470116431E+01 -0.14117686515E+02  0.38856600842E+02  0.41767349082E+02  0.51100000000E-03 0.  1.
        -12    1    3    3    0    0 -0.47145110901E+00 -0.49463366134E+01 -0.10133668434E+02  0.11286263685E+02  0.00000000000E+00 0.  1.
</event>
<event>
 7    1  0.5979290E-013  0.5930192E+02  0.7816164E-02  0.1266605E+00
        -11   -1    0    0    0    0  0.00000000000E+00  0.00000000000E+00  0.45593999997E+02  0.45594000000E+02  0.51100000000E-03 0.  1.
         11   -1    0    0    0    0 -0.00000000000E+00 -0.00000000000E+00 -0.45593999997E+02  0.45594000000E+02  0.51100000000E-03 0. -1.
    9900012    2    1    2    0    0  0.26282297002E+02  0.13913534683E+02 -0.11505504878E+02  0.59301917996E+02  0.49999952524E+02 0.  0.
        -12    1    1    2    0    0 -0.26282297002E+02 -0.13913534683E+02  0.11505504878E+02  0.31886082004E+02  0.00000000000E+00 0.  1.
         11    1    3    3    0    0  0.24391414145E+02 -0.45610777712E+01  0.69462278438E+01  0.25768092594E+02  0.51100000000E-03 0. -1.
        -11    1    3    3    0    0 -0.34589504505E+01 -0.37406948213E+01 -0.42046714452E+01  0.66057852060E+01  0.51100000000E-03 0.  1.
         12    1    3    3    0    0  0.53498333077E+01  0.22215307276E+02 -0.14247061276E+02  0.26928040196E+02  0.00000000000E+00 0. -1.
</event>
<event>
 7    1  0.5979290E-013  0.5930195E+02  0.7816164E-02  0.1266605E+00
        -11   -1    0    0    0    0  0.00000000000E+00  0.00000000000E+00  0.45593999997E+02  0.45594000000E+02  0.51100000000E-03 0.  1.
         11   -1    0    0    0    0 -0.00000000000E+00 -0.00000000000E+00 -0.45593999997E+02  0.45594000000E+02  0.51100000000E-03 0. -1.
    9900012    2    1    2    0    0  0.25238376409E+02 -0.51358793302E+01 -0.18798066106E+02  0.59301949922E+02  0.50000010749E+02 0.  0.
        -12    1    1    2    0    0 -0.25238376409E+02  0.51358793302E+01  0.18798066106E+02  0.31886050078E+02  0.00000000000E+00 0.  1.
         11    1    3    3    0    0  0.22649585616E+02  0.58313101382E+01 -0.18610066617E+01  0.23462123786E+02  0.51100000000E-03 0. -1.
        -11    1    3    3    0    0  0.68770824485E+01 -0.20013631058E+02 -0.87211800391E+01  0.22888832925E+02  0.51100000000E-03 0.  1.
        -12    1    3    3    0    0 -0.42882916554E+01  0.90464415893E+01 -0.82158794052E+01  0.12950993211E+02  0.00000000000E+00 0.  1.
</event>
<event>
 7    1  0.5979290E-013  0.5930191E+02  0.7816164E-02  0.1266605E+00
        -11   -1    0    0    0    0  0.00000000000E+00  0.00000000000E+00  0.45593999997E+02  0.45594000000E+02  0.51100000000E-03 0.  1.
         11   -1    0    0    0    0 -0.00000000000E+00 -0.00000000000E+00 -0.45593999997E+02  0.45594000000E+02  0.51100000000E-03 0. -1.
    9900012    2    1    2    0    0  0.23060114082E+02 -0.20935479472E+02 -0.68307743137E+01  0.59301911498E+02  0.49999940674E+02 0.  0.
        -12    1    1    2    0    0 -0.23060114082E+02  0.20935479472E+02  0.68307743137E+01  0.31886088502E+02  0.00000000000E+00 0.  1.
         11    1    3    3    0    0  0.86293458815E+01 -0.22942782801E+02  0.15798653639E+01  0.24562835094E+02  0.51100000000E-03 0. -1.
        -11    1    3    3    0    0  0.20302426703E+02  0.10314576042E+02 -0.91444896912E+01  0.24539777931E+02  0.51100000000E-03 0.  1.
        -12    1    3    3    0    0 -0.58716585021E+01 -0.83072727133E+01  0.73385001362E+00  0.10199298473E+02  0.00000000000E+00 0.  1.
</event>
<event>
 7    1  0.5979290E-013  0.5930188E+02  0.7816164E-02  0.1266605E+00
        -11   -1    0    0    0    0  0.00000000000E+00  0.00000000000E+00  0.45593999997E+02  0.45594000000E+02  0.51100000000E-03 0. -1.
         11   -1    0    0    0    0 -0.00000000000E+00 -0.00000000000E+00 -0.45593999997E+02  0.45594000000E+02  0.51100000000E-03 0.  1.
    9900012    2    1    2    0    0 -0.21363207002E+02  0.23162353331E+02  0.48829436108E+01  0.59301884471E+02  0.49999891382E+02 0.  0.
        -12    1    1    2    0    0  0.21363207002E+02 -0.23162353331E+02 -0.48829436108E+01  0.31886115529E+02  0.00000000000E+00 0.  1.
         11    1    3    3    0    0  0.17860046639E+00  0.22163348878E+01  0.39098810680E+01  0.44979115919E+01  0.51100000000E-03 0. -1.
        -11    1    3    3    0    0 -0.55080688661E+01  0.27837983423E+02 -0.14151012511E+02  0.31710302727E+02  0.51100000000E-03 0.  1.
        -12    1    3    3    0    0 -0.16033738603E+02 -0.68919649801E+01  0.15124075053E+02  0.23093670152E+02  0.00000000000E+00 0.  1.
</event>
<event>
 7    1  0.5979290E-013  0.5930190E+02  0.7816164E-02  0.1266605E+00
        -11   -1    0    0    0    0  0.00000000000E+00  0.00000000000E+00  0.45593999997E+02  0.45594000000E+02  0.51100000000E-03 0.  1.
         11   -1    0    0    0    0 -0.00000000000E+00 -0.00000000000E+00 -0.45593999997E+02  0.45594000000E+02  0.51100000000E-03 0. -1.
    9900012    2    1    2    0    0  0.11658740027E+02  0.13710409402E+02 -0.26321508082E+02  0.59301900635E+02  0.49999920862E+02 0.  0.
        -12    1    1    2    0    0 -0.11658740027E+02 -0.13710409402E+02  0.26321508082E+02  0.31886099365E+02  0.00000000000E+00 0.  1.
         11    1    3    3    0    0  0.78244224524E+01  0.42533486713E+01 -0.10894267429E+02  0.14071162877E+02  0.51100000000E-03 0. -1.
        -11    1    3    3    0    0 -0.17429249569E+02  0.11685286469E+02 -0.57155836177E+01  0.21748392050E+02  0.51100000000E-03 0.  1.
        -12    1    3    3    0    0  0.21263567144E+02 -0.22282257380E+01 -0.97116570353E+01  0.23482345709E+02  0.00000000000E+00 0.  1.
</event>
<event>
 7    1  0.5979290E-013  0.5930195E+02  0.7816164E-02  0.1266605E+00
        -11   -1    0    0    0    0  0.00000000000E+00  0.00000000000E+00  0.45593999997E+02  0.45594000000E+02  0.51100000000E-03 0. -1.
         11   -1    0    0    0    0 -0.00000000000E+00 -0.00000000000E+00 -0.45593999997E+02  0.45594000000E+02  0.51100000000E-03 0.  1.
    9900012    2    1    2    0    0  0.24308221970E+01  0.10115103514E+02  0.30141270088E+02  0.59301946965E+02  0.50000005356E+02 0.  0.
        -12    1    1    2    0    0 -0.24308221970E+01 -0.10115103514E+02 -0.30141270088E+02  0.31886053035E+02  0.00000000000E+00 0.  1.
         11    1    3    3    0    0  0.11358613767E+02  0.24763000991E+02  0.15505171726E+02  0.31347004248E+02  0.51100000000E-03 0. -1.
        -11    1    3    3    0    0 -0.12291688536E+01 -0.15857211125E+02  0.84831938278E+01  0.18025719916E+02  0.51100000000E-03 0.  1.
        -12    1    3    3    0    0 -0.76986227160E+01  0.12093136474E+01  0.61529045341E+01  0.99292228007E+01  0.00000000000E+00 0.  1.
</event>
<event>
 7    1  0.5979290E-013  0.5930195E+02  0.7816164E-02  0.1266605E+00
        -11   -1    0    0    0    0  0.00000000000E+00  0.00000000000E+00  0.45593999997E+02  0.45594000000E+02  0.51100000000E-03 0. -1.
         11   -1    0    0    0    0 -0.00000000000E+00 -0.00000000000E+00 -0.45593999997E+02  0.45594000000E+02  0.51100000000E-03 0.  1.
    9900012    2    1    2    0    0 -0.12214917015E+02 -0.55523443439E+01  0.28925552828E+02  0.59301947692E+02  0.50000006682E+02 0.  0.
        -12    1    1    2    0    0  0.12214917015E+02  0.55523443439E+01 -0.28925552828E+02  0.31886052308E+02  0.00000000000E+00 0.  1.
         11    1    3    3    0    0 -0.21683375397E+02  0.84549194863E+01  0.11600169685E+02  0.26004199067E+02  0.51100000000E-03 0. -1.
        -11    1    3    3    0    0  0.28596920381E+01 -0.96861297009E+01 -0.37644518074E+01  0.10778220855E+02  0.51100000000E-03 0.  1.
        -12    1    3    3    0    0  0.66087663435E+01 -0.43211341293E+01  0.21089834950E+02  0.22519527770E+02  0.00000000000E+00 0.  1.
</event>
<event>
 7    1  0.5979290E-013  0.5930194E+02  0.7816164E-02  0.1266605E+00
        -11   -1    0    0    0    0  0.00000000000E+00  0.00000000000E+00  0.45593999997E+02  0.45594000000E+02  0.51100000000E-03 0.  1.
         11   -1    0    0    0    0 -0.00000000000E+00 -0.00000000000E+00 -0.45593999997E+02  0.45594000000E+02  0.51100000000E-03 0. -1.
    9900012    2    1    2    0    0  0.18101285398E+02  0.26241438664E+02 -0.67153606534E+00  0.59301943535E+02  0.49999999101E+02 0.  0.
        -12    1    1    2    0    0 -0.18101285398E+02 -0.26241438664E+02  0.67153606534E+00  0.31886056465E+02  0.00000000000E+00 0.  1.
         11    1    3    3    0    0  0.18674045089E+02  0.23727680337E+02  0.19604505702E+02  0.36000825244E+02  0.51100000000E-03 0. -1.
        -11    1    3    3    0    0  0.25172321160E+01  0.42536250818E+01 -0.18836063223E+02  0.19473753153E+02  0.51100000000E-03 0.  1.
         12    1    3    3    0    0 -0.30899918070E+01 -0.17398667545E+01 -0.14399785450E+01  0.38273651381E+01  0.00000000000E+00 0. -1.
</event>
<event>
 7    1  0.5979290E-013  0.5930188E+02  0.7816164E-02  0.1266605E+00
        -11   -1    0    0    0    0  0.00000000000E+00  0.00000000000E+00  0.45593999997E+02  0.45594000000E+02  0.51100000000E-03 0. -1.
         11   -1    0    0    0    0 -0.00000000000E+00 -0.00000000000E+00 -0.45593999997E+02  0.45594000000E+02  0.51100000000E-03 0.  1.
    9900012    2    1    2    0    0  0.12980499363E+02 -0.71357266697E+01  0.28236728937E+02  0.59301877315E+02  0.49999878333E+02 0.  0.
        -12    1    1    2    0    0 -0.12980499363E+02  0.71357266697E+01 -0.28236728937E+02  0.31886122685E+02  0.00000000000E+00 0.  1.
         11    1    3    3    0    0  0.15486923655E+02 -0.16420966192E+01 -0.18596283761E+01  0.15684371316E+02  0.51100000000E-03 0.  1.
        -11    1    3    3    0    0 -0.13524887932E+02  0.20292581623E+01  0.26465936634E+02  0.29790708021E+02  0.51100000000E-03 0. -1.
         12    1    3    3    0    0  0.11018463639E+02 -0.75228882129E+01  0.36304206791E+01  0.13826797979E+02  0.00000000000E+00 0. -1.
</event>
<event>
 7    1  0.5979290E-013  0.5930194E+02  0.7816164E-02  0.1266605E+00
        -11   -1    0    0    0    0  0.00000000000E+00  0.00000000000E+00  0.45593999997E+02  0.45594000000E+02  0.51100000000E-03 0.  1.
         11   -1    0    0    0    0 -0.00000000000E+00 -0.00000000000E+00 -0.45593999997E+02  0.45594000000E+02  0.51100000000E-03 0. -1.
    9900012    2    1    2    0    0  0.82950668497E+01 -0.25226742604E+02 -0.17650038490E+02  0.59301944503E+02  0.50000000867E+02 0.  0.
        -12    1    1    2    0    0 -0.82950668497E+01  0.25226742604E+02  0.17650038490E+02  0.31886055497E+02  0.00000000000E+00 0.  1.
         11    1    3    3    0    0  0.19168879964E+02 -0.26168479998E+02 -0.11450978707E+02  0.34400003170E+02  0.51100000000E-03 0. -1.
        -11    1    3    3    0    0 -0.31287307530E+01  0.34926391022E+01 -0.13291712424E+02  0.14094577094E+02  0.51100000000E-03 0.  1.
        -12    1    3    3    0    0 -0.77450823618E+01 -0.25509017089E+01  0.70926526412E+01  0.10807364240E+02  0.00000000000E+00 0.  1.
</event>
<event>
 7    1  0.5979290E-013  0.5930195E+02  0.7816164E-02  0.1266605E+00
        -11   -1    0    0    0    0  0.00000000000E+00  0.00000000000E+00  0.45593999997E+02  0.45594000000E+02  0.51100000000E-03 0.  1.
         11   -1    0    0    0    0 -0.00000000000E+00 -0.00000000000E+00 -0.45593999997E+02  0.45594000000E+02  0.51100000000E-03 0. -1.
    9900012    2    1    2    0    0  0.53883299088E+01 -0.11583112371E+02 -0.29215019474E+02  0.59301953612E+02  0.50000017480E+02 0.  0.
        -12    1    1    2    0    0 -0.53883299088E+01  0.11583112371E+02  0.29215019474E+02  0.31886046388E+02  0.00000000000E+00 0.  1.
         11    1    3    3    0    0  0.20756665955E+01  0.37351458356E+00 -0.30351104937E+02  0.30424290889E+02  0.51100000000E-03 0. -1.
        -11    1    3    3    0    0  0.98030328462E+01 -0.83717974221E+01  0.10715978750E+02  0.16763610765E+02  0.51100000000E-03 0.  1.
        -12    1    3    3    0    0 -0.64903695329E+01 -0.35848295327E+01 -0.95798932864E+01  0.12114051958E+02  0.00000000000E+00 0.  1.
</event>
<event>
 7    1  0.5979290E-013  0.5930193E+02  0.7816164E-02  0.1266605E+00
        -11   -1    0    0    0    0  0.00000000000E+00  0.00000000000E+00  0.45593999997E+02  0.45594000000E+02  0.51100000000E-03 0.  1.
         11   -1    0    0    0    0 -0.00000000000E+00 -0.00000000000E+00 -0.45593999997E+02  0.45594000000E+02  0.51100000000E-03 0. -1.
    9900012    2    1    2    0    0  0.22002561773E+02  0.22253306495E+02 -0.61154841266E+01  0.59301929050E+02  0.49999972684E+02 0.  0.
        -12    1    1    2    0    0 -0.22002561773E+02 -0.22253306495E+02  0.61154841266E+01  0.31886070950E+02  0.00000000000E+00 0.  1.
         11    1    3    3    0    0  0.47621311146E+00  0.15442647304E+02  0.15034881052E+02  0.21558056109E+02  0.51100000000E-03 0. -1.
        -11    1    3    3    0    0  0.57125069244E+01 -0.62476798328E+01 -0.13338095194E+02  0.15797817012E+02  0.51100000000E-03 0.  1.
        -12    1    3    3    0    0  0.15813841737E+02  0.13058339023E+02 -0.78122699846E+01  0.21946055929E+02  0.00000000000E+00 0.  1.
</event>
<event>
 7    1  0.5979290E-013  0.5930195E+02  0.7816164E-02  0.1266605E+00
        -11   -1    0    0    0    0  0.00000000000E+00  0.00000000000E+00  0.45593999997E+02  0.45594000000E+02  0.51100000000E-03 0.  1.
         11   -1    0    0    0    0 -0.00000000000E+00 -0.00000000000E+00 -0.45593999997E+02  0.45594000000E+02  0.51100000000E-03 0. -1.
    9900012    2    1    2    0    0 -0.21289494340E+02 -0.15147846544E+02 -0.18276226609E+02  0.59301948454E+02  0.50000008072E+02 0.  0.
        -12    1    1    2    0    0  0.21289494340E+02  0.15147846544E+02  0.18276226609E+02  0.31886051546E+02  0.00000000000E+00 0.  1.
         11    1    3    3    0    0  0.21643206174E+01 -0.97131036422E+01 -0.26784974729E+02  0.28573826093E+02  0.51100000000E-03 0.  1.
        -11    1    3    3    0    0 -0.13196343502E+02 -0.11350646631E+02  0.29791144456E+01  0.17659438947E+02  0.51100000000E-03 0. -1.
        -12    1    3    3    0    0 -0.10257471455E+02  0.59159037296E+01  0.55296336746E+01  0.13068683414E+02  0.00000000000E+00 0.  1.
</event>
<event>
 7    1  0.5979290E-013  0.5930197E+02  0.7816164E-02  0.1266605E+00
        -11   -1    0    0    0    0  0.00000000000E+00  0.00000000000E+00  0.45593999997E+02  0.45594000000E+02  0.51100000000E-03 0. -1.
         11   -1    0    0    0    0 -0.00000000000E+00 -0.00000000000E+00 -0.45593999997E+02  0.45594000000E+02  0.51100000000E-03 0.  1.
    9900012    2    1    2    0    0  0.13586628177E+02 -0.27842301671E+02  0.75451224915E+01  0.59301966992E+02  0.50000041882E+02 0.  0.
        -12    1    1    2    0    0 -0.13586628177E+02  0.27842301671E+02 -0.75451224915E+01  0.31886033008E+02  0.00000000000E+00 0.  1.
         11    1    3    3    0    0 -0.75072018176E+00 -0.11762196183E+02  0.42303080971E+01  0.12522313951E+02  0.51100000000E-03 0. -1.
        -11    1    3    3    0    0  0.20151091252E+02  0.55278583752E+01 -0.71394575318E+01  0.22081565863E+02  0.51100000000E-03 0.  1.
        -12    1    3    3    0    0 -0.58137428929E+01 -0.21607963863E+02  0.10454271926E+02  0.24698087178E+02  0.00000000000E+00 0.  1.
</event>
<event>
 7    1  0.5979290E-013  0.5930189E+02  0.7816164E-02  0.1266605E+00
        -11   -1    0    0    0    0  0.00000000000E+00  0.00000000000E+00  0.45593999997E+02  0.45594000000E+02  0.51100000000E-03 0.  1.
         11   -1    0    0    0    0 -0.00000000000E+00 -0.00000000000E+00 -0.45593999997E+02  0.45594000000E+02  0.51100000000E-03 0. -1.
    9900012    2    1    2    0    0  0.28606701437E+02 -0.16505921319E+01 -0.13987710369E+02  0.59301892323E+02  0.49999905702E+02 0.  0.
        -12    1    1    2    0    0 -0.28606701437E+02  0.16505921319E+01  0.13987710369E+02  0.31886107677E+02  0.00000000000E+00 0.  1.
         11    1    3    3    0    0  0.27419356363E+02 -0.21327525282E+02 -0.15601194473E+02  0.38079938383E+02  0.51100000000E-03 0. -1.
        -11    1    3    3    0    0  0.35126044315E+01  0.17293654012E+02  0.31952063856E+00  0.17649672877E+02  0.51100000000E-03 0.  1.
         12    1    3    3    0    0 -0.23252593581E+01  0.23832791388E+01  0.12939634655E+01  0.35722810620E+01  0.00000000000E+00 0. -1.
</event>
<event>
 7    1  0.5979290E-013  0.5930195E+02  0.7816164E-02  0.1266605E+00
        -11   -1    0    0    0    0  0.00000000000E+00  0.00000000000E+00  0.45593999997E+02  0.45594000000E+02  0.51100000000E-03 0.  1.
         11   -1    0    0    0    0 -0.00000000000E+00 -0.00000000000E+00 -0.45593999997E+02  0.45594000000E+02  0.51100000000E-03 0. -1.
    9900012    2    1    2    0    0 -0.10912011459E+02 -0.21380443338E+02 -0.20988687309E+02  0.59301947463E+02  0.50000006266E+02 0.  0.
        -12    1    1    2    0    0  0.10912011459E+02  0.21380443338E+02  0.20988687309E+02  0.31886052537E+02  0.00000000000E+00 0.  1.
         11    1    3    3    0    0  0.23878804940E+00 -0.18077211718E+02 -0.34330078470E+02  0.38799444471E+02  0.51100000000E-03 0. -1.
        -11    1    3    3    0    0 -0.85190568070E+00 -0.39860140431E+01  0.77677977481E+01  0.87722707070E+01  0.51100000000E-03 0.  1.
         12    1    3    3    0    0 -0.10298893828E+02  0.68278242340E+00  0.55735934135E+01  0.11730232285E+02  0.00000000000E+00 0. -1.
</event>
<event>
 7    1  0.5979290E-013  0.5930196E+02  0.7816164E-02  0.1266605E+00
        -11   -1    0    0    0    0  0.00000000000E+00  0.00000000000E+00  0.45593999997E+02  0.45594000000E+02  0.51100000000E-03 0.  1.
         11   -1    0    0    0    0 -0.00000000000E+00 -0.00000000000E+00 -0.45593999997E+02  0.45594000000E+02  0.51100000000E-03 0. -1.
    9900012    2    1    2    0    0 -0.29498717339E+02 -0.68952524938E+01  0.99499215732E+01  0.59301956487E+02  0.50000022723E+02 0.  0.
        -12    1    1    2    0    0  0.29498717339E+02  0.68952524938E+01 -0.99499215732E+01  0.31886043513E+02  0.00000000000E+00 0.  1.
         11    1    3    3    0    0 -0.20630033067E+02 -0.20838355552E+02  0.67022611113E+01  0.30079156084E+02  0.51100000000E-03 0. -1.
        -11    1    3    3    0    0 -0.11625270829E+02  0.18679137205E+02  0.63841372887E+01  0.22908825762E+02  0.51100000000E-03 0.  1.
        -12    1    3    3    0    0  0.27565865576E+01 -0.47360341467E+01 -0.31364768268E+01  0.63139746415E+01  0.00000000000E+00 0.  1.
</event>
<event>
 7    1  0.5979290E-013  0.5930190E+02  0.7816164E-02  0.1266605E+00
        -11   -1    0    0    0    0  0.00000000000E+00  0.00000000000E+00  0.45593999997E+02  0.45594000000E+02  0.51100000000E-03 0.  1.
         11   -1    0    0    0    0 -0.00000000000E+00 -0.00000000000E+00 -0.45593999997E+02  0.45594000000E+02  0.51100000000E-03 0. -1.
    9900012    2    1    2    0    0 -0.24385770120E+02 -0.19863407445E+01 -0.20447789228E+02  0.59301899295E+02  0.49999918418E+02 0.  0.
        -12    1    1    2    0    0  0.24385770120E+02  0.19863407445E+01  0.20447789228E+02  0.31886100705E+02  0.00000000000E+00 0.  1.
         11    1    3    3    0    0 -0.32620389951E+01  0.15238565717E+01  0.20918084525E+01  0.41639764792E+01  0.51100000000E-03 0. -1.
        -11    1    3    3    0    0  0.26138544150E+01 -0.15852379376E+02 -0.23382391552E+02  0.28370167461E+02  0.51100000000E-03 0.  1.
        -12    1    3    3    0    0 -0.23737585539E+02  0.12342182059E+02  0.84279387186E+00  0.26767755355E+02  0.00000000000E+00 0.  1.
</event>
<event>
 7    1  0.5979290E-013  0.5930198E+02  0.7816164E-02  0.1266605E+00
        -11   -1    0    0    0    0  0.00000000000E+00  0.00000000000E+00  0.45593999997E+02  0.45594000000E+02  0.51100000000E-03 0.  1.
         11   -1    0    0    0    0 -0.00000000000E+00 -0.00000000000E+00 -0.45593999997E+02  0.45594000000E+02  0.51100000000E-03 0. -1.
    9900012    2    1    2    0    0  0.15529920561E+02  0.13361836974E+02 -0.24433610419E+02  0.59301977388E+02  0.50000060840E+02 0.  0.
        -12    1    1    2    0    0 -0.15529920561E+02 -0.13361836974E+02  0.24433610419E+02  0.31886022612E+02  0.00000000000E+00 0.  1.
         11    1    3    3    0    0 -0.55193542534E+01  0.13628671803E+01 -0.31475903404E+02  0.31985202417E+02  0.51100000000E-03 0.  1.
        -11    1    3    3    0    0  0.20146278573E+02  0.76779068520E+01  0.76156751775E+01  0.22865285973E+02  0.51100000000E-03 0. -1.
         12    1    3    3    0    0  0.90299624157E+00  0.43210629412E+01 -0.57338219237E+00  0.44514889973E+01  0.00000000000E+00 0. -1.
</event>
<event>
 7    1  0.5979290E-013  0.5930196E+02  0.7816164E-02  0.1266605E+00
        -11   -1    0    0    0    0  0.00000000000E+00  0.00000000000E+00  0.45593999997E+02  0.45594000000E+02  0.51100000000E-03 0.  1.
         11   -1    0    0    0    0 -0.00000000000E+00 -0.00000000000E+00 -0.45593999997E+02  0.45594000000E+02  0.51100000000E-03 0. -1.
    9900012    2    1    2    0    0  0.27005756350E+02 -0.16912293495E+02  0.11760366251E+01  0.59301959019E+02  0.50000027340E+02 0.  0.
        -12    1    1    2    0    0 -0.27005756350E+02  0.16912293495E+02 -0.11760366251E+01  0.31886040981E+02  0.00000000000E+00 0.  1.
         11    1    3    3    0    0  0.13775893001E+02 -0.45485780853E+01 -0.48752706893E+01  0.15304674290E+02  0.51100000000E-03 0. -1.
        -11    1    3    3    0    0 -0.26019051348E+00  0.12855419580E+02  0.83069692808E+01  0.15308012626E+02  0.51100000000E-03 0.  1.
        -12    1    3    3    0    0  0.13490053863E+02 -0.25219134990E+02 -0.22556619665E+01  0.28689272102E+02  0.00000000000E+00 0.  1.
</event>
<event>
 7    1  0.5979290E-013  0.5930194E+02  0.7816164E-02  0.1266605E+00
        -11   -1    0    0    0    0  0.00000000000E+00  0.00000000000E+00  0.45593999997E+02  0.45594000000E+02  0.51100000000E-03 0.  1.
         11   -1    0    0    0    0 -0.00000000000E+00 -0.00000000000E+00 -0.45593999997E+02  0.45594000000E+02  0.51100000000E-03 0. -1.
    9900012    2    1    2    0    0  0.12589063048E+02  0.27655728993E+02  0.96642235532E+01  0.59301936093E+02  0.49999985530E+02 0.  0.
        -12    1    1    2    0    0 -0.12589063048E+02 -0.27655728993E+02 -0.96642235532E+01  0.31886063907E+02  0.00000000000E+00 0.  1.
         11    1    3    3    0    0  0.10692326913E+01  0.12144152109E+02 -0.65703764889E+01  0.13848954346E+02  0.51100000000E-03 0.  1.
        -11    1    3    3    0    0  0.15704999080E+02  0.26338889898E+02  0.13619333394E+02  0.33553991707E+02  0.51100000000E-03 0. -1.
        -12    1    3    3    0    0 -0.41851687236E+01 -0.10827313014E+02  0.26152666477E+01  0.11898990040E+02  0.00000000000E+00 0.  1.
</event>
<event>
 7    1  0.5979290E-013  0.5930196E+02  0.7816164E-02  0.1266605E+00
        -11   -1    0    0    0    0  0.00000000000E+00  0.00000000000E+00  0.45593999997E+02  0.45594000000E+02  0.51100000000E-03 0.  1.
         11   -1    0    0    0    0 -0.00000000000E+00 -0.00000000000E+00 -0.45593999997E+02  0.45594000000E+02  0.51100000000E-03 0. -1.
    9900012    2    1    2    0    0  0.15517154697E+02 -0.16860126245E+01 -0.27804583508E+02  0.59301959284E+02  0.50000027825E+02 0.  0.
        -12    1    1    2    0    0 -0.15517154697E+02  0.16860126245E+01  0.27804583508E+02  0.31886040716E+02  0.00000000000E+00 0.  1.
         11    1    3    3    0    0 -0.10817488147E+02  0.58991334043E+01 -0.18048015846E+02  0.21852887704E+02  0.51100000000E-03 0. -1.
        -11    1    3    3    0    0  0.10079950072E+02 -0.11427798952E+02 -0.13470418280E+02  0.20338440236E+02  0.51100000000E-03 0.  1.
         12    1    3    3    0    0  0.16254692772E+02  0.38426529230E+01  0.37138506181E+01  0.17110631345E+02  0.00000000000E+00 0. -1.
</event>
<event>
 7    1  0.5979290E-013  0.5930198E+02  0.7816164E-02  0.1266605E+00
        -11   -1    0    0    0    0  0.00000000000E+00  0.00000000000E+00  0.45593999997E+02  0.45594000000E+02  0.51100000000E-03 0.  1.
         11   -1    0    0    0    0 -0.00000000000E+00 -0.00000000000E+00 -0.45593999997E+02  0.45594000000E+02  0.51100000000E-03 0. -1.
    9900012    2    1    2    0    0 -0.58415286741E+01  0.12905918549E+02 -0.28566275305E+02  0.59301979934E+02  0.50000065484E+02 0.  0.
        -12    1    1    2    0    0  0.58415286741E+01 -0.12905918549E+02  0.28566275305E+02  0.31886020066E+02  0.00000000000E+00 0.  1.
         11    1    3    3    0    0  0.88686265835E+01  0.21884458786E+02 -0.32301202282E+01  0.23833081017E+02  0.51100000000E-03 0. -1.
        -11    1    3    3    0    0 -0.75718673225E+01 -0.34182885653E+01  0.26897612396E+00  0.83120526876E+01  0.51100000000E-03 0.  1.
         12    1    3    3    0    0 -0.71382879350E+01 -0.55602516713E+01 -0.25605131201E+02  0.27156846229E+02  0.00000000000E+00 0. -1.
</event>
<event>
 7    1  0.5979290E-013  0.5930195E+02  0.7816164E-02  0.1266605E+00
        -11   -1    0    0    0    0  0.00000000000E+00  0.00000000000E+00  0.45593999997E+02  0.45594000000E+02  0.51100000000E-03 0.  1.
         11   -1    0    0    0    0 -0.00000000000E+00 -0.00000000000E+00 -0.45593999997E+02  0.45594000000E+02  0.51100000000E-03 0. -1.
    9900012    2    1    2    0    0  0.18951603526E+02 -0.21825967631E+02 -0.13460466457E+02  0.59301948246E+02  0.50000007692E+02 0.  0.
        -12    1    1    2    0    0 -0.18951603526E+02  0.21825967631E+02  0.13460466457E+02  0.31886051754E+02  0.00000000000E+00 0.  1.
         11    1    3    3    0    0  0.11124393079E+02 -0.13106152544E+02 -0.20371508368E+02  0.26655613093E+02  0.51100000000E-03 0. -1.
        -11    1    3    3    0    0 -0.32467785106E+01  0.96173047780E+01  0.42849153132E-01  0.10150662944E+02  0.51100000000E-03 0.  1.
         12    1    3    3    0    0  0.11073988957E+02 -0.18337119865E+02  0.68681927581E+01  0.22495672209E+02  0.00000000000E+00 0. -1.
</event>
<event>
 7    1  0.5979290E-013  0.5930195E+02  0.7816164E-02  0.1266605E+00
        -11   -1    0    0    0    0  0.00000000000E+00  0.00000000000E+00  0.45593999997E+02  0.45594000000E+02  0.51100000000E-03 0. -1.
         11   -1    0    0    0    0 -0.00000000000E+00 -0.00000000000E+00 -0.45593999997E+02  0.45594000000E+02  0.51100000000E-03 0.  1.
    9900012    2    1    2    0    0 -0.79814257436E+01 -0.28721773343E+02 -0.11317089563E+02  0.59301953882E+02  0.50000017972E+02 0.  0.
        -12    1    1    2    0    0  0.79814257436E+01  0.28721773343E+02  0.11317089563E+02  0.31886046118E+02  0.00000000000E+00 0.  1.
         11    1    3    3    0    0  0.14132177232E+01  0.91803921230E+01 -0.54942561947E+01  0.10791831877E+02  0.51100000000E-03 0. -1.
        -11    1    3    3    0    0 -0.54179560415E+01 -0.34208883981E+02 -0.15082839811E+02  0.37776898336E+02  0.51100000000E-03 0.  1.
        -12    1    3    3    0    0 -0.39766874253E+01 -0.36932814849E+01  0.92600064428E+01  0.10733223669E+02  0.00000000000E+00 0.  1.
</event>
<event>
 7    1  0.6611516E-013  0.5930194E+02  0.7816164E-02  0.1266605E+00
        -11   -1    0    0    0    0  0.00000000000E+00  0.00000000000E+00  0.45593999997E+02  0.45594000000E+02  0.51100000000E-03 0.  1.
         11   -1    0    0    0    0 -0.00000000000E+00 -0.00000000000E+00 -0.45593999997E+02  0.45594000000E+02  0.51100000000E-03 0. -1.
    9900012    2    1    2    0    0  0.15611198672E+02  0.20224074136E+02 -0.19078731208E+02  0.59301942182E+02  0.49999996634E+02 0.  0.
        -12    1    1    2    0    0 -0.15611198672E+02 -0.20224074136E+02  0.19078731208E+02  0.31886057818E+02  0.00000000000E+00 0.  1.
         11    1    3    3    0    0  0.18224679147E+02  0.17475335655E+02 -0.26565691696E+02  0.36650542449E+02  0.51100000000E-03 0. -1.
        -11    1    3    3    0    0 -0.87286725614E+01 -0.41548311297E+01 -0.14900283279E+01  0.97812336175E+01  0.51100000000E-03 0.  1.
         12    1    3    3    0    0  0.61151920870E+01  0.69035696114E+01  0.89769888163E+01  0.12870166116E+02  0.00000000000E+00 0. -1.
</event>
<event>
 7    1  0.5979290E-013  0.5930195E+02  0.7816164E-02  0.1266605E+00
        -11   -1    0    0    0    0  0.00000000000E+00  0.00000000000E+00  0.45593999997E+02  0.45594000000E+02  0.51100000000E-03 0. -1.
         11   -1    0    0    0    0 -0.00000000000E+00 -0.00000000000E+00 -0.45593999997E+02  0.45594000000E+02  0.51100000000E-03 0.  1.
    9900012    2    1    2    0    0  0.27817370792E+02 -0.11095783925E+02 -0.10945220667E+02  0.59301946714E+02  0.50000004899E+02 0.  0.
        -12    1    1    2    0    0 -0.27817370792E+02  0.11095783925E+02  0.10945220667E+02  0.31886053286E+02  0.00000000000E+00 0.  1.
         11    1    3    3    0    0 -0.35080476317E+01  0.67496146691E+01  0.11583776032E+02  0.13858122664E+02  0.51100000000E-03 0. -1.
        -11    1    3    3    0    0  0.28529800566E+02 -0.10622198502E+02 -0.12841401008E+02  0.33040614423E+02  0.51100000000E-03 0.  1.
         12    1    3    3    0    0  0.27956178578E+01 -0.72232000921E+01 -0.96875956904E+01  0.12403209626E+02  0.00000000000E+00 0. -1.
</event>
<event>
 7    1  0.5979290E-013  0.5930194E+02  0.7816164E-02  0.1266605E+00
        -11   -1    0    0    0    0  0.00000000000E+00  0.00000000000E+00  0.45593999997E+02  0.45594000000E+02  0.51100000000E-03 0.  1.
         11   -1    0    0    0    0 -0.00000000000E+00 -0.00000000000E+00 -0.45593999997E+02  0.45594000000E+02  0.51100000000E-03 0. -1.
    9900012    2    1    2    0    0 -0.12584981504E+02 -0.17135109427E+02 -0.23763987715E+02  0.59301939619E+02  0.49999991959E+02 0.  0.
        -12    1    1    2    0    0  0.12584981504E+02  0.17135109427E+02  0.23763987715E+02  0.31886060381E+02  0.00000000000E+00 0.  1.
         11    1    3    3    0    0 -0.22001457339E+02 -0.13655816903E+02  0.62225142831E+01  0.26632032303E+02  0.51100000000E-03 0. -1.
        -11    1    3    3    0    0  0.75456600677E+01 -0.77000172276E+00 -0.27547109542E+02  0.28572244100E+02  0.51100000000E-03 0.  1.
        -12    1    3    3    0    0  0.18708157664E+01 -0.27092908013E+01 -0.24393924557E+01  0.40976632159E+01  0.00000000000E+00 0.  1.
</event>
<event>
 7    1  0.5979290E-013  0.5930195E+02  0.7816164E-02  0.1266605E+00
        -11   -1    0    0    0    0  0.00000000000E+00  0.00000000000E+00  0.45593999997E+02  0.45594000000E+02  0.51100000000E-03 0. -1.
         11   -1    0    0    0    0 -0.00000000000E+00 -0.00000000000E+00 -0.45593999997E+02  0.45594000000E+02  0.51100000000E-03 0.  1.
    9900012    2    1    2    0    0 -0.70986030326E+00  0.43395585854E+01  0.31581397092E+02  0.59301947992E+02  0.50000007231E+02 0.  0.
        -12    1    1    2    0    0  0.70986030326E+00 -0.43395585854E+01 -0.31581397092E+02  0.31886052008E+02  0.00000000000E+00 0.  1.
         11    1    3    3    0    0  0.12704123097E+02 -0.35258290236E+01  0.24222624046E+02  0.27578283665E+02  0.51100000000E-03 0. -1.
        -11    1    3    3    0    0 -0.12364278444E+02 -0.46297348033E+01 -0.50000075090E+01  0.14117715861E+02  0.51100000000E-03 0.  1.
        -12    1    3    3    0    0 -0.10497049563E+01  0.12495122412E+02  0.12358780554E+02  0.17605948466E+02  0.00000000000E+00 0.  1.
</event>
<event>
 7    1  0.5979290E-013  0.5930195E+02  0.7816164E-02  0.1266605E+00
        -11   -1    0    0    0    0  0.00000000000E+00  0.00000000000E+00  0.45593999997E+02  0.45594000000E+02  0.51100000000E-03 0. -1.
         11   -1    0    0    0    0 -0.00000000000E+00 -0.00000000000E+00 -0.45593999997E+02  0.45594000000E+02  0.51100000000E-03 0.  1.
    9900012    2    1    2    0    0 -0.60318372463E+01  0.11326724455E+02  0.29189769076E+02  0.59301947153E+02  0.50000005700E+02 0.  0.
        -12    1    1    2    0    0  0.60318372463E+01 -0.11326724455E+02 -0.29189769076E+02  0.31886052847E+02  0.00000000000E+00 0.  1.
         11    1    3    3    0    0 -0.14414123237E+02  0.14194576353E+02  0.25460697578E+02  0.32519226128E+02  0.51100000000E-03 0. -1.
        -11    1    3    3    0    0  0.16611759784E+02 -0.18774534344E+01  0.66537866676E+01  0.17993006191E+02  0.51100000000E-03 0.  1.
        -12    1    3    3    0    0 -0.82294737938E+01 -0.99039846397E+00 -0.29247151694E+01  0.87897148339E+01  0.00000000000E+00 0.  1.
</event>
<event>
 7    1  0.5979290E-013  0.5930194E+02  0.7816164E-02  0.1266605E+00
        -11   -1    0    0    0    0  0.00000000000E+00  0.00000000000E+00  0.45593999997E+02  0.45594000000E+02  0.51100000000E-03 0.  1.
         11   -1    0    0    0    0 -0.00000000000E+00 -0.00000000000E+00 -0.45593999997E+02  0.45594000000E+02  0.51100000000E-03 0. -1.
    9900012    2    1    2    0    0  0.30938311082E+02  0.71153379329E-01  0.77159976666E+01  0.59301940736E+02  0.49999993997E+02 0.  0.
        -12    1    1    2    0    0 -0.30938311082E+02 -0.71153379329E-01 -0.77159976666E+01  0.31886059264E+02  0.00000000000E+00 0.  1.
         11    1    3    3    0    0  0.35750959746E+01  0.99062613195E+01  0.75560004431E-01  0.10531905532E+02  0.51100000000E-03 0. -1.
        -11    1    3    3    0    0  0.96092008647E+01 -0.21614255431E+02  0.12733429472E+02  0.26863600010E+02  0.51100000000E-03 0.  1.
        -12    1    3    3    0    0  0.17754014242E+02  0.11779147491E+02 -0.50929918099E+01  0.21906435194E+02  0.00000000000E+00 0.  1.
</event>
<event>
 7    1  0.5979290E-013  0.5930196E+02  0.7816164E-02  0.1266605E+00
        -11   -1    0    0    0    0  0.00000000000E+00  0.00000000000E+00  0.45593999997E+02  0.45594000000E+02  0.51100000000E-03 0.  1.
         11   -1    0    0    0    0 -0.00000000000E+00 -0.00000000000E+00 -0.45593999997E+02  0.45594000000E+02  0.51100000000E-03 0. -1.
    9900012    2    1    2    0    0 -0.19760083501E+02  0.80459230212E+01 -0.23696452731E+02  0.59301958394E+02  0.50000026201E+02 0.  0.
        -12    1    1    2    0    0  0.19760083501E+02 -0.80459230212E+01  0.23696452731E+02  0.31886041606E+02  0.00000000000E+00 0.  1.
         11    1    3    3    0    0  0.57927773622E+00  0.17956339695E+02 -0.45872396796E+01  0.18542072864E+02  0.51100000000E-03 0.  1.
        -11    1    3    3    0    0 -0.27065847218E+02 -0.49758635698E+01 -0.16149206703E+02  0.31907932889E+02  0.51100000000E-03 0. -1.
        -12    1    3    3    0    0  0.67264859802E+01 -0.49345531042E+01 -0.29600063487E+01  0.88519526414E+01  0.00000000000E+00 0.  1.
</event>
<event>
 7    1  0.5979290E-013  0.5930196E+02  0.7816164E-02  0.1266605E+00
        -11   -1    0    0    0    0  0.00000000000E+00  0.00000000000E+00  0.45593999997E+02  0.45594000000E+02  0.51100000000E-03 0.  1.
         11   -1    0    0    0    0 -0.00000000000E+00 -0.00000000000E+00 -0.45593999997E+02  0.45594000000E+02  0.51100000000E-03 0. -1.
    9900012    2    1    2    0    0 -0.19774617687E+02 -0.18059419147E+02 -0.17307261428E+02  0.59301961947E+02  0.50000032680E+02 0.  0.
        -12    1    1    2    0    0  0.19774617687E+02  0.18059419147E+02  0.17307261428E+02  0.31886038053E+02  0.00000000000E+00 0.  1.
         11    1    3    3    0    0 -0.21507095131E+02 -0.97817247912E+01 -0.27953017795E+02  0.36600662357E+02  0.51100000000E-03 0. -1.
        -11    1    3    3    0    0  0.30121903900E+01 -0.13931112340E+02  0.76636774567E+01  0.16182741869E+02  0.51100000000E-03 0.  1.
         12    1    3    3    0    0 -0.12797129461E+01  0.56534179846E+01  0.29820789100E+01  0.65185577207E+01  0.00000000000E+00 0. -1.
</event>
<event>
 7    1  0.5979290E-013  0.5930191E+02  0.7816164E-02  0.1266605E+00
        -11   -1    0    0    0    0  0.00000000000E+00  0.00000000000E+00  0.45593999997E+02  0.45594000000E+02  0.51100000000E-03 0.  1.
         11   -1    0    0    0    0 -0.00000000000E+00 -0.00000000000E+00 -0.45593999997E+02  0.45594000000E+02  0.51100000000E-03 0. -1.
    9900012    2    1    2    0    0  0.25181158872E+01  0.86267397129E+01 -0.30593482111E+02  0.59301910661E+02  0.49999939147E+02 0.  0.
        -12    1    1    2    0    0 -0.25181158872E+01 -0.86267397129E+01  0.30593482111E+02  0.31886089339E+02  0.00000000000E+00 0.  1.
         11    1    3    3    0    0 -0.89046591145E+01  0.22448998882E+02 -0.19179250555E+01  0.24226616386E+02  0.51100000000E-03 0. -1.
        -11    1    3    3    0    0  0.53276095033E+01 -0.80047106421E+01 -0.22964540485E+02  0.24896363900E+02  0.51100000000E-03 0.  1.
         12    1    3    3    0    0  0.60951654985E+01 -0.58175485266E+01 -0.57110165697E+01  0.10178930375E+02  0.00000000000E+00 0. -1.
</event>
<event>
 7    1  0.5979290E-013  0.5930197E+02  0.7816164E-02  0.1266605E+00
        -11   -1    0    0    0    0  0.00000000000E+00  0.00000000000E+00  0.45593999997E+02  0.45594000000E+02  0.51100000000E-03 0.  1.
         11   -1    0    0    0    0 -0.00000000000E+00 -0.00000000000E+00 -0.45593999997E+02  0.45594000000E+02  0.51100000000E-03 0. -1.
    9900012    2    1    2    0    0  0.23967581229E+02  0.10066950958E+00 -0.21030070650E+02  0.59301969267E+02  0.50000046031E+02 0.  0.
        -12    1    1    2    0    0 -0.23967581229E+02 -0.10066950958E+00  0.21030070650E+02  0.31886030733E+02  0.00000000000E+00 0.  1.
         11    1    3    3    0    0  0.23779953070E+02 -0.62816883863E+00 -0.16963560915E+02  0.29217172404E+02  0.51100000000E-03 0. -1.
        -11    1    3    3    0    0 -0.84045915056E+01  0.11564820950E+02 -0.70461182811E+01  0.15938319393E+02  0.51100000000E-03 0.  1.
        -12    1    3    3    0    0  0.85922196654E+01 -0.10835982602E+02  0.29796085465E+01  0.14146477470E+02  0.00000000000E+00 0.  1.
</event>
<event>
 7    1  0.5979290E-013  0.5930191E+02  0.7816164E-02  0.1266605E+00
        -11   -1    0    0    0    0  0.00000000000E+00  0.00000000000E+00  0.45593999997E+02  0.45594000000E+02  0.51100000000E-03 0.  1.
         11   -1    0    0    0    0 -0.00000000000E+00 -0.00000000000E+00 -0.45593999997E+02  0.45594000000E+02  0.51100000000E-03 0. -1.
    9900012    2    1    2    0    0  0.22403063176E+02  0.14115592758E+02 -0.17764446115E+02  0.59301909861E+02  0.49999937688E+02 0.  0.
        -12    1    1    2    0    0 -0.22403063176E+02 -0.14115592758E+02  0.17764446115E+02  0.31886090139E+02  0.00000000000E+00 0.  1.
         11    1    3    3    0    0  0.15121110818E+02  0.10475717994E+02  0.92689690315E+01  0.20598603035E+02  0.51100000000E-03 0.  1.
        -11    1    3    3    0    0  0.13100739724E+02  0.21815682630E+01 -0.29395286301E+02  0.32256340127E+02  0.51100000000E-03 0. -1.
         12    1    3    3    0    0 -0.58187873659E+01  0.14583065013E+01  0.23618711542E+01  0.64469666984E+01  0.00000000000E+00 0. -1.
</event>
<event>
 7    1  0.5979290E-013  0.5930197E+02  0.7816164E-02  0.1266605E+00
        -11   -1    0    0    0    0  0.00000000000E+00  0.00000000000E+00  0.45593999997E+02  0.45594000000E+02  0.51100000000E-03 0.  1.
         11   -1    0    0    0    0 -0.00000000000E+00 -0.00000000000E+00 -0.45593999997E+02  0.45594000000E+02  0.51100000000E-03 0. -1.
    9900012    2    1    2    0    0 -0.57794110737E+01  0.19218841556E+02 -0.24778086338E+02  0.59301968173E+02  0.50000044034E+02 0.  0.
        -12    1    1    2    0    0  0.57794110737E+01 -0.19218841556E+02  0.24778086338E+02  0.31886031827E+02  0.00000000000E+00 0.  1.
         11    1    3    3    0    0 -0.15957527981E+02 -0.41841319437E+01 -0.23523767409E+02  0.28731816733E+02  0.51100000000E-03 0. -1.
        -11    1    3    3    0    0  0.11126558130E+02  0.66383720469E+01 -0.39910862719E+01  0.13557177034E+02  0.51100000000E-03 0.  1.
         12    1    3    3    0    0 -0.94844122202E+00  0.16764601453E+02  0.27367673431E+01  0.17012974405E+02  0.00000000000E+00 0. -1.
</event>
<event>
 7    1  0.5979290E-013  0.5930196E+02  0.7816164E-02  0.1266605E+00
        -11   -1    0    0    0    0  0.00000000000E+00  0.00000000000E+00  0.45593999997E+02  0.45594000000E+02  0.51100000000E-03 0.  1.
         11   -1    0    0    0    0 -0.00000000000E+00 -0.00000000000E+00 -0.45593999997E+02  0.45594000000E+02  0.51100000000E-03 0. -1.
    9900012    2    1    2    0    0  0.18535302809E+02 -0.21966616120E+01 -0.25852209162E+02  0.59301960876E+02  0.50000030727E+02 0.  0.
        -12    1    1    2    0    0 -0.18535302809E+02  0.21966616120E+01  0.25852209162E+02  0.31886039124E+02  0.00000000000E+00 0.  1.
         11    1    3    3    0    0  0.29301752752E+00 -0.17638379629E+02  0.88436618488E+00  0.17662966880E+02  0.51100000000E-03 0. -1.
        -11    1    3    3    0    0  0.14531919659E+02  0.15305501253E+02 -0.80520933980E+01  0.22589184712E+02  0.51100000000E-03 0.  1.
         12    1    3    3    0    0  0.37103656218E+01  0.13621676330E+00 -0.18684481949E+02  0.19049809284E+02  0.00000000000E+00 0. -1.
</event>
<event>
 7    1  0.7010179E-013  0.5930193E+02  0.7816164E-02  0.1266605E+00
        -11   -1    0    0    0    0  0.00000000000E+00  0.00000000000E+00  0.45593999997E+02  0.45594000000E+02  0.51100000000E-03 0.  1.
         11   -1    0    0    0    0 -0.00000000000E+00 -0.00000000000E+00 -0.45593999997E+02  0.45594000000E+02  0.51100000000E-03 0. -1.
    9900012    2    1    2    0    0 -0.66499383552E+01  0.22600421182E+02 -0.21487691863E+02  0.59301927503E+02  0.49999969862E+02 0.  0.
        -12    1    1    2    0    0  0.66499383552E+01 -0.22600421182E+02  0.21487691863E+02  0.31886072497E+02  0.00000000000E+00 0.  1.
         11    1    3    3    0    0 -0.18011054871E+02  0.61126380018E+01 -0.11907020207E+02  0.22439687417E+02  0.51100000000E-03 0. -1.
        -11    1    3    3    0    0  0.71523683230E+01  0.11879370903E+02  0.94856804451E+01  0.16800415454E+02  0.51100000000E-03 0.  1.
         12    1    3    3    0    0  0.42087481932E+01  0.46084122771E+01 -0.19066352101E+02  0.20061824631E+02  0.00000000000E+00 0. -1.
</event>
<event>
 7    1  0.5979290E-013  0.5930222E+02  0.7816164E-02  0.1266604E+00
        -11   -1    0    0    0    0  0.00000000000E+00  0.00000000000E+00  0.45593999997E+02  0.45594000000E+02  0.51100000000E-03 0.  1.
         11   -1    0    0    0    0 -0.00000000000E+00 -0.00000000000E+00 -0.45593999997E+02  0.45594000000E+02  0.51100000000E-03 0. -1.
    9900012    2    1    2    0    0  0.13197839436E+02  0.28770015113E+02 -0.38479226805E+01  0.59302215639E+02  0.50000495352E+02 0.  0.
        -12    1    1    2    0    0 -0.13197839436E+02 -0.28770015113E+02  0.38479226805E+01  0.31885784361E+02  0.00000000000E+00 0.  1.
         11    1    3    3    0    0  0.85075064174E+01  0.17909053945E+02  0.11457559996E+02  0.22899510038E+02  0.51100000000E-03 0. -1.
        -11    1    3    3    0    0  0.17604346453E+02  0.66566865405E+01 -0.12328057219E+02  0.22499010751E+02  0.51100000000E-03 0.  1.
        -12    1    3    3    0    0 -0.12914013434E+02  0.42042746269E+01 -0.29774254573E+01  0.13903694850E+02  0.00000000000E+00 0.  1.
</event>
<event>
 7    1  0.5979290E-013  0.5930193E+02  0.7816164E-02  0.1266605E+00
        -11   -1    0    0    0    0  0.00000000000E+00  0.00000000000E+00  0.45593999997E+02  0.45594000000E+02  0.51100000000E-03 0. -1.
         11   -1    0    0    0    0 -0.00000000000E+00 -0.00000000000E+00 -0.45593999997E+02  0.45594000000E+02  0.51100000000E-03 0.  1.
    9900012    2    1    2    0    0  0.22658100067E+02  0.45540942982E+00  0.22430435790E+02  0.59301931786E+02  0.49999977674E+02 0.  0.
        -12    1    1    2    0    0 -0.22658100067E+02 -0.45540942982E+00 -0.22430435790E+02  0.31886068214E+02  0.00000000000E+00 0.  1.
         11    1    3    3    0    0  0.25291958079E+01 -0.14977424672E+02 -0.46657000719E+01  0.15889897378E+02  0.51100000000E-03 0. -1.
        -11    1    3    3    0    0  0.23050558862E+01  0.15903827862E+02  0.12148468366E+02  0.20145230384E+02  0.51100000000E-03 0.  1.
         12    1    3    3    0    0  0.17823848373E+02 -0.47099375999E+00  0.14947667496E+02  0.23266804025E+02  0.00000000000E+00 0. -1.
</event>
<event>
 7    1  0.5979290E-013  0.5930197E+02  0.7816164E-02  0.1266605E+00
        -11   -1    0    0    0    0  0.00000000000E+00  0.00000000000E+00  0.45593999997E+02  0.45594000000E+02  0.51100000000E-03 0. -1.
         11   -1    0    0    0    0 -0.00000000000E+00 -0.00000000000E+00 -0.45593999997E+02  0.45594000000E+02  0.51100000000E-03 0.  1.
    9900012    2    1    2    0    0  0.21661678882E+02  0.22275834261E+02  0.71608440683E+01  0.59301971527E+02  0.50000050151E+02 0.  0.
        -12    1    1    2    0    0 -0.21661678882E+02 -0.22275834261E+02 -0.71608440683E+01  0.31886028473E+02  0.00000000000E+00 0.  1.
         11    1    3    3    0    0  0.11053341030E+02  0.18208544751E+02 -0.19451222926E+01  0.21389505625E+02  0.51100000000E-03 0. -1.
        -11    1    3    3    0    0  0.20155134639E+02 -0.62008062435E-01  0.15742050266E+02  0.25574312193E+02  0.51100000000E-03 0.  1.
        -12    1    3    3    0    0 -0.95467967871E+01  0.41292975726E+01 -0.66360839049E+01  0.12338153708E+02  0.00000000000E+00 0.  1.
</event>
<event>
 7    1  0.5979290E-013  0.5930193E+02  0.7816164E-02  0.1266605E+00
        -11   -1    0    0    0    0  0.00000000000E+00  0.00000000000E+00  0.45593999997E+02  0.45594000000E+02  0.51100000000E-03 0.  1.
         11   -1    0    0    0    0 -0.00000000000E+00 -0.00000000000E+00 -0.45593999997E+02  0.45594000000E+02  0.51100000000E-03 0. -1.
    9900012    2    1    2    0    0  0.11039428165E+02 -0.70379695505E+01 -0.29074375254E+02  0.59301932729E+02  0.49999979395E+02 0.  0.
        -12    1    1    2    0    0 -0.11039428165E+02  0.70379695505E+01  0.29074375254E+02  0.31886067271E+02  0.00000000000E+00 0.  1.
         11    1    3    3    0    0  0.16763048012E+02 -0.12432451309E+02 -0.23146917614E+02  0.31166414929E+02  0.51100000000E-03 0. -1.
        -11    1    3    3    0    0 -0.42299428086E+01  0.15528811820E+02  0.39179743013E+00  0.16099376329E+02  0.51100000000E-03 0.  1.
         12    1    3    3    0    0 -0.14936770390E+01 -0.10134330061E+02 -0.63192550696E+01  0.12036141472E+02  0.00000000000E+00 0. -1.
</event>
<event>
 7    1  0.5979290E-013  0.5930194E+02  0.7816164E-02  0.1266605E+00
        -11   -1    0    0    0    0  0.00000000000E+00  0.00000000000E+00  0.45593999997E+02  0.45594000000E+02  0.51100000000E-03 0.  1.
         11   -1    0    0    0    0 -0.00000000000E+00 -0.00000000000E+00 -0.45593999997E+02  0.45594000000E+02  0.51100000000E-03 0. -1.
    9900012    2    1    2    0    0 -0.17669913930E+01  0.26237087191E+02 -0.18033688202E+02  0.59301938578E+02  0.49999990060E+02 0.  0.
        -12    1    1    2    0    0  0.17669913930E+01 -0.26237087191E+02  0.18033688202E+02  0.31886061422E+02  0.00000000000E+00 0.  1.
         11    1    3    3    0    0 -0.13340542833E+01  0.98574138987E+01 -0.15404191465E+02  0.18336777921E+02  0.51100000000E-03 0. -1.
        -11    1    3    3    0    0  0.92595032085E+01  0.25592975296E+02  0.54056723126E+00  0.27221884530E+02  0.51100000000E-03 0.  1.
        -12    1    3    3    0    0 -0.96924403183E+01 -0.92133020032E+01 -0.31700639684E+01  0.13743276126E+02  0.00000000000E+00 0.  1.
</event>
<event>
 7    1  0.5979290E-013  0.5930196E+02  0.7816164E-02  0.1266605E+00
        -11   -1    0    0    0    0  0.00000000000E+00  0.00000000000E+00  0.45593999997E+02  0.45594000000E+02  0.51100000000E-03 0.  1.
         11   -1    0    0    0    0 -0.00000000000E+00 -0.00000000000E+00 -0.45593999997E+02  0.45594000000E+02  0.51100000000E-03 0. -1.
    9900012    2    1    2    0    0 -0.50953261160E+01  0.38881389919E+01 -0.31235233330E+02  0.59301956435E+02  0.50000022628E+02 0.  0.
        -12    1    1    2    0    0  0.50953261160E+01 -0.38881389919E+01  0.31235233330E+02  0.31886043565E+02  0.00000000000E+00 0.  1.
         11    1    3    3    0    0  0.23613343240E+01  0.21191615460E+02 -0.26488913580E+02  0.34004749793E+02  0.51100000000E-03 0. -1.
        -11    1    3    3    0    0 -0.12273896207E+02 -0.14838236772E+02 -0.49472702899E+01  0.19882084453E+02  0.51100000000E-03 0.  1.
        -12    1    3    3    0    0  0.48172357673E+01 -0.24652396959E+01  0.20095053980E+00  0.54151221884E+01  0.00000000000E+00 0.  1.
</event>
<event>
 7    1  0.5979290E-013  0.5930195E+02  0.7816164E-02  0.1266605E+00
        -11   -1    0    0    0    0  0.00000000000E+00  0.00000000000E+00  0.45593999997E+02  0.45594000000E+02  0.51100000000E-03 0. -1.
         11   -1    0    0    0    0 -0.00000000000E+00 -0.00000000000E+00 -0.45593999997E+02  0.45594000000E+02  0.51100000000E-03 0.  1.
    9900012    2    1    2    0    0 -0.31500263324E+02 -0.21463364603E+01  0.44549839717E+01  0.59301949259E+02  0.50000009541E+02 0.  0.
        -12    1    1    2    0    0  0.31500263324E+02  0.21463364603E+01 -0.44549839717E+01  0.31886050741E+02  0.00000000000E+00 0.  1.
         11    1    3    3    0    0 -0.28172740772E+02  0.86208878519E+01  0.17087187070E+02  0.34058699214E+02  0.51100000000E-03 0. -1.
        -11    1    3    3    0    0  0.17188144538E+01 -0.52889184422E+01  0.41125528095E+01  0.69166518119E+01  0.51100000000E-03 0.  1.
         12    1    3    3    0    0 -0.50463370054E+01 -0.54783058700E+01 -0.16744755908E+02  0.18326598233E+02  0.00000000000E+00 0. -1.
</event>
<event>
 7    1  0.5979290E-013  0.5930195E+02  0.7816164E-02  0.1266605E+00
        -11   -1    0    0    0    0  0.00000000000E+00  0.00000000000E+00  0.45593999997E+02  0.45594000000E+02  0.51100000000E-03 0. -1.
         11   -1    0    0    0    0 -0.00000000000E+00 -0.00000000000E+00 -0.45593999997E+02  0.45594000000E+02  0.51100000000E-03 0.  1.
    9900012    2    1    2    0    0 -0.13427464568E+01 -0.77216033332E+00  0.31848407311E+02  0.59301949007E+02  0.50000009082E+02 0.  0.
        -12    1    1    2    0    0  0.13427464568E+01  0.77216033332E+00 -0.31848407311E+02  0.31886050993E+02  0.00000000000E+00 0.  1.
         11    1    3    3    0    0  0.99118130831E+01  0.42393431044E+01  0.14914668408E+02  0.18402809637E+02  0.51100000000E-03 0. -1.
        -11    1    3    3    0    0 -0.23161553006E+02 -0.86956385875E+01  0.11962309018E+02  0.27480329427E+02  0.51100000000E-03 0.  1.
        -12    1    3    3    0    0  0.11906993466E+02  0.36841351497E+01  0.49714298852E+01  0.13418809944E+02  0.00000000000E+00 0.  1.
</event>
<event>
 7    1  0.5979290E-013  0.5930195E+02  0.7816164E-02  0.1266605E+00
        -11   -1    0    0    0    0  0.00000000000E+00  0.00000000000E+00  0.45593999997E+02  0.45594000000E+02  0.51100000000E-03 0. -1.
         11   -1    0    0    0    0 -0.00000000000E+00 -0.00000000000E+00 -0.45593999997E+02  0.45594000000E+02  0.51100000000E-03 0.  1.
    9900012    2    1    2    0    0  0.19570628111E+02 -0.72620463002E+01  0.24103389565E+02  0.59301949921E+02  0.50000010747E+02 0.  0.
        -12    1    1    2    0    0 -0.19570628111E+02  0.72620463002E+01 -0.24103389565E+02  0.31886050079E+02  0.00000000000E+00 0.  1.
         11    1    3    3    0    0 -0.11118893020E+02  0.51958156073E+01 -0.38291341181E+01  0.12856459473E+02  0.51100000000E-03 0. -1.
        -11    1    3    3    0    0  0.25416426526E+02 -0.45839999239E+01  0.13399009309E+02  0.29095381822E+02  0.51100000000E-03 0.  1.
         12    1    3    3    0    0  0.52730946055E+01 -0.78738619836E+01  0.14533514375E+02  0.17350108626E+02  0.00000000000E+00 0. -1.
</event>
<event>
 7    1  0.5979290E-013  0.5930193E+02  0.7816164E-02  0.1266605E+00
        -11   -1    0    0    0    0  0.00000000000E+00  0.00000000000E+00  0.45593999997E+02  0.45594000000E+02  0.51100000000E-03 0.  1.
         11   -1    0    0    0    0 -0.00000000000E+00 -0.00000000000E+00 -0.45593999997E+02  0.45594000000E+02  0.51100000000E-03 0. -1.
    9900012    2    1    2    0    0  0.15497872652E+02  0.29286786497E+00 -0.27864886963E+02  0.59301925394E+02  0.49999966016E+02 0.  0.
        -12    1    1    2    0    0 -0.15497872652E+02 -0.29286786497E+00  0.27864886963E+02  0.31886074606E+02  0.00000000000E+00 0.  1.
         11    1    3    3    0    0 -0.47079611533E+01 -0.18602461778E+02  0.24656311506E+00  0.19190551739E+02  0.51100000000E-03 0.  1.
        -11    1    3    3    0    0  0.11156440251E+02  0.70378113481E+01 -0.16969257593E+02  0.21493083799E+02  0.51100000000E-03 0. -1.
        -12    1    3    3    0    0  0.90493935540E+01  0.11857518294E+02 -0.11142192485E+02  0.18618289856E+02  0.00000000000E+00 0.  1.
</event>
<event>
 7    1  0.5979290E-013  0.5930206E+02  0.7816164E-02  0.1266604E+00
        -11   -1    0    0    0    0  0.00000000000E+00  0.00000000000E+00  0.45593999997E+02  0.45594000000E+02  0.51100000000E-03 0. -1.
         11   -1    0    0    0    0 -0.00000000000E+00 -0.00000000000E+00 -0.45593999997E+02  0.45594000000E+02  0.51100000000E-03 0.  1.
    9900012    2    1    2    0    0  0.50388579580E+01 -0.29627243452E+02  0.10655962503E+02  0.59302059824E+02  0.50000211184E+02 0.  0.
        -12    1    1    2    0    0 -0.50388579580E+01  0.29627243452E+02 -0.10655962503E+02  0.31885940176E+02  0.00000000000E+00 0.  1.
         11    1    3    3    0    0  0.14657135732E+02 -0.34217076098E+02  0.15851459119E+02  0.40458728119E+02  0.51100000000E-03 0. -1.
        -11    1    3    3    0    0 -0.99028065855E+01  0.10419418838E+01  0.25848482356E+01  0.10287500271E+02  0.51100000000E-03 0.  1.
        -12    1    3    3    0    0  0.28452881129E+00  0.35478907622E+01 -0.77803448523E+01  0.85558314339E+01  0.00000000000E+00 0.  1.
</event>
<event>
 7    1  0.5979290E-013  0.5930193E+02  0.7816164E-02  0.1266605E+00
        -11   -1    0    0    0    0  0.00000000000E+00  0.00000000000E+00  0.45593999997E+02  0.45594000000E+02  0.51100000000E-03 0.  1.
         11   -1    0    0    0    0 -0.00000000000E+00 -0.00000000000E+00 -0.45593999997E+02  0.45594000000E+02  0.51100000000E-03 0. -1.
    9900012    2    1    2    0    0  0.31881634310E+02  0.32058082494E+00  0.42462490427E+00  0.59301926478E+02  0.49999967993E+02 0.  0.
        -12    1    1    2    0    0 -0.31881634310E+02 -0.32058082494E+00 -0.42462490427E+00  0.31886073522E+02  0.00000000000E+00 0.  1.
         11    1    3    3    0    0  0.23171710946E+02  0.16256678491E+01 -0.34124661960E+01  0.23477987775E+02  0.51100000000E-03 0. -1.
        -11    1    3    3    0    0 -0.59515907979E+01 -0.14049469824E+02 -0.23460971437E+01  0.15437396394E+02  0.51100000000E-03 0.  1.
        -12    1    3    3    0    0  0.14661514162E+02  0.12744382800E+02  0.61831882440E+01  0.20386542309E+02  0.00000000000E+00 0.  1.
</event>
<event>
 7    1  0.5979290E-013  0.5930194E+02  0.7816164E-02  0.1266605E+00
        -11   -1    0    0    0    0  0.00000000000E+00  0.00000000000E+00  0.45593999997E+02  0.45594000000E+02  0.51100000000E-03 0.  1.
         11   -1    0    0    0    0 -0.00000000000E+00 -0.00000000000E+00 -0.45593999997E+02  0.45594000000E+02  0.51100000000E-03 0. -1.
    9900012    2    1    2    0    0  0.29434041698E+02 -0.45694437578E+01  0.11378848491E+02  0.59301940037E+02  0.49999992723E+02 0.  0.
        -12    1    1    2    0    0 -0.29434041698E+02  0.45694437578E+01 -0.11378848491E+02  0.31886059963E+02  0.00000000000E+00 0.  1.
         11    1    3    3    0    0 -0.65726233044E+01 -0.12313029379E+02 -0.67500663677E+01  0.15503982257E+02  0.51100000000E-03 0. -1.
        -11    1    3    3    0    0  0.32738674173E+02  0.76239202914E+01  0.10054021649E+02  0.35086012866E+02  0.51100000000E-03 0.  1.
        -12    1    3    3    0    0  0.32679908292E+01  0.11966533011E+00  0.80748932094E+01  0.87119449146E+01  0.00000000000E+00 0.  1.
</event>
<event>
 7    1  0.5979290E-013  0.5930194E+02  0.7816164E-02  0.1266605E+00
        -11   -1    0    0    0    0  0.00000000000E+00  0.00000000000E+00  0.45593999997E+02  0.45594000000E+02  0.51100000000E-03 0.  1.
         11   -1    0    0    0    0 -0.00000000000E+00 -0.00000000000E+00 -0.45593999997E+02  0.45594000000E+02  0.51100000000E-03 0. -1.
    9900012    2    1    2    0    0 -0.28550878656E+02 -0.11020470124E+02 -0.89508148719E+01  0.59301944730E+02  0.50000001281E+02 0.  0.
        -12    1    1    2    0    0  0.28550878656E+02  0.11020470124E+02  0.89508148719E+01  0.31886055270E+02  0.00000000000E+00 0.  1.
         11    1    3    3    0    0 -0.12717202715E+02 -0.38030230143E+01  0.12082935206E+02  0.17949583627E+02  0.51100000000E-03 0. -1.
        -11    1    3    3    0    0 -0.17454443640E+02 -0.35018402047E+01 -0.28065740971E+02  0.33235618004E+02  0.51100000000E-03 0.  1.
         12    1    3    3    0    0  0.16207676990E+01 -0.37156069051E+01  0.70319908927E+01  0.81167430982E+01  0.00000000000E+00 0. -1.
</event>
<event>
 7    1  0.5979290E-013  0.5930189E+02  0.7816164E-02  0.1266605E+00
        -11   -1    0    0    0    0  0.00000000000E+00  0.00000000000E+00  0.45593999997E+02  0.45594000000E+02  0.51100000000E-03 0.  1.
         11   -1    0    0    0    0 -0.00000000000E+00 -0.00000000000E+00 -0.45593999997E+02  0.45594000000E+02  0.51100000000E-03 0. -1.
    9900012    2    1    2    0    0 -0.22236669361E+02  0.11915239466E+02 -0.19500817577E+02  0.59301885750E+02  0.49999893715E+02 0.  0.
        -12    1    1    2    0    0  0.22236669361E+02 -0.11915239466E+02  0.19500817577E+02  0.31886114250E+02  0.00000000000E+00 0.  1.
         11    1    3    3    0    0 -0.29935743236E+02  0.11963322037E+02 -0.19769194214E+02  0.37816541849E+02  0.51100000000E-03 0. -1.
        -11    1    3    3    0    0  0.11089194427E+02 -0.25620933113E+01  0.71295327134E+01  0.13429995984E+02  0.51100000000E-03 0.  1.
        -12    1    3    3    0    0 -0.33901205515E+01  0.25140107404E+01 -0.68611560764E+01  0.80553479168E+01  0.00000000000E+00 0.  1.
</event>
<event>
 7    1  0.5979290E-013  0.5930196E+02  0.7816164E-02  0.1266605E+00
        -11   -1    0    0    0    0  0.00000000000E+00  0.00000000000E+00  0.45593999997E+02  0.45594000000E+02  0.51100000000E-03 0.  1.
         11   -1    0    0    0    0 -0.00000000000E+00 -0.00000000000E+00 -0.45593999997E+02  0.45594000000E+02  0.51100000000E-03 0. -1.
    9900012    2    1    2    0    0 -0.22445997839E+02  0.48105530508E+01 -0.22130420497E+02  0.59301956799E+02  0.50000023292E+02 0.  0.
        -12    1    1    2    0    0  0.22445997839E+02 -0.48105530508E+01  0.22130420497E+02  0.31886043201E+02  0.00000000000E+00 0.  1.
         11    1    3    3    0    0  0.13025017657E+02  0.10654769761E+02 -0.10100776925E+02  0.19626535567E+02  0.51100000000E-03 0. -1.
        -11    1    3    3    0    0 -0.34490147465E+02 -0.50308423471E+01 -0.84344810198E+01  0.35861122643E+02  0.51100000000E-03 0.  1.
        -12    1    3    3    0    0 -0.98086803081E+00 -0.81337436348E+00 -0.35951625527E+01  0.38142985895E+01  0.00000000000E+00 0.  1.
</event>
<event>
 7    1  0.5979290E-013  0.5930194E+02  0.7816164E-02  0.1266605E+00
        -11   -1    0    0    0    0  0.00000000000E+00  0.00000000000E+00  0.45593999997E+02  0.45594000000E+02  0.51100000000E-03 0. -1.
         11   -1    0    0    0    0 -0.00000000000E+00 -0.00000000000E+00 -0.45593999997E+02  0.45594000000E+02  0.51100000000E-03 0.  1.
    9900012    2    1    2    0    0 -0.26789061647E+02  0.69639264591E+01  0.15829422896E+02  0.59301941528E+02  0.49999995442E+02 0.  0.
        -12    1    1    2    0    0  0.26789061647E+02 -0.69639264591E+01 -0.15829422896E+02  0.31886058472E+02  0.00000000000E+00 0.  1.
         11    1    3    3    0    0  0.75864862229E+01 -0.32623403095E+01  0.70346981422E+01  0.10848254040E+02  0.51100000000E-03 0. -1.
        -11    1    3    3    0    0 -0.28021947734E+02 -0.64920300719E+01  0.10186781163E+02  0.30514693509E+02  0.51100000000E-03 0.  1.
        -12    1    3    3    0    0 -0.63536001356E+01  0.16718296840E+02 -0.13920564085E+01  0.17938993979E+02  0.00000000000E+00 0.  1.
</event>
<event>
 7    1  0.5979290E-013  0.5930194E+02  0.7816164E-02  0.1266605E+00
        -11   -1    0    0    0    0  0.00000000000E+00  0.00000000000E+00  0.45593999997E+02  0.45594000000E+02  0.51100000000E-03 0.  1.
         11   -1    0    0    0    0 -0.00000000000E+00 -0.00000000000E+00 -0.45593999997E+02  0.45594000000E+02  0.51100000000E-03 0. -1.
    9900012    2    1    2    0    0  0.20918469432E+01 -0.12825540889E+02 -0.29117875960E+02  0.59301936851E+02  0.49999986912E+02 0.  0.
        -12    1    1    2    0    0 -0.20918469432E+01  0.12825540889E+02  0.29117875960E+02  0.31886063149E+02  0.00000000000E+00 0.  1.
         11    1    3    3    0    0 -0.93104389149E+01 -0.13222746683E+01 -0.16931222444E+01  0.95550691406E+01  0.51100000000E-03 0. -1.
        -11    1    3    3    0    0  0.11488131469E+02 -0.42590076042E+01  0.73082849340E+01  0.14266300830E+02  0.51100000000E-03 0.  1.
        -12    1    3    3    0    0 -0.85845611066E-01 -0.72442586168E+01 -0.34733038649E+02  0.35480566881E+02  0.00000000000E+00 0.  1.
</event>
<event>
 7    1  0.5979290E-013  0.5930211E+02  0.7816164E-02  0.1266604E+00
        -11   -1    0    0    0    0  0.00000000000E+00  0.00000000000E+00  0.45593999997E+02  0.45594000000E+02  0.51100000000E-03 0.  1.
         11   -1    0    0    0    0 -0.00000000000E+00 -0.00000000000E+00 -0.45593999997E+02  0.45594000000E+02  0.51100000000E-03 0. -1.
    9900012    2    1    2    0    0 -0.38356973546E+01  0.15328471684E+02 -0.27695399553E+02  0.59302113235E+02  0.50000308593E+02 0.  0.
        -12    1    1    2    0    0  0.38356973546E+01 -0.15328471684E+02  0.27695399553E+02  0.31885886765E+02  0.00000000000E+00 0.  1.
         11    1    3    3    0    0 -0.10531732852E+02  0.60907075420E+01 -0.28272757492E+02  0.30779261390E+02  0.51100000000E-03 0. -1.
        -11    1    3    3    0    0  0.72479227806E+01  0.17917300653E+02  0.28424842831E+01  0.19535653674E+02  0.51100000000E-03 0.  1.
        -12    1    3    3    0    0 -0.55188728306E+00 -0.86795365107E+01 -0.22651263440E+01  0.89871981711E+01  0.00000000000E+00 0.  1.
</event>
<event>
 7    1  0.5979290E-013  0.5930176E+02  0.7816164E-02  0.1266605E+00
        -11   -1    0    0    0    0  0.00000000000E+00  0.00000000000E+00  0.45593999997E+02  0.45594000000E+02  0.51100000000E-03 0. -1.
         11   -1    0    0    0    0 -0.00000000000E+00 -0.00000000000E+00 -0.45593999997E+02  0.45594000000E+02  0.51100000000E-03 0.  1.
    9900012    2    1    2    0    0  0.30155066719E+02  0.35894466561E+01  0.97221319121E+01  0.59301764333E+02  0.49999672279E+02 0.  0.
        -12    1    1    2    0    0 -0.30155066719E+02 -0.35894466561E+01 -0.97221319121E+01  0.31886235667E+02  0.00000000000E+00 0.  1.
         11    1    3    3    0    0  0.30881475441E+01  0.12680425314E+02  0.26055768780E+01  0.13308601449E+02  0.51100000000E-03 0. -1.
        -11    1    3    3    0    0  0.78810087398E+01 -0.20831784043E+02 -0.40285276099E+00  0.22276351043E+02  0.51100000000E-03 0.  1.
        -12    1    3    3    0    0  0.19185910435E+02  0.11740805385E+02  0.75194077951E+01  0.23716811841E+02  0.00000000000E+00 0.  1.
</event>
<event>
 7    1  0.5979290E-013  0.5930196E+02  0.7816164E-02  0.1266605E+00
        -11   -1    0    0    0    0  0.00000000000E+00  0.00000000000E+00  0.45593999997E+02  0.45594000000E+02  0.51100000000E-03 0.  1.
         11   -1    0    0    0    0 -0.00000000000E+00 -0.00000000000E+00 -0.45593999997E+02  0.45594000000E+02  0.51100000000E-03 0. -1.
    9900012    2    1    2    0    0  0.29221418729E+02  0.69902929512E+01  0.10675402299E+02  0.59301957249E+02  0.50000024113E+02 0.  0.
        -12    1    1    2    0    0 -0.29221418729E+02 -0.69902929512E+01 -0.10675402299E+02  0.31886042751E+02  0.00000000000E+00 0.  1.
         11    1    3    3    0    0  0.20554745777E+02 -0.39755601886E+00  0.10457969512E+02  0.23065661736E+02  0.51100000000E-03 0. -1.
        -11    1    3    3    0    0  0.73741844615E+01  0.21071077707E+02 -0.15553832702E+01  0.22378295949E+02  0.51100000000E-03 0.  1.
         12    1    3    3    0    0  0.12924884901E+01 -0.13683228736E+02  0.17728160566E+01  0.13857999564E+02  0.00000000000E+00 0. -1.
</event>
<event>
 7    1  0.5979290E-013  0.5930194E+02  0.7816164E-02  0.1266605E+00
        -11   -1    0    0    0    0  0.00000000000E+00  0.00000000000E+00  0.45593999997E+02  0.45594000000E+02  0.51100000000E-03 0.  1.
         11   -1    0    0    0    0 -0.00000000000E+00 -0.00000000000E+00 -0.45593999997E+02  0.45594000000E+02  0.51100000000E-03 0. -1.
    9900012    2    1    2    0    0  0.13882308041E+02 -0.27156570396E+02 -0.93017753420E+01  0.59301940088E+02  0.49999992815E+02 0.  0.
        -12    1    1    2    0    0 -0.13882308041E+02  0.27156570396E+02  0.93017753420E+01  0.31886059912E+02  0.00000000000E+00 0.  1.
         11    1    3    3    0    0 -0.47166202474E+01 -0.80408186238E+01 -0.21721149712E+02  0.23637039065E+02  0.51100000000E-03 0. -1.
        -11    1    3    3    0    0  0.10569523950E+02 -0.66249862209E+01  0.16099612298E+02  0.20366708015E+02  0.51100000000E-03 0.  1.
        -12    1    3    3    0    0  0.80294043377E+01 -0.12490765551E+02 -0.36802379282E+01  0.15298193007E+02  0.00000000000E+00 0.  1.
</event>
<event>
 7    1  0.5979290E-013  0.5930195E+02  0.7816164E-02  0.1266605E+00
        -11   -1    0    0    0    0  0.00000000000E+00  0.00000000000E+00  0.45593999997E+02  0.45594000000E+02  0.51100000000E-03 0.  1.
         11   -1    0    0    0    0 -0.00000000000E+00 -0.00000000000E+00 -0.45593999997E+02  0.45594000000E+02  0.51100000000E-03 0. -1.
    9900012    2    1    2    0    0 -0.10253554917E+02 -0.16103509355E+02 -0.25539416964E+02  0.59301949432E+02  0.50000009857E+02 0.  0.
        -12    1    1    2    0    0  0.10253554917E+02  0.16103509355E+02  0.25539416964E+02  0.31886050568E+02  0.00000000000E+00 0.  1.
         11    1    3    3    0    0  0.16854474395E+01 -0.58853166466E+01 -0.27320511973E+02  0.27998000998E+02  0.51100000000E-03 0. -1.
        -11    1    3    3    0    0 -0.48305604763E+01 -0.91453257571E+01  0.13832252807E+02  0.17271436411E+02  0.51100000000E-03 0.  1.
        -12    1    3    3    0    0 -0.71084418798E+01 -0.10728669510E+01 -0.12051157797E+02  0.14032512024E+02  0.00000000000E+00 0.  1.
</event>
<event>
 7    1  0.5979290E-013  0.5930195E+02  0.7816164E-02  0.1266605E+00
        -11   -1    0    0    0    0  0.00000000000E+00  0.00000000000E+00  0.45593999997E+02  0.45594000000E+02  0.51100000000E-03 0. -1.
         11   -1    0    0    0    0 -0.00000000000E+00 -0.00000000000E+00 -0.45593999997E+02  0.45594000000E+02  0.51100000000E-03 0.  1.
    9900012    2    1    2    0    0 -0.14825704953E+02  0.28227857304E+02 -0.32693761085E+00  0.59301947508E+02  0.50000006347E+02 0.  0.
        -12    1    1    2    0    0  0.14825704953E+02 -0.28227857304E+02  0.32693761085E+00  0.31886052492E+02  0.00000000000E+00 0.  1.
         11    1    3    3    0    0 -0.79106001181E+01 -0.50377473053E+01 -0.24330656224E+01  0.96889783117E+01  0.51100000000E-03 0. -1.
        -11    1    3    3    0    0  0.64787791258E+01  0.16729227746E+02  0.16131876979E+02  0.24126315406E+02  0.51100000000E-03 0.  1.
         12    1    3    3    0    0 -0.13393883961E+02  0.16536376863E+02 -0.14025748968E+02  0.25486653790E+02  0.00000000000E+00 0. -1.
</event>
<event>
 7    1  0.5979290E-013  0.5930192E+02  0.7816164E-02  0.1266605E+00
        -11   -1    0    0    0    0  0.00000000000E+00  0.00000000000E+00  0.45593999997E+02  0.45594000000E+02  0.51100000000E-03 0. -1.
         11   -1    0    0    0    0 -0.00000000000E+00 -0.00000000000E+00 -0.45593999997E+02  0.45594000000E+02  0.51100000000E-03 0.  1.
    9900012    2    1    2    0    0  0.26306333135E+02  0.12162530050E+02 -0.13295551468E+02  0.59301921704E+02  0.49999959288E+02 0.  0.
        -12    1    1    2    0    0 -0.26306333135E+02 -0.12162530050E+02  0.13295551468E+02  0.31886078296E+02  0.00000000000E+00 0.  1.
         11    1    3    3    0    0  0.38146177529E+02  0.62145339641E+01 -0.83497768145E+01  0.39540739315E+02  0.51100000000E-03 0. -1.
        -11    1    3    3    0    0 -0.63485339893E+01  0.62510350853E+01 -0.92008570827E+01  0.12807618622E+02  0.51100000000E-03 0.  1.
         12    1    3    3    0    0 -0.54913104042E+01 -0.30303899938E+00  0.42550824293E+01  0.69535637677E+01  0.00000000000E+00 0. -1.
</event>
<event>
 7    1  0.5979290E-013  0.5930194E+02  0.7816164E-02  0.1266605E+00
        -11   -1    0    0    0    0  0.00000000000E+00  0.00000000000E+00  0.45593999997E+02  0.45594000000E+02  0.51100000000E-03 0. -1.
         11   -1    0    0    0    0 -0.00000000000E+00 -0.00000000000E+00 -0.45593999997E+02  0.45594000000E+02  0.51100000000E-03 0.  1.
    9900012    2    1    2    0    0 -0.24692462751E+01  0.49948698258E+01  0.31395458167E+02  0.59301941993E+02  0.49999996289E+02 0.  0.
        -12    1    1    2    0    0  0.24692462751E+01 -0.49948698258E+01 -0.31395458167E+02  0.31886058007E+02  0.00000000000E+00 0.  1.
         11    1    3    3    0    0 -0.24457397341E+01  0.10572563314E+02  0.33249978556E+02  0.34976017671E+02  0.51100000000E-03 0. -1.
        -11    1    3    3    0    0 -0.31705754272E+01 -0.14099151008E+02 -0.39946973531E+01  0.14993205625E+02  0.51100000000E-03 0.  1.
        -12    1    3    3    0    0  0.31470688862E+01  0.85214575203E+01  0.21401769635E+01  0.93327186972E+01  0.00000000000E+00 0.  1.
</event>
<event>
 7    1  0.5979290E-013  0.5930195E+02  0.7816164E-02  0.1266605E+00
        -11   -1    0    0    0    0  0.00000000000E+00  0.00000000000E+00  0.45593999997E+02  0.45594000000E+02  0.51100000000E-03 0.  1.
         11   -1    0    0    0    0 -0.00000000000E+00 -0.00000000000E+00 -0.45593999997E+02  0.45594000000E+02  0.51100000000E-03 0. -1.
    9900012    2    1    2    0    0 -0.30970361061E+02  0.68723334623E+01 -0.32137584135E+01  0.59301945453E+02  0.50000002599E+02 0.  0.
        -12    1    1    2    0    0  0.30970361061E+02 -0.68723334623E+01  0.32137584135E+01  0.31886054547E+02  0.00000000000E+00 0.  1.
         11    1    3    3    0    0 -0.16755139751E+02  0.14562436713E+02  0.53688374815E-01  0.22199147592E+02  0.51100000000E-03 0. -1.
        -11    1    3    3    0    0  0.10861562250E+02 -0.68784553223E+00 -0.17443153014E+01  0.11022218566E+02  0.51100000000E-03 0.  1.
         12    1    3    3    0    0 -0.25076783559E+02 -0.70022577182E+01 -0.15231314870E+01  0.26080579295E+02  0.00000000000E+00 0. -1.
</event>
<event>
 7    1  0.5979290E-013  0.5930195E+02  0.7816164E-02  0.1266605E+00
        -11   -1    0    0    0    0  0.00000000000E+00  0.00000000000E+00  0.45593999997E+02  0.45594000000E+02  0.51100000000E-03 0.  1.
         11   -1    0    0    0    0 -0.00000000000E+00 -0.00000000000E+00 -0.45593999997E+02  0.45594000000E+02  0.51100000000E-03 0. -1.
    9900012    2    1    2    0    0 -0.30536007057E+02  0.56445875005E+01 -0.72395690792E+01  0.59301945752E+02  0.50000003145E+02 0.  0.
        -12    1    1    2    0    0  0.30536007057E+02 -0.56445875005E+01  0.72395690792E+01  0.31886054248E+02  0.00000000000E+00 0.  1.
         11    1    3    3    0    0 -0.27789272691E+02 -0.10634646233E+02 -0.24421141443E+01  0.29854703130E+02  0.51100000000E-03 0. -1.
        -11    1    3    3    0    0 -0.11621318028E+00  0.21711404325E+02  0.40898830623E-01  0.21711753873E+02  0.51100000000E-03 0.  1.
        -12    1    3    3    0    0 -0.26305211852E+01 -0.54321705911E+01 -0.48383537655E+01  0.77354887497E+01  0.00000000000E+00 0.  1.
</event>
<event>
 7    1  0.5979290E-013  0.5930194E+02  0.7816164E-02  0.1266605E+00
        -11   -1    0    0    0    0  0.00000000000E+00  0.00000000000E+00  0.45593999997E+02  0.45594000000E+02  0.51100000000E-03 0.  1.
         11   -1    0    0    0    0 -0.00000000000E+00 -0.00000000000E+00 -0.45593999997E+02  0.45594000000E+02  0.51100000000E-03 0. -1.
    9900012    2    1    2    0    0  0.19227275555E+02  0.24251876010E+02  0.76732665396E+01  0.59301942942E+02  0.49999998020E+02 0.  0.
        -12    1    1    2    0    0 -0.19227275555E+02 -0.24251876010E+02 -0.76732665396E+01  0.31886057058E+02  0.00000000000E+00 0.  1.
         11    1    3    3    0    0 -0.76862299864E+01  0.20842013757E+02  0.80970734790E+01  0.23643820927E+02  0.51100000000E-03 0. -1.
        -11    1    3    3    0    0  0.25169703698E+02  0.21053144280E+01 -0.89973715537E+01  0.26812292484E+02  0.51100000000E-03 0.  1.
        -12    1    3    3    0    0  0.17438018432E+01  0.13045478256E+01  0.85735646144E+01  0.88458295311E+01  0.00000000000E+00 0.  1.
</event>
<event>
 7    1  0.5979290E-013  0.5930195E+02  0.7816164E-02  0.1266605E+00
        -11   -1    0    0    0    0  0.00000000000E+00  0.00000000000E+00  0.45593999997E+02  0.45594000000E+02  0.51100000000E-03 0.  1.
         11   -1    0    0    0    0 -0.00000000000E+00 -0.00000000000E+00 -0.45593999997E+02  0.45594000000E+02  0.51100000000E-03 0. -1.
    9900012    2    1    2    0    0 -0.14138540725E+02 -0.19195465247E+02 -0.21174414353E+02  0.59301952220E+02  0.50000014940E+02 0.  0.
        -12    1    1    2    0    0  0.14138540725E+02  0.19195465247E+02  0.21174414353E+02  0.31886047780E+02  0.00000000000E+00 0.  1.
         11    1    3    3    0    0  0.66774407750E+01 -0.35585868828E+01 -0.14954796172E+02  0.16760002527E+02  0.51100000000E-03 0. -1.
        -11    1    3    3    0    0 -0.27015206600E+02 -0.17153439979E+02  0.20844125971E+01  0.32068780252E+02  0.51100000000E-03 0.  1.
        -12    1    3    3    0    0  0.61992250999E+01  0.15165616144E+01 -0.83040307781E+01  0.10473169441E+02  0.00000000000E+00 0.  1.
</event>
<event>
 7    1  0.5979290E-013  0.5930194E+02  0.7816164E-02  0.1266605E+00
        -11   -1    0    0    0    0  0.00000000000E+00  0.00000000000E+00  0.45593999997E+02  0.45594000000E+02  0.51100000000E-03 0. -1.
         11   -1    0    0    0    0 -0.00000000000E+00 -0.00000000000E+00 -0.45593999997E+02  0.45594000000E+02  0.51100000000E-03 0.  1.
    9900012    2    1    2    0    0 -0.17547350208E+02 -0.25971413687E+02 -0.58563773532E+01  0.59301937466E+02  0.49999988033E+02 0.  0.
        -12    1    1    2    0    0  0.17547350208E+02  0.25971413687E+02  0.58563773532E+01  0.31886062534E+02  0.00000000000E+00 0.  1.
         11    1    3    3    0    0 -0.13894127966E+02  0.46892800890E+00 -0.17749559307E+02  0.22545809839E+02  0.51100000000E-03 0. -1.
        -11    1    3    3    0    0  0.47514387352E+01 -0.16648974872E+02 -0.24233840513E+01  0.17482486233E+02  0.51100000000E-03 0.  1.
         12    1    3    3    0    0 -0.84046609770E+01 -0.97913668238E+01  0.14316566005E+02  0.19273641395E+02  0.00000000000E+00 0. -1.
</event>
<event>
 7    1  0.5979290E-013  0.5930200E+02  0.7816164E-02  0.1266605E+00
        -11   -1    0    0    0    0  0.00000000000E+00  0.00000000000E+00  0.45593999997E+02  0.45594000000E+02  0.51100000000E-03 0.  1.
         11   -1    0    0    0    0 -0.00000000000E+00 -0.00000000000E+00 -0.45593999997E+02  0.45594000000E+02  0.51100000000E-03 0. -1.
    9900012    2    1    2    0    0  0.21278222978E+02  0.11019606215E+02  0.21036220191E+02  0.59301999088E+02  0.50000100416E+02 0.  0.
        -12    1    1    2    0    0 -0.21278222978E+02 -0.11019606215E+02 -0.21036220191E+02  0.31886000912E+02  0.00000000000E+00 0.  1.
         11    1    3    3    0    0  0.25557658948E+02  0.11920795128E+02  0.68861842855E+01  0.29029619730E+02  0.51100000000E-03 0. -1.
        -11    1    3    3    0    0 -0.71707795439E+01 -0.12712740908E+02  0.80331232098E+01  0.16660279992E+02  0.51100000000E-03 0.  1.
         12    1    3    3    0    0  0.28913435733E+01  0.11811551996E+02  0.61169126960E+01  0.13612099365E+02  0.00000000000E+00 0. -1.
</event>
<event>
 7    1  0.5979290E-013  0.5930194E+02  0.7816164E-02  0.1266605E+00
        -11   -1    0    0    0    0  0.00000000000E+00  0.00000000000E+00  0.45593999997E+02  0.45594000000E+02  0.51100000000E-03 0. -1.
         11   -1    0    0    0    0 -0.00000000000E+00 -0.00000000000E+00 -0.45593999997E+02  0.45594000000E+02  0.51100000000E-03 0.  1.
    9900012    2    1    2    0    0 -0.16629020588E+02  0.27203417487E+02 -0.41262831213E+00  0.59301944884E+02  0.50000001562E+02 0.  0.
        -12    1    1    2    0    0  0.16629020588E+02 -0.27203417487E+02  0.41262831213E+00  0.31886055116E+02  0.00000000000E+00 0.  1.
         11    1    3    3    0    0  0.12919110065E+02  0.25960296108E+02 -0.10606877193E+01  0.29016640701E+02  0.51100000000E-03 0. -1.
        -11    1    3    3    0    0 -0.13971392388E+02  0.15472604795E+01 -0.27893805764E+01  0.14330891965E+02  0.51100000000E-03 0.  1.
         12    1    3    3    0    0 -0.15576738266E+02 -0.30413910038E+00  0.34374399836E+01  0.15954412218E+02  0.00000000000E+00 0. -1.
</event>
<event>
 7    1  0.5979290E-013  0.5930196E+02  0.7816164E-02  0.1266605E+00
        -11   -1    0    0    0    0  0.00000000000E+00  0.00000000000E+00  0.45593999997E+02  0.45594000000E+02  0.51100000000E-03 0.  1.
         11   -1    0    0    0    0 -0.00000000000E+00 -0.00000000000E+00 -0.45593999997E+02  0.45594000000E+02  0.51100000000E-03 0. -1.
    9900012    2    1    2    0    0  0.34777409286E+01  0.17310498154E+02 -0.26551298165E+02  0.59301961322E+02  0.50000031541E+02 0.  0.
        -12    1    1    2    0    0 -0.34777409286E+01 -0.17310498154E+02  0.26551298165E+02  0.31886038678E+02  0.00000000000E+00 0.  1.
         11    1    3    3    0    0  0.71445055817E+01  0.25485107614E+02 -0.15342716204E+02  0.30593032064E+02  0.51100000000E-03 0. -1.
        -11    1    3    3    0    0 -0.10306978203E+02 -0.63572465518E+01  0.33841183680E+01  0.12573807728E+02  0.51100000000E-03 0.  1.
         12    1    3    3    0    0  0.66402135495E+01 -0.18173629077E+01 -0.14592700328E+02  0.16135121530E+02  0.00000000000E+00 0. -1.
</event>
<event>
 7    1  0.5979290E-013  0.5930185E+02  0.7816164E-02  0.1266605E+00
        -11   -1    0    0    0    0  0.00000000000E+00  0.00000000000E+00  0.45593999997E+02  0.45594000000E+02  0.51100000000E-03 0.  1.
         11   -1    0    0    0    0 -0.00000000000E+00 -0.00000000000E+00 -0.45593999997E+02  0.45594000000E+02  0.51100000000E-03 0. -1.
    9900012    2    1    2    0    0  0.20902507726E+02 -0.89585488333E+01 -0.22350754529E+02  0.59301848548E+02  0.49999825867E+02 0.  0.
        -12    1    1    2    0    0 -0.20902507726E+02  0.89585488333E+01  0.22350754529E+02  0.31886151452E+02  0.00000000000E+00 0.  1.
         11    1    3    3    0    0 -0.48268554230E+01 -0.16458581892E+02 -0.15087535580E+02  0.22843318089E+02  0.51100000000E-03 0. -1.
        -11    1    3    3    0    0  0.99373326849E+01  0.63568592043E+01  0.81687220380E+01  0.14348806913E+02  0.51100000000E-03 0.  1.
        -12    1    3    3    0    0  0.15792030464E+02  0.11431738549E+01 -0.15431940987E+02  0.22109723545E+02  0.00000000000E+00 0.  1.
</event>
<event>
 7    1  0.5979290E-013  0.5930192E+02  0.7816164E-02  0.1266605E+00
        -11   -1    0    0    0    0  0.00000000000E+00  0.00000000000E+00  0.45593999997E+02  0.45594000000E+02  0.51100000000E-03 0. -1.
         11   -1    0    0    0    0 -0.00000000000E+00 -0.00000000000E+00 -0.45593999997E+02  0.45594000000E+02  0.51100000000E-03 0.  1.
    9900012    2    1    2    0    0 -0.21081011059E+02  0.98256663461E+00  0.23902877124E+02  0.59301921545E+02  0.49999958996E+02 0.  0.
        -12    1    1    2    0    0  0.21081011059E+02 -0.98256663461E+00 -0.23902877124E+02  0.31886078455E+02  0.00000000000E+00 0.  1.
         11    1    3    3    0    0 -0.14525248103E+02  0.49461323732E+01  0.37379049803E+02  0.40405945384E+02  0.51100000000E-03 0. -1.
        -11    1    3    3    0    0 -0.60095047165E+01  0.15375036828E+01 -0.26607562895E+01  0.67496436058E+01  0.51100000000E-03 0.  1.
         12    1    3    3    0    0 -0.54625824011E+00 -0.55010694214E+01 -0.10815416390E+02  0.12146332555E+02  0.00000000000E+00 0. -1.
</event>
<event>
 7    1  0.5979290E-013  0.5930184E+02  0.7816164E-02  0.1266605E+00
        -11   -1    0    0    0    0  0.00000000000E+00  0.00000000000E+00  0.45593999997E+02  0.45594000000E+02  0.51100000000E-03 0.  1.
         11   -1    0    0    0    0 -0.00000000000E+00 -0.00000000000E+00 -0.45593999997E+02  0.45594000000E+02  0.51100000000E-03 0. -1.
    9900012    2    1    2    0    0 -0.10314143600E+02  0.26235998513E+02 -0.14900270320E+02  0.59301839494E+02  0.49999809356E+02 0.  0.
        -12    1    1    2    0    0  0.10314143600E+02 -0.26235998513E+02  0.14900270320E+02  0.31886160506E+02  0.00000000000E+00 0.  1.
         11    1    3    3    0    0 -0.44517420717E-01 -0.47610942541E+01 -0.46386105105E+01  0.66473083294E+01  0.51100000000E-03 0. -1.
        -11    1    3    3    0    0 -0.16579994209E+02  0.21316299476E+02  0.10434303233E+02  0.28950915625E+02  0.51100000000E-03 0.  1.
        -12    1    3    3    0    0  0.63103680294E+01  0.96807932910E+01 -0.20695963042E+02  0.23703615540E+02  0.00000000000E+00 0.  1.
</event>
<event>
 7    1  0.5979290E-013  0.5930195E+02  0.7816164E-02  0.1266605E+00
        -11   -1    0    0    0    0  0.00000000000E+00  0.00000000000E+00  0.45593999997E+02  0.45594000000E+02  0.51100000000E-03 0. -1.
         11   -1    0    0    0    0 -0.00000000000E+00 -0.00000000000E+00 -0.45593999997E+02  0.45594000000E+02  0.51100000000E-03 0.  1.
    9900012    2    1    2    0    0 -0.30305175013E+02 -0.97814210331E+01 -0.16248245911E+01  0.59301954699E+02  0.50000019461E+02 0.  0.
        -12    1    1    2    0    0  0.30305175013E+02  0.97814210331E+01  0.16248245911E+01  0.31886045301E+02  0.00000000000E+00 0.  1.
         11    1    3    3    0    0 -0.17690751699E+02 -0.56031968883E+01 -0.14681758238E+02  0.23662471051E+02  0.51100000000E-03 0. -1.
        -11    1    3    3    0    0 -0.20734292006E+02 -0.10073880504E+02  0.10187695841E+02  0.25202838733E+02  0.51100000000E-03 0.  1.
         12    1    3    3    0    0  0.81198686915E+01  0.58956563596E+01  0.28692378060E+01  0.10436644914E+02  0.00000000000E+00 0. -1.
</event>
<event>
 7    1  0.5979290E-013  0.5930185E+02  0.7816164E-02  0.1266605E+00
        -11   -1    0    0    0    0  0.00000000000E+00  0.00000000000E+00  0.45593999997E+02  0.45594000000E+02  0.51100000000E-03 0. -1.
         11   -1    0    0    0    0 -0.00000000000E+00 -0.00000000000E+00 -0.45593999997E+02  0.45594000000E+02  0.51100000000E-03 0.  1.
    9900012    2    1    2    0    0 -0.30740701270E+02 -0.15569284165E+01  0.83253835646E+01  0.59301847015E+02  0.49999823072E+02 0.  0.
        -12    1    1    2    0    0  0.30740701270E+02  0.15569284165E+01 -0.83253835646E+01  0.31886152985E+02  0.00000000000E+00 0.  1.
         11    1    3    3    0    0 -0.19804333478E+02 -0.16164915457E+02  0.18142169778E+02  0.31347319515E+02  0.51100000000E-03 0. -1.
        -11    1    3    3    0    0 -0.91037287861E+01  0.13145369070E+02 -0.15213157210E+02  0.22070767054E+02  0.51100000000E-03 0.  1.
         12    1    3    3    0    0 -0.18326390064E+01  0.14626179706E+01  0.53963709967E+01  0.58837604463E+01  0.00000000000E+00 0. -1.
</event>
<event>
 7    1  0.5979290E-013  0.5930215E+02  0.7816164E-02  0.1266604E+00
        -11   -1    0    0    0    0  0.00000000000E+00  0.00000000000E+00  0.45593999997E+02  0.45594000000E+02  0.51100000000E-03 0.  1.
         11   -1    0    0    0    0 -0.00000000000E+00 -0.00000000000E+00 -0.45593999997E+02  0.45594000000E+02  0.51100000000E-03 0. -1.
    9900012    2    1    2    0    0 -0.39536758500E+01 -0.14025419141E+02 -0.28361303499E+02  0.59302149361E+02  0.50000374477E+02 0.  0.
        -12    1    1    2    0    0  0.39536758500E+01  0.14025419141E+02  0.28361303499E+02  0.31885850639E+02  0.00000000000E+00 0.  1.
         11    1    3    3    0    0 -0.15334776343E+02 -0.63639795940E+01 -0.25287069104E+02  0.30250478771E+02  0.51100000000E-03 0. -1.
        -11    1    3    3    0    0  0.39864155300E+00 -0.41237295007E+01  0.10469528567E+02  0.11259444425E+02  0.51100000000E-03 0.  1.
         12    1    3    3    0    0  0.10982458940E+02 -0.35377100461E+01 -0.13543762962E+02  0.17792226165E+02  0.00000000000E+00 0. -1.
</event>
<event>
 7    1  0.5979290E-013  0.5930193E+02  0.7816164E-02  0.1266605E+00
        -11   -1    0    0    0    0  0.00000000000E+00  0.00000000000E+00  0.45593999997E+02  0.45594000000E+02  0.51100000000E-03 0.  1.
         11   -1    0    0    0    0 -0.00000000000E+00 -0.00000000000E+00 -0.45593999997E+02  0.45594000000E+02  0.51100000000E-03 0. -1.
    9900012    2    1    2    0    0  0.18229194335E+02  0.23899233717E+02 -0.10641635438E+02  0.59301932460E+02  0.49999978903E+02 0.  0.
        -12    1    1    2    0    0 -0.18229194335E+02 -0.23899233717E+02  0.10641635438E+02  0.31886067540E+02  0.00000000000E+00 0.  1.
         11    1    3    3    0    0  0.87470942609E+01  0.22705203028E+02 -0.50053794028E+01  0.24841330998E+02  0.51100000000E-03 0. -1.
        -11    1    3    3    0    0  0.79989065304E+01 -0.74226168457E+01  0.11107819466E+02  0.15571172084E+02  0.51100000000E-03 0.  1.
        -12    1    3    3    0    0  0.14831935435E+01  0.86166475354E+01 -0.16744075501E+02  0.18889429378E+02  0.00000000000E+00 0.  1.
</event>
<event>
 7    1  0.5979290E-013  0.5930194E+02  0.7816164E-02  0.1266605E+00
        -11   -1    0    0    0    0  0.00000000000E+00  0.00000000000E+00  0.45593999997E+02  0.45594000000E+02  0.51100000000E-03 0.  1.
         11   -1    0    0    0    0 -0.00000000000E+00 -0.00000000000E+00 -0.45593999997E+02  0.45594000000E+02  0.51100000000E-03 0. -1.
    9900012    2    1    2    0    0 -0.36437465031E+01 -0.67389149686E-01 -0.31677111805E+02  0.59301939688E+02  0.49999992086E+02 0.  0.
        -12    1    1    2    0    0  0.36437465031E+01  0.67389149686E-01  0.31677111805E+02  0.31886060312E+02  0.00000000000E+00 0.  1.
         11    1    3    3    0    0 -0.80796846716E+01 -0.10776359415E+02 -0.71123140120E+01  0.15231422701E+02  0.51100000000E-03 0. -1.
        -11    1    3    3    0    0  0.14605462615E+02  0.87924530722E+00  0.11977716376E+01  0.14680846966E+02  0.51100000000E-03 0.  1.
         12    1    3    3    0    0 -0.10169524446E+02  0.98297249584E+01 -0.25762569431E+02  0.29389670020E+02  0.00000000000E+00 0. -1.
</event>
<event>
 7    1  0.5979290E-013  0.5930197E+02  0.7816164E-02  0.1266605E+00
        -11   -1    0    0    0    0  0.00000000000E+00  0.00000000000E+00  0.45593999997E+02  0.45594000000E+02  0.51100000000E-03 0.  1.
         11   -1    0    0    0    0 -0.00000000000E+00 -0.00000000000E+00 -0.45593999997E+02  0.45594000000E+02  0.51100000000E-03 0. -1.
    9900012    2    1    2    0    0 -0.31442907770E+01  0.20299792324E+02 -0.24387513354E+02  0.59301969509E+02  0.50000046471E+02 0.  0.
        -12    1    1    2    0    0  0.31442907770E+01 -0.20299792324E+02  0.24387513354E+02  0.31886030491E+02  0.00000000000E+00 0.  1.
         11    1    3    3    0    0  0.14169979508E+02  0.10795475680E+02 -0.46071437266E+01  0.18399901848E+02  0.51100000000E-03 0. -1.
        -11    1    3    3    0    0 -0.16336518188E+02  0.83528779361E+01  0.25466737460E+01  0.18523982934E+02  0.51100000000E-03 0.  1.
        -12    1    3    3    0    0 -0.97775209743E+00  0.11514387081E+01 -0.22327043373E+02  0.22378084727E+02  0.00000000000E+00 0.  1.
</event>
<event>
 7    1  0.5979290E-013  0.5930203E+02  0.7816164E-02  0.1266604E+00
        -11   -1    0    0    0    0  0.00000000000E+00  0.00000000000E+00  0.45593999997E+02  0.45594000000E+02  0.51100000000E-03 0.  1.
         11   -1    0    0    0    0 -0.00000000000E+00 -0.00000000000E+00 -0.45593999997E+02  0.45594000000E+02  0.51100000000E-03 0. -1.
    9900012    2    1    2    0    0  0.27228028800E+02  0.56732354438E+01  0.15593718933E+02  0.59302027804E+02  0.50000152787E+02 0.  0.
        -12    1    1    2    0    0 -0.27228028800E+02 -0.56732354438E+01 -0.15593718933E+02  0.31885972196E+02  0.00000000000E+00 0.  1.
         11    1    3    3    0    0 -0.73744379677E+00  0.18756354154E+02 -0.33983439488E+01  0.19075989787E+02  0.51100000000E-03 0. -1.
        -11    1    3    3    0    0  0.13827101618E+02 -0.12698677392E+02  0.32313223628E+01  0.19049582440E+02  0.51100000000E-03 0.  1.
         12    1    3    3    0    0  0.14138370979E+02 -0.38444131783E+00  0.15760740519E+02  0.21176455577E+02  0.00000000000E+00 0. -1.
</event>
<event>
 7    1  0.5979290E-013  0.5930197E+02  0.7816164E-02  0.1266605E+00
        -11   -1    0    0    0    0  0.00000000000E+00  0.00000000000E+00  0.45593999997E+02  0.45594000000E+02  0.51100000000E-03 0.  1.
         11   -1    0    0    0    0 -0.00000000000E+00 -0.00000000000E+00 -0.45593999997E+02  0.45594000000E+02  0.51100000000E-03 0. -1.
    9900012    2    1    2    0    0  0.10630303963E+02  0.30014604807E+02 -0.16850089446E+01  0.59301966707E+02  0.50000041361E+02 0.  0.
        -12    1    1    2    0    0 -0.10630303963E+02 -0.30014604807E+02  0.16850089446E+01  0.31886033293E+02  0.00000000000E+00 0.  1.
         11    1    3    3    0    0  0.61470170802E+01  0.35044974317E+02  0.50083832134E+01  0.35930766017E+02  0.51100000000E-03 0. -1.
        -11    1    3    3    0    0  0.12032561098E+02 -0.55380251921E+01  0.35110814282E-01  0.13245885499E+02  0.51100000000E-03 0.  1.
        -12    1    3    3    0    0 -0.75492742156E+01  0.50765568139E+00 -0.67285029723E+01  0.10125315191E+02  0.00000000000E+00 0.  1.
</event>
<event>
 7    1  0.5979290E-013  0.5930194E+02  0.7816164E-02  0.1266605E+00
        -11   -1    0    0    0    0  0.00000000000E+00  0.00000000000E+00  0.45593999997E+02  0.45594000000E+02  0.51100000000E-03 0. -1.
         11   -1    0    0    0    0 -0.00000000000E+00 -0.00000000000E+00 -0.45593999997E+02  0.45594000000E+02  0.51100000000E-03 0.  1.
    9900012    2    1    2    0    0 -0.26676114902E+02  0.55871898695E+01  0.16549599670E+02  0.59301936490E+02  0.49999986253E+02 0.  0.
        -12    1    1    2    0    0  0.26676114902E+02 -0.55871898695E+01 -0.16549599670E+02  0.31886063510E+02  0.00000000000E+00 0.  1.
         11    1    3    3    0    0  0.60704342922E+01  0.24837741820E+01  0.13345464479E+02  0.14870128752E+02  0.51100000000E-03 0. -1.
        -11    1    3    3    0    0 -0.22013127305E+02  0.16071712946E+02 -0.20274440610E+00  0.27256537497E+02  0.51100000000E-03 0.  1.
        -12    1    3    3    0    0 -0.10733421890E+02 -0.12968297259E+02  0.34068795977E+01  0.17175270241E+02  0.00000000000E+00 0.  1.
</event>
<event>
 7    1  0.5979290E-013  0.5930191E+02  0.7816164E-02  0.1266605E+00
        -11   -1    0    0    0    0  0.00000000000E+00  0.00000000000E+00  0.45593999997E+02  0.45594000000E+02  0.51100000000E-03 0.  1.
         11   -1    0    0    0    0 -0.00000000000E+00 -0.00000000000E+00 -0.45593999997E+02  0.45594000000E+02  0.51100000000E-03 0. -1.
    9900012    2    1    2    0    0 -0.10301611254E+02  0.28871335155E+02 -0.87775428064E+01  0.59301914543E+02  0.49999946227E+02 0.  0.
        -12    1    1    2    0    0  0.10301611254E+02 -0.28871335155E+02  0.87775428064E+01  0.31886085457E+02  0.00000000000E+00 0.  1.
         11    1    3    3    0    0  0.18427559325E+02  0.17144696802E+02 -0.56740129393E+01  0.25801356441E+02  0.51100000000E-03 0. -1.
        -11    1    3    3    0    0 -0.11513959851E+02  0.96052360907E+01  0.26480199095E+01  0.15226419195E+02  0.51100000000E-03 0.  1.
         12    1    3    3    0    0 -0.17215210727E+02  0.21214022623E+01 -0.57515497767E+01  0.18274138907E+02  0.00000000000E+00 0. -1.
</event>
<event>
 7    1  0.5979290E-013  0.5930206E+02  0.7816164E-02  0.1266604E+00
        -11   -1    0    0    0    0  0.00000000000E+00  0.00000000000E+00  0.45593999997E+02  0.45594000000E+02  0.51100000000E-03 0.  1.
         11   -1    0    0    0    0 -0.00000000000E+00 -0.00000000000E+00 -0.45593999997E+02  0.45594000000E+02  0.51100000000E-03 0. -1.
    9900012    2    1    2    0    0  0.19351733982E+01 -0.63518596667E+01 -0.31186892668E+02  0.59302058089E+02  0.50000208019E+02 0.  0.
        -12    1    1    2    0    0 -0.19351733982E+01  0.63518596667E+01  0.31186892668E+02  0.31885941911E+02  0.00000000000E+00 0.  1.
         11    1    3    3    0    0 -0.19311960841E+02 -0.11252089738E+02 -0.28971480948E+02  0.36591092680E+02  0.51100000000E-03 0. -1.
        -11    1    3    3    0    0  0.94826527627E+01  0.50973399044E+01 -0.16247165985E+00  0.10767078286E+02  0.51100000000E-03 0.  1.
         12    1    3    3    0    0  0.11764481476E+02 -0.19710983335E+00 -0.20529400602E+01  0.11943887122E+02  0.00000000000E+00 0. -1.
</event>
<event>
 7    1  0.5979290E-013  0.5930197E+02  0.7816164E-02  0.1266605E+00
        -11   -1    0    0    0    0  0.00000000000E+00  0.00000000000E+00  0.45593999997E+02  0.45594000000E+02  0.51100000000E-03 0.  1.
         11   -1    0    0    0    0 -0.00000000000E+00 -0.00000000000E+00 -0.45593999997E+02  0.45594000000E+02  0.51100000000E-03 0. -1.
    9900012    2    1    2    0    0 -0.25105934155E+02  0.19592266844E+02  0.15982420822E+01  0.59301965006E+02  0.50000038260E+02 0.  0.
        -12    1    1    2    0    0  0.25105934155E+02 -0.19592266844E+02 -0.15982420822E+01  0.31886034994E+02  0.00000000000E+00 0.  1.
         11    1    3    3    0    0 -0.26293906656E+01  0.14947259293E+02  0.30127363478E+01  0.15472906521E+02  0.51100000000E-03 0. -1.
        -11    1    3    3    0    0 -0.24746097534E+02 -0.10096278495E+02 -0.74403675124E+01  0.27742805403E+02  0.51100000000E-03 0.  1.
        -12    1    3    3    0    0  0.22695540452E+01  0.14741286046E+02  0.60258732469E+01  0.16086253082E+02  0.00000000000E+00 0.  1.
</event>
<event>
 7    1  0.5979290E-013  0.5930194E+02  0.7816164E-02  0.1266605E+00
        -11   -1    0    0    0    0  0.00000000000E+00  0.00000000000E+00  0.45593999997E+02  0.45594000000E+02  0.51100000000E-03 0.  1.
         11   -1    0    0    0    0 -0.00000000000E+00 -0.00000000000E+00 -0.45593999997E+02  0.45594000000E+02  0.51100000000E-03 0. -1.
    9900012    2    1    2    0    0 -0.10137107696E+02  0.16734340361E+02 -0.25177806133E+02  0.59301936878E+02  0.49999986960E+02 0.  0.
        -12    1    1    2    0    0  0.10137107696E+02 -0.16734340361E+02  0.25177806133E+02  0.31886063122E+02  0.00000000000E+00 0.  1.
         11    1    3    3    0    0 -0.25248831348E+02 -0.48790643255E+01 -0.88823146962E+01  0.27206695275E+02  0.51100000000E-03 0.  1.
        -11    1    3    3    0    0  0.12107191912E+02  0.10268508495E+02 -0.85194443297E+01  0.18016861398E+02  0.51100000000E-03 0. -1.
        -12    1    3    3    0    0  0.30045317403E+01  0.11344896192E+02 -0.77760471067E+01  0.14078380205E+02  0.00000000000E+00 0.  1.
</event>
<event>
 7    1  0.5979290E-013  0.5930189E+02  0.7816164E-02  0.1266605E+00
        -11   -1    0    0    0    0  0.00000000000E+00  0.00000000000E+00  0.45593999997E+02  0.45594000000E+02  0.51100000000E-03 0. -1.
         11   -1    0    0    0    0 -0.00000000000E+00 -0.00000000000E+00 -0.45593999997E+02  0.45594000000E+02  0.51100000000E-03 0.  1.
    9900012    2    1    2    0    0 -0.10003337935E+02 -0.12796317130E+02  0.27439236865E+02  0.59301886696E+02  0.49999895440E+02 0.  0.
        -12    1    1    2    0    0  0.10003337935E+02  0.12796317130E+02 -0.27439236865E+02  0.31886113304E+02  0.00000000000E+00 0.  1.
         11    1    3    3    0    0  0.13400003577E+02 -0.37660907364E+01  0.22141458289E+02  0.26153158714E+02  0.51100000000E-03 0. -1.
        -11    1    3    3    0    0 -0.27388177255E+02 -0.71549499908E+01  0.48801869212E+01  0.28724933200E+02  0.51100000000E-03 0.  1.
         12    1    3    3    0    0  0.39848357431E+01 -0.18752764026E+01  0.41759165491E+00  0.44237947823E+01  0.00000000000E+00 0. -1.
</event>
<event>
 7    1  0.5979290E-013  0.5930197E+02  0.7816164E-02  0.1266605E+00
        -11   -1    0    0    0    0  0.00000000000E+00  0.00000000000E+00  0.45593999997E+02  0.45594000000E+02  0.51100000000E-03 0. -1.
         11   -1    0    0    0    0 -0.00000000000E+00 -0.00000000000E+00 -0.45593999997E+02  0.45594000000E+02  0.51100000000E-03 0.  1.
    9900012    2    1    2    0    0 -0.19175374578E+02 -0.50463673664E+01  0.24971149913E+02  0.59301966353E+02  0.50000040716E+02 0.  0.
        -12    1    1    2    0    0  0.19175374578E+02  0.50463673664E+01 -0.24971149913E+02  0.31886033647E+02  0.00000000000E+00 0.  1.
         11    1    3    3    0    0 -0.60780590985E+00 -0.23487308772E+00 -0.14003127786E+02  0.14018280260E+02  0.51100000000E-03 0. -1.
        -11    1    3    3    0    0 -0.36236644791E+01  0.37708899815E+01  0.52437499895E+01  0.74059077582E+01  0.51100000000E-03 0.  1.
         12    1    3    3    0    0 -0.14943904189E+02 -0.85823842602E+01  0.33730527709E+02  0.37877778334E+02  0.00000000000E+00 0. -1.
</event>
<event>
 7    1  0.5979290E-013  0.5930195E+02  0.7816164E-02  0.1266605E+00
        -11   -1    0    0    0    0  0.00000000000E+00  0.00000000000E+00  0.45593999997E+02  0.45594000000E+02  0.51100000000E-03 0.  1.
         11   -1    0    0    0    0 -0.00000000000E+00 -0.00000000000E+00 -0.45593999997E+02  0.45594000000E+02  0.51100000000E-03 0. -1.
    9900012    2    1    2    0    0  0.29388856355E+02  0.16875207582E+01 -0.12254276219E+02  0.59301954623E+02  0.50000019323E+02 0.  0.
        -12    1    1    2    0    0 -0.29388856355E+02 -0.16875207582E+01  0.12254276219E+02  0.31886045377E+02  0.00000000000E+00 0.  1.
         11    1    3    3    0    0  0.14495130341E+02 -0.11300605084E+02 -0.18306601193E+02  0.25941166634E+02  0.51100000000E-03 0. -1.
        -11    1    3    3    0    0  0.19497907740E+02  0.99677339234E+01  0.12232770480E+02  0.25083157689E+02  0.51100000000E-03 0.  1.
        -12    1    3    3    0    0 -0.46041817259E+01  0.30203919188E+01 -0.61804455065E+01  0.82776302990E+01  0.00000000000E+00 0.  1.
</event>
<event>
 7    1  0.5979290E-013  0.5930167E+02  0.7816164E-02  0.1266606E+00
        -11   -1    0    0    0    0  0.00000000000E+00  0.00000000000E+00  0.45593999997E+02  0.45594000000E+02  0.51100000000E-03 0. -1.
         11   -1    0    0    0    0 -0.00000000000E+00 -0.00000000000E+00 -0.45593999997E+02  0.45594000000E+02  0.51100000000E-03 0.  1.
    9900012    2    1    2    0    0 -0.81469189515E+00 -0.10680971849E+02  0.30033170714E+02  0.59301667102E+02  0.49999494952E+02 0.  0.
        -12    1    1    2    0    0  0.81469189515E+00  0.10680971849E+02 -0.30033170714E+02  0.31886332898E+02  0.00000000000E+00 0.  1.
         11    1    3    3    0    0  0.16428288101E+02 -0.13150879394E+02  0.19947250559E+02  0.28995294168E+02  0.51100000000E-03 0. -1.
        -11    1    3    3    0    0 -0.14311424062E+02  0.46759087557E+01  0.16859121705E+02  0.22603339716E+02  0.51100000000E-03 0.  1.
        -12    1    3    3    0    0 -0.29315559341E+01 -0.22060012103E+01 -0.67732015500E+01  0.77030332189E+01  0.00000000000E+00 0.  1.
</event>
<event>
 7    1  0.5979290E-013  0.5930193E+02  0.7816164E-02  0.1266605E+00
        -11   -1    0    0    0    0  0.00000000000E+00  0.00000000000E+00  0.45593999997E+02  0.45594000000E+02  0.51100000000E-03 0. -1.
         11   -1    0    0    0    0 -0.00000000000E+00 -0.00000000000E+00 -0.45593999997E+02  0.45594000000E+02  0.51100000000E-03 0.  1.
    9900012    2    1    2    0    0  0.27106905018E+02 -0.95859555140E+00  0.16763597924E+02  0.59301930621E+02  0.49999975549E+02 0.  0.
        -12    1    1    2    0    0 -0.27106905018E+02  0.95859555140E+00 -0.16763597924E+02  0.31886069379E+02  0.00000000000E+00 0.  1.
         11    1    3    3    0    0  0.28891024391E+02  0.17413754402E+02  0.16591426814E+02  0.37592626627E+02  0.51100000000E-03 0. -1.
        -11    1    3    3    0    0  0.36348726646E-01 -0.64424130804E+01 -0.54100218851E+01  0.84127489316E+01  0.51100000000E-03 0.  1.
         12    1    3    3    0    0 -0.18204681001E+01 -0.11929936873E+02  0.55821929959E+01  0.13296555063E+02  0.00000000000E+00 0. -1.
</event>
<event>
 7    1  0.5979290E-013  0.5930195E+02  0.7816164E-02  0.1266605E+00
        -11   -1    0    0    0    0  0.00000000000E+00  0.00000000000E+00  0.45593999997E+02  0.45594000000E+02  0.51100000000E-03 0.  1.
         11   -1    0    0    0    0 -0.00000000000E+00 -0.00000000000E+00 -0.45593999997E+02  0.45594000000E+02  0.51100000000E-03 0. -1.
    9900012    2    1    2    0    0  0.27519832650E+02  0.16019560603E+02  0.16590943200E+01  0.59301951249E+02  0.50000013170E+02 0.  0.
        -12    1    1    2    0    0 -0.27519832650E+02 -0.16019560603E+02 -0.16590943200E+01  0.31886048751E+02  0.00000000000E+00 0.  1.
         11    1    3    3    0    0  0.24542277906E+02 -0.29637521598E+00  0.78859849194E+01  0.25779837112E+02  0.51100000000E-03 0. -1.
        -11    1    3    3    0    0 -0.10921886031E+02  0.56511309716E+01  0.43658087264E+01  0.13049259053E+02  0.51100000000E-03 0.  1.
         12    1    3    3    0    0  0.13899440775E+02  0.10664804848E+02 -0.10592699326E+02  0.20472855084E+02  0.00000000000E+00 0. -1.
</event>
<event>
 7    1  0.5979290E-013  0.5930192E+02  0.7816164E-02  0.1266605E+00
        -11   -1    0    0    0    0  0.00000000000E+00  0.00000000000E+00  0.45593999997E+02  0.45594000000E+02  0.51100000000E-03 0. -1.
         11   -1    0    0    0    0 -0.00000000000E+00 -0.00000000000E+00 -0.45593999997E+02  0.45594000000E+02  0.51100000000E-03 0.  1.
    9900012    2    1    2    0    0  0.10143514252E+02  0.23754821832E+02  0.18695982300E+02  0.59301918463E+02  0.49999953376E+02 0.  0.
        -12    1    1    2    0    0 -0.10143514252E+02 -0.23754821832E+02 -0.18695982300E+02  0.31886081537E+02  0.00000000000E+00 0.  1.
         11    1    3    3    0    0  0.85621330782E+00  0.77895196291E+01  0.21052431060E+02  0.22463627736E+02  0.51100000000E-03 0. -1.
        -11    1    3    3    0    0  0.11445017076E+02  0.75302679588E+01 -0.15742950130E+02  0.20869447296E+02  0.51100000000E-03 0.  1.
        -12    1    3    3    0    0 -0.21577161317E+01  0.84350342438E+01  0.13386501370E+02  0.15968843431E+02  0.00000000000E+00 0.  1.
</event>
<event>
 7    1  0.5979290E-013  0.5930192E+02  0.7816164E-02  0.1266605E+00
        -11   -1    0    0    0    0  0.00000000000E+00  0.00000000000E+00  0.45593999997E+02  0.45594000000E+02  0.51100000000E-03 0.  1.
         11   -1    0    0    0    0 -0.00000000000E+00 -0.00000000000E+00 -0.45593999997E+02  0.45594000000E+02  0.51100000000E-03 0. -1.
    9900012    2    1    2    0    0 -0.27957903134E+02  0.15084219802E+02  0.27466590093E+01  0.59301918861E+02  0.49999954101E+02 0.  0.
        -12    1    1    2    0    0  0.27957903134E+02 -0.15084219802E+02 -0.27466590093E+01  0.31886081139E+02  0.00000000000E+00 0.  1.
         11    1    3    3    0    0 -0.16452136414E+01  0.11121851578E+02 -0.18078443042E+02  0.21289255824E+02  0.51100000000E-03 0. -1.
        -11    1    3    3    0    0 -0.21858442386E+01 -0.87078807237E+00  0.11436750883E+02  0.11676277572E+02  0.51100000000E-03 0.  1.
        -12    1    3    3    0    0 -0.24126845254E+02  0.48331562963E+01  0.93883511679E+01  0.26336385465E+02  0.00000000000E+00 0.  1.
</event>
<event>
 7    1  0.5979290E-013  0.5930195E+02  0.7816164E-02  0.1266605E+00
        -11   -1    0    0    0    0  0.00000000000E+00  0.00000000000E+00  0.45593999997E+02  0.45594000000E+02  0.51100000000E-03 0. -1.
         11   -1    0    0    0    0 -0.00000000000E+00 -0.00000000000E+00 -0.45593999997E+02  0.45594000000E+02  0.51100000000E-03 0.  1.
    9900012    2    1    2    0    0  0.19994597960E+02 -0.21259964601E+02  0.12843292134E+02  0.59301949833E+02  0.50000010587E+02 0.  0.
        -12    1    1    2    0    0 -0.19994597960E+02  0.21259964601E+02 -0.12843292134E+02  0.31886050167E+02  0.00000000000E+00 0.  1.
         11    1    3    3    0    0  0.94901339107E+01 -0.38271771110E+00  0.73363763867E+01  0.12001313813E+02  0.51100000000E-03 0. -1.
        -11    1    3    3    0    0  0.18514212692E+02 -0.20232911600E+02 -0.10518662946E+02  0.29373271079E+02  0.51100000000E-03 0.  1.
        -12    1    3    3    0    0 -0.80097486428E+01 -0.64433529026E+00  0.16025578693E+02  0.17927364941E+02  0.00000000000E+00 0.  1.
</event>
<event>
 7    1  0.5979290E-013  0.5930197E+02  0.7816164E-02  0.1266605E+00
        -11   -1    0    0    0    0  0.00000000000E+00  0.00000000000E+00  0.45593999997E+02  0.45594000000E+02  0.51100000000E-03 0. -1.
         11   -1    0    0    0    0 -0.00000000000E+00 -0.00000000000E+00 -0.45593999997E+02  0.45594000000E+02  0.51100000000E-03 0.  1.
    9900012    2    1    2    0    0  0.15850951942E+02 -0.77276294725E+01 -0.26565957622E+02  0.59301967962E+02  0.50000043651E+02 0.  0.
        -12    1    1    2    0    0 -0.15850951942E+02  0.77276294725E+01  0.26565957622E+02  0.31886032038E+02  0.00000000000E+00 0.  1.
         11    1    3    3    0    0  0.20095931995E+02 -0.10890690788E+02 -0.25275860177E+02  0.34078185640E+02  0.51100000000E-03 0.  1.
        -11    1    3    3    0    0 -0.63412969848E+00  0.58692295486E+01  0.10806021960E+02  0.12313410853E+02  0.51100000000E-03 0. -1.
         12    1    3    3    0    0 -0.36108503544E+01 -0.27061682326E+01 -0.12096119406E+02  0.12910371469E+02  0.00000000000E+00 0. -1.
</event>
<event>
 7    1  0.5979290E-013  0.5930194E+02  0.7816164E-02  0.1266605E+00
        -11   -1    0    0    0    0  0.00000000000E+00  0.00000000000E+00  0.45593999997E+02  0.45594000000E+02  0.51100000000E-03 0. -1.
         11   -1    0    0    0    0 -0.00000000000E+00 -0.00000000000E+00 -0.45593999997E+02  0.45594000000E+02  0.51100000000E-03 0.  1.
    9900012    2    1    2    0    0 -0.24130940318E+02  0.20841597259E+02 -0.21554793382E+00  0.59301938502E+02  0.49999989923E+02 0.  0.
        -12    1    1    2    0    0  0.24130940318E+02 -0.20841597259E+02  0.21554793382E+00  0.31886061498E+02  0.00000000000E+00 0.  1.
         11    1    3    3    0    0 -0.18238310048E+02  0.11513267482E+01  0.19417227954E+02  0.26664400394E+02  0.51100000000E-03 0. -1.
        -11    1    3    3    0    0 -0.76558148368E+01  0.20550146927E+02 -0.12504912827E+02  0.25244660517E+02  0.51100000000E-03 0.  1.
         12    1    3    3    0    0  0.17631845668E+01 -0.85987641713E+00 -0.71278630603E+01  0.73928775911E+01  0.00000000000E+00 0. -1.
</event>
<event>
 7    1  0.5979290E-013  0.5930195E+02  0.7816164E-02  0.1266605E+00
        -11   -1    0    0    0    0  0.00000000000E+00  0.00000000000E+00  0.45593999997E+02  0.45594000000E+02  0.51100000000E-03 0.  1.
         11   -1    0    0    0    0 -0.00000000000E+00 -0.00000000000E+00 -0.45593999997E+02  0.45594000000E+02  0.51100000000E-03 0. -1.
    9900012    2    1    2    0    0  0.70342276152E+01 -0.31051863082E+02  0.17382305214E+01  0.59301952826E+02  0.50000016046E+02 0.  0.
        -12    1    1    2    0    0 -0.70342276152E+01  0.31051863082E+02 -0.17382305214E+01  0.31886047174E+02  0.00000000000E+00 0.  1.
         11    1    3    3    0    0  0.61929842227E+01 -0.98389653335E+01  0.68084034570E+01  0.13472663074E+02  0.51100000000E-03 0. -1.
        -11    1    3    3    0    0 -0.41291857668E+01  0.98352535134E+01 -0.92376022809E+01  0.14110835657E+02  0.51100000000E-03 0.  1.
        -12    1    3    3    0    0  0.49704291593E+01 -0.31048151262E+02  0.41674293453E+01  0.31718454095E+02  0.00000000000E+00 0.  1.
</event>
<event>
 7    1  0.5979290E-013  0.5930167E+02  0.7816164E-02  0.1266606E+00
        -11   -1    0    0    0    0  0.00000000000E+00  0.00000000000E+00  0.45593999997E+02  0.45594000000E+02  0.51100000000E-03 0. -1.
         11   -1    0    0    0    0 -0.00000000000E+00 -0.00000000000E+00 -0.45593999997E+02  0.45594000000E+02  0.51100000000E-03 0.  1.
    9900012    2    1    2    0    0 -0.46106602897E+01  0.51159832702E+00  0.31547082489E+02  0.59301665392E+02  0.49999491833E+02 0.  0.
        -12    1    1    2    0    0  0.46106602897E+01 -0.51159832702E+00 -0.31547082489E+02  0.31886334608E+02  0.00000000000E+00 0.  1.
         11    1    3    3    0    0 -0.15466356792E+02 -0.63217637462E+01  0.31791174977E+02  0.35914505370E+02  0.51100000000E-03 0. -1.
        -11    1    3    3    0    0  0.12548228431E+02 -0.11983493370E+01  0.50942503290E+01  0.13595788487E+02  0.51100000000E-03 0.  1.
         12    1    3    3    0    0 -0.16925319287E+01  0.80317114102E+01 -0.53383428172E+01  0.97913715352E+01  0.00000000000E+00 0. -1.
</event>
<event>
 7    1  0.5979290E-013  0.5930193E+02  0.7816164E-02  0.1266605E+00
        -11   -1    0    0    0    0  0.00000000000E+00  0.00000000000E+00  0.45593999997E+02  0.45594000000E+02  0.51100000000E-03 0.  1.
         11   -1    0    0    0    0 -0.00000000000E+00 -0.00000000000E+00 -0.45593999997E+02  0.45594000000E+02  0.51100000000E-03 0. -1.
    9900012    2    1    2    0    0  0.30398432820E+02 -0.80529028579E+01  0.52732839543E+01  0.59301929592E+02  0.49999973673E+02 0.  0.
        -12    1    1    2    0    0 -0.30398432820E+02  0.80529028579E+01 -0.52732839543E+01  0.31886070408E+02  0.00000000000E+00 0.  1.
         11    1    3    3    0    0 -0.10666278752E+02 -0.62994975775E+01  0.11828410561E+01  0.12443965821E+02  0.51100000000E-03 0. -1.
        -11    1    3    3    0    0  0.26303680464E+02  0.16142313783E+01  0.12900111491E+02  0.29341135384E+02  0.51100000000E-03 0.  1.
         12    1    3    3    0    0  0.14761031108E+02 -0.33676366587E+01 -0.88096685925E+01  0.17516828387E+02  0.00000000000E+00 0. -1.
</event>
<event>
 7    1  0.5979290E-013  0.5930195E+02  0.7816164E-02  0.1266605E+00
        -11   -1    0    0    0    0  0.00000000000E+00  0.00000000000E+00  0.45593999997E+02  0.45594000000E+02  0.51100000000E-03 0. -1.
         11   -1    0    0    0    0 -0.00000000000E+00 -0.00000000000E+00 -0.45593999997E+02  0.45594000000E+02  0.51100000000E-03 0.  1.
    9900012    2    1    2    0    0  0.13340692561E+02 -0.28514128505E+02  0.50686049291E+01  0.59301947276E+02  0.50000005924E+02 0.  0.
        -12    1    1    2    0    0 -0.13340692561E+02  0.28514128505E+02 -0.50686049291E+01  0.31886052724E+02  0.00000000000E+00 0.  1.
         11    1    3    3    0    0  0.52012826137E+01 -0.46108747214E+01 -0.13465904927E+02  0.15154012745E+02  0.51100000000E-03 0. -1.
        -11    1    3    3    0    0  0.92493634558E+01 -0.23163465695E+02  0.26313157347E+02  0.36255745988E+02  0.51100000000E-03 0.  1.
        -12    1    3    3    0    0 -0.11099535089E+01 -0.73978808853E+00 -0.77786474908E+01  0.78921885427E+01  0.00000000000E+00 0.  1.
</event>
<event>
 7    1  0.5979290E-013  0.5930195E+02  0.7816164E-02  0.1266605E+00
        -11   -1    0    0    0    0  0.00000000000E+00  0.00000000000E+00  0.45593999997E+02  0.45594000000E+02  0.51100000000E-03 0. -1.
         11   -1    0    0    0    0 -0.00000000000E+00 -0.00000000000E+00 -0.45593999997E+02  0.45594000000E+02  0.51100000000E-03 0.  1.
    9900012    2    1    2    0    0  0.26368476912E+02 -0.12503375448E+02  0.12848712166E+02  0.59301946990E+02  0.50000005403E+02 0.  0.
        -12    1    1    2    0    0 -0.26368476912E+02  0.12503375448E+02 -0.12848712166E+02  0.31886053010E+02  0.00000000000E+00 0.  1.
         11    1    3    3    0    0  0.17888442548E+01 -0.95086845749E+01  0.16702885044E+02  0.19302886188E+02  0.51100000000E-03 0. -1.
        -11    1    3    3    0    0  0.49987362279E+01  0.95775553360E+01 -0.11235373658E+02  0.15586871129E+02  0.51100000000E-03 0.  1.
        -12    1    3    3    0    0  0.19580896429E+02 -0.12572246209E+02  0.73812007794E+01  0.24412189673E+02  0.00000000000E+00 0.  1.
</event>
<event>
 7    1  0.5979290E-013  0.5930193E+02  0.7816164E-02  0.1266605E+00
        -11   -1    0    0    0    0  0.00000000000E+00  0.00000000000E+00  0.45593999997E+02  0.45594000000E+02  0.51100000000E-03 0.  1.
         11   -1    0    0    0    0 -0.00000000000E+00 -0.00000000000E+00 -0.45593999997E+02  0.45594000000E+02  0.51100000000E-03 0. -1.
    9900012    2    1    2    0    0  0.27150989227E+02 -0.16703667025E+02 -0.72986273742E+00  0.59301930821E+02  0.49999975913E+02 0.  0.
        -12    1    1    2    0    0 -0.27150989227E+02  0.16703667025E+02  0.72986273742E+00  0.31886069179E+02  0.00000000000E+00 0.  1.
         11    1    3    3    0    0  0.55630979358E+01 -0.44622716270E+00  0.57375721759E+00  0.56103809969E+01  0.51100000000E-03 0. -1.
        -11    1    3    3    0    0  0.58783724605E+01  0.39718023568E+01 -0.20493966539E+02  0.21687165364E+02  0.51100000000E-03 0.  1.
        -12    1    3    3    0    0  0.15709518831E+02 -0.20229242219E+02  0.19190346584E+02  0.32004384460E+02  0.00000000000E+00 0.  1.
</event>
<event>
 7    1  0.5979290E-013  0.5930202E+02  0.7816164E-02  0.1266604E+00
        -11   -1    0    0    0    0  0.00000000000E+00  0.00000000000E+00  0.45593999997E+02  0.45594000000E+02  0.51100000000E-03 0. -1.
         11   -1    0    0    0    0 -0.00000000000E+00 -0.00000000000E+00 -0.45593999997E+02  0.45594000000E+02  0.51100000000E-03 0.  1.
    9900012    2    1    2    0    0 -0.31458635757E+02 -0.48636098108E+01  0.18480123410E+01  0.59302021676E+02  0.50000141612E+02 0.  0.
        -12    1    1    2    0    0  0.31458635757E+02  0.48636098108E+01 -0.18480123410E+01  0.31885978324E+02  0.00000000000E+00 0.  1.
         11    1    3    3    0    0  0.10404382813E+01 -0.16445908261E+02 -0.63280258755E+01  0.17652034503E+02  0.51100000000E-03 0.  1.
        -11    1    3    3    0    0 -0.24656071650E+02  0.16739904609E+02  0.11125337243E+02  0.31810680668E+02  0.51100000000E-03 0. -1.
        -12    1    3    3    0    0 -0.78430023879E+01 -0.51576061587E+01 -0.29492990270E+01  0.98393065048E+01  0.00000000000E+00 0.  1.
</event>
<event>
 7    1  0.5979290E-013  0.5930195E+02  0.7816164E-02  0.1266605E+00
        -11   -1    0    0    0    0  0.00000000000E+00  0.00000000000E+00  0.45593999997E+02  0.45594000000E+02  0.51100000000E-03 0. -1.
         11   -1    0    0    0    0 -0.00000000000E+00 -0.00000000000E+00 -0.45593999997E+02  0.45594000000E+02  0.51100000000E-03 0.  1.
    9900012    2    1    2    0    0 -0.25159135766E+02  0.19385613478E+02  0.28171514542E+01  0.59301945608E+02  0.50000002882E+02 0.  0.
        -12    1    1    2    0    0  0.25159135766E+02 -0.19385613478E+02 -0.28171514542E+01  0.31886054392E+02  0.00000000000E+00 0.  1.
         11    1    3    3    0    0 -0.56700898763E+01  0.73915203489E+01  0.18723906089E+02  0.20913372559E+02  0.51100000000E-03 0. -1.
        -11    1    3    3    0    0 -0.23711354381E+02  0.10657046789E+02 -0.48057110813E+01  0.26436638064E+02  0.51100000000E-03 0.  1.
        -12    1    3    3    0    0  0.42223084918E+01  0.13370463395E+01 -0.11101043554E+02  0.11951934986E+02  0.00000000000E+00 0.  1.
</event>
<event>
 7    1  0.5979290E-013  0.5930190E+02  0.7816164E-02  0.1266605E+00
        -11   -1    0    0    0    0  0.00000000000E+00  0.00000000000E+00  0.45593999997E+02  0.45594000000E+02  0.51100000000E-03 0. -1.
         11   -1    0    0    0    0 -0.00000000000E+00 -0.00000000000E+00 -0.45593999997E+02  0.45594000000E+02  0.51100000000E-03 0.  1.
    9900012    2    1    2    0    0  0.16777602580E+02  0.53954474230E+01  0.26573002389E+02  0.59301901820E+02  0.49999923022E+02 0.  0.
        -12    1    1    2    0    0 -0.16777602580E+02 -0.53954474230E+01 -0.26573002389E+02  0.31886098180E+02  0.00000000000E+00 0.  1.
         11    1    3    3    0    0  0.92366467771E+01 -0.68080683674E+01  0.31566695205E+02  0.33587522757E+02  0.51100000000E-03 0. -1.
        -11    1    3    3    0    0  0.33803294427E+01  0.54515786654E+01 -0.12967943418E+02  0.14467684467E+02  0.51100000000E-03 0.  1.
        -12    1    3    3    0    0  0.41606263601E+01  0.67519371250E+01  0.79742506021E+01  0.11246694595E+02  0.00000000000E+00 0.  1.
</event>
<event>
 7    1  0.5979290E-013  0.5930194E+02  0.7816164E-02  0.1266605E+00
        -11   -1    0    0    0    0  0.00000000000E+00  0.00000000000E+00  0.45593999997E+02  0.45594000000E+02  0.51100000000E-03 0. -1.
         11   -1    0    0    0    0 -0.00000000000E+00 -0.00000000000E+00 -0.45593999997E+02  0.45594000000E+02  0.51100000000E-03 0.  1.
    9900012    2    1    2    0    0 -0.50945522040E+01  0.11300161794E+02  0.29378096914E+02  0.59301941965E+02  0.49999996239E+02 0.  0.
        -12    1    1    2    0    0  0.50945522040E+01 -0.11300161794E+02 -0.29378096914E+02  0.31886058035E+02  0.00000000000E+00 0.  1.
         11    1    3    3    0    0  0.45434903240E+01  0.13596379229E+02  0.16541050268E+02  0.21888608378E+02  0.51100000000E-03 0. -1.
        -11    1    3    3    0    0 -0.22173508030E+02 -0.37152474669E+01  0.91163537044E+01  0.24260573514E+02  0.51100000000E-03 0.  1.
        -12    1    3    3    0    0  0.12535465502E+02  0.14190300313E+01  0.37206929409E+01  0.13152760074E+02  0.00000000000E+00 0.  1.
</event>
<event>
 7    1  0.5979290E-013  0.5930195E+02  0.7816164E-02  0.1266605E+00
        -11   -1    0    0    0    0  0.00000000000E+00  0.00000000000E+00  0.45593999997E+02  0.45594000000E+02  0.51100000000E-03 0. -1.
         11   -1    0    0    0    0 -0.00000000000E+00 -0.00000000000E+00 -0.45593999997E+02  0.45594000000E+02  0.51100000000E-03 0.  1.
    9900012    2    1    2    0    0  0.36254031557E+01  0.22806180777E+02  0.21987604323E+02  0.59301950174E+02  0.50000011209E+02 0.  0.
        -12    1    1    2    0    0 -0.36254031557E+01 -0.22806180777E+02 -0.21987604323E+02  0.31886049826E+02  0.00000000000E+00 0.  1.
         11    1    3    3    0    0  0.34897299239E+01 -0.46795902549E+01  0.67011238846E+01  0.88871728617E+01  0.51100000000E-03 0. -1.
        -11    1    3    3    0    0  0.52221087795E+01  0.35254383639E+02  0.40963050811E+01  0.35873690938E+02  0.51100000000E-03 0.  1.
        -12    1    3    3    0    0 -0.50864355478E+01 -0.77686126080E+01  0.11190175357E+02  0.14541086375E+02  0.00000000000E+00 0.  1.
</event>
<event>
 7    1  0.5979290E-013  0.5930196E+02  0.7816164E-02  0.1266605E+00
        -11   -1    0    0    0    0  0.00000000000E+00  0.00000000000E+00  0.45593999997E+02  0.45594000000E+02  0.51100000000E-03 0.  1.
         11   -1    0    0    0    0 -0.00000000000E+00 -0.00000000000E+00 -0.45593999997E+02  0.45594000000E+02  0.51100000000E-03 0. -1.
    9900012    2    1    2    0    0  0.35007201564E+01  0.22941054635E+02 -0.21867163038E+02  0.59301955267E+02  0.50000020497E+02 0.  0.
        -12    1    1    2    0    0 -0.35007201564E+01 -0.22941054635E+02  0.21867163038E+02  0.31886044733E+02  0.00000000000E+00 0.  1.
         11    1    3    3    0    0  0.11120892034E+02  0.31761168245E+02 -0.13881180165E+02  0.36402379193E+02  0.51100000000E-03 0. -1.
        -11    1    3    3    0    0 -0.10774207071E+02 -0.10910891258E+02 -0.15218808130E+01  0.15409322098E+02  0.51100000000E-03 0.  1.
         12    1    3    3    0    0  0.31540351933E+01  0.20907776482E+01 -0.64641020600E+01  0.74902539754E+01  0.00000000000E+00 0. -1.
</event>
<event>
 7    1  0.5979290E-013  0.5930193E+02  0.7816164E-02  0.1266605E+00
        -11   -1    0    0    0    0  0.00000000000E+00  0.00000000000E+00  0.45593999997E+02  0.45594000000E+02  0.51100000000E-03 0.  1.
         11   -1    0    0    0    0 -0.00000000000E+00 -0.00000000000E+00 -0.45593999997E+02  0.45594000000E+02  0.51100000000E-03 0. -1.
    9900012    2    1    2    0    0 -0.10168675897E+02 -0.20265269415E+02 -0.22419603090E+02  0.59301925976E+02  0.49999967077E+02 0.  0.
        -12    1    1    2    0    0  0.10168675897E+02  0.20265269415E+02  0.22419603090E+02  0.31886074024E+02  0.00000000000E+00 0.  1.
         11    1    3    3    0    0 -0.13741881515E+02  0.12462003372E+02 -0.12832050204E+02  0.22556647542E+02  0.51100000000E-03 0. -1.
        -11    1    3    3    0    0  0.74630441161E+01 -0.16435565722E+02 -0.85235954799E+01  0.19961876872E+02  0.51100000000E-03 0.  1.
         12    1    3    3    0    0 -0.38898384978E+01 -0.16291707065E+02 -0.10639574063E+01  0.16783401562E+02  0.00000000000E+00 0. -1.
</event>
<event>
 7    1  0.5979290E-013  0.5930212E+02  0.7816164E-02  0.1266604E+00
        -11   -1    0    0    0    0  0.00000000000E+00  0.00000000000E+00  0.45593999997E+02  0.45594000000E+02  0.51100000000E-03 0.  1.
         11   -1    0    0    0    0 -0.00000000000E+00 -0.00000000000E+00 -0.45593999997E+02  0.45594000000E+02  0.51100000000E-03 0. -1.
    9900012    2    1    2    0    0  0.32336349502E+01 -0.25297919477E+02 -0.19138141319E+02  0.59302116321E+02  0.50000314221E+02 0.  0.
        -12    1    1    2    0    0 -0.32336349502E+01  0.25297919477E+02  0.19138141319E+02  0.31885883679E+02  0.00000000000E+00 0.  1.
         11    1    3    3    0    0  0.83520642008E+01 -0.41280564274E+01  0.13956196595E+02  0.16780144514E+02  0.51100000000E-03 0. -1.
        -11    1    3    3    0    0 -0.38228911054E+01  0.10128929592E+01 -0.85080390998E+01  0.93822800073E+01  0.51100000000E-03 0.  1.
         12    1    3    3    0    0 -0.12955381451E+01 -0.22182756009E+02 -0.24586298813E+02  0.33139691799E+02  0.00000000000E+00 0. -1.
</event>
<event>
 7    1  0.5979290E-013  0.5930194E+02  0.7816164E-02  0.1266605E+00
        -11   -1    0    0    0    0  0.00000000000E+00  0.00000000000E+00  0.45593999997E+02  0.45594000000E+02  0.51100000000E-03 0.  1.
         11   -1    0    0    0    0 -0.00000000000E+00 -0.00000000000E+00 -0.45593999997E+02  0.45594000000E+02  0.51100000000E-03 0. -1.
    9900012    2    1    2    0    0  0.11017920034E+02  0.27333953875E+02 -0.12172972276E+02  0.59301939561E+02  0.49999991853E+02 0.  0.
        -12    1    1    2    0    0 -0.11017920034E+02 -0.27333953875E+02  0.12172972276E+02  0.31886060439E+02  0.00000000000E+00 0.  1.
         11    1    3    3    0    0 -0.67071536466E+01 -0.35992863551E+01  0.47221898708E+01  0.89576698835E+01  0.51100000000E-03 0. -1.
        -11    1    3    3    0    0  0.18244886570E+02  0.98347941706E+01  0.34707538837E+01  0.21015356173E+02  0.51100000000E-03 0.  1.
         12    1    3    3    0    0 -0.51981288858E+00  0.21098446059E+02 -0.20365916031E+02  0.29328913504E+02  0.00000000000E+00 0. -1.
</event>
<event>
 7    1  0.5979290E-013  0.5930193E+02  0.7816164E-02  0.1266605E+00
        -11   -1    0    0    0    0  0.00000000000E+00  0.00000000000E+00  0.45593999997E+02  0.45594000000E+02  0.51100000000E-03 0.  1.
         11   -1    0    0    0    0 -0.00000000000E+00 -0.00000000000E+00 -0.45593999997E+02  0.45594000000E+02  0.51100000000E-03 0. -1.
    9900012    2    1    2    0    0 -0.26034498964E+02 -0.12461947574E+02 -0.13550866553E+02  0.59301933169E+02  0.49999980196E+02 0.  0.
        -12    1    1    2    0    0  0.26034498964E+02  0.12461947574E+02  0.13550866553E+02  0.31886066831E+02  0.00000000000E+00 0.  1.
         11    1    3    3    0    0 -0.60755767822E+01 -0.17645296400E+02 -0.15747248247E+02  0.24418127404E+02  0.51100000000E-03 0. -1.
        -11    1    3    3    0    0 -0.11906587730E+01  0.13443107635E+02  0.45538714301E+01  0.14243333755E+02  0.51100000000E-03 0.  1.
        -12    1    3    3    0    0 -0.18768263408E+02 -0.82597588093E+01 -0.23574897352E+01  0.20640472010E+02  0.00000000000E+00 0.  1.
</event>
<event>
 7    1  0.5979290E-013  0.5930193E+02  0.7816164E-02  0.1266605E+00
        -11   -1    0    0    0    0  0.00000000000E+00  0.00000000000E+00  0.45593999997E+02  0.45594000000E+02  0.51100000000E-03 0. -1.
         11   -1    0    0    0    0 -0.00000000000E+00 -0.00000000000E+00 -0.45593999997E+02  0.45594000000E+02  0.51100000000E-03 0.  1.
    9900012    2    1    2    0    0 -0.92376619710E+01  0.21289330414E+02  0.21866676786E+02  0.59301928718E+02  0.49999972079E+02 0.  0.
        -12    1    1    2    0    0  0.92376619710E+01 -0.21289330414E+02 -0.21866676786E+02  0.31886071282E+02  0.00000000000E+00 0.  1.
         11    1    3    3    0    0 -0.17878646701E+02  0.65829661869E+01 -0.16547803795E+01  0.19123800617E+02  0.51100000000E-03 0.  1.
        -11    1    3    3    0    0  0.11660968442E+02  0.16359615142E+02  0.28041921516E+02  0.34495862870E+02  0.51100000000E-03 0. -1.
        -12    1    3    3    0    0 -0.30199837116E+01 -0.16532509154E+01 -0.45204643508E+01  0.56822652309E+01  0.00000000000E+00 0.  1.
</event>
<event>
 7    1  0.5979290E-013  0.5930195E+02  0.7816164E-02  0.1266605E+00
        -11   -1    0    0    0    0  0.00000000000E+00  0.00000000000E+00  0.45593999997E+02  0.45594000000E+02  0.51100000000E-03 0. -1.
         11   -1    0    0    0    0 -0.00000000000E+00 -0.00000000000E+00 -0.45593999997E+02  0.45594000000E+02  0.51100000000E-03 0.  1.
    9900012    2    1    2    0    0  0.28452073007E+02 -0.10108101786E+02  0.10248216768E+02  0.59301950903E+02  0.50000012539E+02 0.  0.
        -12    1    1    2    0    0 -0.28452073007E+02  0.10108101786E+02 -0.10248216768E+02  0.31886049097E+02  0.00000000000E+00 0.  1.
         11    1    3    3    0    0  0.75898936855E+00 -0.14043686881E+01  0.11504538934E+02  0.11614763563E+02  0.51100000000E-03 0. -1.
        -11    1    3    3    0    0  0.18087148757E+02 -0.11970189953E+02 -0.17948852090E+02  0.28153004978E+02  0.51100000000E-03 0.  1.
        -12    1    3    3    0    0  0.96059348808E+01  0.32664568552E+01  0.16692529924E+02  0.19534182363E+02  0.00000000000E+00 0.  1.
</event>
<event>
 7    1  0.5979290E-013  0.5930195E+02  0.7816164E-02  0.1266605E+00
        -11   -1    0    0    0    0  0.00000000000E+00  0.00000000000E+00  0.45593999997E+02  0.45594000000E+02  0.51100000000E-03 0. -1.
         11   -1    0    0    0    0 -0.00000000000E+00 -0.00000000000E+00 -0.45593999997E+02  0.45594000000E+02  0.51100000000E-03 0.  1.
    9900012    2    1    2    0    0 -0.18022155869E+01  0.18251982108E+02  0.26083278549E+02  0.59301948947E+02  0.50000008972E+02 0.  0.
        -12    1    1    2    0    0  0.18022155869E+01 -0.18251982108E+02 -0.26083278549E+02  0.31886051053E+02  0.00000000000E+00 0.  1.
         11    1    3    3    0    0  0.28372800854E+01  0.23755389601E+02 -0.25697380963E+01  0.24061842148E+02  0.51100000000E-03 0. -1.
        -11    1    3    3    0    0 -0.27664548903E+01 -0.41930914609E+01 -0.13088390798E+01  0.51911798907E+01  0.51100000000E-03 0.  1.
         12    1    3    3    0    0 -0.18730407820E+01 -0.13103160329E+01  0.29961855725E+02  0.30048926909E+02  0.00000000000E+00 0. -1.
</event>
<event>
 7    1  0.5979290E-013  0.5930190E+02  0.7816164E-02  0.1266605E+00
        -11   -1    0    0    0    0  0.00000000000E+00  0.00000000000E+00  0.45593999997E+02  0.45594000000E+02  0.51100000000E-03 0. -1.
         11   -1    0    0    0    0 -0.00000000000E+00 -0.00000000000E+00 -0.45593999997E+02  0.45594000000E+02  0.51100000000E-03 0.  1.
    9900012    2    1    2    0    0 -0.23720160943E+02 -0.15655167888E+02  0.14456593145E+02  0.59301899547E+02  0.49999918877E+02 0.  0.
        -12    1    1    2    0    0  0.23720160943E+02  0.15655167888E+02 -0.14456593145E+02  0.31886100453E+02  0.00000000000E+00 0.  1.
         11    1    3    3    0    0 -0.12698862329E+02 -0.23213945939E+02  0.24687054231E+02  0.36188382630E+02  0.51100000000E-03 0. -1.
        -11    1    3    3    0    0 -0.43005781097E+01 -0.45587949955E+01 -0.58705331037E+01  0.85872430426E+01  0.51100000000E-03 0.  1.
         12    1    3    3    0    0 -0.67207205047E+01  0.12117573047E+02 -0.43599279818E+01  0.14526273874E+02  0.00000000000E+00 0. -1.
</event>
<event>
 7    1  0.5979290E-013  0.5930194E+02  0.7816164E-02  0.1266605E+00
        -11   -1    0    0    0    0  0.00000000000E+00  0.00000000000E+00  0.45593999997E+02  0.45594000000E+02  0.51100000000E-03 0. -1.
         11   -1    0    0    0    0 -0.00000000000E+00 -0.00000000000E+00 -0.45593999997E+02  0.45594000000E+02  0.51100000000E-03 0.  1.
    9900012    2    1    2    0    0 -0.52329428453E+01  0.26898369013E+02  0.16303839035E+02  0.59301935432E+02  0.49999984323E+02 0.  0.
        -12    1    1    2    0    0  0.52329428453E+01 -0.26898369013E+02 -0.16303839035E+02  0.31886064568E+02  0.00000000000E+00 0.  1.
         11    1    3    3    0    0  0.11598627425E+02  0.35555988968E+02  0.13724140888E+02  0.39838531009E+02  0.51100000000E-03 0. -1.
        -11    1    3    3    0    0 -0.48354596458E+01 -0.22787724060E+01 -0.94177623153E+00  0.54278371748E+01  0.51100000000E-03 0.  1.
         12    1    3    3    0    0 -0.11996110624E+02 -0.63788475490E+01  0.35214743782E+01  0.14035567248E+02  0.00000000000E+00 0. -1.
</event>
<event>
 7    1  0.5979290E-013  0.5930199E+02  0.7816164E-02  0.1266605E+00
        -11   -1    0    0    0    0  0.00000000000E+00  0.00000000000E+00  0.45593999997E+02  0.45594000000E+02  0.51100000000E-03 0.  1.
         11   -1    0    0    0    0 -0.00000000000E+00 -0.00000000000E+00 -0.45593999997E+02  0.45594000000E+02  0.51100000000E-03 0. -1.
    9900012    2    1    2    0    0  0.10361564904E+02 -0.10154206468E+02 -0.28394499239E+02  0.59301991732E+02  0.50000087001E+02 0.  0.
        -12    1    1    2    0    0 -0.10361564904E+02  0.10154206468E+02  0.28394499239E+02  0.31886008268E+02  0.00000000000E+00 0.  1.
         11    1    3    3    0    0 -0.13372532717E+02  0.86406792936E+01 -0.20022933094E+02  0.25581317790E+02  0.51100000000E-03 0. -1.
        -11    1    3    3    0    0  0.66937899080E+01 -0.36774812767E+01  0.30672960552E+01  0.82303704184E+01  0.51100000000E-03 0.  1.
         12    1    3    3    0    0  0.17040307712E+02 -0.15117404485E+02 -0.11438862200E+02  0.25490303523E+02  0.00000000000E+00 0. -1.
</event>
<event>
 7    1  0.5979290E-013  0.5930194E+02  0.7816164E-02  0.1266605E+00
        -11   -1    0    0    0    0  0.00000000000E+00  0.00000000000E+00  0.45593999997E+02  0.45594000000E+02  0.51100000000E-03 0.  1.
         11   -1    0    0    0    0 -0.00000000000E+00 -0.00000000000E+00 -0.45593999997E+02  0.45594000000E+02  0.51100000000E-03 0. -1.
    9900012    2    1    2    0    0  0.23891797339E+02  0.15851516968E+02  0.13951056941E+02  0.59301944113E+02  0.50000000156E+02 0.  0.
        -12    1    1    2    0    0 -0.23891797339E+02 -0.15851516968E+02 -0.13951056941E+02  0.31886055887E+02  0.00000000000E+00 0.  1.
         11    1    3    3    0    0  0.22820821427E+00  0.35532177194E+01 -0.12683939392E+02  0.13174207905E+02  0.51100000000E-03 0. -1.
        -11    1    3    3    0    0  0.73185775036E+01  0.77046392156E+01  0.27135570738E+02  0.29142104277E+02  0.51100000000E-03 0.  1.
        -12    1    3    3    0    0  0.16345011621E+02  0.45936600326E+01 -0.50057440486E+00  0.16985631932E+02  0.00000000000E+00 0.  1.
</event>
<event>
 7    1  0.5979290E-013  0.5930184E+02  0.7816164E-02  0.1266605E+00
        -11   -1    0    0    0    0  0.00000000000E+00  0.00000000000E+00  0.45593999997E+02  0.45594000000E+02  0.51100000000E-03 0. -1.
         11   -1    0    0    0    0 -0.00000000000E+00 -0.00000000000E+00 -0.45593999997E+02  0.45594000000E+02  0.51100000000E-03 0.  1.
    9900012    2    1    2    0    0 -0.16289484642E+02 -0.19763096929E+02  0.18994727191E+02  0.59301843580E+02  0.49999816808E+02 0.  0.
        -12    1    1    2    0    0  0.16289484642E+02  0.19763096929E+02 -0.18994727191E+02  0.31886156420E+02  0.00000000000E+00 0.  1.
         11    1    3    3    0    0 -0.19338961282E+02  0.65272903115E+01  0.19188130919E+02  0.28014019895E+02  0.51100000000E-03 0. -1.
        -11    1    3    3    0    0  0.87566104703E+01 -0.81738838980E+01 -0.22307124270E+01  0.12184690521E+02  0.51100000000E-03 0.  1.
         12    1    3    3    0    0 -0.57071338308E+01 -0.18116503343E+02  0.20373086989E+01  0.19103133164E+02  0.00000000000E+00 0. -1.
</event>
<event>
 7    1  0.5979290E-013  0.5930195E+02  0.7816164E-02  0.1266605E+00
        -11   -1    0    0    0    0  0.00000000000E+00  0.00000000000E+00  0.45593999997E+02  0.45594000000E+02  0.51100000000E-03 0. -1.
         11   -1    0    0    0    0 -0.00000000000E+00 -0.00000000000E+00 -0.45593999997E+02  0.45594000000E+02  0.51100000000E-03 0.  1.
    9900012    2    1    2    0    0 -0.36194835144E+01 -0.79519318026E+01  0.30665713696E+02  0.59301954826E+02  0.50000019694E+02 0.  0.
        -12    1    1    2    0    0  0.36194835144E+01  0.79519318026E+01 -0.30665713696E+02  0.31886045174E+02  0.00000000000E+00 0.  1.
         11    1    3    3    0    0 -0.20908824330E+02 -0.24398122099E+01  0.29709390978E+02  0.36411255554E+02  0.51100000000E-03 0. -1.
        -11    1    3    3    0    0 -0.84456803123E+00 -0.31873729206E+01 -0.26813784787E+01  0.42499920120E+01  0.51100000000E-03 0.  1.
         12    1    3    3    0    0  0.18133908847E+02 -0.23247466720E+01  0.36377011972E+01  0.18640707260E+02  0.00000000000E+00 0. -1.
</event>
<event>
 7    1  0.5979290E-013  0.5930195E+02  0.7816164E-02  0.1266605E+00
        -11   -1    0    0    0    0  0.00000000000E+00  0.00000000000E+00  0.45593999997E+02  0.45594000000E+02  0.51100000000E-03 0.  1.
         11   -1    0    0    0    0 -0.00000000000E+00 -0.00000000000E+00 -0.45593999997E+02  0.45594000000E+02  0.51100000000E-03 0. -1.
    9900012    2    1    2    0    0  0.22805031527E+02 -0.16921358749E+02 -0.14502360331E+02  0.59301948190E+02  0.50000007591E+02 0.  0.
        -12    1    1    2    0    0 -0.22805031527E+02  0.16921358749E+02  0.14502360331E+02  0.31886051810E+02  0.00000000000E+00 0.  1.
         11    1    3    3    0    0  0.30510528835E+02 -0.17054964797E+01 -0.23064731750E+02  0.38285544779E+02  0.51100000000E-03 0. -1.
        -11    1    3    3    0    0 -0.29510079137E+01 -0.28223132255E+01  0.63639845601E+01  0.75613622709E+01  0.51100000000E-03 0.  1.
         12    1    3    3    0    0 -0.47544893946E+01 -0.12393549044E+02  0.21983868589E+01  0.13455041140E+02  0.00000000000E+00 0. -1.
</event>
<event>
 7    1  0.5979290E-013  0.5930206E+02  0.7816164E-02  0.1266604E+00
        -11   -1    0    0    0    0  0.00000000000E+00  0.00000000000E+00  0.45593999997E+02  0.45594000000E+02  0.51100000000E-03 0.  1.
         11   -1    0    0    0    0 -0.00000000000E+00 -0.00000000000E+00 -0.45593999997E+02  0.45594000000E+02  0.51100000000E-03 0. -1.
    9900012    2    1    2    0    0 -0.19615937935E+01  0.27493366449E+02 -0.16030607724E+02  0.59302055872E+02  0.50000203977E+02 0.  0.
        -12    1    1    2    0    0  0.19615937935E+01 -0.27493366449E+02  0.16030607724E+02  0.31885944128E+02  0.00000000000E+00 0.  1.
         11    1    3    3    0    0  0.30220873266E+01  0.15743704219E+02 -0.17570376418E+02  0.23784771642E+02  0.51100000000E-03 0. -1.
        -11    1    3    3    0    0  0.11364756941E+02  0.44304211148E+01  0.99383856712E+01  0.15733970942E+02  0.51100000000E-03 0.  1.
        -12    1    3    3    0    0 -0.16348438061E+02  0.73192411149E+01 -0.83986169772E+01  0.19783313288E+02  0.00000000000E+00 0.  1.
</event>
<event>
 7    1  0.5979290E-013  0.5930194E+02  0.7816164E-02  0.1266605E+00
        -11   -1    0    0    0    0  0.00000000000E+00  0.00000000000E+00  0.45593999997E+02  0.45594000000E+02  0.51100000000E-03 0. -1.
         11   -1    0    0    0    0 -0.00000000000E+00 -0.00000000000E+00 -0.45593999997E+02  0.45594000000E+02  0.51100000000E-03 0.  1.
    9900012    2    1    2    0    0  0.24679319362E+02 -0.15296690517E+02 -0.13178148217E+02  0.59301935091E+02  0.49999983701E+02 0.  0.
        -12    1    1    2    0    0 -0.24679319362E+02  0.15296690517E+02  0.13178148217E+02  0.31886064909E+02  0.00000000000E+00 0.  1.
         11    1    3    3    0    0  0.12564114098E+02 -0.33354732988E+01  0.10837610578E+02  0.16924424613E+02  0.51100000000E-03 0. -1.
        -11    1    3    3    0    0  0.80071569921E+01  0.87034758940E+01 -0.15862359839E+02  0.19785841293E+02  0.51100000000E-03 0.  1.
        -12    1    3    3    0    0  0.41080482723E+01 -0.20664693113E+02 -0.81533989555E+01  0.22591669185E+02  0.00000000000E+00 0.  1.
</event>
<event>
 7    1  0.5979290E-013  0.5930194E+02  0.7816164E-02  0.1266605E+00
        -11   -1    0    0    0    0  0.00000000000E+00  0.00000000000E+00  0.45593999997E+02  0.45594000000E+02  0.51100000000E-03 0. -1.
         11   -1    0    0    0    0 -0.00000000000E+00 -0.00000000000E+00 -0.45593999997E+02  0.45594000000E+02  0.51100000000E-03 0.  1.
    9900012    2    1    2    0    0  0.29066295620E+02 -0.69767310042E+01  0.11099396784E+02  0.59301938382E+02  0.49999989703E+02 0.  0.
        -12    1    1    2    0    0 -0.29066295620E+02  0.69767310042E+01 -0.11099396784E+02  0.31886061618E+02  0.00000000000E+00 0.  1.
         11    1    3    3    0    0  0.80425542001E+01  0.16267412717E+02  0.39532430939E+01  0.18572547639E+02  0.51100000000E-03 0. -1.
        -11    1    3    3    0    0  0.86349434475E+01 -0.17035805632E+02 -0.75435590376E+01  0.20534999515E+02  0.51100000000E-03 0.  1.
        -12    1    3    3    0    0  0.12388797972E+02 -0.62083380892E+01  0.14689712728E+02  0.20194391228E+02  0.00000000000E+00 0.  1.
</event>
<event>
 7    1  0.5979290E-013  0.5930200E+02  0.7816164E-02  0.1266605E+00
        -11   -1    0    0    0    0  0.00000000000E+00  0.00000000000E+00  0.45593999997E+02  0.45594000000E+02  0.51100000000E-03 0.  1.
         11   -1    0    0    0    0 -0.00000000000E+00 -0.00000000000E+00 -0.45593999997E+02  0.45594000000E+02  0.51100000000E-03 0. -1.
    9900012    2    1    2    0    0  0.28391282685E+02 -0.12059606459E+02 -0.80757676289E+01  0.59301998945E+02  0.50000100156E+02 0.  0.
        -12    1    1    2    0    0 -0.28391282685E+02  0.12059606459E+02  0.80757676289E+01  0.31886001055E+02  0.00000000000E+00 0.  1.
         11    1    3    3    0    0  0.10879854010E+02 -0.66105868039E+01 -0.96788062059E+01  0.15992197191E+02  0.51100000000E-03 0. -1.
        -11    1    3    3    0    0  0.71842929058E+01  0.15717951198E+02  0.77934027654E+01  0.18957984633E+02  0.51100000000E-03 0.  1.
        -12    1    3    3    0    0  0.10327135770E+02 -0.21166970853E+02 -0.61903641885E+01  0.24351817121E+02  0.00000000000E+00 0.  1.
</event>
<event>
 7    1  0.5979290E-013  0.5930194E+02  0.7816164E-02  0.1266605E+00
        -11   -1    0    0    0    0  0.00000000000E+00  0.00000000000E+00  0.45593999997E+02  0.45594000000E+02  0.51100000000E-03 0. -1.
         11   -1    0    0    0    0 -0.00000000000E+00 -0.00000000000E+00 -0.45593999997E+02  0.45594000000E+02  0.51100000000E-03 0.  1.
    9900012    2    1    2    0    0  0.52009569077E+01  0.34597690752E+01  0.31268204629E+02  0.59301943870E+02  0.49999999713E+02 0.  0.
        -12    1    1    2    0    0 -0.52009569077E+01 -0.34597690752E+01 -0.31268204629E+02  0.31886056130E+02  0.00000000000E+00 0.  1.
         11    1    3    3    0    0  0.80388475326E+01  0.17294581275E+02 -0.37566337166E+01  0.19438053099E+02  0.51100000000E-03 0. -1.
        -11    1    3    3    0    0 -0.21594932444E+01 -0.11443385800E+02  0.35475136783E+02  0.37337646145E+02  0.51100000000E-03 0.  1.
         12    1    3    3    0    0 -0.67839738054E+00 -0.23914263994E+01 -0.45029843749E+00  0.25262446264E+01  0.00000000000E+00 0. -1.
</event>
<event>
 7    1  0.5979290E-013  0.5930193E+02  0.7816164E-02  0.1266605E+00
        -11   -1    0    0    0    0  0.00000000000E+00  0.00000000000E+00  0.45593999997E+02  0.45594000000E+02  0.51100000000E-03 0. -1.
         11   -1    0    0    0    0 -0.00000000000E+00 -0.00000000000E+00 -0.45593999997E+02  0.45594000000E+02  0.51100000000E-03 0.  1.
    9900012    2    1    2    0    0 -0.12497815290E+02 -0.17694098231E+02 -0.23397547499E+02  0.59301925795E+02  0.49999966748E+02 0.  0.
        -12    1    1    2    0    0  0.12497815290E+02  0.17694098231E+02  0.23397547499E+02  0.31886074205E+02  0.00000000000E+00 0.  1.
         11    1    3    3    0    0  0.37922436072E+01 -0.32393785243E+01  0.59616957628E+01  0.77728052484E+01  0.51100000000E-03 0.  1.
        -11    1    3    3    0    0 -0.27649079484E+02 -0.64837567659E+01 -0.18301119343E+02  0.33785228542E+02  0.51100000000E-03 0. -1.
        -12    1    3    3    0    0  0.11359020587E+02 -0.79709629406E+01 -0.11058123918E+02  0.17743892005E+02  0.00000000000E+00 0.  1.
</event>
<event>
 7    1  0.5979290E-013  0.5930188E+02  0.7816164E-02  0.1266605E+00
        -11   -1    0    0    0    0  0.00000000000E+00  0.00000000000E+00  0.45593999997E+02  0.45594000000E+02  0.51100000000E-03 0.  1.
         11   -1    0    0    0    0 -0.00000000000E+00 -0.00000000000E+00 -0.45593999997E+02  0.45594000000E+02  0.51100000000E-03 0. -1.
    9900012    2    1    2    0    0 -0.12640337981E+02 -0.57896429850E+01 -0.28695408852E+02  0.59301880773E+02  0.49999884639E+02 0.  0.
        -12    1    1    2    0    0  0.12640337981E+02  0.57896429850E+01  0.28695408852E+02  0.31886119227E+02  0.00000000000E+00 0.  1.
         11    1    3    3    0    0  0.11712354105E+02 -0.36272009816E+01 -0.24368279004E+02  0.27279091764E+02  0.51100000000E-03 0. -1.
        -11    1    3    3    0    0 -0.24965215390E+02 -0.61411801912E+01  0.52919707871E+00  0.25714900805E+02  0.51100000000E-03 0.  1.
        -12    1    3    3    0    0  0.61252330472E+00  0.39787381877E+01 -0.48563269270E+01  0.63078882035E+01  0.00000000000E+00 0.  1.
</event>
<event>
 7    1  0.5979290E-013  0.5930194E+02  0.7816164E-02  0.1266605E+00
        -11   -1    0    0    0    0  0.00000000000E+00  0.00000000000E+00  0.45593999997E+02  0.45594000000E+02  0.51100000000E-03 0.  1.
         11   -1    0    0    0    0 -0.00000000000E+00 -0.00000000000E+00 -0.45593999997E+02  0.45594000000E+02  0.51100000000E-03 0. -1.
    9900012    2    1    2    0    0 -0.27226109454E+02  0.49055897760E+01 -0.15855435073E+02  0.59301942414E+02  0.49999997056E+02 0.  0.
        -12    1    1    2    0    0  0.27226109454E+02 -0.49055897760E+01  0.15855435073E+02  0.31886057586E+02  0.00000000000E+00 0.  1.
         11    1    3    3    0    0 -0.98921924034E+01  0.13915463294E+02 -0.79311455407E+01  0.18825478987E+02  0.51100000000E-03 0.  1.
        -11    1    3    3    0    0 -0.15662859516E+02 -0.21437720691E+02 -0.20498750767E+01  0.26628988429E+02  0.51100000000E-03 0. -1.
         12    1    3    3    0    0 -0.16710575347E+01  0.12427847173E+02 -0.58744144554E+01  0.13847474998E+02  0.00000000000E+00 0. -1.
</event>
<event>
 7    1  0.5979290E-013  0.5930194E+02  0.7816164E-02  0.1266605E+00
        -11   -1    0    0    0    0  0.00000000000E+00  0.00000000000E+00  0.45593999997E+02  0.45594000000E+02  0.51100000000E-03 0. -1.
         11   -1    0    0    0    0 -0.00000000000E+00 -0.00000000000E+00 -0.45593999997E+02  0.45594000000E+02  0.51100000000E-03 0.  1.
    9900012    2    1    2    0    0 -0.12413031876E+02  0.29236565042E+02 -0.28037130658E+01  0.59301938739E+02  0.49999990355E+02 0.  0.
        -12    1    1    2    0    0  0.12413031876E+02 -0.29236565042E+02  0.28037130658E+01  0.31886061261E+02  0.00000000000E+00 0.  1.
         11    1    3    3    0    0  0.30368388036E+01 -0.62129754406E+00  0.10670724675E+02  0.11111829998E+02  0.51100000000E-03 0. -1.
        -11    1    3    3    0    0 -0.13086397916E+02  0.33438897476E+02 -0.19446888830E+02  0.40836199141E+02  0.51100000000E-03 0.  1.
        -12    1    3    3    0    0 -0.23634727631E+01 -0.35810348905E+01  0.59724510892E+01  0.73539095998E+01  0.00000000000E+00 0.  1.
</event>
<event>
 7    1  0.5979290E-013  0.5930174E+02  0.7816164E-02  0.1266605E+00
        -11   -1    0    0    0    0  0.00000000000E+00  0.00000000000E+00  0.45593999997E+02  0.45594000000E+02  0.51100000000E-03 0. -1.
         11   -1    0    0    0    0 -0.00000000000E+00 -0.00000000000E+00 -0.45593999997E+02  0.45594000000E+02  0.51100000000E-03 0.  1.
    9900012    2    1    2    0    0  0.90529268811E+01  0.49751077764E+01  0.30166647064E+02  0.59301736851E+02  0.49999622158E+02 0.  0.
        -12    1    1    2    0    0 -0.90529268811E+01 -0.49751077764E+01 -0.30166647064E+02  0.31886263149E+02  0.00000000000E+00 0.  1.
         11    1    3    3    0    0 -0.10036136316E+02  0.14726067136E+02  0.11111336720E+02  0.21001021152E+02  0.51100000000E-03 0.  1.
        -11    1    3    3    0    0  0.24417592402E+02 -0.10361599241E+02  0.19496013461E+02  0.32919235997E+02  0.51100000000E-03 0. -1.
        -12    1    3    3    0    0 -0.53285292043E+01  0.61063988150E+00 -0.44070311672E+00  0.53814797020E+01  0.00000000000E+00 0.  1.
</event>
<event>
 7    1  0.5979290E-013  0.5930197E+02  0.7816164E-02  0.1266605E+00
        -11   -1    0    0    0    0  0.00000000000E+00  0.00000000000E+00  0.45593999997E+02  0.45594000000E+02  0.51100000000E-03 0. -1.
         11   -1    0    0    0    0 -0.00000000000E+00 -0.00000000000E+00 -0.45593999997E+02  0.45594000000E+02  0.51100000000E-03 0.  1.
    9900012    2    1    2    0    0 -0.16821729812E+02  0.44335565490E+01  0.26722503713E+02  0.59301965091E+02  0.50000038414E+02 0.  0.
        -12    1    1    2    0    0  0.16821729812E+02 -0.44335565490E+01 -0.26722503713E+02  0.31886034909E+02  0.00000000000E+00 0.  1.
         11    1    3    3    0    0 -0.68210491849E+01  0.70454850924E+01  0.54207132771E+01  0.11204896468E+02  0.51100000000E-03 0. -1.
        -11    1    3    3    0    0  0.10699511095E+02  0.41652151328E+01  0.23550160281E+02  0.26199973365E+02  0.51100000000E-03 0.  1.
        -12    1    3    3    0    0 -0.20700191723E+02 -0.67771436761E+01 -0.22483698455E+01  0.21897095258E+02  0.00000000000E+00 0.  1.
</event>
<event>
 7    1  0.5979290E-013  0.5930197E+02  0.7816164E-02  0.1266605E+00
        -11   -1    0    0    0    0  0.00000000000E+00  0.00000000000E+00  0.45593999997E+02  0.45594000000E+02  0.51100000000E-03 0.  1.
         11   -1    0    0    0    0 -0.00000000000E+00 -0.00000000000E+00 -0.45593999997E+02  0.45594000000E+02  0.51100000000E-03 0. -1.
    9900012    2    1    2    0    0 -0.20899295878E+02 -0.23417657095E+02  0.56171043537E+01  0.59301967112E+02  0.50000042100E+02 0.  0.
        -12    1    1    2    0    0  0.20899295878E+02  0.23417657095E+02 -0.56171043537E+01  0.31886032888E+02  0.00000000000E+00 0.  1.
         11    1    3    3    0    0  0.25924498398E+00 -0.24089516089E+02 -0.14705103114E+02  0.28224316666E+02  0.51100000000E-03 0. -1.
        -11    1    3    3    0    0 -0.18068031623E+01  0.28576045235E+01  0.60586517421E+01  0.69381339331E+01  0.51100000000E-03 0.  1.
         12    1    3    3    0    0 -0.19351737700E+02 -0.21857455292E+01  0.14263555726E+02  0.24139516513E+02  0.00000000000E+00 0. -1.
</event>
<event>
 7    1  0.5979290E-013  0.5930193E+02  0.7816164E-02  0.1266605E+00
        -11   -1    0    0    0    0  0.00000000000E+00  0.00000000000E+00  0.45593999997E+02  0.45594000000E+02  0.51100000000E-03 0.  1.
         11   -1    0    0    0    0 -0.00000000000E+00 -0.00000000000E+00 -0.45593999997E+02  0.45594000000E+02  0.51100000000E-03 0. -1.
    9900012    2    1    2    0    0  0.93635155309E+01 -0.68930933362E+01 -0.29690592788E+02  0.59301930017E+02  0.49999974448E+02 0.  0.
        -12    1    1    2    0    0 -0.93635155309E+01  0.68930933362E+01  0.29690592788E+02  0.31886069983E+02  0.00000000000E+00 0.  1.
         11    1    3    3    0    0 -0.11207358638E+02  0.10338787783E+02 -0.14911124930E+01  0.15320536453E+02  0.51100000000E-03 0. -1.
        -11    1    3    3    0    0  0.91698383305E+01 -0.69563341681E+01  0.40755738566E+00  0.11517057929E+02  0.51100000000E-03 0.  1.
         12    1    3    3    0    0  0.11401035839E+02 -0.10275546951E+02 -0.28607037681E+02  0.32464335635E+02  0.00000000000E+00 0. -1.
</event>
<event>
 7    1  0.5979290E-013  0.5930195E+02  0.7816164E-02  0.1266605E+00
        -11   -1    0    0    0    0  0.00000000000E+00  0.00000000000E+00  0.45593999997E+02  0.45594000000E+02  0.51100000000E-03 0. -1.
         11   -1    0    0    0    0 -0.00000000000E+00 -0.00000000000E+00 -0.45593999997E+02  0.45594000000E+02  0.51100000000E-03 0.  1.
    9900012    2    1    2    0    0 -0.44780139515E+01 -0.24916298340E+02  0.19386734274E+02  0.59301952931E+02  0.50000016237E+02 0.  0.
        -12    1    1    2    0    0  0.44780139515E+01  0.24916298340E+02 -0.19386734274E+02  0.31886047069E+02  0.00000000000E+00 0.  1.
         11    1    3    3    0    0 -0.10378426875E+02  0.90182084312E+01 -0.39186898236E+01  0.14296711437E+02  0.51100000000E-03 0. -1.
        -11    1    3    3    0    0  0.11499463537E+02 -0.23694307804E+02  0.12716973458E+02  0.29246868177E+02  0.51100000000E-03 0.  1.
         12    1    3    3    0    0 -0.55990506130E+01 -0.10240198967E+02  0.10588450639E+02  0.15758373317E+02  0.00000000000E+00 0. -1.
</event>
<event>
 7    1  0.5979290E-013  0.5930195E+02  0.7816164E-02  0.1266605E+00
        -11   -1    0    0    0    0  0.00000000000E+00  0.00000000000E+00  0.45593999997E+02  0.45594000000E+02  0.51100000000E-03 0.  1.
         11   -1    0    0    0    0 -0.00000000000E+00 -0.00000000000E+00 -0.45593999997E+02  0.45594000000E+02  0.51100000000E-03 0. -1.
    9900012    2    1    2    0    0 -0.10757025774E+02 -0.18430253199E+02 -0.23692453464E+02  0.59301949953E+02  0.50000010806E+02 0.  0.
        -12    1    1    2    0    0  0.10757025774E+02  0.18430253199E+02  0.23692453464E+02  0.31886050047E+02  0.00000000000E+00 0.  1.
         11    1    3    3    0    0 -0.21464448249E+02 -0.47946761387E+01 -0.31452935667E+02  0.38379664150E+02  0.51100000000E-03 0. -1.
        -11    1    3    3    0    0  0.34344909760E+01 -0.22758699759E+01  0.60587283659E+01  0.73269026256E+01  0.51100000000E-03 0.  1.
         12    1    3    3    0    0  0.72729314989E+01 -0.11359707084E+02  0.17017538376E+01  0.13595383178E+02  0.00000000000E+00 0. -1.
</event>
<event>
 7    1  0.5979290E-013  0.5930194E+02  0.7816164E-02  0.1266605E+00
        -11   -1    0    0    0    0  0.00000000000E+00  0.00000000000E+00  0.45593999997E+02  0.45594000000E+02  0.51100000000E-03 0. -1.
         11   -1    0    0    0    0 -0.00000000000E+00 -0.00000000000E+00 -0.45593999997E+02  0.45594000000E+02  0.51100000000E-03 0.  1.
    9900012    2    1    2    0    0  0.28940362328E+02 -0.13097835290E+02 -0.27609497557E+01  0.59301941848E+02  0.49999996024E+02 0.  0.
        -12    1    1    2    0    0 -0.28940362328E+02  0.13097835290E+02  0.27609497557E+01  0.31886058152E+02  0.00000000000E+00 0.  1.
         11    1    3    3    0    0  0.89333841776E+01  0.99000066302E+01 -0.16293604917E+01  0.13433923478E+02  0.51100000000E-03 0. -1.
        -11    1    3    3    0    0  0.11472814859E+01 -0.17189226184E+02 -0.14093501811E+02  0.22257864793E+02  0.51100000000E-03 0.  1.
        -12    1    3    3    0    0  0.18859696664E+02 -0.58086157359E+01  0.12961912547E+02  0.23610153576E+02  0.00000000000E+00 0.  1.
</event>
<event>
 7    1  0.5979290E-013  0.5930195E+02  0.7816164E-02  0.1266605E+00
        -11   -1    0    0    0    0  0.00000000000E+00  0.00000000000E+00  0.45593999997E+02  0.45594000000E+02  0.51100000000E-03 0. -1.
         11   -1    0    0    0    0 -0.00000000000E+00 -0.00000000000E+00 -0.45593999997E+02  0.45594000000E+02  0.51100000000E-03 0.  1.
    9900012    2    1    2    0    0  0.59849403495E+01 -0.15164440665E+02  0.27403291738E+02  0.59301950233E+02  0.50000011317E+02 0.  0.
        -12    1    1    2    0    0 -0.59849403495E+01  0.15164440665E+02 -0.27403291738E+02  0.31886049767E+02  0.00000000000E+00 0.  1.
         11    1    3    3    0    0 -0.13313204181E+02 -0.19140088355E+01  0.16108902528E+02  0.20985746980E+02  0.51100000000E-03 0. -1.
        -11    1    3    3    0    0  0.15598999561E+02 -0.20051059525E+02  0.98442253062E+00  0.25423274048E+02  0.51100000000E-03 0.  1.
        -12    1    3    3    0    0  0.36991449699E+01  0.68006276952E+01  0.10309966679E+02  0.12892929205E+02  0.00000000000E+00 0.  1.
</event>
<event>
 7    1  0.5979290E-013  0.5930195E+02  0.7816164E-02  0.1266605E+00
        -11   -1    0    0    0    0  0.00000000000E+00  0.00000000000E+00  0.45593999997E+02  0.45594000000E+02  0.51100000000E-03 0.  1.
         11   -1    0    0    0    0 -0.00000000000E+00 -0.00000000000E+00 -0.45593999997E+02  0.45594000000E+02  0.51100000000E-03 0. -1.
    9900012    2    1    2    0    0  0.76848982598E+01  0.89136120541E+01 -0.29634605511E+02  0.59301953131E+02  0.50000016603E+02 0.  0.
        -12    1    1    2    0    0 -0.76848982598E+01 -0.89136120541E+01  0.29634605511E+02  0.31886046869E+02  0.00000000000E+00 0.  1.
         11    1    3    3    0    0  0.25788598768E+01  0.27381090209E+02 -0.22313484872E+02  0.35415621224E+02  0.51100000000E-03 0. -1.
        -11    1    3    3    0    0  0.71653846219E+01 -0.19078036012E+02 -0.56021648897E+01  0.21135241815E+02  0.51100000000E-03 0.  1.
        -12    1    3    3    0    0 -0.20593462389E+01  0.61055785742E+00 -0.17189557489E+01  0.27510900922E+01  0.00000000000E+00 0.  1.
</event>
<event>
 7    1  0.5979290E-013  0.5930194E+02  0.7816164E-02  0.1266605E+00
        -11   -1    0    0    0    0  0.00000000000E+00  0.00000000000E+00  0.45593999997E+02  0.45594000000E+02  0.51100000000E-03 0. -1.
         11   -1    0    0    0    0 -0.00000000000E+00 -0.00000000000E+00 -0.45593999997E+02  0.45594000000E+02  0.51100000000E-03 0.  1.
    9900012    2    1    2    0    0  0.99084773842E+01  0.30189861203E+02  0.26674147963E+01  0.59301941209E+02  0.49999994859E+02 0.  0.
        -12    1    1    2    0    0 -0.99084773842E+01 -0.30189861203E+02 -0.26674147963E+01  0.31886058791E+02  0.00000000000E+00 0.  1.
         11    1    3    3    0    0 -0.18422830384E+02  0.11254277455E+02 -0.27195559330E+01  0.21759030886E+02  0.51100000000E-03 0. -1.
        -11    1    3    3    0    0  0.15046502885E+02  0.74213611324E+01 -0.45040578436E+01  0.17371251752E+02  0.51100000000E-03 0.  1.
         12    1    3    3    0    0  0.13284804883E+02  0.11514222616E+02  0.98910285729E+01  0.20171658570E+02  0.00000000000E+00 0. -1.
</event>
<event>
 7    1  0.5979290E-013  0.5930196E+02  0.7816164E-02  0.1266605E+00
        -11   -1    0    0    0    0  0.00000000000E+00  0.00000000000E+00  0.45593999997E+02  0.45594000000E+02  0.51100000000E-03 0. -1.
         11   -1    0    0    0    0 -0.00000000000E+00 -0.00000000000E+00 -0.45593999997E+02  0.45594000000E+02  0.51100000000E-03 0.  1.
    9900012    2    1    2    0    0 -0.19812150325E+02  0.22559214850E+02  0.10736858583E+02  0.59301959051E+02  0.50000027400E+02 0.  0.
        -12    1    1    2    0    0  0.19812150325E+02 -0.22559214850E+02 -0.10736858583E+02  0.31886040949E+02  0.00000000000E+00 0.  1.
         11    1    3    3    0    0  0.11973429509E+02  0.77410651691E+01 -0.77943720291E+01  0.16249287362E+02  0.51100000000E-03 0. -1.
        -11    1    3    3    0    0 -0.28371935126E+02  0.62670113175E+01  0.17157368321E+02  0.33743405602E+02  0.51100000000E-03 0.  1.
         12    1    3    3    0    0 -0.34136447084E+01  0.85511383632E+01  0.13738622912E+01  0.93092660880E+01  0.00000000000E+00 0. -1.
</event>
<event>
 7    1  0.5979290E-013  0.5930199E+02  0.7816164E-02  0.1266605E+00
        -11   -1    0    0    0    0  0.00000000000E+00  0.00000000000E+00  0.45593999997E+02  0.45594000000E+02  0.51100000000E-03 0. -1.
         11   -1    0    0    0    0 -0.00000000000E+00 -0.00000000000E+00 -0.45593999997E+02  0.45594000000E+02  0.51100000000E-03 0.  1.
    9900012    2    1    2    0    0  0.55059711555E+01  0.29277306851E+02  0.11368421783E+02  0.59301993216E+02  0.50000089708E+02 0.  0.
        -12    1    1    2    0    0 -0.55059711555E+01 -0.29277306851E+02 -0.11368421783E+02  0.31886006784E+02  0.00000000000E+00 0.  1.
         11    1    3    3    0    0  0.52284257622E+01  0.39175288044E+01  0.17180788093E+02  0.18381048600E+02  0.51100000000E-03 0. -1.
        -11    1    3    3    0    0 -0.59094010010E+01  0.11584979797E+02 -0.17515925318E+02  0.21816058698E+02  0.51100000000E-03 0.  1.
        -12    1    3    3    0    0  0.61869463943E+01  0.13774798249E+02  0.11703559008E+02  0.19104885918E+02  0.00000000000E+00 0.  1.
</event>
<event>
 7    1  0.5979290E-013  0.5930192E+02  0.7816164E-02  0.1266605E+00
        -11   -1    0    0    0    0  0.00000000000E+00  0.00000000000E+00  0.45593999997E+02  0.45594000000E+02  0.51100000000E-03 0. -1.
         11   -1    0    0    0    0 -0.00000000000E+00 -0.00000000000E+00 -0.45593999997E+02  0.45594000000E+02  0.51100000000E-03 0.  1.
    9900012    2    1    2    0    0  0.19773700748E+02  0.20976858471E+02 -0.13626965462E+02  0.59301921216E+02  0.49999958396E+02 0.  0.
        -12    1    1    2    0    0 -0.19773700748E+02 -0.20976858471E+02  0.13626965462E+02  0.31886078784E+02  0.00000000000E+00 0.  1.
         11    1    3    3    0    0  0.79464872813E+01  0.14667703666E+02  0.62022911989E+01  0.17797657355E+02  0.51100000000E-03 0. -1.
        -11    1    3    3    0    0  0.18378788869E+02  0.11878205517E+02 -0.23538839295E+02  0.32139517766E+02  0.51100000000E-03 0.  1.
        -12    1    3    3    0    0 -0.65515754025E+01 -0.55690507133E+01  0.37095826340E+01  0.93647460948E+01  0.00000000000E+00 0.  1.
</event>
<event>
 7    1  0.5979290E-013  0.5930194E+02  0.7816164E-02  0.1266605E+00
        -11   -1    0    0    0    0  0.00000000000E+00  0.00000000000E+00  0.45593999997E+02  0.45594000000E+02  0.51100000000E-03 0.  1.
         11   -1    0    0    0    0 -0.00000000000E+00 -0.00000000000E+00 -0.45593999997E+02  0.45594000000E+02  0.51100000000E-03 0. -1.
    9900012    2    1    2    0    0  0.20978342387E+02 -0.78525825069E+01 -0.22692886436E+02  0.59301937274E+02  0.49999987683E+02 0.  0.
        -12    1    1    2    0    0 -0.20978342387E+02  0.78525825069E+01  0.22692886436E+02  0.31886062726E+02  0.00000000000E+00 0.  1.
         11    1    3    3    0    0  0.23686140590E+02 -0.12144948365E+02 -0.12630830636E+02  0.29463043116E+02  0.51100000000E-03 0. -1.
        -11    1    3    3    0    0 -0.73725155421E+01 -0.82503093708E+01  0.26545236569E+01  0.11378404380E+02  0.51100000000E-03 0.  1.
         12    1    3    3    0    0  0.46647173392E+01  0.12542675229E+02 -0.12716579457E+02  0.18460489778E+02  0.00000000000E+00 0. -1.
</event>
<event>
 7    1  0.5979290E-013  0.5930195E+02  0.7816164E-02  0.1266605E+00
        -11   -1    0    0    0    0  0.00000000000E+00  0.00000000000E+00  0.45593999997E+02  0.45594000000E+02  0.51100000000E-03 0.  1.
         11   -1    0    0    0    0 -0.00000000000E+00 -0.00000000000E+00 -0.45593999997E+02  0.45594000000E+02  0.51100000000E-03 0. -1.
    9900012    2    1    2    0    0 -0.18779706188E+02 -0.11717578045E+02 -0.22950848542E+02  0.59301945861E+02  0.50000003344E+02 0.  0.
        -12    1    1    2    0    0  0.18779706188E+02  0.11717578045E+02  0.22950848542E+02  0.31886054139E+02  0.00000000000E+00 0.  1.
         11    1    3    3    0    0 -0.20639670722E+02 -0.93513415274E+01 -0.84027300372E+01  0.24167115431E+02  0.51100000000E-03 0. -1.
        -11    1    3    3    0    0  0.66713369871E+01  0.87918190136E+01  0.50013067726E+01  0.12116760642E+02  0.51100000000E-03 0.  1.
        -12    1    3    3    0    0 -0.48113724522E+01 -0.11158055531E+02 -0.19549425278E+02  0.23018069789E+02  0.00000000000E+00 0.  1.
</event>
<event>
 7    1  0.5979290E-013  0.5930192E+02  0.7816164E-02  0.1266605E+00
        -11   -1    0    0    0    0  0.00000000000E+00  0.00000000000E+00  0.45593999997E+02  0.45594000000E+02  0.51100000000E-03 0.  1.
         11   -1    0    0    0    0 -0.00000000000E+00 -0.00000000000E+00 -0.45593999997E+02  0.45594000000E+02  0.51100000000E-03 0. -1.
    9900012    2    1    2    0    0  0.61563827497E+01  0.20937929007E+02 -0.23247029575E+02  0.59301916770E+02  0.49999950289E+02 0.  0.
        -12    1    1    2    0    0 -0.61563827497E+01 -0.20937929007E+02  0.23247029575E+02  0.31886083230E+02  0.00000000000E+00 0.  1.
         11    1    3    3    0    0  0.11500459987E+01  0.31571087038E+02 -0.24269753753E+02  0.39838136127E+02  0.51100000000E-03 0. -1.
        -11    1    3    3    0    0  0.43772200742E+01 -0.14628855572E+02  0.16946129933E+01  0.15363436607E+02  0.51100000000E-03 0.  1.
        -12    1    3    3    0    0  0.62911667689E+00  0.39956975411E+01 -0.67188881537E+00  0.41003440360E+01  0.00000000000E+00 0.  1.
</event>
<event>
 7    1  0.5979290E-013  0.5930195E+02  0.7816164E-02  0.1266605E+00
        -11   -1    0    0    0    0  0.00000000000E+00  0.00000000000E+00  0.45593999997E+02  0.45594000000E+02  0.51100000000E-03 0.  1.
         11   -1    0    0    0    0 -0.00000000000E+00 -0.00000000000E+00 -0.45593999997E+02  0.45594000000E+02  0.51100000000E-03 0. -1.
    9900012    2    1    2    0    0 -0.20299761167E+02 -0.22800107388E+02  0.92084327456E+01  0.59301946089E+02  0.50000003760E+02 0.  0.
        -12    1    1    2    0    0  0.20299761167E+02  0.22800107388E+02 -0.92084327456E+01  0.31886053911E+02  0.00000000000E+00 0.  1.
         11    1    3    3    0    0 -0.26936503773E+02 -0.21395671011E+02 -0.95851547922E+01  0.35710294961E+02  0.51100000000E-03 0. -1.
        -11    1    3    3    0    0  0.10116190024E+02  0.21752206470E+00  0.11274254662E+02  0.15149040725E+02  0.51100000000E-03 0.  1.
         12    1    3    3    0    0 -0.34794474176E+01 -0.16219584419E+01  0.75193328762E+01  0.84426104033E+01  0.00000000000E+00 0. -1.
</event>
<event>
 7    1  0.5979290E-013  0.5930194E+02  0.7816164E-02  0.1266605E+00
        -11   -1    0    0    0    0  0.00000000000E+00  0.00000000000E+00  0.45593999997E+02  0.45594000000E+02  0.51100000000E-03 0. -1.
         11   -1    0    0    0    0 -0.00000000000E+00 -0.00000000000E+00 -0.45593999997E+02  0.45594000000E+02  0.51100000000E-03 0.  1.
    9900012    2    1    2    0    0  0.18858344530E+02 -0.16612488365E+02  0.19624185684E+02  0.59301943614E+02  0.49999999246E+02 0.  0.
        -12    1    1    2    0    0 -0.18858344530E+02  0.16612488365E+02 -0.19624185684E+02  0.31886056386E+02  0.00000000000E+00 0.  1.
         11    1    3    3    0    0 -0.43120806765E+00 -0.23049827651E+02  0.16389090866E+02  0.28285734829E+02  0.51100000000E-03 0. -1.
        -11    1    3    3    0    0  0.82053030148E+01 -0.50593215382E+01 -0.71190814188E+01  0.11983532555E+02  0.51100000000E-03 0.  1.
         12    1    3    3    0    0  0.11084249582E+02  0.11496660825E+02  0.10354176237E+02  0.19032676230E+02  0.00000000000E+00 0. -1.
</event>
<event>
 7    1  0.5979290E-013  0.5930188E+02  0.7816164E-02  0.1266605E+00
        -11   -1    0    0    0    0  0.00000000000E+00  0.00000000000E+00  0.45593999997E+02  0.45594000000E+02  0.51100000000E-03 0. -1.
         11   -1    0    0    0    0 -0.00000000000E+00 -0.00000000000E+00 -0.45593999997E+02  0.45594000000E+02  0.51100000000E-03 0.  1.
    9900012    2    1    2    0    0 -0.30114492215E+02 -0.61227330625E+01  0.85061082431E+01  0.59301884229E+02  0.49999890941E+02 0.  0.
        -12    1    1    2    0    0  0.30114492215E+02  0.61227330625E+01 -0.85061082431E+01  0.31886115771E+02  0.00000000000E+00 0.  1.
         11    1    3    3    0    0 -0.21091859734E+02  0.48417175506E+01 -0.71438330970E-01  0.21640560981E+02  0.51100000000E-03 0. -1.
        -11    1    3    3    0    0  0.60483522891E+01 -0.51290784292E+00 -0.99090915037E+01  0.11620487707E+02  0.51100000000E-03 0.  1.
        -12    1    3    3    0    0 -0.15070984770E+02 -0.10451542770E+02  0.18486638078E+02  0.26040835540E+02  0.00000000000E+00 0.  1.
</event>
<event>
 7    1  0.5979290E-013  0.5930194E+02  0.7816164E-02  0.1266605E+00
        -11   -1    0    0    0    0  0.00000000000E+00  0.00000000000E+00  0.45593999997E+02  0.45594000000E+02  0.51100000000E-03 0.  1.
         11   -1    0    0    0    0 -0.00000000000E+00 -0.00000000000E+00 -0.45593999997E+02  0.45594000000E+02  0.51100000000E-03 0. -1.
    9900012    2    1    2    0    0 -0.15405118463E+02 -0.26231345089E+02  0.95561230816E+01  0.59301943041E+02  0.49999998201E+02 0.  0.
        -12    1    1    2    0    0  0.15405118463E+02  0.26231345089E+02 -0.95561230816E+01  0.31886056959E+02  0.00000000000E+00 0.  1.
         11    1    3    3    0    0 -0.15129394653E+02 -0.66517709372E+01 -0.65076587229E+01  0.17762158131E+02  0.51100000000E-03 0. -1.
        -11    1    3    3    0    0  0.81582743328E+01 -0.26246998912E+02  0.10394924415E+02  0.29385657145E+02  0.51100000000E-03 0.  1.
        -12    1    3    3    0    0 -0.84339981434E+01  0.66674247611E+01  0.56688573896E+01  0.12154127765E+02  0.00000000000E+00 0.  1.
</event>
<event>
 7    1  0.5979290E-013  0.5930213E+02  0.7816164E-02  0.1266604E+00
        -11   -1    0    0    0    0  0.00000000000E+00  0.00000000000E+00  0.45593999997E+02  0.45594000000E+02  0.51100000000E-03 0.  1.
         11   -1    0    0    0    0 -0.00000000000E+00 -0.00000000000E+00 -0.45593999997E+02  0.45594000000E+02  0.51100000000E-03 0. -1.
    9900012    2    1    2    0    0 -0.22243766758E+02 -0.12029697185E+02  0.19421888914E+02  0.59302132551E+02  0.50000343821E+02 0.  0.
        -12    1    1    2    0    0  0.22243766758E+02  0.12029697185E+02 -0.19421888914E+02  0.31885867449E+02  0.00000000000E+00 0.  1.
         11    1    3    3    0    0 -0.16623079485E+01  0.78416368331E+01  0.11694763460E+02  0.14178223746E+02  0.51100000000E-03 0. -1.
        -11    1    3    3    0    0 -0.89339299338E+01 -0.27462935398E+02 -0.65961865525E+00  0.28887073610E+02  0.51100000000E-03 0.  1.
        -12    1    3    3    0    0 -0.11647528876E+02  0.75916013793E+01  0.83867441093E+01  0.16236835196E+02  0.00000000000E+00 0.  1.
</event>
<event>
 7    1  0.5979290E-013  0.5930184E+02  0.7816164E-02  0.1266605E+00
        -11   -1    0    0    0    0  0.00000000000E+00  0.00000000000E+00  0.45593999997E+02  0.45594000000E+02  0.51100000000E-03 0.  1.
         11   -1    0    0    0    0 -0.00000000000E+00 -0.00000000000E+00 -0.45593999997E+02  0.45594000000E+02  0.51100000000E-03 0. -1.
    9900012    2    1    2    0    0  0.96680264476E+00 -0.31675317724E+02  0.35308107685E+01  0.59301841797E+02  0.49999813556E+02 0.  0.
        -12    1    1    2    0    0 -0.96680264476E+00  0.31675317724E+02 -0.35308107685E+01  0.31886158203E+02  0.00000000000E+00 0.  1.
         11    1    3    3    0    0  0.11277825489E+02 -0.26961600397E+02 -0.85300511240E+01  0.30444687815E+02  0.51100000000E-03 0. -1.
        -11    1    3    3    0    0 -0.15221452823E+02 -0.87020288889E+01  0.29719452670E+01  0.17783430258E+02  0.51100000000E-03 0.  1.
         12    1    3    3    0    0  0.49104299786E+01  0.39883115620E+01  0.90889166254E+01  0.11073723724E+02  0.00000000000E+00 0. -1.
</event>
<event>
 7    1  0.5979290E-013  0.5930176E+02  0.7816164E-02  0.1266605E+00
        -11   -1    0    0    0    0  0.00000000000E+00  0.00000000000E+00  0.45593999997E+02  0.45594000000E+02  0.51100000000E-03 0. -1.
         11   -1    0    0    0    0 -0.00000000000E+00 -0.00000000000E+00 -0.45593999997E+02  0.45594000000E+02  0.51100000000E-03 0.  1.
    9900012    2    1    2    0    0 -0.10568714846E+02 -0.17145868536E+02  0.24719496570E+02  0.59301763910E+02  0.49999671507E+02 0.  0.
        -12    1    1    2    0    0  0.10568714846E+02  0.17145868536E+02 -0.24719496570E+02  0.31886236090E+02  0.00000000000E+00 0.  1.
         11    1    3    3    0    0 -0.46546184972E+01 -0.30577960963E+02  0.14167837755E+02  0.34020652506E+02  0.51100000000E-03 0. -1.
        -11    1    3    3    0    0  0.20368231853E+01  0.99424664755E+01  0.12777208444E+02  0.16317424558E+02  0.51100000000E-03 0.  1.
         12    1    3    3    0    0 -0.79509195340E+01  0.34896259518E+01 -0.22255496299E+01  0.89636868461E+01  0.00000000000E+00 0. -1.
</event>
<event>
 7    1  0.5979290E-013  0.5930193E+02  0.7816164E-02  0.1266605E+00
        -11   -1    0    0    0    0  0.00000000000E+00  0.00000000000E+00  0.45593999997E+02  0.45594000000E+02  0.51100000000E-03 0. -1.
         11   -1    0    0    0    0 -0.00000000000E+00 -0.00000000000E+00 -0.45593999997E+02  0.45594000000E+02  0.51100000000E-03 0.  1.
    9900012    2    1    2    0    0 -0.29710516109E+02 -0.65586731150E+01  0.95388919916E+01  0.59301930613E+02  0.49999975535E+02 0.  0.
        -12    1    1    2    0    0  0.29710516109E+02  0.65586731150E+01 -0.95388919916E+01  0.31886069387E+02  0.00000000000E+00 0.  1.
         11    1    3    3    0    0 -0.38953302509E+02 -0.49893674359E+01 -0.71322231834E+01  0.39913934554E+02  0.51100000000E-03 0.  1.
        -11    1    3    3    0    0  0.64861181322E+01  0.41648160931E+00  0.10817994222E+02  0.12620308420E+02  0.51100000000E-03 0. -1.
        -12    1    3    3    0    0  0.27566682678E+01 -0.19857872885E+01  0.58531209528E+01  0.67676876392E+01  0.00000000000E+00 0.  1.
</event>
<event>
 7    1  0.5979290E-013  0.5930189E+02  0.7816164E-02  0.1266605E+00
        -11   -1    0    0    0    0  0.00000000000E+00  0.00000000000E+00  0.45593999997E+02  0.45594000000E+02  0.51100000000E-03 0.  1.
         11   -1    0    0    0    0 -0.00000000000E+00 -0.00000000000E+00 -0.45593999997E+02  0.45594000000E+02  0.51100000000E-03 0. -1.
    9900012    2    1    2    0    0  0.29764724936E+02 -0.78626481153E+01 -0.83044458354E+01  0.59301891637E+02  0.49999904452E+02 0.  0.
        -12    1    1    2    0    0 -0.29764724936E+02  0.78626481153E+01  0.83044458354E+01  0.31886108363E+02  0.00000000000E+00 0.  1.
         11    1    3    3    0    0  0.12015739622E+02 -0.78841639132E+01 -0.12313409728E+02  0.18925065354E+02  0.51100000000E-03 0. -1.
        -11    1    3    3    0    0  0.56837379919E+01  0.10895190503E+02  0.16009680697E+02  0.20182168614E+02  0.51100000000E-03 0.  1.
        -12    1    3    3    0    0  0.12065247323E+02 -0.10873674705E+02 -0.12000716805E+02  0.20194657669E+02  0.00000000000E+00 0.  1.
</event>
<event>
 7    1  0.5979290E-013  0.5930189E+02  0.7816164E-02  0.1266605E+00
        -11   -1    0    0    0    0  0.00000000000E+00  0.00000000000E+00  0.45593999997E+02  0.45594000000E+02  0.51100000000E-03 0.  1.
         11   -1    0    0    0    0 -0.00000000000E+00 -0.00000000000E+00 -0.45593999997E+02  0.45594000000E+02  0.51100000000E-03 0. -1.
    9900012    2    1    2    0    0  0.17102227749E+02  0.79702587595E+01 -0.25704339126E+02  0.59301885960E+02  0.49999894098E+02 0.  0.
        -12    1    1    2    0    0 -0.17102227749E+02 -0.79702587595E+01  0.25704339126E+02  0.31886114040E+02  0.00000000000E+00 0.  1.
         11    1    3    3    0    0  0.17961724901E+02  0.18156179442E+02 -0.70430168378E+01  0.26492914143E+02  0.51100000000E-03 0. -1.
        -11    1    3    3    0    0  0.58224793725E+01 -0.15330325368E+02 -0.18000354646E+02  0.24350213748E+02  0.51100000000E-03 0.  1.
        -12    1    3    3    0    0 -0.66819765249E+01  0.51444046851E+01 -0.66096764292E+00  0.84587580689E+01  0.00000000000E+00 0.  1.
</event>
<event>
 7    1  0.5979290E-013  0.5930197E+02  0.7816164E-02  0.1266605E+00
        -11   -1    0    0    0    0  0.00000000000E+00  0.00000000000E+00  0.45593999997E+02  0.45594000000E+02  0.51100000000E-03 0.  1.
         11   -1    0    0    0    0 -0.00000000000E+00 -0.00000000000E+00 -0.45593999997E+02  0.45594000000E+02  0.51100000000E-03 0. -1.
    9900012    2    1    2    0    0  0.10536832663E+01 -0.13435143258E+02 -0.28898198928E+02  0.59301965062E+02  0.50000038361E+02 0.  0.
        -12    1    1    2    0    0 -0.10536832663E+01  0.13435143258E+02  0.28898198928E+02  0.31886034938E+02  0.00000000000E+00 0.  1.
         11    1    3    3    0    0  0.12525407630E+02 -0.17422222955E+02 -0.10998854952E+02  0.24112123496E+02  0.51100000000E-03 0. -1.
        -11    1    3    3    0    0 -0.16344290169E+02  0.11173526124E+02 -0.64543197298E+01  0.20824066620E+02  0.51100000000E-03 0.  1.
        -12    1    3    3    0    0  0.48725658048E+01 -0.71864464276E+01 -0.11445024247E+02  0.14365774945E+02  0.00000000000E+00 0.  1.
</event>
<event>
 7    1  0.5979290E-013  0.5930193E+02  0.7816164E-02  0.1266605E+00
        -11   -1    0    0    0    0  0.00000000000E+00  0.00000000000E+00  0.45593999997E+02  0.45594000000E+02  0.51100000000E-03 0.  1.
         11   -1    0    0    0    0 -0.00000000000E+00 -0.00000000000E+00 -0.45593999997E+02  0.45594000000E+02  0.51100000000E-03 0. -1.
    9900012    2    1    2    0    0 -0.21641012947E+02  0.22929371751E+02  0.47573054430E+01  0.59301929603E+02  0.49999973693E+02 0.  0.
        -12    1    1    2    0    0  0.21641012947E+02 -0.22929371751E+02 -0.47573054430E+01  0.31886070397E+02  0.00000000000E+00 0.  1.
         11    1    3    3    0    0 -0.19333525685E+02  0.10515759506E+01  0.10655476997E+02  0.22100457409E+02  0.51100000000E-03 0. -1.
        -11    1    3    3    0    0 -0.35445712818E+01  0.29105915656E+02 -0.56735136920E+01  0.29864813236E+02  0.51100000000E-03 0.  1.
        -12    1    3    3    0    0  0.12370840194E+01 -0.72281198555E+01 -0.22465786204E+00  0.73366589584E+01  0.00000000000E+00 0.  1.
</event>
<event>
 7    1  0.5979290E-013  0.5930193E+02  0.7816164E-02  0.1266605E+00
        -11   -1    0    0    0    0  0.00000000000E+00  0.00000000000E+00  0.45593999997E+02  0.45594000000E+02  0.51100000000E-03 0. -1.
         11   -1    0    0    0    0 -0.00000000000E+00 -0.00000000000E+00 -0.45593999997E+02  0.45594000000E+02  0.51100000000E-03 0.  1.
    9900012    2    1    2    0    0  0.25695384340E+01 -0.31556082294E+02 -0.37858309175E+01  0.59301931361E+02  0.49999976899E+02 0.  0.
        -12    1    1    2    0    0 -0.25695384340E+01  0.31556082294E+02  0.37858309175E+01  0.31886068639E+02  0.00000000000E+00 0.  1.
         11    1    3    3    0    0 -0.99740754894E+00 -0.21512787694E+02  0.16144362073E+02  0.26915335465E+02  0.51100000000E-03 0. -1.
        -11    1    3    3    0    0  0.15000267473E+01 -0.15337087755E+02 -0.21535519973E+02  0.26481219040E+02  0.51100000000E-03 0.  1.
        -12    1    3    3    0    0  0.20669192357E+01  0.52937931547E+01  0.16053269831E+01  0.59053768563E+01  0.00000000000E+00 0.  1.
</event>
<event>
 7    1  0.5979290E-013  0.5930194E+02  0.7816164E-02  0.1266605E+00
        -11   -1    0    0    0    0  0.00000000000E+00  0.00000000000E+00  0.45593999997E+02  0.45594000000E+02  0.51100000000E-03 0.  1.
         11   -1    0    0    0    0 -0.00000000000E+00 -0.00000000000E+00 -0.45593999997E+02  0.45594000000E+02  0.51100000000E-03 0. -1.
    9900012    2    1    2    0    0 -0.15251741024E+02 -0.26630821354E+02  0.86547499344E+01  0.59301938050E+02  0.49999989098E+02 0.  0.
        -12    1    1    2    0    0  0.15251741024E+02  0.26630821354E+02 -0.86547499344E+01  0.31886061950E+02  0.00000000000E+00 0.  1.
         11    1    3    3    0    0 -0.73082277272E+01  0.17598799977E+01 -0.52771148642E+01  0.91845147759E+01  0.51100000000E-03 0. -1.
        -11    1    3    3    0    0 -0.12877071741E+02 -0.10982109558E+02  0.24033476292E+02  0.29394449985E+02  0.51100000000E-03 0.  1.
        -12    1    3    3    0    0  0.49335584443E+01 -0.17408591794E+02 -0.10101611493E+02  0.20722973289E+02  0.00000000000E+00 0.  1.
</event>
<event>
 7    1  0.5979290E-013  0.5930195E+02  0.7816164E-02  0.1266605E+00
        -11   -1    0    0    0    0  0.00000000000E+00  0.00000000000E+00  0.45593999997E+02  0.45594000000E+02  0.51100000000E-03 0. -1.
         11   -1    0    0    0    0 -0.00000000000E+00 -0.00000000000E+00 -0.45593999997E+02  0.45594000000E+02  0.51100000000E-03 0.  1.
    9900012    2    1    2    0    0 -0.16998506659E+02 -0.20509085549E+02 -0.17525645084E+02  0.59301952043E+02  0.50000014618E+02 0.  0.
        -12    1    1    2    0    0  0.16998506659E+02  0.20509085549E+02  0.17525645084E+02  0.31886047957E+02  0.00000000000E+00 0.  1.
         11    1    3    3    0    0  0.10345797381E+02 -0.11809648458E+02  0.54324843052E+01  0.16613705370E+02  0.51100000000E-03 0. -1.
        -11    1    3    3    0    0 -0.19648305175E+02 -0.25402441921E+01 -0.24867372268E+01  0.19967288226E+02  0.51100000000E-03 0.  1.
        -12    1    3    3    0    0 -0.76959988651E+01 -0.61591928996E+01 -0.20471392162E+02  0.22720958447E+02  0.00000000000E+00 0.  1.
</event>
<event>
 7    1  0.5979290E-013  0.5930190E+02  0.7816164E-02  0.1266605E+00
        -11   -1    0    0    0    0  0.00000000000E+00  0.00000000000E+00  0.45593999997E+02  0.45594000000E+02  0.51100000000E-03 0. -1.
         11   -1    0    0    0    0 -0.00000000000E+00 -0.00000000000E+00 -0.45593999997E+02  0.45594000000E+02  0.51100000000E-03 0.  1.
    9900012    2    1    2    0    0 -0.48531851870E+01 -0.30319315775E+02  0.85970249137E+01  0.59301903455E+02  0.49999926004E+02 0.  0.
        -12    1    1    2    0    0  0.48531851870E+01  0.30319315775E+02 -0.85970249137E+01  0.31886096545E+02  0.00000000000E+00 0.  1.
         11    1    3    3    0    0  0.18779185462E+01 -0.48223543390E+01  0.13616508581E+01  0.53512403009E+01  0.51100000000E-03 0. -1.
        -11    1    3    3    0    0  0.26215616272E+01  0.40316077535E+01 -0.15045336024E+02  0.15795207589E+02  0.51100000000E-03 0.  1.
        -12    1    3    3    0    0 -0.93526653605E+01 -0.29528569190E+02  0.22280710079E+02  0.38155455565E+02  0.00000000000E+00 0.  1.
</event>
<event>
 7    1  0.5979290E-013  0.5930192E+02  0.7816164E-02  0.1266605E+00
        -11   -1    0    0    0    0  0.00000000000E+00  0.00000000000E+00  0.45593999997E+02  0.45594000000E+02  0.51100000000E-03 0.  1.
         11   -1    0    0    0    0 -0.00000000000E+00 -0.00000000000E+00 -0.45593999997E+02  0.45594000000E+02  0.51100000000E-03 0. -1.
    9900012    2    1    2    0    0 -0.18050679785E+02  0.14211040227E+02 -0.22112015110E+02  0.59301922831E+02  0.49999961342E+02 0.  0.
        -12    1    1    2    0    0  0.18050679785E+02 -0.14211040227E+02  0.22112015110E+02  0.31886077169E+02  0.00000000000E+00 0.  1.
         11    1    3    3    0    0 -0.30825329651E+02  0.13216032006E+02 -0.28874049996E+02  0.44255792994E+02  0.51100000000E-03 0. -1.
        -11    1    3    3    0    0  0.82656123699E+01 -0.13074525308E+01  0.39340994445E+01  0.92469951157E+01  0.51100000000E-03 0.  1.
         12    1    3    3    0    0  0.45090374967E+01  0.23024607518E+01  0.28279354415E+01  0.57991347218E+01  0.00000000000E+00 0. -1.
</event>
<event>
 7    1  0.5979290E-013  0.5930197E+02  0.7816164E-02  0.1266605E+00
        -11   -1    0    0    0    0  0.00000000000E+00  0.00000000000E+00  0.45593999997E+02  0.45594000000E+02  0.51100000000E-03 0.  1.
         11   -1    0    0    0    0 -0.00000000000E+00 -0.00000000000E+00 -0.45593999997E+02  0.45594000000E+02  0.51100000000E-03 0. -1.
    9900012    2    1    2    0    0  0.24092293210E+02 -0.20815153704E+02 -0.17348384326E+01  0.59301970454E+02  0.50000048195E+02 0.  0.
        -12    1    1    2    0    0 -0.24092293210E+02  0.20815153704E+02  0.17348384326E+01  0.31886029546E+02  0.00000000000E+00 0.  1.
         11    1    3    3    0    0  0.74487100530E+01 -0.17767371815E+02 -0.13823483976E+02  0.23711842867E+02  0.51100000000E-03 0. -1.
        -11    1    3    3    0    0  0.14392322682E+02 -0.49218402095E+01  0.21158777718E+02  0.26058728634E+02  0.51100000000E-03 0.  1.
        -12    1    3    3    0    0  0.22512604747E+01  0.18740583209E+01 -0.90701321748E+01  0.95313989521E+01  0.00000000000E+00 0.  1.
</event>
<event>
 7    1  0.5979290E-013  0.5930195E+02  0.7816164E-02  0.1266605E+00
        -11   -1    0    0    0    0  0.00000000000E+00  0.00000000000E+00  0.45593999997E+02  0.45594000000E+02  0.51100000000E-03 0.  1.
         11   -1    0    0    0    0 -0.00000000000E+00 -0.00000000000E+00 -0.45593999997E+02  0.45594000000E+02  0.51100000000E-03 0. -1.
    9900012    2    1    2    0    0 -0.17341239826E+02 -0.24439481440E+02 -0.10895573573E+02  0.59301947010E+02  0.50000005440E+02 0.  0.
        -12    1    1    2    0    0  0.17341239826E+02  0.24439481440E+02  0.10895573573E+02  0.31886052990E+02  0.00000000000E+00 0.  1.
         11    1    3    3    0    0 -0.18005439210E+02 -0.50218499921E+01 -0.15600838498E+02  0.24347504607E+02  0.51100000000E-03 0.  1.
        -11    1    3    3    0    0  0.40710421942E+01 -0.26373297082E+02  0.20400545389E+01  0.26763520066E+02  0.51100000000E-03 0. -1.
        -12    1    3    3    0    0 -0.34068428098E+01  0.69556656337E+01  0.26652103863E+01  0.81909223376E+01  0.00000000000E+00 0.  1.
</event>
<event>
 7    1  0.5979290E-013  0.5930191E+02  0.7816164E-02  0.1266605E+00
        -11   -1    0    0    0    0  0.00000000000E+00  0.00000000000E+00  0.45593999997E+02  0.45594000000E+02  0.51100000000E-03 0. -1.
         11   -1    0    0    0    0 -0.00000000000E+00 -0.00000000000E+00 -0.45593999997E+02  0.45594000000E+02  0.51100000000E-03 0.  1.
    9900012    2    1    2    0    0 -0.97325721563E+01  0.30358938835E+02 -0.57821164893E+00  0.59301914372E+02  0.49999945915E+02 0.  0.
        -12    1    1    2    0    0  0.97325721563E+01 -0.30358938835E+02  0.57821164893E+00  0.31886085628E+02  0.00000000000E+00 0.  1.
         11    1    3    3    0    0 -0.61884276205E+01  0.22340267562E+02  0.69642761148E+01  0.24205068337E+02  0.51100000000E-03 0. -1.
        -11    1    3    3    0    0  0.50186979119E+01 -0.10085458044E+02  0.40328402867E+01  0.11965266137E+02  0.51100000000E-03 0.  1.
        -12    1    3    3    0    0 -0.85628424476E+01  0.18104129317E+02 -0.11575328050E+02  0.23131579898E+02  0.00000000000E+00 0.  1.
</event>
<event>
 7    1  0.5979290E-013  0.5930195E+02  0.7816164E-02  0.1266605E+00
        -11   -1    0    0    0    0  0.00000000000E+00  0.00000000000E+00  0.45593999997E+02  0.45594000000E+02  0.51100000000E-03 0.  1.
         11   -1    0    0    0    0 -0.00000000000E+00 -0.00000000000E+00 -0.45593999997E+02  0.45594000000E+02  0.51100000000E-03 0. -1.
    9900012    2    1    2    0    0 -0.18756453199E+02 -0.25490628007E+02  0.38914613828E+01  0.59301950943E+02  0.50000012612E+02 0.  0.
        -12    1    1    2    0    0  0.18756453199E+02  0.25490628007E+02 -0.38914613828E+01  0.31886049057E+02  0.00000000000E+00 0.  1.
         11    1    3    3    0    0  0.18935529241E+01  0.22910327373E+01  0.17398280263E+02  0.17650340791E+02  0.51100000000E-03 0. -1.
        -11    1    3    3    0    0 -0.96999813848E+01 -0.15332169167E+02  0.28452327481E+01  0.18364650824E+02  0.51100000000E-03 0.  1.
         12    1    3    3    0    0 -0.10950024738E+02 -0.12449491577E+02 -0.16352051628E+02  0.23286959328E+02  0.00000000000E+00 0. -1.
</event>
<event>
 7    1  0.5979290E-013  0.5930191E+02  0.7816164E-02  0.1266605E+00
        -11   -1    0    0    0    0  0.00000000000E+00  0.00000000000E+00  0.45593999997E+02  0.45594000000E+02  0.51100000000E-03 0.  1.
         11   -1    0    0    0    0 -0.00000000000E+00 -0.00000000000E+00 -0.45593999997E+02  0.45594000000E+02  0.51100000000E-03 0. -1.
    9900012    2    1    2    0    0 -0.23912424786E+02  0.16337151523E+02 -0.13342261006E+02  0.59301913571E+02  0.49999944453E+02 0.  0.
        -12    1    1    2    0    0  0.23912424786E+02 -0.16337151523E+02  0.13342261006E+02  0.31886086429E+02  0.00000000000E+00 0.  1.
         11    1    3    3    0    0 -0.11935475808E+01  0.24190247067E+01 -0.13005133383E+02  0.13281932500E+02  0.51100000000E-03 0. -1.
        -11    1    3    3    0    0 -0.21087668892E+02 -0.90584090206E+01 -0.10456031418E+01  0.22974721749E+02  0.51100000000E-03 0.  1.
        -12    1    3    3    0    0 -0.16312083130E+01  0.22976535837E+02  0.70847551806E+00  0.23045259322E+02  0.00000000000E+00 0.  1.
</event>
<event>
 7    1  0.5979290E-013  0.5930194E+02  0.7816164E-02  0.1266605E+00
        -11   -1    0    0    0    0  0.00000000000E+00  0.00000000000E+00  0.45593999997E+02  0.45594000000E+02  0.51100000000E-03 0. -1.
         11   -1    0    0    0    0 -0.00000000000E+00 -0.00000000000E+00 -0.45593999997E+02  0.45594000000E+02  0.51100000000E-03 0.  1.
    9900012    2    1    2    0    0  0.45909386889E+01 -0.30527080677E+02  0.79838405553E+01  0.59301935917E+02  0.49999985208E+02 0.  0.
        -12    1    1    2    0    0 -0.45909386889E+01  0.30527080677E+02 -0.79838405553E+01  0.31886064083E+02  0.00000000000E+00 0.  1.
         11    1    3    3    0    0  0.86660631889E+01 -0.30546854825E+02  0.25149039327E+02  0.40505372116E+02  0.51100000000E-03 0. -1.
        -11    1    3    3    0    0  0.13796877625E+00 -0.18182279451E+01 -0.10756007742E+02  0.10909477121E+02  0.51100000000E-03 0.  1.
         12    1    3    3    0    0 -0.42130932762E+01  0.18380020936E+01 -0.64091910296E+01  0.78870866804E+01  0.00000000000E+00 0. -1.
</event>
<event>
 7    1  0.5979290E-013  0.5930191E+02  0.7816164E-02  0.1266605E+00
        -11   -1    0    0    0    0  0.00000000000E+00  0.00000000000E+00  0.45593999997E+02  0.45594000000E+02  0.51100000000E-03 0. -1.
         11   -1    0    0    0    0 -0.00000000000E+00 -0.00000000000E+00 -0.45593999997E+02  0.45594000000E+02  0.51100000000E-03 0.  1.
    9900012    2    1    2    0    0  0.16912296374E+02 -0.14744877184E+02  0.22655801532E+02  0.59301913459E+02  0.49999944250E+02 0.  0.
        -12    1    1    2    0    0 -0.16912296374E+02  0.14744877184E+02 -0.22655801532E+02  0.31886086541E+02  0.00000000000E+00 0.  1.
         11    1    3    3    0    0  0.96049429079E+01 -0.21208179571E+01  0.68335366021E+01  0.11977062237E+02  0.51100000000E-03 0. -1.
        -11    1    3    3    0    0 -0.11971252963E+02  0.93899437503E+01  0.37479954840E+01  0.15669378148E+02  0.51100000000E-03 0.  1.
        -12    1    3    3    0    0  0.19278606429E+02 -0.22014002977E+02  0.12074269446E+02  0.31655473075E+02  0.00000000000E+00 0.  1.
</event>
<event>
 7    1  0.5979290E-013  0.5930195E+02  0.7816164E-02  0.1266605E+00
        -11   -1    0    0    0    0  0.00000000000E+00  0.00000000000E+00  0.45593999997E+02  0.45594000000E+02  0.51100000000E-03 0.  1.
         11   -1    0    0    0    0 -0.00000000000E+00 -0.00000000000E+00 -0.45593999997E+02  0.45594000000E+02  0.51100000000E-03 0. -1.
    9900012    2    1    2    0    0  0.14151964970E+02 -0.21165129578E+02 -0.19195819242E+02  0.59301948207E+02  0.50000007621E+02 0.  0.
        -12    1    1    2    0    0 -0.14151964970E+02  0.21165129578E+02  0.19195819242E+02  0.31886051793E+02  0.00000000000E+00 0.  1.
         11    1    3    3    0    0  0.11397551696E+02 -0.35410197769E+02 -0.19858335458E+02  0.42167994713E+02  0.51100000000E-03 0. -1.
        -11    1    3    3    0    0  0.35557214194E+01  0.87074512628E+01  0.44218355160E+01  0.10393050173E+02  0.51100000000E-03 0.  1.
         12    1    3    3    0    0 -0.80130814603E+00  0.55376169273E+01 -0.37593193001E+01  0.67409033207E+01  0.00000000000E+00 0. -1.
</event>
<event>
 7    1  0.5979290E-013  0.5930195E+02  0.7816164E-02  0.1266605E+00
        -11   -1    0    0    0    0  0.00000000000E+00  0.00000000000E+00  0.45593999997E+02  0.45594000000E+02  0.51100000000E-03 0.  1.
         11   -1    0    0    0    0 -0.00000000000E+00 -0.00000000000E+00 -0.45593999997E+02  0.45594000000E+02  0.51100000000E-03 0. -1.
    9900012    2    1    2    0    0 -0.28179254053E+02  0.13104222683E+02 -0.71364786619E+01  0.59301947582E+02  0.50000006483E+02 0.  0.
        -12    1    1    2    0    0  0.28179254053E+02 -0.13104222683E+02  0.71364786619E+01  0.31886052418E+02  0.00000000000E+00 0.  1.
         11    1    3    3    0    0 -0.72628039889E+01 -0.85383531406E+01 -0.35260694234E+01  0.11750955790E+02  0.51100000000E-03 0. -1.
        -11    1    3    3    0    0  0.55069640553E+00  0.15663576252E+02  0.12504687501E+02  0.20050388956E+02  0.51100000000E-03 0.  1.
        -12    1    3    3    0    0 -0.21467146470E+02  0.59789995715E+01 -0.16115096740E+02  0.27500602836E+02  0.00000000000E+00 0.  1.
</event>
<event>
 7    1  0.5979290E-013  0.5930194E+02  0.7816164E-02  0.1266605E+00
        -11   -1    0    0    0    0  0.00000000000E+00  0.00000000000E+00  0.45593999997E+02  0.45594000000E+02  0.51100000000E-03 0. -1.
         11   -1    0    0    0    0 -0.00000000000E+00 -0.00000000000E+00 -0.45593999997E+02  0.45594000000E+02  0.51100000000E-03 0.  1.
    9900012    2    1    2    0    0 -0.79962368044E+01 -0.23669048111E+01  0.30776274140E+02  0.59301935781E+02  0.49999984960E+02 0.  0.
        -12    1    1    2    0    0  0.79962368044E+01  0.23669048111E+01 -0.30776274140E+02  0.31886064219E+02  0.00000000000E+00 0.  1.
         11    1    3    3    0    0  0.15176502805E+01  0.64787854913E+01  0.70689599923E+01  0.97081470657E+01  0.51100000000E-03 0. -1.
        -11    1    3    3    0    0  0.14722870463E+01 -0.21501249732E+02  0.24730792106E+02  0.32803710882E+02  0.51100000000E-03 0.  1.
        -12    1    3    3    0    0 -0.10986174131E+02  0.12655559429E+02 -0.10234779584E+01  0.16790077833E+02  0.00000000000E+00 0.  1.
</event>
<event>
 7    1  0.5979290E-013  0.5930198E+02  0.7816164E-02  0.1266605E+00
        -11   -1    0    0    0    0  0.00000000000E+00  0.00000000000E+00  0.45593999997E+02  0.45594000000E+02  0.51100000000E-03 0.  1.
         11   -1    0    0    0    0 -0.00000000000E+00 -0.00000000000E+00 -0.45593999997E+02  0.45594000000E+02  0.51100000000E-03 0. -1.
    9900012    2    1    2    0    0  0.16825665189E+02  0.11210651104E+02 -0.24656372509E+02  0.59301977788E+02  0.50000061571E+02 0.  0.
        -12    1    1    2    0    0 -0.16825665189E+02 -0.11210651104E+02  0.24656372509E+02  0.31886022212E+02  0.00000000000E+00 0.  1.
         11    1    3    3    0    0  0.11158854839E+02 -0.15054951011E+02 -0.52169126503E+01  0.19452191885E+02  0.51100000000E-03 0. -1.
        -11    1    3    3    0    0  0.58796422497E+01  0.15870459867E+02 -0.23266049968E+02  0.28770658156E+02  0.51100000000E-03 0.  1.
        -12    1    3    3    0    0 -0.21283190046E+00  0.10395142248E+02  0.38265901098E+01  0.11079127747E+02  0.00000000000E+00 0.  1.
</event>
<event>
 7    1  0.5979290E-013  0.5930194E+02  0.7816164E-02  0.1266605E+00
        -11   -1    0    0    0    0  0.00000000000E+00  0.00000000000E+00  0.45593999997E+02  0.45594000000E+02  0.51100000000E-03 0.  1.
         11   -1    0    0    0    0 -0.00000000000E+00 -0.00000000000E+00 -0.45593999997E+02  0.45594000000E+02  0.51100000000E-03 0. -1.
    9900012    2    1    2    0    0  0.11976713581E+02 -0.13864145461E+02 -0.26097210366E+02  0.59301943699E+02  0.49999999400E+02 0.  0.
        -12    1    1    2    0    0 -0.11976713581E+02  0.13864145461E+02  0.26097210366E+02  0.31886056301E+02  0.00000000000E+00 0.  1.
         11    1    3    3    0    0 -0.30036655457E+01 -0.14379443954E+00  0.90162795577E+01  0.95045242319E+01  0.51100000000E-03 0.  1.
        -11    1    3    3    0    0  0.22391796597E+02 -0.51829928275E+01 -0.28805187117E+02  0.36850980646E+02  0.51100000000E-03 0. -1.
        -12    1    3    3    0    0 -0.74114174694E+01 -0.85373581942E+01 -0.63083028063E+01  0.12946438821E+02  0.00000000000E+00 0.  1.
</event>
<event>
 7    1  0.5979290E-013  0.5930194E+02  0.7816164E-02  0.1266605E+00
        -11   -1    0    0    0    0  0.00000000000E+00  0.00000000000E+00  0.45593999997E+02  0.45594000000E+02  0.51100000000E-03 0. -1.
         11   -1    0    0    0    0 -0.00000000000E+00 -0.00000000000E+00 -0.45593999997E+02  0.45594000000E+02  0.51100000000E-03 0.  1.
    9900012    2    1    2    0    0 -0.25531670951E+02 -0.16580312559E+02  0.94840710788E+01  0.59301943638E+02  0.49999999289E+02 0.  0.
        -12    1    1    2    0    0  0.25531670951E+02  0.16580312559E+02 -0.94840710788E+01  0.31886056362E+02  0.00000000000E+00 0.  1.
         11    1    3    3    0    0 -0.83318106230E+01  0.87207054828E+01  0.21246283337E+01  0.12246788077E+02  0.51100000000E-03 0. -1.
        -11    1    3    3    0    0 -0.26774485968E+02 -0.18243072539E+02  0.11621024881E+02  0.34419921762E+02  0.51100000000E-03 0.  1.
        -12    1    3    3    0    0  0.95746256404E+01 -0.70579455023E+01 -0.42615821361E+01  0.12635233800E+02  0.00000000000E+00 0.  1.
</event>
<event>
 7    1  0.5979290E-013  0.5930193E+02  0.7816164E-02  0.1266605E+00
        -11   -1    0    0    0    0  0.00000000000E+00  0.00000000000E+00  0.45593999997E+02  0.45594000000E+02  0.51100000000E-03 0.  1.
         11   -1    0    0    0    0 -0.00000000000E+00 -0.00000000000E+00 -0.45593999997E+02  0.45594000000E+02  0.51100000000E-03 0. -1.
    9900012    2    1    2    0    0  0.25341466382E+02 -0.69228249167E+01  0.18072238525E+02  0.59301933630E+02  0.49999981038E+02 0.  0.
        -12    1    1    2    0    0 -0.25341466382E+02  0.69228249167E+01 -0.18072238525E+02  0.31886066370E+02  0.00000000000E+00 0.  1.
         11    1    3    3    0    0  0.24893233451E+02  0.11492385182E+02 -0.40467926058E+01  0.27715059435E+02  0.51100000000E-03 0. -1.
        -11    1    3    3    0    0 -0.24827438176E+01 -0.16027097420E+01  0.10582366788E+02  0.10987228152E+02  0.51100000000E-03 0.  1.
         12    1    3    3    0    0  0.29309767485E+01 -0.16812500356E+02  0.11536664343E+02  0.20599646043E+02  0.00000000000E+00 0. -1.
</event>
<event>
 7    1  0.5979290E-013  0.5930194E+02  0.7816164E-02  0.1266605E+00
        -11   -1    0    0    0    0  0.00000000000E+00  0.00000000000E+00  0.45593999997E+02  0.45594000000E+02  0.51100000000E-03 0.  1.
         11   -1    0    0    0    0 -0.00000000000E+00 -0.00000000000E+00 -0.45593999997E+02  0.45594000000E+02  0.51100000000E-03 0. -1.
    9900012    2    1    2    0    0  0.15939995714E+02 -0.14291785520E+02 -0.23630107400E+02  0.59301943918E+02  0.49999999800E+02 0.  0.
        -12    1    1    2    0    0 -0.15939995714E+02  0.14291785520E+02  0.23630107400E+02  0.31886056082E+02  0.00000000000E+00 0.  1.
         11    1    3    3    0    0  0.20471584673E+01  0.38922740866E+01 -0.30362635092E+01  0.53441137445E+01  0.51100000000E-03 0. -1.
        -11    1    3    3    0    0  0.68678971182E+01 -0.13076734952E+02  0.12743241716E+02  0.19507927044E+02  0.51100000000E-03 0.  1.
        -12    1    3    3    0    0  0.70249401289E+01 -0.51073246540E+01 -0.33337085607E+02  0.34449903130E+02  0.00000000000E+00 0.  1.
</event>
<event>
 7    1  0.5979290E-013  0.5930195E+02  0.7816164E-02  0.1266605E+00
        -11   -1    0    0    0    0  0.00000000000E+00  0.00000000000E+00  0.45593999997E+02  0.45594000000E+02  0.51100000000E-03 0.  1.
         11   -1    0    0    0    0 -0.00000000000E+00 -0.00000000000E+00 -0.45593999997E+02  0.45594000000E+02  0.51100000000E-03 0. -1.
    9900012    2    1    2    0    0  0.12729843653E+02 -0.21371303194E+02 -0.19948402601E+02  0.59301948410E+02  0.50000007993E+02 0.  0.
        -12    1    1    2    0    0 -0.12729843653E+02  0.21371303194E+02  0.19948402601E+02  0.31886051590E+02  0.00000000000E+00 0.  1.
         11    1    3    3    0    0 -0.15113306264E+02 -0.15761298079E+02 -0.10005585620E+02  0.24019622962E+02  0.51100000000E-03 0. -1.
        -11    1    3    3    0    0  0.20281546755E+02  0.46451014608E+01 -0.84369548387E+01  0.22452178370E+02  0.51100000000E-03 0.  1.
         12    1    3    3    0    0  0.75616031625E+01 -0.10255106576E+02 -0.15058621431E+01  0.12830147079E+02  0.00000000000E+00 0. -1.
</event>
<event>
 7    1  0.5979290E-013  0.5930206E+02  0.7816164E-02  0.1266604E+00
        -11   -1    0    0    0    0  0.00000000000E+00  0.00000000000E+00  0.45593999997E+02  0.45594000000E+02  0.51100000000E-03 0.  1.
         11   -1    0    0    0    0 -0.00000000000E+00 -0.00000000000E+00 -0.45593999997E+02  0.45594000000E+02  0.51100000000E-03 0. -1.
    9900012    2    1    2    0    0  0.13923758538E+02  0.10115666367E+02 -0.26842414952E+02  0.59302062687E+02  0.50000216406E+02 0.  0.
        -12    1    1    2    0    0 -0.13923758538E+02 -0.10115666367E+02  0.26842414952E+02  0.31885937313E+02  0.00000000000E+00 0.  1.
         11    1    3    3    0    0 -0.92395431911E+01  0.19867104410E+02 -0.21121697161E+02  0.30433486282E+02  0.51100000000E-03 0. -1.
        -11    1    3    3    0    0  0.12908129868E+02 -0.82887885774E+01  0.26284486034E+01  0.15563822637E+02  0.51100000000E-03 0.  1.
         12    1    3    3    0    0  0.10255171862E+02 -0.14626494654E+01 -0.83491663938E+01  0.13304753768E+02  0.00000000000E+00 0. -1.
</event>
<event>
 7    1  0.5979290E-013  0.5930193E+02  0.7816164E-02  0.1266605E+00
        -11   -1    0    0    0    0  0.00000000000E+00  0.00000000000E+00  0.45593999997E+02  0.45594000000E+02  0.51100000000E-03 0.  1.
         11   -1    0    0    0    0 -0.00000000000E+00 -0.00000000000E+00 -0.45593999997E+02  0.45594000000E+02  0.51100000000E-03 0. -1.
    9900012    2    1    2    0    0 -0.16753202173E+02  0.20453274079E+02 -0.17824577661E+02  0.59301925102E+02  0.49999965485E+02 0.  0.
        -12    1    1    2    0    0  0.16753202173E+02 -0.20453274079E+02  0.17824577661E+02  0.31886074898E+02  0.00000000000E+00 0.  1.
         11    1    3    3    0    0 -0.28688819673E+01 -0.87789194218E+01 -0.47407660671E+01  0.10381462957E+02  0.51100000000E-03 0. -1.
        -11    1    3    3    0    0  0.87340954031E+01  0.21266522596E+02 -0.84682886260E+01  0.24500230986E+02  0.51100000000E-03 0.  1.
        -12    1    3    3    0    0 -0.22618415609E+02  0.79656709042E+01 -0.46155229675E+01  0.24420231160E+02  0.00000000000E+00 0.  1.
</event>
<event>
 7    1  0.5979290E-013  0.5930194E+02  0.7816164E-02  0.1266605E+00
        -11   -1    0    0    0    0  0.00000000000E+00  0.00000000000E+00  0.45593999997E+02  0.45594000000E+02  0.51100000000E-03 0. -1.
         11   -1    0    0    0    0 -0.00000000000E+00 -0.00000000000E+00 -0.45593999997E+02  0.45594000000E+02  0.51100000000E-03 0.  1.
    9900012    2    1    2    0    0 -0.16008640604E+02  0.16153583981E+02  0.22349624162E+02  0.59301944276E+02  0.50000000453E+02 0.  0.
        -12    1    1    2    0    0  0.16008640604E+02 -0.16153583981E+02 -0.22349624162E+02  0.31886055724E+02  0.00000000000E+00 0.  1.
         11    1    3    3    0    0 -0.19680851328E+02  0.90320799035E+01  0.21855947738E+02  0.30766813748E+02  0.51100000000E-03 0. -1.
        -11    1    3    3    0    0  0.63913143986E+01 -0.93882115291E+01 -0.22543453120E+01  0.11578837960E+02  0.51100000000E-03 0.  1.
         12    1    3    3    0    0 -0.27191036747E+01  0.16509715607E+02  0.27480217364E+01  0.16956292568E+02  0.00000000000E+00 0. -1.
</event>
<event>
 7    1  0.5979290E-013  0.5930186E+02  0.7816164E-02  0.1266605E+00
        -11   -1    0    0    0    0  0.00000000000E+00  0.00000000000E+00  0.45593999997E+02  0.45594000000E+02  0.51100000000E-03 0.  1.
         11   -1    0    0    0    0 -0.00000000000E+00 -0.00000000000E+00 -0.45593999997E+02  0.45594000000E+02  0.51100000000E-03 0. -1.
    9900012    2    1    2    0    0  0.94602509622E+01  0.30437949091E+02 -0.87240072093E+00  0.59301856048E+02  0.49999839545E+02 0.  0.
        -12    1    1    2    0    0 -0.94602509622E+01 -0.30437949091E+02  0.87240072093E+00  0.31886143952E+02  0.00000000000E+00 0.  1.
         11    1    3    3    0    0  0.17959460389E+02  0.19981943864E+02 -0.10430332581E+01  0.26886952536E+02  0.51100000000E-03 0. -1.
        -11    1    3    3    0    0 -0.14269497936E+02  0.16011269923E+02  0.62726066173E+01  0.22345579651E+02  0.51100000000E-03 0.  1.
        -12    1    3    3    0    0  0.57702885094E+01 -0.55552646962E+01 -0.61019740801E+01  0.10069323860E+02  0.00000000000E+00 0.  1.
</event>
<event>
 7    1  0.6357270E-013  0.5930194E+02  0.7816164E-02  0.1266605E+00
        -11   -1    0    0    0    0  0.00000000000E+00  0.00000000000E+00  0.45593999997E+02  0.45594000000E+02  0.51100000000E-03 0. -1.
         11   -1    0    0    0    0 -0.00000000000E+00 -0.00000000000E+00 -0.45593999997E+02  0.45594000000E+02  0.51100000000E-03 0.  1.
    9900012    2    1    2    0    0  0.78711646375E+01  0.18442492558E+02  0.24791932671E+02  0.59301942074E+02  0.49999996436E+02 0.  0.
        -12    1    1    2    0    0 -0.78711646375E+01 -0.18442492558E+02 -0.24791932671E+02  0.31886057926E+02  0.00000000000E+00 0.  1.
         11    1    3    3    0    0  0.23192839210E+02  0.42126478996E+01  0.17880262747E+02  0.29586449417E+02  0.51100000000E-03 0. -1.
        -11    1    3    3    0    0 -0.83716450182E+01 -0.26235323374E+01 -0.26038236037E+01  0.91513528976E+01  0.51100000000E-03 0.  1.
         12    1    3    3    0    0 -0.69500295539E+01  0.16853376996E+02  0.95154935274E+01  0.20564139759E+02  0.00000000000E+00 0. -1.
</event>
<event>
 7    1  0.5979290E-013  0.5930198E+02  0.7816164E-02  0.1266605E+00
        -11   -1    0    0    0    0  0.00000000000E+00  0.00000000000E+00  0.45593999997E+02  0.45594000000E+02  0.51100000000E-03 0. -1.
         11   -1    0    0    0    0 -0.00000000000E+00 -0.00000000000E+00 -0.45593999997E+02  0.45594000000E+02  0.51100000000E-03 0.  1.
    9900012    2    1    2    0    0 -0.92932487841E+01  0.19091847620E+02  0.23787711082E+02  0.59301979285E+02  0.50000064301E+02 0.  0.
        -12    1    1    2    0    0  0.92932487841E+01 -0.19091847620E+02 -0.23787711082E+02  0.31886020715E+02  0.00000000000E+00 0.  1.
         11    1    3    3    0    0 -0.34476406547E+01 -0.17128177889E+02  0.73241764493E+01  0.18944768797E+02  0.51100000000E-03 0. -1.
        -11    1    3    3    0    0 -0.13979283486E+01  0.98034517506E+01  0.28298575973E+01  0.10299027341E+02  0.51100000000E-03 0.  1.
         12    1    3    3    0    0 -0.44476797808E+01  0.26416573758E+02  0.13633677036E+02  0.30058183146E+02  0.00000000000E+00 0. -1.
</event>
<event>
 7    1  0.5979290E-013  0.5930194E+02  0.7816164E-02  0.1266605E+00
        -11   -1    0    0    0    0  0.00000000000E+00  0.00000000000E+00  0.45593999997E+02  0.45594000000E+02  0.51100000000E-03 0.  1.
         11   -1    0    0    0    0 -0.00000000000E+00 -0.00000000000E+00 -0.45593999997E+02  0.45594000000E+02  0.51100000000E-03 0. -1.
    9900012    2    1    2    0    0  0.10671178636E+01 -0.13502352425E+02 -0.28866390235E+02  0.59301941185E+02  0.49999994815E+02 0.  0.
        -12    1    1    2    0    0 -0.10671178636E+01  0.13502352425E+02  0.28866390235E+02  0.31886058815E+02  0.00000000000E+00 0.  1.
         11    1    3    3    0    0  0.46499130564E+01 -0.32139590718E+02 -0.16116107895E+02  0.36253329735E+02  0.51100000000E-03 0. -1.
        -11    1    3    3    0    0 -0.83323022352E+00  0.10277672092E+02 -0.57683638879E+01  0.11815195235E+02  0.51100000000E-03 0.  1.
         12    1    3    3    0    0 -0.27495649693E+01  0.83595662003E+01 -0.69819184519E+01  0.11233416214E+02  0.00000000000E+00 0. -1.
</event>
<event>
 7    1  0.5979290E-013  0.5930192E+02  0.7816164E-02  0.1266605E+00
        -11   -1    0    0    0    0  0.00000000000E+00  0.00000000000E+00  0.45593999997E+02  0.45594000000E+02  0.51100000000E-03 0.  1.
         11   -1    0    0    0    0 -0.00000000000E+00 -0.00000000000E+00 -0.45593999997E+02  0.45594000000E+02  0.51100000000E-03 0. -1.
    9900012    2    1    2    0    0 -0.68185466946E+01  0.10480409369E+02 -0.29332409867E+02  0.59301924227E+02  0.49999963889E+02 0.  0.
        -12    1    1    2    0    0  0.68185466946E+01 -0.10480409369E+02  0.29332409867E+02  0.31886075773E+02  0.00000000000E+00 0.  1.
         11    1    3    3    0    0 -0.11335752134E+02  0.25523137821E+02 -0.28450184901E+02  0.39866563206E+02  0.51100000000E-03 0. -1.
        -11    1    3    3    0    0  0.72490296205E+01 -0.80894694542E+01  0.26363416247E+01  0.11177577730E+02  0.51100000000E-03 0.  1.
         12    1    3    3    0    0 -0.27318241812E+01 -0.69532589975E+01 -0.35185665905E+01  0.82577832918E+01  0.00000000000E+00 0. -1.
</event>
<event>
 7    1  0.5979290E-013  0.5930194E+02  0.7816164E-02  0.1266605E+00
        -11   -1    0    0    0    0  0.00000000000E+00  0.00000000000E+00  0.45593999997E+02  0.45594000000E+02  0.51100000000E-03 0.  1.
         11   -1    0    0    0    0 -0.00000000000E+00 -0.00000000000E+00 -0.45593999997E+02  0.45594000000E+02  0.51100000000E-03 0. -1.
    9900012    2    1    2    0    0 -0.16126810582E+02  0.22759898277E+02 -0.15447775744E+02  0.59301940905E+02  0.49999994306E+02 0.  0.
        -12    1    1    2    0    0  0.16126810582E+02 -0.22759898277E+02  0.15447775744E+02  0.31886059095E+02  0.00000000000E+00 0.  1.
         11    1    3    3    0    0 -0.53469728297E+00  0.54644544609E+00  0.12519529408E+02  0.12542851377E+02  0.51100000000E-03 0. -1.
        -11    1    3    3    0    0 -0.12069561985E+02 -0.16470250319E+01 -0.41675859822E+01  0.12874618097E+02  0.51100000000E-03 0.  1.
         12    1    3    3    0    0 -0.35225513144E+01  0.23860477863E+02 -0.23799719170E+02  0.33884471431E+02  0.00000000000E+00 0. -1.
</event>
<event>
 7    1  0.5979290E-013  0.5930182E+02  0.7816164E-02  0.1266605E+00
        -11   -1    0    0    0    0  0.00000000000E+00  0.00000000000E+00  0.45593999997E+02  0.45594000000E+02  0.51100000000E-03 0. -1.
         11   -1    0    0    0    0 -0.00000000000E+00 -0.00000000000E+00 -0.45593999997E+02  0.45594000000E+02  0.51100000000E-03 0.  1.
    9900012    2    1    2    0    0 -0.22865872944E+02  0.18773051210E+02  0.11893393829E+02  0.59301820956E+02  0.49999775547E+02 0.  0.
        -12    1    1    2    0    0  0.22865872944E+02 -0.18773051210E+02 -0.11893393829E+02  0.31886179044E+02  0.00000000000E+00 0.  1.
         11    1    3    3    0    0  0.88079045410E+01  0.66297948025E+01  0.10063446342E+02  0.14926698030E+02  0.51100000000E-03 0. -1.
        -11    1    3    3    0    0 -0.32852509572E+02  0.55035275457E+01 -0.62071337569E+01  0.33883693872E+02  0.51100000000E-03 0.  1.
        -12    1    3    3    0    0  0.11787320874E+01  0.66397288617E+01  0.80370812445E+01  0.10491429055E+02  0.00000000000E+00 0.  1.
</event>
<event>
 7    1  0.5979290E-013  0.5930194E+02  0.7816164E-02  0.1266605E+00
        -11   -1    0    0    0    0  0.00000000000E+00  0.00000000000E+00  0.45593999997E+02  0.45594000000E+02  0.51100000000E-03 0.  1.
         11   -1    0    0    0    0 -0.00000000000E+00 -0.00000000000E+00 -0.45593999997E+02  0.45594000000E+02  0.51100000000E-03 0. -1.
    9900012    2    1    2    0    0 -0.98735958629E+01 -0.28472645901E+02 -0.10418330373E+02  0.59301936153E+02  0.49999985639E+02 0.  0.
        -12    1    1    2    0    0  0.98735958629E+01  0.28472645901E+02  0.10418330373E+02  0.31886063847E+02  0.00000000000E+00 0.  1.
         11    1    3    3    0    0  0.70121937725E+01 -0.27177198175E+02 -0.14229893515E+02  0.31468410062E+02  0.51100000000E-03 0. -1.
        -11    1    3    3    0    0 -0.32788728161E+01  0.54099695330E+01  0.96839776401E+01  0.11567117207E+02  0.51100000000E-03 0.  1.
         12    1    3    3    0    0 -0.13606916819E+02 -0.67054172593E+01 -0.58724144979E+01  0.16266408884E+02  0.00000000000E+00 0. -1.
</event>
<event>
 7    1  0.5979290E-013  0.5930195E+02  0.7816164E-02  0.1266605E+00
        -11   -1    0    0    0    0  0.00000000000E+00  0.00000000000E+00  0.45593999997E+02  0.45594000000E+02  0.51100000000E-03 0. -1.
         11   -1    0    0    0    0 -0.00000000000E+00 -0.00000000000E+00 -0.45593999997E+02  0.45594000000E+02  0.51100000000E-03 0.  1.
    9900012    2    1    2    0    0  0.19343323763E+02  0.17610172574E+02  0.18232881900E+02  0.59301947647E+02  0.50000006601E+02 0.  0.
        -12    1    1    2    0    0 -0.19343323763E+02 -0.17610172574E+02 -0.18232881900E+02  0.31886052353E+02  0.00000000000E+00 0.  1.
         11    1    3    3    0    0  0.52612695061E+01  0.12888574712E+02 -0.11769041352E+02  0.18229280006E+02  0.51100000000E-03 0.  1.
        -11    1    3    3    0    0  0.29483235939E+01  0.37136758876E+01  0.29503703015E+02  0.29882310695E+02  0.51100000000E-03 0. -1.
        -12    1    3    3    0    0  0.11133730663E+02  0.10079219739E+01  0.49822023611E+00  0.11190356946E+02  0.00000000000E+00 0.  1.
</event>
<event>
 7    1  0.5979290E-013  0.5930196E+02  0.7816164E-02  0.1266605E+00
        -11   -1    0    0    0    0  0.00000000000E+00  0.00000000000E+00  0.45593999997E+02  0.45594000000E+02  0.51100000000E-03 0. -1.
         11   -1    0    0    0    0 -0.00000000000E+00 -0.00000000000E+00 -0.45593999997E+02  0.45594000000E+02  0.51100000000E-03 0.  1.
    9900012    2    1    2    0    0  0.29968100220E+02  0.77731820487E+01 -0.76295705692E+01  0.59301957018E+02  0.50000023691E+02 0.  0.
        -12    1    1    2    0    0 -0.29968100220E+02 -0.77731820487E+01  0.76295705692E+01  0.31886042982E+02  0.00000000000E+00 0.  1.
         11    1    3    3    0    0 -0.78939917555E+01 -0.65371169638E+01  0.79280527136E+01  0.12957739931E+02  0.51100000000E-03 0. -1.
        -11    1    3    3    0    0  0.25384967472E+01  0.71704159259E+01 -0.23299679038E+01  0.79553492054E+01  0.51100000000E-03 0.  1.
         12    1    3    3    0    0  0.35323595229E+02  0.71398830865E+01 -0.13227655379E+02  0.38388867881E+02  0.00000000000E+00 0. -1.
</event>
<event>
 7    1  0.5979290E-013  0.5930198E+02  0.7816164E-02  0.1266605E+00
        -11   -1    0    0    0    0  0.00000000000E+00  0.00000000000E+00  0.45593999997E+02  0.45594000000E+02  0.51100000000E-03 0. -1.
         11   -1    0    0    0    0 -0.00000000000E+00 -0.00000000000E+00 -0.45593999997E+02  0.45594000000E+02  0.51100000000E-03 0.  1.
    9900012    2    1    2    0    0  0.20422846786E+02 -0.24484431009E+02 -0.37195417306E+00  0.59301978257E+02  0.50000062426E+02 0.  0.
        -12    1    1    2    0    0 -0.20422846786E+02  0.24484431009E+02  0.37195417306E+00  0.31886021743E+02  0.00000000000E+00 0.  1.
         11    1    3    3    0    0  0.10919003277E+02  0.13249635940E+02 -0.82589690674E+01  0.19052245417E+02  0.51100000000E-03 0. -1.
        -11    1    3    3    0    0  0.70283932531E+01 -0.35244838059E+02  0.68160933819E+01  0.36579448476E+02  0.51100000000E-03 0.  1.
         12    1    3    3    0    0  0.24754502554E+01 -0.24892288897E+01  0.10709215124E+01  0.36702843647E+01  0.00000000000E+00 0. -1.
</event>
<event>
 7    1  0.5979290E-013  0.5930193E+02  0.7816164E-02  0.1266605E+00
        -11   -1    0    0    0    0  0.00000000000E+00  0.00000000000E+00  0.45593999997E+02  0.45594000000E+02  0.51100000000E-03 0. -1.
         11   -1    0    0    0    0 -0.00000000000E+00 -0.00000000000E+00 -0.45593999997E+02  0.45594000000E+02  0.51100000000E-03 0.  1.
    9900012    2    1    2    0    0  0.18396417010E+02 -0.14129850952E+02  0.21877858091E+02  0.59301929038E+02  0.49999972663E+02 0.  0.
        -12    1    1    2    0    0 -0.18396417010E+02  0.14129850952E+02 -0.21877858091E+02  0.31886070962E+02  0.00000000000E+00 0.  1.
         11    1    3    3    0    0  0.80684198382E+01 -0.11708343160E+02  0.28107418102E+02  0.31499391278E+02  0.51100000000E-03 0. -1.
        -11    1    3    3    0    0  0.16946779899E+02  0.78131753148E+00  0.16260935328E+01  0.17042534626E+02  0.51100000000E-03 0.  1.
         12    1    3    3    0    0 -0.66187827274E+01 -0.32028253240E+01 -0.78556535441E+01  0.10760003134E+02  0.00000000000E+00 0. -1.
</event>
<event>
 7    1  0.5979290E-013  0.5930195E+02  0.7816164E-02  0.1266605E+00
        -11   -1    0    0    0    0  0.00000000000E+00  0.00000000000E+00  0.45593999997E+02  0.45594000000E+02  0.51100000000E-03 0.  1.
         11   -1    0    0    0    0 -0.00000000000E+00 -0.00000000000E+00 -0.45593999997E+02  0.45594000000E+02  0.51100000000E-03 0. -1.
    9900012    2    1    2    0    0 -0.15847455029E+02  0.27552516586E+02  0.25371790129E+01  0.59301948528E+02  0.50000008208E+02 0.  0.
        -12    1    1    2    0    0  0.15847455029E+02 -0.27552516586E+02 -0.25371790129E+01  0.31886051472E+02  0.00000000000E+00 0.  1.
         11    1    3    3    0    0 -0.41777574378E+01  0.97447566654E+01 -0.43421884953E+01  0.11457248399E+02  0.51100000000E-03 0.  1.
        -11    1    3    3    0    0 -0.19011357122E+02  0.36377499102E+01  0.19517095461E+02  0.27487850763E+02  0.51100000000E-03 0. -1.
        -12    1    3    3    0    0  0.73416595307E+01  0.14170010010E+02 -0.12637727953E+02  0.20356849367E+02  0.00000000000E+00 0.  1.
</event>
<event>
 7    1  0.5979290E-013  0.5930185E+02  0.7816164E-02  0.1266605E+00
        -11   -1    0    0    0    0  0.00000000000E+00  0.00000000000E+00  0.45593999997E+02  0.45594000000E+02  0.51100000000E-03 0. -1.
         11   -1    0    0    0    0 -0.00000000000E+00 -0.00000000000E+00 -0.45593999997E+02  0.45594000000E+02  0.51100000000E-03 0.  1.
    9900012    2    1    2    0    0  0.29334523312E+02  0.11622019576E+02 -0.45979026918E+01  0.59301854010E+02  0.49999835829E+02 0.  0.
        -12    1    1    2    0    0 -0.29334523312E+02 -0.11622019576E+02  0.45979026918E+01  0.31886145990E+02  0.00000000000E+00 0.  1.
         11    1    3    3    0    0 -0.45747387272E+01 -0.81329997068E+01  0.47223152194E+01  0.10458211126E+02  0.51100000000E-03 0. -1.
        -11    1    3    3    0    0  0.27123855488E+02  0.15865511979E+02  0.56747903008E+01  0.31931508767E+02  0.51100000000E-03 0.  1.
        -12    1    3    3    0    0  0.67854065506E+01  0.38895073034E+01 -0.14995008212E+02  0.16912134117E+02  0.00000000000E+00 0.  1.
</event>
<event>
 7    1  0.5979290E-013  0.5930193E+02  0.7816164E-02  0.1266605E+00
        -11   -1    0    0    0    0  0.00000000000E+00  0.00000000000E+00  0.45593999997E+02  0.45594000000E+02  0.51100000000E-03 0.  1.
         11   -1    0    0    0    0 -0.00000000000E+00 -0.00000000000E+00 -0.45593999997E+02  0.45594000000E+02  0.51100000000E-03 0. -1.
    9900012    2    1    2    0    0 -0.45970517834E+01 -0.12732713503E+02 -0.28869816223E+02  0.59301934595E+02  0.49999982797E+02 0.  0.
        -12    1    1    2    0    0  0.45970517834E+01  0.12732713503E+02  0.28869816223E+02  0.31886065405E+02  0.00000000000E+00 0.  1.
         11    1    3    3    0    0  0.77528478503E+01 -0.12682653439E+02 -0.22680307224E+02  0.27117387117E+02  0.51100000000E-03 0. -1.
        -11    1    3    3    0    0  0.26898368107E+00 -0.75984980132E+01  0.84970043393E+01  0.11402131699E+02  0.51100000000E-03 0.  1.
        -12    1    3    3    0    0 -0.12618883315E+02  0.75484379483E+01 -0.14686513338E+02  0.20782415779E+02  0.00000000000E+00 0.  1.
</event>
<event>
 7    1  0.5979290E-013  0.5930196E+02  0.7816164E-02  0.1266605E+00
        -11   -1    0    0    0    0  0.00000000000E+00  0.00000000000E+00  0.45593999997E+02  0.45594000000E+02  0.51100000000E-03 0.  1.
         11   -1    0    0    0    0 -0.00000000000E+00 -0.00000000000E+00 -0.45593999997E+02  0.45594000000E+02  0.51100000000E-03 0. -1.
    9900012    2    1    2    0    0  0.15397795901E+02  0.35042525985E+01 -0.27701041198E+02  0.59301959350E+02  0.50000027944E+02 0.  0.
        -12    1    1    2    0    0 -0.15397795901E+02 -0.35042525985E+01  0.27701041198E+02  0.31886040650E+02  0.00000000000E+00 0.  1.
         11    1    3    3    0    0  0.13516337865E+02 -0.77077541150E+01 -0.45692647650E+01  0.16216628612E+02  0.51100000000E-03 0. -1.
        -11    1    3    3    0    0 -0.12147814322E+02  0.11424368734E+02 -0.77933809218E+00  0.16694099613E+02  0.51100000000E-03 0.  1.
         12    1    3    3    0    0  0.14029272358E+02 -0.21236202025E+00 -0.22352438341E+02  0.26391231125E+02  0.00000000000E+00 0. -1.
</event>
<event>
 7    1  0.5979290E-013  0.5930195E+02  0.7816164E-02  0.1266605E+00
        -11   -1    0    0    0    0  0.00000000000E+00  0.00000000000E+00  0.45593999997E+02  0.45594000000E+02  0.51100000000E-03 0.  1.
         11   -1    0    0    0    0 -0.00000000000E+00 -0.00000000000E+00 -0.45593999997E+02  0.45594000000E+02  0.51100000000E-03 0. -1.
    9900012    2    1    2    0    0 -0.27466646783E+02 -0.89344076158E+01 -0.13508522424E+02  0.59301945007E+02  0.50000001787E+02 0.  0.
        -12    1    1    2    0    0  0.27466646783E+02  0.89344076158E+01  0.13508522424E+02  0.31886054993E+02  0.00000000000E+00 0.  1.
         11    1    3    3    0    0 -0.16760457159E+02 -0.19087965906E+02 -0.13814788675E+02  0.28915597055E+02  0.51100000000E-03 0. -1.
        -11    1    3    3    0    0  0.18980890104E+01  0.11818982826E+02 -0.87066565989E+01  0.14801924413E+02  0.51100000000E-03 0.  1.
        -12    1    3    3    0    0 -0.12604278634E+02 -0.16654245357E+01  0.90129228503E+01  0.15584423540E+02  0.00000000000E+00 0.  1.
</event>
<event>
 7    1  0.8770757E-013  0.5930195E+02  0.7816164E-02  0.1266605E+00
        -11   -1    0    0    0    0  0.00000000000E+00  0.00000000000E+00  0.45593999997E+02  0.45594000000E+02  0.51100000000E-03 0.  1.
         11   -1    0    0    0    0 -0.00000000000E+00 -0.00000000000E+00 -0.45593999997E+02  0.45594000000E+02  0.51100000000E-03 0. -1.
    9900012    2    1    2    0    0  0.23704364209E+02  0.10264017593E+01 -0.21301875645E+02  0.59301948361E+02  0.50000007903E+02 0.  0.
        -12    1    1    2    0    0 -0.23704364209E+02 -0.10264017593E+01  0.21301875645E+02  0.31886051639E+02  0.00000000000E+00 0.  1.
         11    1    3    3    0    0  0.19919585739E+02 -0.14137794403E+02 -0.14544212681E+02  0.28428880550E+02  0.51100000000E-03 0. -1.
        -11    1    3    3    0    0 -0.65299648650E+01 -0.11413266327E+01  0.49781315594E+01  0.82900459410E+01  0.51100000000E-03 0.  1.
         12    1    3    3    0    0  0.10314743335E+02  0.16305522795E+02 -0.11735794523E+02  0.22583021870E+02  0.00000000000E+00 0. -1.
</event>
<event>
 7    1  0.5979290E-013  0.5930195E+02  0.7816164E-02  0.1266605E+00
        -11   -1    0    0    0    0  0.00000000000E+00  0.00000000000E+00  0.45593999997E+02  0.45594000000E+02  0.51100000000E-03 0.  1.
         11   -1    0    0    0    0 -0.00000000000E+00 -0.00000000000E+00 -0.45593999997E+02  0.45594000000E+02  0.51100000000E-03 0. -1.
    9900012    2    1    2    0    0 -0.21330362834E+02 -0.12133108669E+02 -0.20359843817E+02  0.59301953759E+02  0.50000017748E+02 0.  0.
        -12    1    1    2    0    0  0.21330362834E+02  0.12133108669E+02  0.20359843817E+02  0.31886046241E+02  0.00000000000E+00 0.  1.
         11    1    3    3    0    0 -0.25152748168E+02  0.34821749739E+01 -0.18515395186E+02  0.31426201522E+02  0.51100000000E-03 0. -1.
        -11    1    3    3    0    0 -0.37234887251E+01 -0.16687930214E+02  0.48055363710E+01  0.17760759083E+02  0.51100000000E-03 0.  1.
         12    1    3    3    0    0  0.75458740590E+01  0.10726465719E+01 -0.66499850021E+01  0.10114993154E+02  0.00000000000E+00 0. -1.
</event>
<event>
 7    1  0.5979290E-013  0.5930198E+02  0.7816164E-02  0.1266605E+00
        -11   -1    0    0    0    0  0.00000000000E+00  0.00000000000E+00  0.45593999997E+02  0.45594000000E+02  0.51100000000E-03 0.  1.
         11   -1    0    0    0    0 -0.00000000000E+00 -0.00000000000E+00 -0.45593999997E+02  0.45594000000E+02  0.51100000000E-03 0. -1.
    9900012    2    1    2    0    0  0.13359305494E+01 -0.23530117035E+02 -0.21477130434E+02  0.59301980339E+02  0.50000066224E+02 0.  0.
        -12    1    1    2    0    0 -0.13359305494E+01  0.23530117035E+02  0.21477130434E+02  0.31886019661E+02  0.00000000000E+00 0.  1.
         11    1    3    3    0    0  0.64128029580E+01 -0.15842237004E+02 -0.30174965536E+02  0.34678942609E+02  0.51100000000E-03 0. -1.
        -11    1    3    3    0    0  0.71960758760E+01 -0.70213171504E+01  0.69171963717E+01  0.12203688313E+02  0.51100000000E-03 0.  1.
         12    1    3    3    0    0 -0.12272948285E+02 -0.66656288079E+00  0.17806387307E+01  0.12419349418E+02  0.00000000000E+00 0. -1.
</event>
<event>
 7    1  0.5979290E-013  0.5930213E+02  0.7816164E-02  0.1266604E+00
        -11   -1    0    0    0    0  0.00000000000E+00  0.00000000000E+00  0.45593999997E+02  0.45594000000E+02  0.51100000000E-03 0. -1.
         11   -1    0    0    0    0 -0.00000000000E+00 -0.00000000000E+00 -0.45593999997E+02  0.45594000000E+02  0.51100000000E-03 0.  1.
    9900012    2    1    2    0    0 -0.24820340187E+02  0.26974919307E+01  0.19833878866E+02  0.59302133215E+02  0.50000345032E+02 0.  0.
        -12    1    1    2    0    0  0.24820340187E+02 -0.26974919307E+01 -0.19833878866E+02  0.31885866785E+02  0.00000000000E+00 0.  1.
         11    1    3    3    0    0  0.79269436802E+01  0.11290039415E+02  0.79166434317E+01  0.15905177446E+02  0.51100000000E-03 0. -1.
        -11    1    3    3    0    0 -0.12315227955E+02 -0.60232628195E+01 -0.70361198758E+01  0.15409461955E+02  0.51100000000E-03 0.  1.
        -12    1    3    3    0    0 -0.20432055912E+02 -0.25692846648E+01  0.18953355310E+02  0.27987493814E+02  0.00000000000E+00 0.  1.
</event>
<event>
 7    1  0.5979290E-013  0.5930194E+02  0.7816164E-02  0.1266605E+00
        -11   -1    0    0    0    0  0.00000000000E+00  0.00000000000E+00  0.45593999997E+02  0.45594000000E+02  0.51100000000E-03 0.  1.
         11   -1    0    0    0    0 -0.00000000000E+00 -0.00000000000E+00 -0.45593999997E+02  0.45594000000E+02  0.51100000000E-03 0. -1.
    9900012    2    1    2    0    0 -0.12914089064E+02  0.86784366568E+01 -0.27832213308E+02  0.59301936323E+02  0.49999985949E+02 0.  0.
        -12    1    1    2    0    0  0.12914089064E+02 -0.86784366568E+01  0.27832213308E+02  0.31886063677E+02  0.00000000000E+00 0.  1.
         11    1    3    3    0    0 -0.23905824906E+02 -0.11564982326E+02 -0.24296247670E+02  0.35993679053E+02  0.51100000000E-03 0. -1.
        -11    1    3    3    0    0  0.80026626510E+01  0.14798690606E+02 -0.27581025678E+01  0.17048489176E+02  0.51100000000E-03 0.  1.
         12    1    3    3    0    0  0.29890731907E+01  0.54447283771E+01 -0.77786307012E+00  0.62597680943E+01  0.00000000000E+00 0. -1.
</event>
<event>
 7    1  0.5979290E-013  0.5930195E+02  0.7816164E-02  0.1266605E+00
        -11   -1    0    0    0    0  0.00000000000E+00  0.00000000000E+00  0.45593999997E+02  0.45594000000E+02  0.51100000000E-03 0.  1.
         11   -1    0    0    0    0 -0.00000000000E+00 -0.00000000000E+00 -0.45593999997E+02  0.45594000000E+02  0.51100000000E-03 0. -1.
    9900012    2    1    2    0    0 -0.82165287261E+01  0.22113388152E+02 -0.21452432818E+02  0.59301950485E+02  0.50000011776E+02 0.  0.
        -12    1    1    2    0    0  0.82165287261E+01 -0.22113388152E+02  0.21452432818E+02  0.31886049515E+02  0.00000000000E+00 0.  1.
         11    1    3    3    0    0 -0.14554428721E+02  0.86391964517E+01 -0.27077540648E+02  0.31932120483E+02  0.51100000000E-03 0. -1.
        -11    1    3    3    0    0  0.97072755346E+01  0.12520593081E+01 -0.48506450383E+01  0.10923717699E+02  0.51100000000E-03 0.  1.
         12    1    3    3    0    0 -0.33693755397E+01  0.12222132392E+02  0.10475752868E+02  0.16446112303E+02  0.00000000000E+00 0. -1.
</event>
<event>
 7    1  0.5979290E-013  0.5930191E+02  0.7816164E-02  0.1266605E+00
        -11   -1    0    0    0    0  0.00000000000E+00  0.00000000000E+00  0.45593999997E+02  0.45594000000E+02  0.51100000000E-03 0. -1.
         11   -1    0    0    0    0 -0.00000000000E+00 -0.00000000000E+00 -0.45593999997E+02  0.45594000000E+02  0.51100000000E-03 0.  1.
    9900012    2    1    2    0    0 -0.24716769472E+02  0.19283220721E+02 -0.58276638914E+01  0.59301906465E+02  0.49999931494E+02 0.  0.
        -12    1    1    2    0    0  0.24716769472E+02 -0.19283220721E+02  0.58276638914E+01  0.31886093535E+02  0.00000000000E+00 0.  1.
         11    1    3    3    0    0 -0.79199718048E+01  0.24872794367E+02 -0.43870493132E+00  0.26106978287E+02  0.51100000000E-03 0. -1.
        -11    1    3    3    0    0 -0.17335094919E+02 -0.81251949387E+01  0.71156968174E+01  0.20424432675E+02  0.51100000000E-03 0.  1.
        -12    1    3    3    0    0  0.53829725152E+00  0.25356212935E+01 -0.12504655777E+02  0.12770495503E+02  0.00000000000E+00 0.  1.
</event>
<event>
 7    1  0.5979290E-013  0.5930194E+02  0.7816164E-02  0.1266605E+00
        -11   -1    0    0    0    0  0.00000000000E+00  0.00000000000E+00  0.45593999997E+02  0.45594000000E+02  0.51100000000E-03 0.  1.
         11   -1    0    0    0    0 -0.00000000000E+00 -0.00000000000E+00 -0.45593999997E+02  0.45594000000E+02  0.51100000000E-03 0. -1.
    9900012    2    1    2    0    0 -0.95701687100E+00  0.12643566766E+02 -0.29256538579E+02  0.59301941738E+02  0.49999995824E+02 0.  0.
        -12    1    1    2    0    0  0.95701687100E+00 -0.12643566766E+02  0.29256538579E+02  0.31886058262E+02  0.00000000000E+00 0.  1.
         11    1    3    3    0    0 -0.69225028791E+01  0.15474901311E+02 -0.20867918864E+02  0.26886123831E+02  0.51100000000E-03 0. -1.
        -11    1    3    3    0    0  0.13622126426E+02 -0.81630146783E+00  0.68304364133E+01  0.15260522216E+02  0.51100000000E-03 0.  1.
         12    1    3    3    0    0 -0.76566404176E+01 -0.20150330775E+01 -0.15219056129E+02  0.17155295691E+02  0.00000000000E+00 0. -1.
</event>
<event>
 7    1  0.5979290E-013  0.5930194E+02  0.7816164E-02  0.1266605E+00
        -11   -1    0    0    0    0  0.00000000000E+00  0.00000000000E+00  0.45593999997E+02  0.45594000000E+02  0.51100000000E-03 0. -1.
         11   -1    0    0    0    0 -0.00000000000E+00 -0.00000000000E+00 -0.45593999997E+02  0.45594000000E+02  0.51100000000E-03 0.  1.
    9900012    2    1    2    0    0 -0.16160190384E+02 -0.20036363278E+02  0.18817897312E+02  0.59301939317E+02  0.49999991408E+02 0.  0.
        -12    1    1    2    0    0  0.16160190384E+02  0.20036363278E+02 -0.18817897312E+02  0.31886060683E+02  0.00000000000E+00 0.  1.
         11    1    3    3    0    0  0.11399729827E+02 -0.16611408556E+02  0.78683733541E+01  0.21628777909E+02  0.51100000000E-03 0. -1.
        -11    1    3    3    0    0 -0.21409630899E+02 -0.11550819135E+02  0.25373851939E+01  0.24458782509E+02  0.51100000000E-03 0.  1.
         12    1    3    3    0    0 -0.61502893117E+01  0.81258644137E+01  0.84121387642E+01  0.13214378899E+02  0.00000000000E+00 0. -1.
</event>
<event>
 7    1  0.5979290E-013  0.5930197E+02  0.7816164E-02  0.1266605E+00
        -11   -1    0    0    0    0  0.00000000000E+00  0.00000000000E+00  0.45593999997E+02  0.45594000000E+02  0.51100000000E-03 0.  1.
         11   -1    0    0    0    0 -0.00000000000E+00 -0.00000000000E+00 -0.45593999997E+02  0.45594000000E+02  0.51100000000E-03 0. -1.
    9900012    2    1    2    0    0  0.19427005370E+02 -0.79604686575E+01 -0.23998770766E+02  0.59301974892E+02  0.50000056289E+02 0.  0.
        -12    1    1    2    0    0 -0.19427005370E+02  0.79604686575E+01  0.23998770766E+02  0.31886025108E+02  0.00000000000E+00 0.  1.
         11    1    3    3    0    0 -0.34557094582E+01 -0.15723802880E+02  0.32242048890E+01  0.16418751545E+02  0.51100000000E-03 0. -1.
        -11    1    3    3    0    0  0.66900600488E+01  0.70179241040E+01  0.15882711974E+01  0.98250072693E+01  0.51100000000E-03 0.  1.
         12    1    3    3    0    0  0.16192654780E+02  0.74541011854E+00 -0.28811246852E+02  0.33058216078E+02  0.00000000000E+00 0. -1.
</event>
<event>
 7    1  0.5979290E-013  0.5930195E+02  0.7816164E-02  0.1266605E+00
        -11   -1    0    0    0    0  0.00000000000E+00  0.00000000000E+00  0.45593999997E+02  0.45594000000E+02  0.51100000000E-03 0. -1.
         11   -1    0    0    0    0 -0.00000000000E+00 -0.00000000000E+00 -0.45593999997E+02  0.45594000000E+02  0.51100000000E-03 0.  1.
    9900012    2    1    2    0    0 -0.32982351528E+01 -0.20406091453E+02 -0.24278250385E+02  0.59301947167E+02  0.50000005725E+02 0.  0.
        -12    1    1    2    0    0  0.32982351528E+01  0.20406091453E+02  0.24278250385E+02  0.31886052833E+02  0.00000000000E+00 0.  1.
         11    1    3    3    0    0 -0.43709356558E+01  0.80935973865E+01 -0.51147205041E+01  0.10524816543E+02  0.51100000000E-03 0. -1.
        -11    1    3    3    0    0  0.10549123294E+02 -0.12970750483E+02  0.59680088637E+01  0.17752225225E+02  0.51100000000E-03 0.  1.
        -12    1    3    3    0    0 -0.94764227911E+01 -0.15528938357E+02 -0.25131538744E+02  0.31024905400E+02  0.00000000000E+00 0.  1.
</event>
<event>
 7    1  0.5979290E-013  0.5930195E+02  0.7816164E-02  0.1266605E+00
        -11   -1    0    0    0    0  0.00000000000E+00  0.00000000000E+00  0.45593999997E+02  0.45594000000E+02  0.51100000000E-03 0.  1.
         11   -1    0    0    0    0 -0.00000000000E+00 -0.00000000000E+00 -0.45593999997E+02  0.45594000000E+02  0.51100000000E-03 0. -1.
    9900012    2    1    2    0    0  0.45841844007E+01  0.30960170806E+01 -0.31402548403E+02  0.59301951098E+02  0.50000012895E+02 0.  0.
        -12    1    1    2    0    0 -0.45841844007E+01 -0.30960170806E+01  0.31402548403E+02  0.31886048902E+02  0.00000000000E+00 0.  1.
         11    1    3    3    0    0  0.24784517782E+01 -0.23545144902E+01 -0.17292603570E+02  0.17627268653E+02  0.51100000000E-03 0. -1.
        -11    1    3    3    0    0  0.15887129651E+02  0.66206100521E+01  0.51478555531E+01  0.17964792875E+02  0.51100000000E-03 0.  1.
        -12    1    3    3    0    0 -0.13781397028E+02 -0.11700784813E+01 -0.19257800386E+02  0.23709889570E+02  0.00000000000E+00 0.  1.
</event>
<event>
 7    1  0.5979290E-013  0.5930196E+02  0.7816164E-02  0.1266605E+00
        -11   -1    0    0    0    0  0.00000000000E+00  0.00000000000E+00  0.45593999997E+02  0.45594000000E+02  0.51100000000E-03 0. -1.
         11   -1    0    0    0    0 -0.00000000000E+00 -0.00000000000E+00 -0.45593999997E+02  0.45594000000E+02  0.51100000000E-03 0.  1.
    9900012    2    1    2    0    0 -0.16627134754E+02 -0.26595161493E+02 -0.57406650158E+01  0.59301961366E+02  0.50000031620E+02 0.  0.
        -12    1    1    2    0    0  0.16627134754E+02  0.26595161493E+02  0.57406650158E+01  0.31886038634E+02  0.00000000000E+00 0.  1.
         11    1    3    3    0    0 -0.15533526243E+02 -0.24942600772E+02  0.10100221591E+02  0.31071502173E+02  0.51100000000E-03 0. -1.
        -11    1    3    3    0    0  0.47513396258E+01  0.78956064848E+01 -0.48606454915E+00  0.92277889556E+01  0.51100000000E-03 0.  1.
        -12    1    3    3    0    0 -0.58449481368E+01 -0.95481672061E+01 -0.15354822058E+02  0.19002670237E+02  0.00000000000E+00 0.  1.
</event>
<event>
 7    1  0.5979290E-013  0.5930196E+02  0.7816164E-02  0.1266605E+00
        -11   -1    0    0    0    0  0.00000000000E+00  0.00000000000E+00  0.45593999997E+02  0.45594000000E+02  0.51100000000E-03 0. -1.
         11   -1    0    0    0    0 -0.00000000000E+00 -0.00000000000E+00 -0.45593999997E+02  0.45594000000E+02  0.51100000000E-03 0.  1.
    9900012    2    1    2    0    0  0.27797927683E+02  0.15615518184E+02  0.38762638746E+00  0.59301961585E+02  0.50000032020E+02 0.  0.
        -12    1    1    2    0    0 -0.27797927683E+02 -0.15615518184E+02 -0.38762638746E+00  0.31886038415E+02  0.00000000000E+00 0.  1.
         11    1    3    3    0    0 -0.45465954464E+01 -0.93351973204E+01  0.90856818741E+01  0.13797356795E+02  0.51100000000E-03 0. -1.
        -11    1    3    3    0    0  0.94122739094E+01  0.16346845600E+01 -0.85199916748E+01  0.12800521558E+02  0.51100000000E-03 0.  1.
         12    1    3    3    0    0  0.22932249220E+02  0.23316030945E+02 -0.17806381184E+00  0.32704083231E+02  0.00000000000E+00 0. -1.
</event>
<event>
 7    1  0.5979290E-013  0.5930194E+02  0.7816164E-02  0.1266605E+00
        -11   -1    0    0    0    0  0.00000000000E+00  0.00000000000E+00  0.45593999997E+02  0.45594000000E+02  0.51100000000E-03 0.  1.
         11   -1    0    0    0    0 -0.00000000000E+00 -0.00000000000E+00 -0.45593999997E+02  0.45594000000E+02  0.51100000000E-03 0. -1.
    9900012    2    1    2    0    0 -0.11845000869E+01  0.27120527088E+02 -0.16727065669E+02  0.59301941042E+02  0.49999994555E+02 0.  0.
        -12    1    1    2    0    0  0.11845000869E+01 -0.27120527088E+02  0.16727065669E+02  0.31886058958E+02  0.00000000000E+00 0.  1.
         11    1    3    3    0    0 -0.10327193377E+02 -0.87757459158E+01 -0.10702990472E+02  0.17269008215E+02  0.51100000000E-03 0.  1.
        -11    1    3    3    0    0  0.98125784977E+00  0.32884358221E+02 -0.48525679883E+01  0.33254943977E+02  0.51100000000E-03 0. -1.
         12    1    3    3    0    0  0.81614354403E+01  0.30119147823E+01 -0.11715072085E+01  0.87779888495E+01  0.00000000000E+00 0. -1.
</event>
<event>
 7    1  0.5979290E-013  0.5930199E+02  0.7816164E-02  0.1266605E+00
        -11   -1    0    0    0    0  0.00000000000E+00  0.00000000000E+00  0.45593999997E+02  0.45594000000E+02  0.51100000000E-03 0. -1.
         11   -1    0    0    0    0 -0.00000000000E+00 -0.00000000000E+00 -0.45593999997E+02  0.45594000000E+02  0.51100000000E-03 0.  1.
    9900012    2    1    2    0    0 -0.25233050258E+02 -0.19364751392E+02 -0.22399168193E+01  0.59301989758E+02  0.50000083401E+02 0.  0.
        -12    1    1    2    0    0  0.25233050258E+02  0.19364751392E+02  0.22399168193E+01  0.31886010242E+02  0.00000000000E+00 0.  1.
         11    1    3    3    0    0 -0.11206745128E+02 -0.19611357028E-02 -0.30329709855E+01  0.11609911863E+02  0.51100000000E-03 0. -1.
        -11    1    3    3    0    0 -0.15568160328E+02 -0.95735136304E+01  0.19373741858E+02  0.26633844128E+02  0.51100000000E-03 0.  1.
        -12    1    3    3    0    0  0.15418551975E+01 -0.97892766261E+01 -0.18580687691E+02  0.21058233767E+02  0.00000000000E+00 0.  1.
</event>
<event>
 7    1  0.5979290E-013  0.5930199E+02  0.7816164E-02  0.1266605E+00
        -11   -1    0    0    0    0  0.00000000000E+00  0.00000000000E+00  0.45593999997E+02  0.45594000000E+02  0.51100000000E-03 0.  1.
         11   -1    0    0    0    0 -0.00000000000E+00 -0.00000000000E+00 -0.45593999997E+02  0.45594000000E+02  0.51100000000E-03 0. -1.
    9900012    2    1    2    0    0 -0.43539180967E+01 -0.18485159123E+02 -0.25613662329E+02  0.59301993532E+02  0.50000090284E+02 0.  0.
        -12    1    1    2    0    0  0.43539180967E+01  0.18485159123E+02  0.25613662329E+02  0.31886006468E+02  0.00000000000E+00 0.  1.
         11    1    3    3    0    0  0.10997296223E+01  0.11171997420E+02 -0.90118270823E+01  0.14395692384E+02  0.51100000000E-03 0. -1.
        -11    1    3    3    0    0 -0.80585651916E+01 -0.31538005299E+02 -0.21527130488E+02  0.39025678706E+02  0.51100000000E-03 0.  1.
        -12    1    3    3    0    0  0.26049174725E+01  0.18808487557E+01  0.49252952416E+01  0.58806224414E+01  0.00000000000E+00 0.  1.
</event>
<event>
 7    1  0.5979290E-013  0.5930195E+02  0.7816164E-02  0.1266605E+00
        -11   -1    0    0    0    0  0.00000000000E+00  0.00000000000E+00  0.45593999997E+02  0.45594000000E+02  0.51100000000E-03 0.  1.
         11   -1    0    0    0    0 -0.00000000000E+00 -0.00000000000E+00 -0.45593999997E+02  0.45594000000E+02  0.51100000000E-03 0. -1.
    9900012    2    1    2    0    0  0.25835682085E+02 -0.14951059417E+02  0.11211752977E+02  0.59301952090E+02  0.50000014704E+02 0.  0.
        -12    1    1    2    0    0 -0.25835682085E+02  0.14951059417E+02 -0.11211752977E+02  0.31886047910E+02  0.00000000000E+00 0.  1.
         11    1    3    3    0    0  0.31577211921E+02 -0.84118927171E+01  0.21522582621E+02  0.39129296118E+02  0.51100000000E-03 0.  1.
        -11    1    3    3    0    0 -0.32443660648E+01  0.19677497282E+00  0.33938428344E+01  0.46992340863E+01  0.51100000000E-03 0. -1.
         12    1    3    3    0    0 -0.24971637708E+01 -0.67359416727E+01 -0.13704672478E+02  0.15473421886E+02  0.00000000000E+00 0. -1.
</event>
<event>
 7    1  0.5979290E-013  0.5930187E+02  0.7816164E-02  0.1266605E+00
        -11   -1    0    0    0    0  0.00000000000E+00  0.00000000000E+00  0.45593999997E+02  0.45594000000E+02  0.51100000000E-03 0. -1.
         11   -1    0    0    0    0 -0.00000000000E+00 -0.00000000000E+00 -0.45593999997E+02  0.45594000000E+02  0.51100000000E-03 0.  1.
    9900012    2    1    2    0    0  0.10232476689E+02  0.27832326369E+02  0.11721070626E+02  0.59301867169E+02  0.49999859828E+02 0.  0.
        -12    1    1    2    0    0 -0.10232476689E+02 -0.27832326369E+02 -0.11721070626E+02  0.31886132831E+02  0.00000000000E+00 0.  1.
         11    1    3    3    0    0  0.33529392985E+00 -0.11095014929E+02 -0.56386552104E+01  0.12450149041E+02  0.51100000000E-03 0. -1.
        -11    1    3    3    0    0  0.94162955181E+00  0.24694775949E+02  0.17067244315E+02  0.30033472229E+02  0.51100000000E-03 0.  1.
         12    1    3    3    0    0  0.89555532076E+01  0.14232565349E+02  0.29248152111E+00  0.16818245899E+02  0.00000000000E+00 0. -1.
</event>
<event>
 7    1  0.5979290E-013  0.5930195E+02  0.7816164E-02  0.1266605E+00
        -11   -1    0    0    0    0  0.00000000000E+00  0.00000000000E+00  0.45593999997E+02  0.45594000000E+02  0.51100000000E-03 0. -1.
         11   -1    0    0    0    0 -0.00000000000E+00 -0.00000000000E+00 -0.45593999997E+02  0.45594000000E+02  0.51100000000E-03 0.  1.
    9900012    2    1    2    0    0  0.24592887744E+02  0.12884524933E+02  0.15681174640E+02  0.59301947432E+02  0.50000006208E+02 0.  0.
        -12    1    1    2    0    0 -0.24592887744E+02 -0.12884524933E+02 -0.15681174640E+02  0.31886052568E+02  0.00000000000E+00 0.  1.
         11    1    3    3    0    0  0.33822992392E+02  0.93785342997E+00  0.43318031620E+01  0.34112151828E+02  0.51100000000E-03 0. -1.
        -11    1    3    3    0    0 -0.31798059251E+01  0.12946389114E+02  0.13223828807E+02  0.18777374827E+02  0.51100000000E-03 0.  1.
        -12    1    3    3    0    0 -0.60502987236E+01 -0.99971761098E+00 -0.18744573289E+01  0.64124207772E+01  0.00000000000E+00 0.  1.
</event>
<event>
 7    1  0.5979290E-013  0.5930199E+02  0.7816164E-02  0.1266605E+00
        -11   -1    0    0    0    0  0.00000000000E+00  0.00000000000E+00  0.45593999997E+02  0.45594000000E+02  0.51100000000E-03 0. -1.
         11   -1    0    0    0    0 -0.00000000000E+00 -0.00000000000E+00 -0.45593999997E+02  0.45594000000E+02  0.51100000000E-03 0.  1.
    9900012    2    1    2    0    0  0.11506409023E+02  0.25048097722E+02  0.16028511651E+02  0.59301986862E+02  0.50000078120E+02 0.  0.
        -12    1    1    2    0    0 -0.11506409023E+02 -0.25048097722E+02 -0.16028511651E+02  0.31886013138E+02  0.00000000000E+00 0.  1.
         11    1    3    3    0    0  0.12227646975E+02  0.15205320737E+02 -0.10533606286E+02  0.22173722983E+02  0.51100000000E-03 0. -1.
        -11    1    3    3    0    0  0.64405789259E+01 -0.56983159664E+01  0.66313147158E+01  0.10859382896E+02  0.51100000000E-03 0.  1.
         12    1    3    3    0    0 -0.71618168778E+01  0.15541092951E+02  0.19930803221E+02  0.26268880984E+02  0.00000000000E+00 0. -1.
</event>
<event>
 7    1  0.5979290E-013  0.5930196E+02  0.7816164E-02  0.1266605E+00
        -11   -1    0    0    0    0  0.00000000000E+00  0.00000000000E+00  0.45593999997E+02  0.45594000000E+02  0.51100000000E-03 0.  1.
         11   -1    0    0    0    0 -0.00000000000E+00 -0.00000000000E+00 -0.45593999997E+02  0.45594000000E+02  0.51100000000E-03 0. -1.
    9900012    2    1    2    0    0 -0.20885991331E+02 -0.23967733988E+02  0.24582003267E+01  0.59301958301E+02  0.50000026031E+02 0.  0.
        -12    1    1    2    0    0  0.20885991331E+02  0.23967733988E+02 -0.24582003267E+01  0.31886041699E+02  0.00000000000E+00 0.  1.
         11    1    3    3    0    0 -0.10869027628E+02 -0.26967032872E+02  0.57462814985E+01  0.29637415117E+02  0.51100000000E-03 0. -1.
        -11    1    3    3    0    0  0.18426082791E+01  0.68048728206E+01 -0.12378173169E+02  0.14245022662E+02  0.51100000000E-03 0.  1.
        -12    1    3    3    0    0 -0.11859571983E+02 -0.38055739359E+01  0.90900919974E+01  0.15419520521E+02  0.00000000000E+00 0.  1.
</event>
<event>
 7    1  0.5979290E-013  0.5930205E+02  0.7816164E-02  0.1266604E+00
        -11   -1    0    0    0    0  0.00000000000E+00  0.00000000000E+00  0.45593999997E+02  0.45594000000E+02  0.51100000000E-03 0.  1.
         11   -1    0    0    0    0 -0.00000000000E+00 -0.00000000000E+00 -0.45593999997E+02  0.45594000000E+02  0.51100000000E-03 0. -1.
    9900012    2    1    2    0    0 -0.84208460000E+01  0.21231962977E+02 -0.22248747236E+02  0.59302052425E+02  0.50000197690E+02 0.  0.
        -12    1    1    2    0    0  0.84208460000E+01 -0.21231962977E+02  0.22248747236E+02  0.31885947575E+02  0.00000000000E+00 0.  1.
         11    1    3    3    0    0 -0.47761522019E+01  0.14055722635E+02 -0.35094788079E+02  0.38105368641E+02  0.51100000000E-03 0. -1.
        -11    1    3    3    0    0  0.31094109097E+01  0.92658547893E+01  0.79207093245E+01  0.12580228044E+02  0.51100000000E-03 0.  1.
        -12    1    3    3    0    0 -0.67541047077E+01 -0.20896144479E+01  0.49253315187E+01  0.86164557396E+01  0.00000000000E+00 0.  1.
</event>
<event>
 7    1  0.7635350E-013  0.5930192E+02  0.7816164E-02  0.1266605E+00
        -11   -1    0    0    0    0  0.00000000000E+00  0.00000000000E+00  0.45593999997E+02  0.45594000000E+02  0.51100000000E-03 0. -1.
         11   -1    0    0    0    0 -0.00000000000E+00 -0.00000000000E+00 -0.45593999997E+02  0.45594000000E+02  0.51100000000E-03 0.  1.
    9900012    2    1    2    0    0  0.22587800897E+01  0.24535381445E+02  0.20239436835E+02  0.59301924143E+02  0.49999963735E+02 0.  0.
        -12    1    1    2    0    0 -0.22587800897E+01 -0.24535381445E+02 -0.20239436835E+02  0.31886075857E+02  0.00000000000E+00 0.  1.
         11    1    3    3    0    0  0.19723712336E+02  0.13995936830E+02  0.17318919428E+02  0.29746529990E+02  0.51100000000E-03 0. -1.
        -11    1    3    3    0    0 -0.27611040325E+01 -0.14040986203E+01 -0.73720959720E+01  0.79964359371E+01  0.51100000000E-03 0.  1.
         12    1    3    3    0    0 -0.14703828214E+02  0.11943543236E+02  0.10292613379E+02  0.21558958216E+02  0.00000000000E+00 0. -1.
</event>
<event>
 7    1  0.8387000E-013  0.5930195E+02  0.7816164E-02  0.1266605E+00
        -11   -1    0    0    0    0  0.00000000000E+00  0.00000000000E+00  0.45593999997E+02  0.45594000000E+02  0.51100000000E-03 0.  1.
         11   -1    0    0    0    0 -0.00000000000E+00 -0.00000000000E+00 -0.45593999997E+02  0.45594000000E+02  0.51100000000E-03 0. -1.
    9900012    2    1    2    0    0  0.26024995058E+02  0.13158537008E+02 -0.12894677873E+02  0.59301950049E+02  0.50000010982E+02 0.  0.
        -12    1    1    2    0    0 -0.26024995058E+02 -0.13158537008E+02  0.12894677873E+02  0.31886049951E+02  0.00000000000E+00 0.  1.
         11    1    3    3    0    0  0.18012282794E+02 -0.84620287007E+01 -0.20865192869E+02  0.28834086338E+02  0.51100000000E-03 0. -1.
        -11    1    3    3    0    0  0.65850271012E+01  0.55144055591E+01  0.11062714988E+02  0.14005531541E+02  0.51100000000E-03 0.  1.
         12    1    3    3    0    0  0.14276851630E+01  0.16106160150E+02 -0.30921999918E+01  0.16462332171E+02  0.00000000000E+00 0. -1.
</event>
<event>
 7    1  0.5979290E-013  0.5930196E+02  0.7816164E-02  0.1266605E+00
        -11   -1    0    0    0    0  0.00000000000E+00  0.00000000000E+00  0.45593999997E+02  0.45594000000E+02  0.51100000000E-03 0.  1.
         11   -1    0    0    0    0 -0.00000000000E+00 -0.00000000000E+00 -0.45593999997E+02  0.45594000000E+02  0.51100000000E-03 0. -1.
    9900012    2    1    2    0    0  0.19316327169E+02 -0.13680467531E+02 -0.21364546156E+02  0.59301960428E+02  0.50000029910E+02 0.  0.
        -12    1    1    2    0    0 -0.19316327169E+02  0.13680467531E+02  0.21364546156E+02  0.31886039572E+02  0.00000000000E+00 0.  1.
         11    1    3    3    0    0  0.71097086660E+01  0.17599159746E+02 -0.12650727921E+02  0.22810508506E+02  0.51100000000E-03 0. -1.
        -11    1    3    3    0    0 -0.26888705233E+00 -0.13579907314E+02 -0.52487907683E+01  0.14561455548E+02  0.51100000000E-03 0.  1.
         12    1    3    3    0    0  0.12475505555E+02 -0.17699719963E+02 -0.34650274660E+01  0.21929996374E+02  0.00000000000E+00 0. -1.
</event>
<event>
 7    1  0.5979290E-013  0.5930194E+02  0.7816164E-02  0.1266605E+00
        -11   -1    0    0    0    0  0.00000000000E+00  0.00000000000E+00  0.45593999997E+02  0.45594000000E+02  0.51100000000E-03 0.  1.
         11   -1    0    0    0    0 -0.00000000000E+00 -0.00000000000E+00 -0.45593999997E+02  0.45594000000E+02  0.51100000000E-03 0. -1.
    9900012    2    1    2    0    0  0.57103410641E+01  0.20646543370E+02 -0.23618485800E+02  0.59301943177E+02  0.49999998449E+02 0.  0.
        -12    1    1    2    0    0 -0.57103410641E+01 -0.20646543370E+02  0.23618485800E+02  0.31886056823E+02  0.00000000000E+00 0.  1.
         11    1    3    3    0    0 -0.15143450310E+02  0.20109739744E+02 -0.16397167619E+02  0.30043182689E+02  0.51100000000E-03 0. -1.
        -11    1    3    3    0    0  0.13107338251E+02  0.82038699950E+01  0.11646130469E+01  0.15506841159E+02  0.51100000000E-03 0.  1.
         12    1    3    3    0    0  0.77464531237E+01 -0.76670663688E+01 -0.83859312275E+01  0.13751919330E+02  0.00000000000E+00 0. -1.
</event>
<event>
 7    1  0.5979290E-013  0.5930197E+02  0.7816164E-02  0.1266605E+00
        -11   -1    0    0    0    0  0.00000000000E+00  0.00000000000E+00  0.45593999997E+02  0.45594000000E+02  0.51100000000E-03 0. -1.
         11   -1    0    0    0    0 -0.00000000000E+00 -0.00000000000E+00 -0.45593999997E+02  0.45594000000E+02  0.51100000000E-03 0.  1.
    9900012    2    1    2    0    0  0.37533653525E+01  0.44549136627E+01  0.31349395674E+02  0.59301974591E+02  0.50000055741E+02 0.  0.
        -12    1    1    2    0    0 -0.37533653525E+01 -0.44549136627E+01 -0.31349395674E+02  0.31886025409E+02  0.00000000000E+00 0.  1.
         11    1    3    3    0    0  0.10648787024E+01 -0.12505936678E+02  0.30727023630E+02  0.33191601352E+02  0.51100000000E-03 0. -1.
        -11    1    3    3    0    0 -0.72144849970E+01  0.93618643133E+01 -0.44602012154E+01  0.12632762657E+02  0.51100000000E-03 0.  1.
        -12    1    3    3    0    0  0.99029716470E+01  0.75989860279E+01  0.50825732597E+01  0.13477610583E+02  0.00000000000E+00 0.  1.
</event>
<event>
 7    1  0.5979290E-013  0.5930185E+02  0.7816164E-02  0.1266605E+00
        -11   -1    0    0    0    0  0.00000000000E+00  0.00000000000E+00  0.45593999997E+02  0.45594000000E+02  0.51100000000E-03 0.  1.
         11   -1    0    0    0    0 -0.00000000000E+00 -0.00000000000E+00 -0.45593999997E+02  0.45594000000E+02  0.51100000000E-03 0. -1.
    9900012    2    1    2    0    0 -0.84201510964E+01 -0.28761483483E+02 -0.10890578291E+02  0.59301849838E+02  0.49999828220E+02 0.  0.
        -12    1    1    2    0    0  0.84201510964E+01  0.28761483483E+02  0.10890578291E+02  0.31886150162E+02  0.00000000000E+00 0.  1.
         11    1    3    3    0    0  0.80878457490E+00  0.10989509353E+02 -0.32662248455E+00  0.11024070520E+02  0.51100000000E-03 0. -1.
        -11    1    3    3    0    0 -0.14792960384E+02 -0.38612541478E+02 -0.83603987246E+01  0.42185972828E+02  0.51100000000E-03 0.  1.
        -12    1    3    3    0    0  0.55640247129E+01 -0.11384513579E+01 -0.22035570823E+01  0.60918064903E+01  0.00000000000E+00 0.  1.
</event>
<event>
 7    1  0.5979290E-013  0.5930194E+02  0.7816164E-02  0.1266605E+00
        -11   -1    0    0    0    0  0.00000000000E+00  0.00000000000E+00  0.45593999997E+02  0.45594000000E+02  0.51100000000E-03 0.  1.
         11   -1    0    0    0    0 -0.00000000000E+00 -0.00000000000E+00 -0.45593999997E+02  0.45594000000E+02  0.51100000000E-03 0. -1.
    9900012    2    1    2    0    0 -0.23283770507E+01 -0.16598748351E+02 -0.27125279427E+02  0.59301943949E+02  0.49999999856E+02 0.  0.
        -12    1    1    2    0    0  0.23283770507E+01  0.16598748351E+02  0.27125279427E+02  0.31886056051E+02  0.00000000000E+00 0.  1.
         11    1    3    3    0    0 -0.15042003757E+01 -0.13973668313E+02 -0.14745082273E+02  0.20370161423E+02  0.51100000000E-03 0. -1.
        -11    1    3    3    0    0  0.15842143676E+02 -0.62075317807E+01  0.13140054874E+01  0.17065567021E+02  0.51100000000E-03 0.  1.
        -12    1    3    3    0    0 -0.16666320351E+02  0.35824517430E+01 -0.13694202641E+02  0.21866215505E+02  0.00000000000E+00 0.  1.
</event>
<event>
 7    1  0.5979290E-013  0.5930180E+02  0.7816164E-02  0.1266605E+00
        -11   -1    0    0    0    0  0.00000000000E+00  0.00000000000E+00  0.45593999997E+02  0.45594000000E+02  0.51100000000E-03 0.  1.
         11   -1    0    0    0    0 -0.00000000000E+00 -0.00000000000E+00 -0.45593999997E+02  0.45594000000E+02  0.51100000000E-03 0. -1.
    9900012    2    1    2    0    0 -0.12029292178E+02  0.23440899158E+02 -0.17959682238E+02  0.59301799071E+02  0.49999735632E+02 0.  0.
        -12    1    1    2    0    0  0.12029292178E+02 -0.23440899158E+02  0.17959682238E+02  0.31886200929E+02  0.00000000000E+00 0.  1.
         11    1    3    3    0    0 -0.57303559819E+01  0.27652569246E+01 -0.62734189934E+01  0.89352902396E+01  0.51100000000E-03 0. -1.
        -11    1    3    3    0    0 -0.99965532739E+01 -0.44213245837E+01  0.11594830887E+02  0.15934845214E+02  0.51100000000E-03 0.  1.
        -12    1    3    3    0    0  0.36976170778E+01  0.25096966817E+02 -0.23281094132E+02  0.34431663617E+02  0.00000000000E+00 0.  1.
</event>
<event>
 7    1  0.7751551E-013  0.5930193E+02  0.7816164E-02  0.1266605E+00
        -11   -1    0    0    0    0  0.00000000000E+00  0.00000000000E+00  0.45593999997E+02  0.45594000000E+02  0.51100000000E-03 0. -1.
         11   -1    0    0    0    0 -0.00000000000E+00 -0.00000000000E+00 -0.45593999997E+02  0.45594000000E+02  0.51100000000E-03 0.  1.
    9900012    2    1    2    0    0 -0.25098204717E+02  0.19624742177E+02  0.12926621474E+01  0.59301931554E+02  0.49999977250E+02 0.  0.
        -12    1    1    2    0    0  0.25098204717E+02 -0.19624742177E+02 -0.12926621474E+01  0.31886068446E+02  0.00000000000E+00 0.  1.
         11    1    3    3    0    0 -0.26655841985E+02  0.31066494993E+00  0.10017193349E+02  0.28477615551E+02  0.51100000000E-03 0. -1.
        -11    1    3    3    0    0  0.54988032626E+01  0.15246930783E+01 -0.11069088292E+02  0.12453362686E+02  0.51100000000E-03 0.  1.
         12    1    3    3    0    0 -0.39411659946E+01  0.17789384149E+02  0.23445570909E+01  0.18370953316E+02  0.00000000000E+00 0. -1.
</event>
<event>
 7    1  0.5979290E-013  0.5930198E+02  0.7816164E-02  0.1266605E+00
        -11   -1    0    0    0    0  0.00000000000E+00  0.00000000000E+00  0.45593999997E+02  0.45594000000E+02  0.51100000000E-03 0. -1.
         11   -1    0    0    0    0 -0.00000000000E+00 -0.00000000000E+00 -0.45593999997E+02  0.45594000000E+02  0.51100000000E-03 0.  1.
    9900012    2    1    2    0    0  0.85068578388E+01  0.22576973516E+02  0.20847827016E+02  0.59301980262E+02  0.50000066083E+02 0.  0.
        -12    1    1    2    0    0 -0.85068578388E+01 -0.22576973516E+02 -0.20847827016E+02  0.31886019738E+02  0.00000000000E+00 0.  1.
         11    1    3    3    0    0  0.84546823577E+01 -0.17673916254E+01 -0.22857042283E+01  0.89347507524E+01  0.51100000000E-03 0. -1.
        -11    1    3    3    0    0 -0.65074343637E+01  0.14285588557E+02  0.31863612185E+02  0.35520621112E+02  0.51100000000E-03 0.  1.
        -12    1    3    3    0    0  0.65596098448E+01  0.10058776585E+02 -0.87300809406E+01  0.14846608398E+02  0.00000000000E+00 0.  1.
</event>
<event>
 7    1  0.5979290E-013  0.5930195E+02  0.7816164E-02  0.1266605E+00
        -11   -1    0    0    0    0  0.00000000000E+00  0.00000000000E+00  0.45593999997E+02  0.45594000000E+02  0.51100000000E-03 0. -1.
         11   -1    0    0    0    0 -0.00000000000E+00 -0.00000000000E+00 -0.45593999997E+02  0.45594000000E+02  0.51100000000E-03 0.  1.
    9900012    2    1    2    0    0  0.50833219631E+01  0.29422608307E+02  0.11188827226E+02  0.59301954518E+02  0.50000019132E+02 0.  0.
        -12    1    1    2    0    0 -0.50833219631E+01 -0.29422608307E+02 -0.11188827226E+02  0.31886045482E+02  0.00000000000E+00 0.  1.
         11    1    3    3    0    0  0.22317215446E+01  0.50442723888E+01 -0.15216591432E+02  0.16185484857E+02  0.51100000000E-03 0. -1.
        -11    1    3    3    0    0 -0.10386607500E+02  0.11467682445E+02  0.10227729500E+02  0.18547123955E+02  0.51100000000E-03 0.  1.
         12    1    3    3    0    0  0.13238207918E+02  0.12910653473E+02  0.16177689157E+02  0.24569345706E+02  0.00000000000E+00 0. -1.
</event>
<event>
 7    1  0.5979290E-013  0.5930182E+02  0.7816164E-02  0.1266605E+00
        -11   -1    0    0    0    0  0.00000000000E+00  0.00000000000E+00  0.45593999997E+02  0.45594000000E+02  0.51100000000E-03 0.  1.
         11   -1    0    0    0    0 -0.00000000000E+00 -0.00000000000E+00 -0.45593999997E+02  0.45594000000E+02  0.51100000000E-03 0. -1.
    9900012    2    1    2    0    0 -0.64646971649E+00 -0.30969032972E+02  0.75650378661E+01  0.59301816092E+02  0.49999766675E+02 0.  0.
        -12    1    1    2    0    0  0.64646971649E+00  0.30969032972E+02 -0.75650378661E+01  0.31886183908E+02  0.00000000000E+00 0.  1.
         11    1    3    3    0    0  0.64974683239E+01  0.69428810420E+01 -0.70979084815E+01  0.11865959584E+02  0.51100000000E-03 0. -1.
        -11    1    3    3    0    0 -0.32478286643E+01 -0.37362724196E+02  0.18606152522E+02  0.41865385014E+02  0.51100000000E-03 0.  1.
        -12    1    3    3    0    0 -0.38961093761E+01 -0.54918981785E+00 -0.39432061748E+01  0.55704714938E+01  0.00000000000E+00 0.  1.
</event>
<event>
 7    1  0.5979290E-013  0.5930196E+02  0.7816164E-02  0.1266605E+00
        -11   -1    0    0    0    0  0.00000000000E+00  0.00000000000E+00  0.45593999997E+02  0.45594000000E+02  0.51100000000E-03 0.  1.
         11   -1    0    0    0    0 -0.00000000000E+00 -0.00000000000E+00 -0.45593999997E+02  0.45594000000E+02  0.51100000000E-03 0. -1.
    9900012    2    1    2    0    0  0.23705974270E+02 -0.12186080220E+02 -0.17499878463E+02  0.59301960525E+02  0.50000030087E+02 0.  0.
        -12    1    1    2    0    0 -0.23705974270E+02  0.12186080220E+02  0.17499878463E+02  0.31886039475E+02  0.00000000000E+00 0.  1.
         11    1    3    3    0    0  0.27097761299E+02 -0.16193146029E+02 -0.15417616748E+01  0.31605121025E+02  0.51100000000E-03 0. -1.
        -11    1    3    3    0    0  0.37006370297E+01  0.76785258507E+01 -0.17589117875E+02  0.19545627172E+02  0.51100000000E-03 0.  1.
        -12    1    3    3    0    0 -0.70924240588E+01 -0.36714600415E+01  0.16310010868E+01  0.81512123277E+01  0.00000000000E+00 0.  1.
</event>
<event>
 7    1  0.5979290E-013  0.5930196E+02  0.7816164E-02  0.1266605E+00
        -11   -1    0    0    0    0  0.00000000000E+00  0.00000000000E+00  0.45593999997E+02  0.45594000000E+02  0.51100000000E-03 0.  1.
         11   -1    0    0    0    0 -0.00000000000E+00 -0.00000000000E+00 -0.45593999997E+02  0.45594000000E+02  0.51100000000E-03 0. -1.
    9900012    2    1    2    0    0  0.12705507673E+02 -0.13256701421E+02 -0.26068174398E+02  0.59301956435E+02  0.50000022628E+02 0.  0.
        -12    1    1    2    0    0 -0.12705507673E+02  0.13256701421E+02  0.26068174398E+02  0.31886043565E+02  0.00000000000E+00 0.  1.
         11    1    3    3    0    0  0.19888725651E+02 -0.21147083974E+02 -0.78419379178E+01  0.30070858970E+02  0.51100000000E-03 0. -1.
        -11    1    3    3    0    0 -0.15766752377E+00  0.13700962529E+02 -0.10156928652E+02  0.17055920765E+02  0.51100000000E-03 0.  1.
         12    1    3    3    0    0 -0.70255504542E+01 -0.58105799761E+01 -0.80693078282E+01  0.12175176700E+02  0.00000000000E+00 0. -1.
</event>
<event>
 7    1  0.5979290E-013  0.5930191E+02  0.7816164E-02  0.1266605E+00
        -11   -1    0    0    0    0  0.00000000000E+00  0.00000000000E+00  0.45593999997E+02  0.45594000000E+02  0.51100000000E-03 0. -1.
         11   -1    0    0    0    0 -0.00000000000E+00 -0.00000000000E+00 -0.45593999997E+02  0.45594000000E+02  0.51100000000E-03 0.  1.
    9900012    2    1    2    0    0  0.18349439875E+02  0.52519564928E+01  0.25542865997E+02  0.59301905945E+02  0.49999930547E+02 0.  0.
        -12    1    1    2    0    0 -0.18349439875E+02 -0.52519564928E+01 -0.25542865997E+02  0.31886094055E+02  0.00000000000E+00 0.  1.
         11    1    3    3    0    0 -0.67830506404E+01  0.21624227451E+02  0.15238066476E+02  0.27309625757E+02  0.51100000000E-03 0. -1.
        -11    1    3    3    0    0  0.19728852603E+02 -0.14420591132E+02  0.72757846389E+01  0.25497413909E+02  0.51100000000E-03 0.  1.
         12    1    3    3    0    0  0.54036379125E+01 -0.19516798254E+01  0.30290148818E+01  0.64948662792E+01  0.00000000000E+00 0. -1.
</event>
<event>
 7    1  0.5979290E-013  0.5930198E+02  0.7816164E-02  0.1266605E+00
        -11   -1    0    0    0    0  0.00000000000E+00  0.00000000000E+00  0.45593999997E+02  0.45594000000E+02  0.51100000000E-03 0. -1.
         11   -1    0    0    0    0 -0.00000000000E+00 -0.00000000000E+00 -0.45593999997E+02  0.45594000000E+02  0.51100000000E-03 0.  1.
    9900012    2    1    2    0    0  0.16089730649E+02  0.12350769375E+02  0.24602791958E+02  0.59301979416E+02  0.50000064540E+02 0.  0.
        -12    1    1    2    0    0 -0.16089730649E+02 -0.12350769375E+02 -0.24602791958E+02  0.31886020584E+02  0.00000000000E+00 0.  1.
         11    1    3    3    0    0  0.10198399483E+02  0.16373533482E+02 -0.10270123233E+02  0.21853498168E+02  0.51100000000E-03 0. -1.
        -11    1    3    3    0    0 -0.15332647118E+01 -0.54263860169E+01  0.19805321191E+02  0.20592409127E+02  0.51100000000E-03 0.  1.
         12    1    3    3    0    0  0.74245958777E+01  0.14036219104E+01  0.15067594001E+02  0.16856072122E+02  0.00000000000E+00 0. -1.
</event>
<event>
 7    1  0.5979290E-013  0.5930199E+02  0.7816164E-02  0.1266605E+00
        -11   -1    0    0    0    0  0.00000000000E+00  0.00000000000E+00  0.45593999997E+02  0.45594000000E+02  0.51100000000E-03 0.  1.
         11   -1    0    0    0    0 -0.00000000000E+00 -0.00000000000E+00 -0.45593999997E+02  0.45594000000E+02  0.51100000000E-03 0. -1.
    9900012    2    1    2    0    0 -0.20291968640E+02 -0.22316060926E+02  0.10341525592E+02  0.59301988677E+02  0.50000081429E+02 0.  0.
        -12    1    1    2    0    0  0.20291968640E+02  0.22316060926E+02 -0.10341525592E+02  0.31886011323E+02  0.00000000000E+00 0.  1.
         11    1    3    3    0    0 -0.11511780642E+02  0.40717653296E+01 -0.14302757878E+02  0.18806096077E+02  0.51100000000E-03 0. -1.
        -11    1    3    3    0    0 -0.32605642658E+01 -0.12628177781E+02  0.21794736525E+02  0.25399068759E+02  0.51100000000E-03 0.  1.
         12    1    3    3    0    0 -0.55196237314E+01 -0.13759648475E+02  0.28495469461E+01  0.15096823841E+02  0.00000000000E+00 0. -1.
</event>
<event>
 7    1  0.5979290E-013  0.5930198E+02  0.7816164E-02  0.1266605E+00
        -11   -1    0    0    0    0  0.00000000000E+00  0.00000000000E+00  0.45593999997E+02  0.45594000000E+02  0.51100000000E-03 0.  1.
         11   -1    0    0    0    0 -0.00000000000E+00 -0.00000000000E+00 -0.45593999997E+02  0.45594000000E+02  0.51100000000E-03 0. -1.
    9900012    2    1    2    0    0  0.13023276978E+02  0.26952722002E+02  0.10984673136E+02  0.59301984092E+02  0.50000073068E+02 0.  0.
        -12    1    1    2    0    0 -0.13023276978E+02 -0.26952722002E+02 -0.10984673136E+02  0.31886015908E+02  0.00000000000E+00 0.  1.
         11    1    3    3    0    0  0.77166213049E+01 -0.85414282823E+01 -0.26672417877E+01  0.11815939255E+02  0.51100000000E-03 0. -1.
        -11    1    3    3    0    0  0.16433275060E+02  0.19092245939E+02  0.11007682511E+02  0.27490643112E+02  0.51100000000E-03 0.  1.
        -12    1    3    3    0    0 -0.11126619386E+02  0.16401904345E+02  0.26442324127E+01  0.19995401725E+02  0.00000000000E+00 0.  1.
</event>
<event>
 7    1  0.5979290E-013  0.5930194E+02  0.7816164E-02  0.1266605E+00
        -11   -1    0    0    0    0  0.00000000000E+00  0.00000000000E+00  0.45593999997E+02  0.45594000000E+02  0.51100000000E-03 0.  1.
         11   -1    0    0    0    0 -0.00000000000E+00 -0.00000000000E+00 -0.45593999997E+02  0.45594000000E+02  0.51100000000E-03 0. -1.
    9900012    2    1    2    0    0  0.32908243649E+01  0.24916711959E+02 -0.19622656732E+02  0.59301941650E+02  0.49999995665E+02 0.  0.
        -12    1    1    2    0    0 -0.32908243649E+01 -0.24916711959E+02  0.19622656732E+02  0.31886058350E+02  0.00000000000E+00 0.  1.
         11    1    3    3    0    0 -0.66852540547E+01  0.10324698171E+02 -0.74940607948E+01  0.14403227470E+02  0.51100000000E-03 0. -1.
        -11    1    3    3    0    0  0.17175118430E+02  0.13846161191E+02 -0.22979668230E+02  0.31855392401E+02  0.51100000000E-03 0.  1.
        -12    1    3    3    0    0 -0.71990400102E+01  0.74585259718E+00  0.10851072292E+02  0.13043321780E+02  0.00000000000E+00 0.  1.
</event>
<event>
 7    1  0.5979290E-013  0.5930202E+02  0.7816164E-02  0.1266605E+00
        -11   -1    0    0    0    0  0.00000000000E+00  0.00000000000E+00  0.45593999997E+02  0.45594000000E+02  0.51100000000E-03 0. -1.
         11   -1    0    0    0    0 -0.00000000000E+00 -0.00000000000E+00 -0.45593999997E+02  0.45594000000E+02  0.51100000000E-03 0.  1.
    9900012    2    1    2    0    0 -0.12256249470E+02 -0.26516368091E+02 -0.12782117560E+02  0.59302016291E+02  0.50000131790E+02 0.  0.
        -12    1    1    2    0    0  0.12256249470E+02  0.26516368091E+02  0.12782117560E+02  0.31885983709E+02  0.00000000000E+00 0.  1.
         11    1    3    3    0    0 -0.17941174421E+02 -0.18244613653E+02 -0.10550731283E+01  0.25609858385E+02  0.51100000000E-03 0. -1.
        -11    1    3    3    0    0  0.21614609978E+01 -0.10453912908E+02 -0.20987621190E+02  0.23546474305E+02  0.51100000000E-03 0.  1.
        -12    1    3    3    0    0  0.35234639538E+01  0.21821584702E+01  0.92605767580E+01  0.10145683600E+02  0.00000000000E+00 0.  1.
</event>
<event>
 7    1  0.5979290E-013  0.5930195E+02  0.7816164E-02  0.1266605E+00
        -11   -1    0    0    0    0  0.00000000000E+00  0.00000000000E+00  0.45593999997E+02  0.45594000000E+02  0.51100000000E-03 0. -1.
         11   -1    0    0    0    0 -0.00000000000E+00 -0.00000000000E+00 -0.45593999997E+02  0.45594000000E+02  0.51100000000E-03 0.  1.
    9900012    2    1    2    0    0  0.16811785964E+02  0.26654121461E+02  0.48622598490E+01  0.59301954322E+02  0.50000018774E+02 0.  0.
        -12    1    1    2    0    0 -0.16811785964E+02 -0.26654121461E+02 -0.48622598490E+01  0.31886045678E+02  0.00000000000E+00 0.  1.
         11    1    3    3    0    0  0.13091063523E+02  0.77534337251E+01  0.23673823437E+02  0.28141456875E+02  0.51100000000E-03 0. -1.
        -11    1    3    3    0    0 -0.18596946037E+01  0.18415499598E+02 -0.10943885762E+02  0.21502505094E+02  0.51100000000E-03 0.  1.
         12    1    3    3    0    0  0.55804170452E+01  0.48518813730E+00 -0.78676778255E+01  0.96579923531E+01  0.00000000000E+00 0. -1.
</event>
<event>
 7    1  0.5979290E-013  0.5930192E+02  0.7816164E-02  0.1266605E+00
        -11   -1    0    0    0    0  0.00000000000E+00  0.00000000000E+00  0.45593999997E+02  0.45594000000E+02  0.51100000000E-03 0. -1.
         11   -1    0    0    0    0 -0.00000000000E+00 -0.00000000000E+00 -0.45593999997E+02  0.45594000000E+02  0.51100000000E-03 0.  1.
    9900012    2    1    2    0    0 -0.19301684721E+02  0.14928876158E+02  0.20525485215E+02  0.59301922792E+02  0.49999961270E+02 0.  0.
        -12    1    1    2    0    0  0.19301684721E+02 -0.14928876158E+02 -0.20525485215E+02  0.31886077208E+02  0.00000000000E+00 0.  1.
         11    1    3    3    0    0 -0.15432534617E+02  0.17331893907E+02  0.29721990231E+02  0.37708810305E+02  0.51100000000E-03 0. -1.
        -11    1    3    3    0    0 -0.53481401041E+01 -0.94973330871E+01 -0.93263164222E+01  0.14345107759E+02  0.51100000000E-03 0.  1.
        -12    1    3    3    0    0  0.14789899993E+01  0.70943153379E+01  0.12981140660E+00  0.72480047277E+01  0.00000000000E+00 0.  1.
</event>
<event>
 7    1  0.5979290E-013  0.5930192E+02  0.7816164E-02  0.1266605E+00
        -11   -1    0    0    0    0  0.00000000000E+00  0.00000000000E+00  0.45593999997E+02  0.45594000000E+02  0.51100000000E-03 0.  1.
         11   -1    0    0    0    0 -0.00000000000E+00 -0.00000000000E+00 -0.45593999997E+02  0.45594000000E+02  0.51100000000E-03 0. -1.
    9900012    2    1    2    0    0  0.11360179862E+02 -0.22288139132E+02 -0.19771371026E+02  0.59301922400E+02  0.49999960556E+02 0.  0.
        -12    1    1    2    0    0 -0.11360179862E+02  0.22288139132E+02  0.19771371026E+02  0.31886077600E+02  0.00000000000E+00 0.  1.
         11    1    3    3    0    0 -0.15705006423E+02 -0.14745749026E+02  0.32735744863E+01  0.21789920405E+02  0.51100000000E-03 0. -1.
        -11    1    3    3    0    0  0.13638614016E+02  0.78984816336E+00 -0.12479848822E+02  0.18503574770E+02  0.51100000000E-03 0.  1.
         12    1    3    3    0    0  0.13426572269E+02 -0.83322382690E+01 -0.10565096690E+02  0.19008427224E+02  0.00000000000E+00 0. -1.
</event>
<event>
 7    1  0.5979290E-013  0.5930194E+02  0.7816164E-02  0.1266605E+00
        -11   -1    0    0    0    0  0.00000000000E+00  0.00000000000E+00  0.45593999997E+02  0.45594000000E+02  0.51100000000E-03 0. -1.
         11   -1    0    0    0    0 -0.00000000000E+00 -0.00000000000E+00 -0.45593999997E+02  0.45594000000E+02  0.51100000000E-03 0.  1.
    9900012    2    1    2    0    0 -0.23402503920E+02 -0.84151877489E+01  0.19955656795E+02  0.59301940151E+02  0.49999992929E+02 0.  0.
        -12    1    1    2    0    0  0.23402503920E+02  0.84151877489E+01 -0.19955656795E+02  0.31886059849E+02  0.00000000000E+00 0.  1.
         11    1    3    3    0    0 -0.10767551015E+02  0.67402609078E+01  0.30137747923E+02  0.32705582430E+02  0.51100000000E-03 0. -1.
        -11    1    3    3    0    0  0.16176683442E+01 -0.44242812397E+01 -0.70555769284E+01  0.84836478836E+01  0.51100000000E-03 0.  1.
        -12    1    3    3    0    0 -0.14252621250E+02 -0.10731167417E+02 -0.31265141991E+01  0.18112709837E+02  0.00000000000E+00 0.  1.
</event>
<event>
 7    1  0.5979290E-013  0.5930194E+02  0.7816164E-02  0.1266605E+00
        -11   -1    0    0    0    0  0.00000000000E+00  0.00000000000E+00  0.45593999997E+02  0.45594000000E+02  0.51100000000E-03 0.  1.
         11   -1    0    0    0    0 -0.00000000000E+00 -0.00000000000E+00 -0.45593999997E+02  0.45594000000E+02  0.51100000000E-03 0. -1.
    9900012    2    1    2    0    0  0.25268778510E+02  0.17207919735E+02  0.90607369141E+01  0.59301943134E+02  0.49999998371E+02 0.  0.
        -12    1    1    2    0    0 -0.25268778510E+02 -0.17207919735E+02 -0.90607369141E+01  0.31886056866E+02  0.00000000000E+00 0.  1.
         11    1    3    3    0    0  0.29328646087E+02  0.16190886024E+02 -0.90663517560E+01  0.34706094651E+02  0.51100000000E-03 0. -1.
        -11    1    3    3    0    0 -0.63098812695E+01  0.73544516573E+01  0.87476754524E+01  0.13054669161E+02  0.51100000000E-03 0.  1.
         12    1    3    3    0    0  0.22500136933E+01 -0.63374179460E+01  0.93794132178E+01  0.11541179322E+02  0.00000000000E+00 0. -1.
</event>
<event>
 7    1  0.5979290E-013  0.5930205E+02  0.7816164E-02  0.1266604E+00
        -11   -1    0    0    0    0  0.00000000000E+00  0.00000000000E+00  0.45593999997E+02  0.45594000000E+02  0.51100000000E-03 0.  1.
         11   -1    0    0    0    0 -0.00000000000E+00 -0.00000000000E+00 -0.45593999997E+02  0.45594000000E+02  0.51100000000E-03 0. -1.
    9900012    2    1    2    0    0  0.23819091148E+02  0.60712533853E+00 -0.21189531231E+02  0.59302047951E+02  0.50000189530E+02 0.  0.
        -12    1    1    2    0    0 -0.23819091148E+02 -0.60712533853E+00  0.21189531231E+02  0.31885952049E+02  0.00000000000E+00 0.  1.
         11    1    3    3    0    0  0.20776496958E+02 -0.11084107568E+02  0.46517900286E+01  0.24003320961E+02  0.51100000000E-03 0. -1.
        -11    1    3    3    0    0 -0.83812068502E+00  0.49054065930E+01 -0.26948004418E+02  0.27403656736E+02  0.51100000000E-03 0.  1.
        -12    1    3    3    0    0  0.38807148756E+01  0.67858263136E+01  0.11066831585E+01  0.78950702541E+01  0.00000000000E+00 0.  1.
</event>
<event>
 7    1  0.5979290E-013  0.5930195E+02  0.7816164E-02  0.1266605E+00
        -11   -1    0    0    0    0  0.00000000000E+00  0.00000000000E+00  0.45593999997E+02  0.45594000000E+02  0.51100000000E-03 0. -1.
         11   -1    0    0    0    0 -0.00000000000E+00 -0.00000000000E+00 -0.45593999997E+02  0.45594000000E+02  0.51100000000E-03 0.  1.
    9900012    2    1    2    0    0  0.22064201501E+02  0.77533068524E+01  0.21674350768E+02  0.59301949191E+02  0.50000009416E+02 0.  0.
        -12    1    1    2    0    0 -0.22064201501E+02 -0.77533068524E+01 -0.21674350768E+02  0.31886050809E+02  0.00000000000E+00 0.  1.
         11    1    3    3    0    0  0.41567250353E+01  0.56852160037E+01  0.28359001150E+02  0.29220420779E+02  0.51100000000E-03 0. -1.
        -11    1    3    3    0    0  0.18636587119E+02  0.96056964047E+01 -0.79125760063E+01  0.22409833605E+02  0.51100000000E-03 0.  1.
        -12    1    3    3    0    0 -0.72911065368E+00 -0.75376055561E+01  0.12279256236E+01  0.76716948063E+01  0.00000000000E+00 0.  1.
</event>
<event>
 7    1  0.5979290E-013  0.5930193E+02  0.7816164E-02  0.1266605E+00
        -11   -1    0    0    0    0  0.00000000000E+00  0.00000000000E+00  0.45593999997E+02  0.45594000000E+02  0.51100000000E-03 0.  1.
         11   -1    0    0    0    0 -0.00000000000E+00 -0.00000000000E+00 -0.45593999997E+02  0.45594000000E+02  0.51100000000E-03 0. -1.
    9900012    2    1    2    0    0  0.18069357999E+02 -0.24960491501E+02 -0.81971841051E+01  0.59301926838E+02  0.49999968650E+02 0.  0.
        -12    1    1    2    0    0 -0.18069357999E+02  0.24960491501E+02  0.81971841051E+01  0.31886073162E+02  0.00000000000E+00 0.  1.
         11    1    3    3    0    0 -0.22669167935E+00 -0.52784235739E+01 -0.49233967921E+01  0.72217020692E+01  0.51100000000E-03 0. -1.
        -11    1    3    3    0    0  0.15721419531E+02 -0.15833016055E+02  0.19014782619E+02  0.29315685013E+02  0.51100000000E-03 0.  1.
        -12    1    3    3    0    0  0.25746301472E+01 -0.38490518716E+01 -0.22288569932E+02  0.22764539756E+02  0.00000000000E+00 0.  1.
</event>
<event>
 7    1  0.5979290E-013  0.5930192E+02  0.7816164E-02  0.1266605E+00
        -11   -1    0    0    0    0  0.00000000000E+00  0.00000000000E+00  0.45593999997E+02  0.45594000000E+02  0.51100000000E-03 0.  1.
         11   -1    0    0    0    0 -0.00000000000E+00 -0.00000000000E+00 -0.45593999997E+02  0.45594000000E+02  0.51100000000E-03 0. -1.
    9900012    2    1    2    0    0 -0.30584629389E+02  0.83280601219E+01 -0.34563374786E+01  0.59301915119E+02  0.49999947278E+02 0.  0.
        -12    1    1    2    0    0  0.30584629389E+02 -0.83280601219E+01  0.34563374786E+01  0.31886084881E+02  0.00000000000E+00 0.  1.
         11    1    3    3    0    0 -0.36795591870E+02  0.10560622336E+02 -0.85068180233E+00  0.38290546940E+02  0.51100000000E-03 0. -1.
        -11    1    3    3    0    0  0.59334004845E+01  0.29381975321E+01 -0.99945071645E+01  0.11988678817E+02  0.51100000000E-03 0.  1.
         12    1    3    3    0    0  0.27756199625E+00 -0.51707597461E+01  0.73888514882E+01  0.90226893623E+01  0.00000000000E+00 0. -1.
</event>
<event>
 7    1  0.5979290E-013  0.5930196E+02  0.7816164E-02  0.1266605E+00
        -11   -1    0    0    0    0  0.00000000000E+00  0.00000000000E+00  0.45593999997E+02  0.45594000000E+02  0.51100000000E-03 0. -1.
         11   -1    0    0    0    0 -0.00000000000E+00 -0.00000000000E+00 -0.45593999997E+02  0.45594000000E+02  0.51100000000E-03 0.  1.
    9900012    2    1    2    0    0  0.63982395029E+01 -0.19878105809E+02  0.24096536053E+02  0.59301959025E+02  0.50000027352E+02 0.  0.
        -12    1    1    2    0    0 -0.63982395029E+01  0.19878105809E+02 -0.24096536053E+02  0.31886040975E+02  0.00000000000E+00 0.  1.
         11    1    3    3    0    0  0.12121782393E+02 -0.97127220873E+01  0.21616831395E+02  0.26618827520E+02  0.51100000000E-03 0. -1.
        -11    1    3    3    0    0 -0.11532198886E+02 -0.27362576847E+01 -0.11041209761E+02  0.16198365056E+02  0.51100000000E-03 0.  1.
        -12    1    3    3    0    0  0.58086559961E+01 -0.74291260371E+01  0.13520914419E+02  0.16484766449E+02  0.00000000000E+00 0.  1.
</event>
<event>
 7    1  0.5979290E-013  0.5930201E+02  0.7816164E-02  0.1266605E+00
        -11   -1    0    0    0    0  0.00000000000E+00  0.00000000000E+00  0.45593999997E+02  0.45594000000E+02  0.51100000000E-03 0. -1.
         11   -1    0    0    0    0 -0.00000000000E+00 -0.00000000000E+00 -0.45593999997E+02  0.45594000000E+02  0.51100000000E-03 0.  1.
    9900012    2    1    2    0    0  0.24852188836E+02  0.57439890978E+00  0.19968851223E+02  0.59302011804E+02  0.50000123608E+02 0.  0.
        -12    1    1    2    0    0 -0.24852188836E+02 -0.57439890978E+00 -0.19968851223E+02  0.31885988196E+02  0.00000000000E+00 0.  1.
         11    1    3    3    0    0  0.26532451300E+02 -0.28516042283E+01 -0.46442682078E+01  0.27086377501E+02  0.51100000000E-03 0. -1.
        -11    1    3    3    0    0  0.35213294228E+01  0.73212439213E+01  0.24396497976E+02  0.25713605099E+02  0.51100000000E-03 0.  1.
        -12    1    3    3    0    0 -0.52015918869E+01 -0.38952407833E+01  0.21662145506E+00  0.65020292042E+01  0.00000000000E+00 0.  1.
</event>
<event>
 7    1  0.5979290E-013  0.5930193E+02  0.7816164E-02  0.1266605E+00
        -11   -1    0    0    0    0  0.00000000000E+00  0.00000000000E+00  0.45593999997E+02  0.45594000000E+02  0.51100000000E-03 0. -1.
         11   -1    0    0    0    0 -0.00000000000E+00 -0.00000000000E+00 -0.45593999997E+02  0.45594000000E+02  0.51100000000E-03 0.  1.
    9900012    2    1    2    0    0  0.22076011255E+02  0.13649018882E+02 -0.18522295775E+02  0.59301930469E+02  0.49999975271E+02 0.  0.
        -12    1    1    2    0    0 -0.22076011255E+02 -0.13649018882E+02  0.18522295775E+02  0.31886069531E+02  0.00000000000E+00 0.  1.
         11    1    3    3    0    0 -0.75721804743E+00  0.19214194433E+02 -0.18355056023E+01  0.19316514385E+02  0.51100000000E-03 0. -1.
        -11    1    3    3    0    0  0.24077345316E+02 -0.12951002802E+02 -0.17485790186E+02  0.32453041302E+02  0.51100000000E-03 0.  1.
        -12    1    3    3    0    0 -0.12441160134E+01  0.73858272509E+01  0.79900001341E+00  0.75323747820E+01  0.00000000000E+00 0.  1.
</event>
<event>
 7    1  0.5979290E-013  0.5930194E+02  0.7816164E-02  0.1266605E+00
        -11   -1    0    0    0    0  0.00000000000E+00  0.00000000000E+00  0.45593999997E+02  0.45594000000E+02  0.51100000000E-03 0.  1.
         11   -1    0    0    0    0 -0.00000000000E+00 -0.00000000000E+00 -0.45593999997E+02  0.45594000000E+02  0.51100000000E-03 0. -1.
    9900012    2    1    2    0    0 -0.62831711646E+01  0.45977924107E+01 -0.30920916506E+02  0.59301937018E+02  0.49999987215E+02 0.  0.
        -12    1    1    2    0    0  0.62831711646E+01 -0.45977924107E+01  0.30920916506E+02  0.31886062982E+02  0.00000000000E+00 0.  1.
         11    1    3    3    0    0 -0.94410590181E+00  0.64739580091E+01 -0.24762063516E+02  0.25611779674E+02  0.51100000000E-03 0. -1.
        -11    1    3    3    0    0  0.31784527323E+01  0.87169647851E+01  0.92782947249E+01  0.13121539167E+02  0.51100000000E-03 0.  1.
         12    1    3    3    0    0 -0.85175179951E+01 -0.10593130384E+02 -0.15437147715E+02  0.20568618177E+02  0.00000000000E+00 0. -1.
</event>
<event>
 7    1  0.5979290E-013  0.5930190E+02  0.7816164E-02  0.1266605E+00
        -11   -1    0    0    0    0  0.00000000000E+00  0.00000000000E+00  0.45593999997E+02  0.45594000000E+02  0.51100000000E-03 0.  1.
         11   -1    0    0    0    0 -0.00000000000E+00 -0.00000000000E+00 -0.45593999997E+02  0.45594000000E+02  0.51100000000E-03 0. -1.
    9900012    2    1    2    0    0 -0.10749925820E+02 -0.97572124253E+01 -0.28389420733E+02  0.59301901007E+02  0.49999921540E+02 0.  0.
        -12    1    1    2    0    0  0.10749925820E+02  0.97572124253E+01  0.28389420733E+02  0.31886098993E+02  0.00000000000E+00 0.  1.
         11    1    3    3    0    0 -0.15637455115E+01 -0.19565116931E+02 -0.30900812965E+02  0.36607367328E+02  0.51100000000E-03 0. -1.
        -11    1    3    3    0    0 -0.17309703583E+01  0.46554628351E+01  0.98512783296E+01  0.11032555351E+02  0.51100000000E-03 0.  1.
        -12    1    3    3    0    0 -0.74552099501E+01  0.51524416707E+01 -0.73398860984E+01  0.11661978327E+02  0.00000000000E+00 0.  1.
</event>
<event>
 7    1  0.5979290E-013  0.5930191E+02  0.7816164E-02  0.1266605E+00
        -11   -1    0    0    0    0  0.00000000000E+00  0.00000000000E+00  0.45593999997E+02  0.45594000000E+02  0.51100000000E-03 0. -1.
         11   -1    0    0    0    0 -0.00000000000E+00 -0.00000000000E+00 -0.45593999997E+02  0.45594000000E+02  0.51100000000E-03 0.  1.
    9900012    2    1    2    0    0 -0.72929190311E+01 -0.30164722512E+02  0.73229434140E+01  0.59301911302E+02  0.49999940316E+02 0.  0.
        -12    1    1    2    0    0  0.72929190311E+01  0.30164722512E+02 -0.73229434140E+01  0.31886088698E+02  0.00000000000E+00 0.  1.
         11    1    3    3    0    0  0.42884714048E+01 -0.36321474393E+02 -0.11290786941E+01  0.36591191673E+02  0.51100000000E-03 0.  1.
        -11    1    3    3    0    0 -0.12379747663E+02  0.10526007466E+02  0.83462513034E+01  0.18267865131E+02  0.51100000000E-03 0. -1.
         12    1    3    3    0    0  0.79835722711E+00 -0.43692555848E+01  0.10577080466E+00  0.44428544980E+01  0.00000000000E+00 0. -1.
</event>
<event>
 7    1  0.5979290E-013  0.5930195E+02  0.7816164E-02  0.1266605E+00
        -11   -1    0    0    0    0  0.00000000000E+00  0.00000000000E+00  0.45593999997E+02  0.45594000000E+02  0.51100000000E-03 0.  1.
         11   -1    0    0    0    0 -0.00000000000E+00 -0.00000000000E+00 -0.45593999997E+02  0.45594000000E+02  0.51100000000E-03 0. -1.
    9900012    2    1    2    0    0  0.23167208472E+02  0.16605565120E+02  0.14291804475E+02  0.59301952636E+02  0.50000015700E+02 0.  0.
        -12    1    1    2    0    0 -0.23167208472E+02 -0.16605565120E+02 -0.14291804475E+02  0.31886047364E+02  0.00000000000E+00 0.  1.
         11    1    3    3    0    0  0.32566016259E+02  0.60301604707E+01  0.97632503573E+01  0.34528673708E+02  0.51100000000E-03 0. -1.
        -11    1    3    3    0    0 -0.10961754089E+02 -0.81037644982E+00 -0.25394789263E+01  0.11281210758E+02  0.51100000000E-03 0.  1.
         12    1    3    3    0    0  0.15629463024E+01  0.11385781099E+02  0.70680330438E+01  0.13492068169E+02  0.00000000000E+00 0. -1.
</event>
<event>
 7    1  0.5979290E-013  0.5930208E+02  0.7816164E-02  0.1266604E+00
        -11   -1    0    0    0    0  0.00000000000E+00  0.00000000000E+00  0.45593999997E+02  0.45594000000E+02  0.51100000000E-03 0.  1.
         11   -1    0    0    0    0 -0.00000000000E+00 -0.00000000000E+00 -0.45593999997E+02  0.45594000000E+02  0.51100000000E-03 0. -1.
    9900012    2    1    2    0    0 -0.17597512597E+02  0.25626275377E+02 -0.70946083605E+01  0.59302079798E+02  0.50000247612E+02 0.  0.
        -12    1    1    2    0    0  0.17597512597E+02 -0.25626275377E+02  0.70946083605E+01  0.31885920202E+02  0.00000000000E+00 0.  1.
         11    1    3    3    0    0 -0.19100018881E+02  0.34068700980E+02 -0.29906365864E+01  0.39171814040E+02  0.51100000000E-03 0. -1.
        -11    1    3    3    0    0 -0.35332376816E+01 -0.11897338934E+01  0.57792375758E+01  0.68774139377E+01  0.51100000000E-03 0.  1.
         12    1    3    3    0    0  0.50357439656E+01 -0.72526917094E+01 -0.98832093500E+01  0.13252851820E+02  0.00000000000E+00 0. -1.
</event>
<event>
 7    1  0.5979290E-013  0.5930193E+02  0.7816164E-02  0.1266605E+00
        -11   -1    0    0    0    0  0.00000000000E+00  0.00000000000E+00  0.45593999997E+02  0.45594000000E+02  0.51100000000E-03 0.  1.
         11   -1    0    0    0    0 -0.00000000000E+00 -0.00000000000E+00 -0.45593999997E+02  0.45594000000E+02  0.51100000000E-03 0. -1.
    9900012    2    1    2    0    0 -0.11134929815E+02  0.83466106364E+00 -0.29867012173E+02  0.59301925653E+02  0.49999966489E+02 0.  0.
        -12    1    1    2    0    0  0.11134929815E+02 -0.83466106364E+00  0.29867012173E+02  0.31886074347E+02  0.00000000000E+00 0.  1.
         11    1    3    3    0    0  0.13899901742E+02  0.54170494224E+01 -0.92868053511E+01  0.17572605008E+02  0.51100000000E-03 0. -1.
        -11    1    3    3    0    0 -0.47956795471E+01 -0.13360379924E+02 -0.90843622378E+01  0.16853009570E+02  0.51100000000E-03 0.  1.
        -12    1    3    3    0    0 -0.20239152010E+02  0.87779915654E+01 -0.11495844585E+02  0.24876311075E+02  0.00000000000E+00 0.  1.
</event>
<event>
 7    1  0.5979290E-013  0.5930195E+02  0.7816164E-02  0.1266605E+00
        -11   -1    0    0    0    0  0.00000000000E+00  0.00000000000E+00  0.45593999997E+02  0.45594000000E+02  0.51100000000E-03 0.  1.
         11   -1    0    0    0    0 -0.00000000000E+00 -0.00000000000E+00 -0.45593999997E+02  0.45594000000E+02  0.51100000000E-03 0. -1.
    9900012    2    1    2    0    0  0.10426566599E+02  0.15224795689E+02 -0.26004091531E+02  0.59301945506E+02  0.50000002696E+02 0.  0.
        -12    1    1    2    0    0 -0.10426566599E+02 -0.15224795689E+02  0.26004091531E+02  0.31886054494E+02  0.00000000000E+00 0.  1.
         11    1    3    3    0    0  0.57970009996E+01  0.39413250495E+01 -0.14840686640E+02  0.16412959634E+02  0.51100000000E-03 0. -1.
        -11    1    3    3    0    0  0.19320136762E+01 -0.14929150611E+02 -0.44093333240E+01  0.15686122384E+02  0.51100000000E-03 0.  1.
        -12    1    3    3    0    0  0.26975519235E+01  0.26212621251E+02 -0.67540715672E+01  0.27202863488E+02  0.00000000000E+00 0.  1.
</event>
<event>
 7    1  0.5979290E-013  0.5930193E+02  0.7816164E-02  0.1266605E+00
        -11   -1    0    0    0    0  0.00000000000E+00  0.00000000000E+00  0.45593999997E+02  0.45594000000E+02  0.51100000000E-03 0. -1.
         11   -1    0    0    0    0 -0.00000000000E+00 -0.00000000000E+00 -0.45593999997E+02  0.45594000000E+02  0.51100000000E-03 0.  1.
    9900012    2    1    2    0    0  0.71879840170E+01 -0.30962119326E+02  0.25301526298E+01  0.59301927497E+02  0.49999969851E+02 0.  0.
        -12    1    1    2    0    0 -0.71879840170E+01  0.30962119326E+02 -0.25301526298E+01  0.31886072503E+02  0.00000000000E+00 0.  1.
         11    1    3    3    0    0  0.14399018302E+01 -0.40163737174E+02  0.53047305326E+01  0.40538121162E+02  0.51100000000E-03 0. -1.
        -11    1    3    3    0    0  0.10630988609E+02  0.85271016703E+01 -0.20435699986E+01  0.13780622638E+02  0.51100000000E-03 0.  1.
        -12    1    3    3    0    0 -0.48829064218E+01  0.67451617811E+00 -0.73100790426E+00  0.49831836967E+01  0.00000000000E+00 0.  1.
</event>
<event>
 7    1  0.6879537E-013  0.5930198E+02  0.7816164E-02  0.1266605E+00
        -11   -1    0    0    0    0  0.00000000000E+00  0.00000000000E+00  0.45593999997E+02  0.45594000000E+02  0.51100000000E-03 0. -1.
         11   -1    0    0    0    0 -0.00000000000E+00 -0.00000000000E+00 -0.45593999997E+02  0.45594000000E+02  0.51100000000E-03 0.  1.
    9900012    2    1    2    0    0 -0.25425442000E+02 -0.19231894298E+02  0.63214837634E+00  0.59301976874E+02  0.50000059904E+02 0.  0.
        -12    1    1    2    0    0  0.25425442000E+02  0.19231894298E+02 -0.63214837634E+00  0.31886023126E+02  0.00000000000E+00 0.  1.
         11    1    3    3    0    0 -0.10351325912E+02 -0.10057523719E+02  0.16069424636E+02  0.21599308782E+02  0.51100000000E-03 0. -1.
        -11    1    3    3    0    0  0.46131409344E+01 -0.60751969405E+01 -0.16042529637E+02  0.17763779006E+02  0.51100000000E-03 0.  1.
         12    1    3    3    0    0 -0.19687257023E+02 -0.30991736390E+01  0.60525337732E+00  0.19938889086E+02  0.00000000000E+00 0. -1.
</event>
<event>
 7    1  0.5979290E-013  0.5930199E+02  0.7816164E-02  0.1266605E+00
        -11   -1    0    0    0    0  0.00000000000E+00  0.00000000000E+00  0.45593999997E+02  0.45594000000E+02  0.51100000000E-03 0. -1.
         11   -1    0    0    0    0 -0.00000000000E+00 -0.00000000000E+00 -0.45593999997E+02  0.45594000000E+02  0.51100000000E-03 0.  1.
    9900012    2    1    2    0    0  0.25593992445E+02 -0.71150024680E+01  0.17636374585E+02  0.59301993384E+02  0.50000090014E+02 0.  0.
        -12    1    1    2    0    0 -0.25593992445E+02  0.71150024680E+01 -0.17636374585E+02  0.31886006616E+02  0.00000000000E+00 0.  1.
         11    1    3    3    0    0  0.11320212096E+02 -0.22075821432E+02  0.21735194870E+02  0.32983447214E+02  0.51100000000E-03 0. -1.
        -11    1    3    3    0    0  0.12960060376E+02  0.89146795826E+01  0.38997321780E+01  0.16206251520E+02  0.51100000000E-03 0.  1.
         12    1    3    3    0    0  0.13137199740E+01  0.60461393816E+01 -0.79985524632E+01  0.10112294650E+02  0.00000000000E+00 0. -1.
</event>
<event>
 7    1  0.5979290E-013  0.5930193E+02  0.7816164E-02  0.1266605E+00
        -11   -1    0    0    0    0  0.00000000000E+00  0.00000000000E+00  0.45593999997E+02  0.45594000000E+02  0.51100000000E-03 0.  1.
         11   -1    0    0    0    0 -0.00000000000E+00 -0.00000000000E+00 -0.45593999997E+02  0.45594000000E+02  0.51100000000E-03 0. -1.
    9900012    2    1    2    0    0 -0.30764585756E-01  0.69409412038E+01 -0.31121440813E+02  0.59301926401E+02  0.49999967854E+02 0.  0.
        -12    1    1    2    0    0  0.30764585756E-01 -0.69409412038E+01  0.31121440813E+02  0.31886073599E+02  0.00000000000E+00 0.  1.
         11    1    3    3    0    0 -0.10191466156E+02  0.17580547452E+02 -0.25363963840E+02  0.32500342968E+02  0.51100000000E-03 0. -1.
        -11    1    3    3    0    0 -0.44836898250E+01 -0.24964180250E+01  0.47753121731E+01  0.70099346655E+01  0.51100000000E-03 0.  1.
         12    1    3    3    0    0  0.14644391395E+02 -0.81431882228E+01 -0.10532789146E+02  0.19791648768E+02  0.00000000000E+00 0. -1.
</event>
<event>
 7    1  0.5979290E-013  0.5930194E+02  0.7816164E-02  0.1266605E+00
        -11   -1    0    0    0    0  0.00000000000E+00  0.00000000000E+00  0.45593999997E+02  0.45594000000E+02  0.51100000000E-03 0. -1.
         11   -1    0    0    0    0 -0.00000000000E+00 -0.00000000000E+00 -0.45593999997E+02  0.45594000000E+02  0.51100000000E-03 0.  1.
    9900012    2    1    2    0    0 -0.82888147268E+01  0.19627066212E+02  0.23723288985E+02  0.59301943205E+02  0.49999998499E+02 0.  0.
        -12    1    1    2    0    0  0.82888147268E+01 -0.19627066212E+02 -0.23723288985E+02  0.31886056795E+02  0.00000000000E+00 0.  1.
         11    1    3    3    0    0 -0.46226389368E+01 -0.89507932713E+00  0.16186025919E+02  0.16856968679E+02  0.51100000000E-03 0. -1.
        -11    1    3    3    0    0 -0.60800730946E+01  0.16912923177E+01 -0.13015992901E+02  0.14465262874E+02  0.51100000000E-03 0.  1.
        -12    1    3    3    0    0  0.24138973046E+01  0.18830853221E+02  0.20553255968E+02  0.27979711652E+02  0.00000000000E+00 0.  1.
</event>
<event>
 7    1  0.5979290E-013  0.5930195E+02  0.7816164E-02  0.1266605E+00
        -11   -1    0    0    0    0  0.00000000000E+00  0.00000000000E+00  0.45593999997E+02  0.45594000000E+02  0.51100000000E-03 0. -1.
         11   -1    0    0    0    0 -0.00000000000E+00 -0.00000000000E+00 -0.45593999997E+02  0.45594000000E+02  0.51100000000E-03 0.  1.
    9900012    2    1    2    0    0  0.14863562372E+02 -0.19213261183E+02 -0.20655399650E+02  0.59301946209E+02  0.50000003978E+02 0.  0.
        -12    1    1    2    0    0 -0.14863562372E+02  0.19213261183E+02  0.20655399650E+02  0.31886053791E+02  0.00000000000E+00 0.  1.
         11    1    3    3    0    0  0.28984166952E+01  0.96689179123E+01 -0.15326226010E+02  0.18351621098E+02  0.51100000000E-03 0.  1.
        -11    1    3    3    0    0 -0.24375439232E+01 -0.13609069517E+02  0.81055593474E+01  0.16026493256E+02  0.51100000000E-03 0. -1.
         12    1    3    3    0    0  0.14402689600E+02 -0.15273109578E+02 -0.13434732987E+02  0.24923831855E+02  0.00000000000E+00 0. -1.
</event>
<event>
 7    1  0.5979290E-013  0.5930195E+02  0.7816164E-02  0.1266605E+00
        -11   -1    0    0    0    0  0.00000000000E+00  0.00000000000E+00  0.45593999997E+02  0.45594000000E+02  0.51100000000E-03 0.  1.
         11   -1    0    0    0    0 -0.00000000000E+00 -0.00000000000E+00 -0.45593999997E+02  0.45594000000E+02  0.51100000000E-03 0. -1.
    9900012    2    1    2    0    0  0.21496507320E+02 -0.18548949907E+02 -0.14510585554E+02  0.59301945638E+02  0.50000002937E+02 0.  0.
        -12    1    1    2    0    0 -0.21496507320E+02  0.18548949907E+02  0.14510585554E+02  0.31886054362E+02  0.00000000000E+00 0.  1.
         11    1    3    3    0    0 -0.11634231491E+02 -0.10435225032E+02 -0.21467471880E-02  0.15628476212E+02  0.51100000000E-03 0. -1.
        -11    1    3    3    0    0  0.17654107461E+02  0.90931840299E+00  0.37750067584E+01  0.18076090465E+02  0.51100000000E-03 0.  1.
         12    1    3    3    0    0  0.15476631349E+02 -0.90230432779E+01 -0.18283445565E+02  0.25597378961E+02  0.00000000000E+00 0. -1.
</event>
<event>
 7    1  0.6614769E-013  0.5930198E+02  0.7816164E-02  0.1266605E+00
        -11   -1    0    0    0    0  0.00000000000E+00  0.00000000000E+00  0.45593999997E+02  0.45594000000E+02  0.51100000000E-03 0. -1.
         11   -1    0    0    0    0 -0.00000000000E+00 -0.00000000000E+00 -0.45593999997E+02  0.45594000000E+02  0.51100000000E-03 0.  1.
    9900012    2    1    2    0    0  0.13531878406E+02 -0.22394516421E+02  0.18223402422E+02  0.59301976498E+02  0.50000059219E+02 0.  0.
        -12    1    1    2    0    0 -0.13531878406E+02  0.22394516421E+02 -0.18223402422E+02  0.31886023502E+02  0.00000000000E+00 0.  1.
         11    1    3    3    0    0  0.23049529609E+02 -0.22349694309E+02  0.13939655057E+02  0.35001480458E+02  0.51100000000E-03 0. -1.
        -11    1    3    3    0    0 -0.10647605072E+01  0.98015812238E+01  0.54602199681E+01  0.11270257840E+02  0.51100000000E-03 0.  1.
         12    1    3    3    0    0 -0.84528906954E+01 -0.98464033356E+01 -0.11764726040E+01  0.13030238200E+02  0.00000000000E+00 0. -1.
</event>
<event>
 7    1  0.5979290E-013  0.5930207E+02  0.7816164E-02  0.1266604E+00
        -11   -1    0    0    0    0  0.00000000000E+00  0.00000000000E+00  0.45593999997E+02  0.45594000000E+02  0.51100000000E-03 0. -1.
         11   -1    0    0    0    0 -0.00000000000E+00 -0.00000000000E+00 -0.45593999997E+02  0.45594000000E+02  0.51100000000E-03 0.  1.
    9900012    2    1    2    0    0  0.37321578881E+01  0.22116013976E+02  0.22664193942E+02  0.59302066366E+02  0.50000223115E+02 0.  0.
        -12    1    1    2    0    0 -0.37321578881E+01 -0.22116013976E+02 -0.22664193942E+02  0.31885933634E+02  0.00000000000E+00 0.  1.
         11    1    3    3    0    0 -0.16905442330E+02  0.45192253035E+01  0.75870504919E+01  0.19073036285E+02  0.51100000000E-03 0. -1.
        -11    1    3    3    0    0  0.25382476029E+02  0.15705424692E+02  0.17473500205E+02  0.34586900176E+02  0.51100000000E-03 0.  1.
        -12    1    3    3    0    0 -0.47448758108E+01  0.18913639807E+01 -0.23963567549E+01  0.56421299049E+01  0.00000000000E+00 0.  1.
</event>
<event>
 7    1  0.5979290E-013  0.5930198E+02  0.7816164E-02  0.1266605E+00
        -11   -1    0    0    0    0  0.00000000000E+00  0.00000000000E+00  0.45593999997E+02  0.45594000000E+02  0.51100000000E-03 0. -1.
         11   -1    0    0    0    0 -0.00000000000E+00 -0.00000000000E+00 -0.45593999997E+02  0.45594000000E+02  0.51100000000E-03 0.  1.
    9900012    2    1    2    0    0 -0.39792809334E+01 -0.30736245120E+02  0.74944442264E+01  0.59301982138E+02  0.50000069504E+02 0.  0.
        -12    1    1    2    0    0  0.39792809334E+01  0.30736245120E+02 -0.74944442264E+01  0.31886017862E+02  0.00000000000E+00 0.  1.
         11    1    3    3    0    0 -0.77298145476E+01 -0.26467199379E+02  0.24038160840E+02  0.36579992519E+02  0.51100000000E-03 0. -1.
        -11    1    3    3    0    0 -0.41674998249E+01  0.27206546624E+01 -0.60405609570E+01  0.78267741451E+01  0.51100000000E-03 0.  1.
         12    1    3    3    0    0  0.79180334391E+01 -0.69897004033E+01 -0.10503155656E+02  0.14895215474E+02  0.00000000000E+00 0. -1.
</event>
<event>
 7    1  0.5979290E-013  0.5930193E+02  0.7816164E-02  0.1266605E+00
        -11   -1    0    0    0    0  0.00000000000E+00  0.00000000000E+00  0.45593999997E+02  0.45594000000E+02  0.51100000000E-03 0.  1.
         11   -1    0    0    0    0 -0.00000000000E+00 -0.00000000000E+00 -0.45593999997E+02  0.45594000000E+02  0.51100000000E-03 0. -1.
    9900012    2    1    2    0    0 -0.20041514317E+02  0.21293153143E+02 -0.12714579832E+02  0.59301933965E+02  0.49999981649E+02 0.  0.
        -12    1    1    2    0    0  0.20041514317E+02 -0.21293153143E+02  0.12714579832E+02  0.31886066035E+02  0.00000000000E+00 0.  1.
         11    1    3    3    0    0  0.10982397195E+02 -0.15299674805E+01 -0.51267784013E+01  0.12216288540E+02  0.51100000000E-03 0. -1.
        -11    1    3    3    0    0 -0.24850992909E+02  0.85472979183E+01  0.53926728109E+01  0.26827394032E+02  0.51100000000E-03 0.  1.
        -12    1    3    3    0    0 -0.61729186034E+01  0.14275822705E+02 -0.12980474241E+02  0.20258251393E+02  0.00000000000E+00 0.  1.
</event>
<event>
 7    1  0.5979290E-013  0.5930195E+02  0.7816164E-02  0.1266605E+00
        -11   -1    0    0    0    0  0.00000000000E+00  0.00000000000E+00  0.45593999997E+02  0.45594000000E+02  0.51100000000E-03 0. -1.
         11   -1    0    0    0    0 -0.00000000000E+00 -0.00000000000E+00 -0.45593999997E+02  0.45594000000E+02  0.51100000000E-03 0.  1.
    9900012    2    1    2    0    0 -0.13506699783E+02 -0.16410717601E+02  0.23769250937E+02  0.59301954756E+02  0.50000019566E+02 0.  0.
        -12    1    1    2    0    0  0.13506699783E+02  0.16410717601E+02 -0.23769250937E+02  0.31886045244E+02  0.00000000000E+00 0.  1.
         11    1    3    3    0    0 -0.44666659177E+01  0.10730928175E+01  0.25682729185E+02  0.26090327926E+02  0.51100000000E-03 0. -1.
        -11    1    3    3    0    0 -0.45310988507E+01 -0.24002732089E+02 -0.45729372088E+01  0.24851031357E+02  0.51100000000E-03 0.  1.
        -12    1    3    3    0    0 -0.45089350150E+01  0.65189216701E+01  0.26594589603E+01  0.83605954735E+01  0.00000000000E+00 0.  1.
</event>
<event>
 7    1  0.5979290E-013  0.5930195E+02  0.7816164E-02  0.1266605E+00
        -11   -1    0    0    0    0  0.00000000000E+00  0.00000000000E+00  0.45593999997E+02  0.45594000000E+02  0.51100000000E-03 0. -1.
         11   -1    0    0    0    0 -0.00000000000E+00 -0.00000000000E+00 -0.45593999997E+02  0.45594000000E+02  0.51100000000E-03 0.  1.
    9900012    2    1    2    0    0 -0.22784463543E+02 -0.38831356386E+01  0.21966103330E+02  0.59301949495E+02  0.50000009970E+02 0.  0.
        -12    1    1    2    0    0  0.22784463543E+02  0.38831356386E+01 -0.21966103330E+02  0.31886050505E+02  0.00000000000E+00 0.  1.
         11    1    3    3    0    0  0.13113142410E+02 -0.28975824376E+01  0.96533791072E+01  0.16538990788E+02  0.51100000000E-03 0. -1.
        -11    1    3    3    0    0 -0.23291851897E+02 -0.10084374685E+02  0.69186895029E+01  0.26307284966E+02  0.51100000000E-03 0.  1.
         12    1    3    3    0    0 -0.12605754055E+02  0.90988214837E+01  0.53940347203E+01  0.16455673740E+02  0.00000000000E+00 0. -1.
</event>
<event>
 7    1  0.5979290E-013  0.5930195E+02  0.7816164E-02  0.1266605E+00
        -11   -1    0    0    0    0  0.00000000000E+00  0.00000000000E+00  0.45593999997E+02  0.45594000000E+02  0.51100000000E-03 0.  1.
         11   -1    0    0    0    0 -0.00000000000E+00 -0.00000000000E+00 -0.45593999997E+02  0.45594000000E+02  0.51100000000E-03 0. -1.
    9900012    2    1    2    0    0  0.18367192980E+01  0.25679997290E+02 -0.18811820043E+02  0.59301947063E+02  0.50000005535E+02 0.  0.
        -12    1    1    2    0    0 -0.18367192980E+01 -0.25679997290E+02  0.18811820043E+02  0.31886052937E+02  0.00000000000E+00 0.  1.
         11    1    3    3    0    0 -0.52079008915E+01  0.15080851881E+02 -0.74293545154E+01  0.17599705507E+02  0.51100000000E-03 0. -1.
        -11    1    3    3    0    0 -0.27731269528E+01 -0.66563915634E+01 -0.19089278628E+02  0.20405840843E+02  0.51100000000E-03 0.  1.
        -12    1    3    3    0    0  0.98177471423E+01  0.17255536973E+02  0.77068131002E+01  0.21296400713E+02  0.00000000000E+00 0.  1.
</event>
<event>
 7    1  0.5979290E-013  0.5930190E+02  0.7816164E-02  0.1266605E+00
        -11   -1    0    0    0    0  0.00000000000E+00  0.00000000000E+00  0.45593999997E+02  0.45594000000E+02  0.51100000000E-03 0.  1.
         11   -1    0    0    0    0 -0.00000000000E+00 -0.00000000000E+00 -0.45593999997E+02  0.45594000000E+02  0.51100000000E-03 0. -1.
    9900012    2    1    2    0    0 -0.19481711880E+02  0.50501111933E+01 -0.24732222674E+02  0.59301897083E+02  0.49999914384E+02 0.  0.
        -12    1    1    2    0    0  0.19481711880E+02 -0.50501111933E+01  0.24732222674E+02  0.31886102917E+02  0.00000000000E+00 0.  1.
         11    1    3    3    0    0 -0.19602894480E+02 -0.23954615944E+01 -0.37797775483E+02  0.42646026075E+02  0.51100000000E-03 0. -1.
        -11    1    3    3    0    0  0.32701018918E+01  0.24122732145E+01  0.74370432254E+01  0.84748003305E+01  0.51100000000E-03 0.  1.
         12    1    3    3    0    0 -0.31489192923E+01  0.50332995732E+01  0.56285095838E+01  0.81810706780E+01  0.00000000000E+00 0. -1.
</event>
<event>
 7    1  0.5979290E-013  0.5930195E+02  0.7816164E-02  0.1266605E+00
        -11   -1    0    0    0    0  0.00000000000E+00  0.00000000000E+00  0.45593999997E+02  0.45594000000E+02  0.51100000000E-03 0.  1.
         11   -1    0    0    0    0 -0.00000000000E+00 -0.00000000000E+00 -0.45593999997E+02  0.45594000000E+02  0.51100000000E-03 0. -1.
    9900012    2    1    2    0    0 -0.10253656513E+02 -0.22298668561E+02 -0.20355638190E+02  0.59301951364E+02  0.50000013380E+02 0.  0.
        -12    1    1    2    0    0  0.10253656513E+02  0.22298668561E+02  0.20355638190E+02  0.31886048636E+02  0.00000000000E+00 0.  1.
         11    1    3    3    0    0  0.11395855105E+02 -0.77428087933E+01 -0.20703557157E+02  0.24868732995E+02  0.51100000000E-03 0. -1.
        -11    1    3    3    0    0 -0.25626490247E+02 -0.82887863427E+01  0.12104961783E+01  0.26960828672E+02  0.51100000000E-03 0.  1.
        -12    1    3    3    0    0  0.39769786294E+01 -0.62670734255E+01 -0.86257721104E+00  0.74723896971E+01  0.00000000000E+00 0.  1.
</event>
<event>
 7    1  0.5979290E-013  0.5930193E+02  0.7816164E-02  0.1266605E+00
        -11   -1    0    0    0    0  0.00000000000E+00  0.00000000000E+00  0.45593999997E+02  0.45594000000E+02  0.51100000000E-03 0.  1.
         11   -1    0    0    0    0 -0.00000000000E+00 -0.00000000000E+00 -0.45593999997E+02  0.45594000000E+02  0.51100000000E-03 0. -1.
    9900012    2    1    2    0    0  0.59699285383E+01  0.30987812078E+02 -0.45647482392E+01  0.59301929834E+02  0.49999974114E+02 0.  0.
        -12    1    1    2    0    0 -0.59699285383E+01 -0.30987812078E+02  0.45647482392E+01  0.31886070166E+02  0.00000000000E+00 0.  1.
         11    1    3    3    0    0  0.17072046740E+02  0.38401683940E+02 -0.10168860544E+02  0.43238291298E+02  0.51100000000E-03 0. -1.
        -11    1    3    3    0    0 -0.75793026085E+01 -0.80584059358E+01  0.57728712573E+01  0.12478372373E+02  0.51100000000E-03 0.  1.
         12    1    3    3    0    0 -0.35228155934E+01  0.64453407408E+00 -0.16875895240E+00  0.35852661633E+01  0.00000000000E+00 0. -1.
</event>
<event>
 7    1  0.5979290E-013  0.5930198E+02  0.7816164E-02  0.1266605E+00
        -11   -1    0    0    0    0  0.00000000000E+00  0.00000000000E+00  0.45593999997E+02  0.45594000000E+02  0.51100000000E-03 0.  1.
         11   -1    0    0    0    0 -0.00000000000E+00 -0.00000000000E+00 -0.45593999997E+02  0.45594000000E+02  0.51100000000E-03 0. -1.
    9900012    2    1    2    0    0  0.26681757953E+02 -0.24823639029E+01 -0.17281205581E+02  0.59301977917E+02  0.50000061805E+02 0.  0.
        -12    1    1    2    0    0 -0.26681757953E+02  0.24823639029E+01  0.17281205581E+02  0.31886022083E+02  0.00000000000E+00 0.  1.
         11    1    3    3    0    0  0.27588845348E+02 -0.16525889496E+02 -0.13071465564E+02  0.34714732082E+02  0.51100000000E-03 0. -1.
        -11    1    3    3    0    0 -0.82549469875E+00  0.12826340890E+02  0.60849583617E+01  0.14220519704E+02  0.51100000000E-03 0.  1.
         12    1    3    3    0    0 -0.81592696448E-01  0.12171847028E+01 -0.10294698378E+02  0.10366726131E+02  0.00000000000E+00 0. -1.
</event>
<event>
 7    1  0.5979290E-013  0.5930192E+02  0.7816164E-02  0.1266605E+00
        -11   -1    0    0    0    0  0.00000000000E+00  0.00000000000E+00  0.45593999997E+02  0.45594000000E+02  0.51100000000E-03 0.  1.
         11   -1    0    0    0    0 -0.00000000000E+00 -0.00000000000E+00 -0.45593999997E+02  0.45594000000E+02  0.51100000000E-03 0. -1.
    9900012    2    1    2    0    0  0.20277014237E+02 -0.23851288051E+02 -0.60564785098E+01  0.59301918710E+02  0.49999953827E+02 0.  0.
        -12    1    1    2    0    0 -0.20277014237E+02  0.23851288051E+02  0.60564785098E+01  0.31886081290E+02  0.00000000000E+00 0.  1.
         11    1    3    3    0    0  0.23559099706E+01 -0.29883156741E+02  0.11294386786E+02  0.32033053893E+02  0.51100000000E-03 0. -1.
        -11    1    3    3    0    0  0.11196794622E+02 -0.86366008597E+00 -0.11079650206E+02  0.15775701807E+02  0.51100000000E-03 0.  1.
         12    1    3    3    0    0  0.67243096450E+01  0.68955287751E+01 -0.62712150896E+01  0.11493163011E+02  0.00000000000E+00 0. -1.
</event>
<event>
 7    1  0.5979290E-013  0.5930195E+02  0.7816164E-02  0.1266605E+00
        -11   -1    0    0    0    0  0.00000000000E+00  0.00000000000E+00  0.45593999997E+02  0.45594000000E+02  0.51100000000E-03 0. -1.
         11   -1    0    0    0    0 -0.00000000000E+00 -0.00000000000E+00 -0.45593999997E+02  0.45594000000E+02  0.51100000000E-03 0.  1.
    9900012    2    1    2    0    0  0.17566776798E+02 -0.26500051543E+02  0.24240414963E+01  0.59301947312E+02  0.50000005989E+02 0.  0.
        -12    1    1    2    0    0 -0.17566776798E+02  0.26500051543E+02 -0.24240414963E+01  0.31886052688E+02  0.00000000000E+00 0.  1.
         11    1    3    3    0    0  0.26358776020E+02 -0.68681763432E+01  0.12153554381E+02  0.29827266115E+02  0.51100000000E-03 0. -1.
        -11    1    3    3    0    0 -0.13842424008E+02 -0.13983764744E+02 -0.96081275015E+01  0.21896906018E+02  0.51100000000E-03 0.  1.
         12    1    3    3    0    0  0.50504247857E+01 -0.56481104559E+01 -0.12138538320E+00  0.75777751781E+01  0.00000000000E+00 0. -1.
</event>
<event>
 7    1  0.5979290E-013  0.5930193E+02  0.7816164E-02  0.1266605E+00
        -11   -1    0    0    0    0  0.00000000000E+00  0.00000000000E+00  0.45593999997E+02  0.45594000000E+02  0.51100000000E-03 0.  1.
         11   -1    0    0    0    0 -0.00000000000E+00 -0.00000000000E+00 -0.45593999997E+02  0.45594000000E+02  0.51100000000E-03 0. -1.
    9900012    2    1    2    0    0 -0.18611308757E+02 -0.24783444764E+02 -0.74914112512E+01  0.59301934225E+02  0.49999982123E+02 0.  0.
        -12    1    1    2    0    0  0.18611308757E+02  0.24783444764E+02  0.74914112512E+01  0.31886065775E+02  0.00000000000E+00 0.  1.
         11    1    3    3    0    0 -0.19170779354E+02 -0.51553380708E+01 -0.12192481256E+02  0.23297057564E+02  0.51100000000E-03 0. -1.
        -11    1    3    3    0    0  0.18449296839E+01 -0.27198472303E+02  0.52936043063E+00  0.27266112372E+02  0.51100000000E-03 0.  1.
         12    1    3    3    0    0 -0.12854590869E+01  0.75703656097E+01  0.41717095744E+01  0.87387642892E+01  0.00000000000E+00 0. -1.
</event>
<event>
 7    1  0.5979290E-013  0.5930191E+02  0.7816164E-02  0.1266605E+00
        -11   -1    0    0    0    0  0.00000000000E+00  0.00000000000E+00  0.45593999997E+02  0.45594000000E+02  0.51100000000E-03 0.  1.
         11   -1    0    0    0    0 -0.00000000000E+00 -0.00000000000E+00 -0.45593999997E+02  0.45594000000E+02  0.51100000000E-03 0. -1.
    9900012    2    1    2    0    0 -0.24700320843E+02  0.29522057160E+01 -0.19947462281E+02  0.59301911814E+02  0.49999941250E+02 0.  0.
        -12    1    1    2    0    0  0.24700320843E+02 -0.29522057160E+01  0.19947462281E+02  0.31886088186E+02  0.00000000000E+00 0.  1.
         11    1    3    3    0    0  0.17857090383E+01  0.83790683477E+01  0.10877994665E+02  0.13846599270E+02  0.51100000000E-03 0. -1.
        -11    1    3    3    0    0 -0.33033242645E+01 -0.73275090445E+01 -0.17596952063E+01  0.82280536869E+01  0.51100000000E-03 0.  1.
         12    1    3    3    0    0 -0.23182705617E+02  0.19006464128E+01 -0.29065761740E+02  0.37227258857E+02  0.00000000000E+00 0. -1.
</event>
<event>
 7    1  0.5979290E-013  0.5930196E+02  0.7816164E-02  0.1266605E+00
        -11   -1    0    0    0    0  0.00000000000E+00  0.00000000000E+00  0.45593999997E+02  0.45594000000E+02  0.51100000000E-03 0. -1.
         11   -1    0    0    0    0 -0.00000000000E+00 -0.00000000000E+00 -0.45593999997E+02  0.45594000000E+02  0.51100000000E-03 0.  1.
    9900012    2    1    2    0    0 -0.17531335972E+02  0.18999089562E+02 -0.18665650643E+02  0.59301958240E+02  0.50000025921E+02 0.  0.
        -12    1    1    2    0    0  0.17531335972E+02 -0.18999089562E+02  0.18665650643E+02  0.31886041760E+02  0.00000000000E+00 0.  1.
         11    1    3    3    0    0 -0.21218966828E+02  0.11502914354E+02  0.91342946639E+01  0.25806916344E+02  0.51100000000E-03 0. -1.
        -11    1    3    3    0    0 -0.96668909407E+00  0.12093855963E+02 -0.18552831824E+02  0.22167620730E+02  0.51100000000E-03 0.  1.
         12    1    3    3    0    0  0.46543199504E+01 -0.45976807550E+01 -0.92471134831E+01  0.11327421167E+02  0.00000000000E+00 0. -1.
</event>
<event>
 7    1  0.5979290E-013  0.5930195E+02  0.7816164E-02  0.1266605E+00
        -11   -1    0    0    0    0  0.00000000000E+00  0.00000000000E+00  0.45593999997E+02  0.45594000000E+02  0.51100000000E-03 0. -1.
         11   -1    0    0    0    0 -0.00000000000E+00 -0.00000000000E+00 -0.45593999997E+02  0.45594000000E+02  0.51100000000E-03 0.  1.
    9900012    2    1    2    0    0  0.26967750207E+02 -0.15461943589E+02 -0.70985172180E+01  0.59301949798E+02  0.50000010524E+02 0.  0.
        -12    1    1    2    0    0 -0.26967750207E+02  0.15461943589E+02  0.70985172180E+01  0.31886050202E+02  0.00000000000E+00 0.  1.
         11    1    3    3    0    0  0.86114716679E+01  0.38589552662E+01  0.18460567113E+02  0.20732619671E+02  0.51100000000E-03 0. -1.
        -11    1    3    3    0    0  0.68591445669E+01 -0.12021608231E+02 -0.68898985958E+01  0.15460841878E+02  0.51100000000E-03 0.  1.
        -12    1    3    3    0    0  0.11497133972E+02 -0.72992906246E+01 -0.18669185735E+02  0.23108488250E+02  0.00000000000E+00 0.  1.
</event>
<event>
 7    1  0.5979290E-013  0.5930194E+02  0.7816164E-02  0.1266605E+00
        -11   -1    0    0    0    0  0.00000000000E+00  0.00000000000E+00  0.45593999997E+02  0.45594000000E+02  0.51100000000E-03 0.  1.
         11   -1    0    0    0    0 -0.00000000000E+00 -0.00000000000E+00 -0.45593999997E+02  0.45594000000E+02  0.51100000000E-03 0. -1.
    9900012    2    1    2    0    0 -0.67100139897E+01  0.99799147470E+01 -0.29531298634E+02  0.59301943720E+02  0.49999999439E+02 0.  0.
        -12    1    1    2    0    0  0.67100139897E+01 -0.99799147470E+01  0.29531298634E+02  0.31886056280E+02  0.00000000000E+00 0.  1.
         11    1    3    3    0    0  0.12917801446E+02  0.11654549424E+01 -0.28603106653E+02  0.31406457774E+02  0.51100000000E-03 0.  1.
        -11    1    3    3    0    0 -0.21585136295E+02  0.11268799583E+02 -0.23232806677E+01  0.24460204133E+02  0.51100000000E-03 0. -1.
         12    1    3    3    0    0  0.19573208587E+01 -0.24543397781E+01  0.13950886875E+01  0.34352818133E+01  0.00000000000E+00 0. -1.
</event>
<event>
 7    1  0.5979290E-013  0.5930186E+02  0.7816164E-02  0.1266605E+00
        -11   -1    0    0    0    0  0.00000000000E+00  0.00000000000E+00  0.45593999997E+02  0.45594000000E+02  0.51100000000E-03 0. -1.
         11   -1    0    0    0    0 -0.00000000000E+00 -0.00000000000E+00 -0.45593999997E+02  0.45594000000E+02  0.51100000000E-03 0.  1.
    9900012    2    1    2    0    0  0.35500761656E+01 -0.19237716934E+02  0.25180014950E+02  0.59301859649E+02  0.49999846114E+02 0.  0.
        -12    1    1    2    0    0 -0.35500761656E+01  0.19237716934E+02 -0.25180014950E+02  0.31886140351E+02  0.00000000000E+00 0.  1.
         11    1    3    3    0    0 -0.57343247326E+01 -0.21349768804E+02  0.14702008912E+02  0.26548901567E+02  0.51100000000E-03 0. -1.
        -11    1    3    3    0    0  0.14189819185E+02  0.10746531915E+02  0.13536098209E+02  0.22362130303E+02  0.51100000000E-03 0.  1.
        -12    1    3    3    0    0 -0.49054182868E+01 -0.86344800442E+01 -0.30580921714E+01  0.10390827779E+02  0.00000000000E+00 0.  1.
</event>
<event>
 7    1  0.5979290E-013  0.5930194E+02  0.7816164E-02  0.1266605E+00
        -11   -1    0    0    0    0  0.00000000000E+00  0.00000000000E+00  0.45593999997E+02  0.45594000000E+02  0.51100000000E-03 0. -1.
         11   -1    0    0    0    0 -0.00000000000E+00 -0.00000000000E+00 -0.45593999997E+02  0.45594000000E+02  0.51100000000E-03 0.  1.
    9900012    2    1    2    0    0 -0.28315690141E+02 -0.62667697913E+01  0.13254056812E+02  0.59301941389E+02  0.49999995188E+02 0.  0.
        -12    1    1    2    0    0  0.28315690141E+02  0.62667697913E+01 -0.13254056812E+02  0.31886058611E+02  0.00000000000E+00 0.  1.
         11    1    3    3    0    0 -0.21466233147E+02 -0.25006892775E+01 -0.74216609611E+01  0.22850244289E+02  0.51100000000E-03 0. -1.
        -11    1    3    3    0    0  0.21272365733E+00  0.83812364279E+01  0.20772199111E+02  0.22400326595E+02  0.51100000000E-03 0.  1.
         12    1    3    3    0    0 -0.70621806513E+01 -0.12147316942E+02 -0.96481337968E-01  0.14051370505E+02  0.00000000000E+00 0. -1.
</event>
<event>
 7    1  0.5979290E-013  0.5930195E+02  0.7816164E-02  0.1266605E+00
        -11   -1    0    0    0    0  0.00000000000E+00  0.00000000000E+00  0.45593999997E+02  0.45594000000E+02  0.51100000000E-03 0.  1.
         11   -1    0    0    0    0 -0.00000000000E+00 -0.00000000000E+00 -0.45593999997E+02  0.45594000000E+02  0.51100000000E-03 0. -1.
    9900012    2    1    2    0    0 -0.13659200494E+02 -0.25925958224E+02 -0.12569456796E+02  0.59301948001E+02  0.50000007246E+02 0.  0.
        -12    1    1    2    0    0  0.13659200494E+02  0.25925958224E+02  0.12569456796E+02  0.31886051999E+02  0.00000000000E+00 0.  1.
         11    1    3    3    0    0 -0.13491055160E+02 -0.17661583246E+02 -0.29859287316E+02  0.37222535263E+02  0.51100000000E-03 0. -1.
        -11    1    3    3    0    0 -0.38729479761E+01 -0.90917892796E+01  0.13333511905E+02  0.16596472466E+02  0.51100000000E-03 0.  1.
         12    1    3    3    0    0  0.37048026418E+01  0.82741430222E+00  0.39563186154E+01  0.54829402723E+01  0.00000000000E+00 0. -1.
</event>
<event>
 7    1  0.1066046E-012  0.5930194E+02  0.7816164E-02  0.1266605E+00
        -11   -1    0    0    0    0  0.00000000000E+00  0.00000000000E+00  0.45593999997E+02  0.45594000000E+02  0.51100000000E-03 0. -1.
         11   -1    0    0    0    0 -0.00000000000E+00 -0.00000000000E+00 -0.45593999997E+02  0.45594000000E+02  0.51100000000E-03 0.  1.
    9900012    2    1    2    0    0  0.31762015116E+02 -0.26098716107E+01  0.10410153055E+01  0.59301941182E+02  0.49999994811E+02 0.  0.
        -12    1    1    2    0    0 -0.31762015116E+02  0.26098716107E+01 -0.10410153055E+01  0.31886058818E+02  0.00000000000E+00 0.  1.
         11    1    3    3    0    0  0.77924292600E+01 -0.20711569442E+02  0.25905684590E+01  0.22280083207E+02  0.51100000000E-03 0. -1.
        -11    1    3    3    0    0  0.37762707625E+00  0.12137336413E+02 -0.34206844982E+01  0.12615808342E+02  0.51100000000E-03 0.  1.
         12    1    3    3    0    0  0.23591958780E+02  0.59643614181E+01  0.18711313447E+01  0.24406049633E+02  0.00000000000E+00 0. -1.
</event>
<event>
 7    1  0.5979290E-013  0.5930195E+02  0.7816164E-02  0.1266605E+00
        -11   -1    0    0    0    0  0.00000000000E+00  0.00000000000E+00  0.45593999997E+02  0.45594000000E+02  0.51100000000E-03 0.  1.
         11   -1    0    0    0    0 -0.00000000000E+00 -0.00000000000E+00 -0.45593999997E+02  0.45594000000E+02  0.51100000000E-03 0. -1.
    9900012    2    1    2    0    0 -0.13262887618E+02 -0.24537014415E+02 -0.15451570261E+02  0.59301948381E+02  0.50000007938E+02 0.  0.
        -12    1    1    2    0    0  0.13262887618E+02  0.24537014415E+02  0.15451570261E+02  0.31886051619E+02  0.00000000000E+00 0.  1.
         11    1    3    3    0    0 -0.13251454209E+02  0.16734112147E+01 -0.22838139430E+02  0.26457172121E+02  0.51100000000E-03 0. -1.
        -11    1    3    3    0    0 -0.25189608920E+01 -0.71280261639E+01  0.10915104009E+02  0.13277553116E+02  0.51100000000E-03 0.  1.
        -12    1    3    3    0    0  0.25075274830E+01 -0.19082399466E+02 -0.35285348393E+01  0.19567223144E+02  0.00000000000E+00 0.  1.
</event>
<event>
 7    1  0.5979290E-013  0.5930194E+02  0.7816164E-02  0.1266605E+00
        -11   -1    0    0    0    0  0.00000000000E+00  0.00000000000E+00  0.45593999997E+02  0.45594000000E+02  0.51100000000E-03 0.  1.
         11   -1    0    0    0    0 -0.00000000000E+00 -0.00000000000E+00 -0.45593999997E+02  0.45594000000E+02  0.51100000000E-03 0. -1.
    9900012    2    1    2    0    0  0.11535075131E+02 -0.97860934212E+01 -0.28069467314E+02  0.59301943831E+02  0.49999999641E+02 0.  0.
        -12    1    1    2    0    0 -0.11535075131E+02  0.97860934212E+01  0.28069467314E+02  0.31886056169E+02  0.00000000000E+00 0.  1.
         11    1    3    3    0    0  0.10663166708E+02 -0.16534567141E+01  0.11825499484E+02  0.16008731420E+02  0.51100000000E-03 0. -1.
        -11    1    3    3    0    0 -0.44839467892E+01  0.16426886868E+01 -0.19227035127E+02  0.19811185855E+02  0.51100000000E-03 0.  1.
         12    1    3    3    0    0  0.53558552113E+01 -0.97753253940E+01 -0.20667931672E+02  0.23482026556E+02  0.00000000000E+00 0. -1.
</event>
<event>
 7    1  0.5979290E-013  0.5930194E+02  0.7816164E-02  0.1266605E+00
        -11   -1    0    0    0    0  0.00000000000E+00  0.00000000000E+00  0.45593999997E+02  0.45594000000E+02  0.51100000000E-03 0. -1.
         11   -1    0    0    0    0 -0.00000000000E+00 -0.00000000000E+00 -0.45593999997E+02  0.45594000000E+02  0.51100000000E-03 0.  1.
    9900012    2    1    2    0    0 -0.38844750684E+01 -0.27833087142E+02  0.15064888496E+02  0.59301941106E+02  0.49999994671E+02 0.  0.
        -12    1    1    2    0    0  0.38844750684E+01  0.27833087142E+02 -0.15064888496E+02  0.31886058894E+02  0.00000000000E+00 0.  1.
         11    1    3    3    0    0 -0.89759523195E+01 -0.15101346744E+02  0.10068927290E+02  0.20248498476E+02  0.51100000000E-03 0. -1.
        -11    1    3    3    0    0 -0.10508305101E+02  0.65180072026E+01 -0.35146573278E+01  0.12855415605E+02  0.51100000000E-03 0.  1.
        -12    1    3    3    0    0  0.15599782352E+02 -0.19249747601E+02  0.85106185344E+01  0.26198027024E+02  0.00000000000E+00 0.  1.
</event>
<event>
 7    1  0.5979290E-013  0.5930174E+02  0.7816164E-02  0.1266605E+00
        -11   -1    0    0    0    0  0.00000000000E+00  0.00000000000E+00  0.45593999997E+02  0.45594000000E+02  0.51100000000E-03 0.  1.
         11   -1    0    0    0    0 -0.00000000000E+00 -0.00000000000E+00 -0.45593999997E+02  0.45594000000E+02  0.51100000000E-03 0. -1.
    9900012    2    1    2    0    0 -0.87437013358E+01  0.10590804012E+02 -0.28777007372E+02  0.59301739699E+02  0.49999627352E+02 0.  0.
        -12    1    1    2    0    0  0.87437013358E+01 -0.10590804012E+02  0.28777007372E+02  0.31886260301E+02  0.00000000000E+00 0.  1.
         11    1    3    3    0    0 -0.89718250162E+01 -0.35585405940E+01  0.91499658606E+01  0.13299576339E+02  0.51100000000E-03 0. -1.
        -11    1    3    3    0    0 -0.17638693348E+01  0.86078157203E+00 -0.30666103296E+02  0.30728847547E+02  0.51100000000E-03 0.  1.
        -12    1    3    3    0    0  0.19919930152E+01  0.13288563034E+02 -0.72608699368E+01  0.15273315813E+02  0.00000000000E+00 0.  1.
</event>
<event>
 7    1  0.5979290E-013  0.5930196E+02  0.7816164E-02  0.1266605E+00
        -11   -1    0    0    0    0  0.00000000000E+00  0.00000000000E+00  0.45593999997E+02  0.45594000000E+02  0.51100000000E-03 0. -1.
         11   -1    0    0    0    0 -0.00000000000E+00 -0.00000000000E+00 -0.45593999997E+02  0.45594000000E+02  0.51100000000E-03 0.  1.
    9900012    2    1    2    0    0  0.21361965693E+02 -0.11984154473E+02  0.20414853227E+02  0.59301956517E+02  0.50000022778E+02 0.  0.
        -12    1    1    2    0    0 -0.21361965693E+02  0.11984154473E+02 -0.20414853227E+02  0.31886043483E+02  0.00000000000E+00 0.  1.
         11    1    3    3    0    0  0.11971818272E+02  0.15833006776E+02  0.17614994866E+02  0.26538586637E+02  0.51100000000E-03 0. -1.
        -11    1    3    3    0    0  0.39747933236E+01 -0.25471712774E+02 -0.90412544133E+00  0.25795824792E+02  0.51100000000E-03 0.  1.
        -12    1    3    3    0    0  0.54153540972E+01 -0.23454484745E+01  0.37039838031E+01  0.69675450884E+01  0.00000000000E+00 0.  1.
</event>
<event>
 7    1  0.5979290E-013  0.5930184E+02  0.7816164E-02  0.1266605E+00
        -11   -1    0    0    0    0  0.00000000000E+00  0.00000000000E+00  0.45593999997E+02  0.45594000000E+02  0.51100000000E-03 0.  1.
         11   -1    0    0    0    0 -0.00000000000E+00 -0.00000000000E+00 -0.45593999997E+02  0.45594000000E+02  0.51100000000E-03 0. -1.
    9900012    2    1    2    0    0 -0.15370183255E+02  0.26255036030E+02 -0.95476505572E+01  0.59301841853E+02  0.49999813658E+02 0.  0.
        -12    1    1    2    0    0  0.15370183255E+02 -0.26255036030E+02  0.95476505572E+01  0.31886158147E+02  0.00000000000E+00 0.  1.
         11    1    3    3    0    0 -0.24153729898E+02  0.19614443466E+02 -0.18037517362E+02  0.35964998170E+02  0.51100000000E-03 0. -1.
        -11    1    3    3    0    0  0.12236520332E+02  0.39689655971E+01 -0.98778895000E+00  0.12901970586E+02  0.51100000000E-03 0.  1.
         12    1    3    3    0    0 -0.34529736878E+01  0.26716269663E+01  0.94776557552E+01  0.10434873097E+02  0.00000000000E+00 0. -1.
</event>
<event>
 7    1  0.5979290E-013  0.5930195E+02  0.7816164E-02  0.1266605E+00
        -11   -1    0    0    0    0  0.00000000000E+00  0.00000000000E+00  0.45593999997E+02  0.45594000000E+02  0.51100000000E-03 0.  1.
         11   -1    0    0    0    0 -0.00000000000E+00 -0.00000000000E+00 -0.45593999997E+02  0.45594000000E+02  0.51100000000E-03 0. -1.
    9900012    2    1    2    0    0 -0.25028699777E+02  0.16363201517E+02 -0.11069314026E+02  0.59301954629E+02  0.50000019334E+02 0.  0.
        -12    1    1    2    0    0  0.25028699777E+02 -0.16363201517E+02  0.11069314026E+02  0.31886045371E+02  0.00000000000E+00 0.  1.
         11    1    3    3    0    0 -0.68042136659E+01  0.65789300143E+01 -0.19095114981E+02  0.21312040262E+02  0.51100000000E-03 0. -1.
        -11    1    3    3    0    0 -0.13208135298E+01  0.17151650536E+02  0.92095215368E+01  0.19512533195E+02  0.51100000000E-03 0.  1.
         12    1    3    3    0    0 -0.16903672581E+02 -0.73673790328E+01 -0.11837205820E+01  0.18477381172E+02  0.00000000000E+00 0. -1.
</event>
<event>
 7    1  0.5979290E-013  0.5930195E+02  0.7816164E-02  0.1266605E+00
        -11   -1    0    0    0    0  0.00000000000E+00  0.00000000000E+00  0.45593999997E+02  0.45594000000E+02  0.51100000000E-03 0.  1.
         11   -1    0    0    0    0 -0.00000000000E+00 -0.00000000000E+00 -0.45593999997E+02  0.45594000000E+02  0.51100000000E-03 0. -1.
    9900012    2    1    2    0    0 -0.68412770358E+01 -0.30638962821E+02 -0.55831306862E+01  0.59301945643E+02  0.50000002945E+02 0.  0.
        -12    1    1    2    0    0  0.68412770358E+01  0.30638962821E+02  0.55831306862E+01  0.31886054357E+02  0.00000000000E+00 0.  1.
         11    1    3    3    0    0  0.47348443149E+01 -0.49948537418E+01 -0.18421259184E+02  0.19664946091E+02  0.51100000000E-03 0. -1.
        -11    1    3    3    0    0 -0.15779221965E+02 -0.27301247415E+02  0.14648838198E+02  0.34769676688E+02  0.51100000000E-03 0.  1.
        -12    1    3    3    0    0  0.42031006140E+01  0.16571383358E+01 -0.18107097003E+01  0.48673228631E+01  0.00000000000E+00 0.  1.
</event>
<event>
 7    1  0.5979290E-013  0.5930195E+02  0.7816164E-02  0.1266605E+00
        -11   -1    0    0    0    0  0.00000000000E+00  0.00000000000E+00  0.45593999997E+02  0.45594000000E+02  0.51100000000E-03 0. -1.
         11   -1    0    0    0    0 -0.00000000000E+00 -0.00000000000E+00 -0.45593999997E+02  0.45594000000E+02  0.51100000000E-03 0.  1.
    9900012    2    1    2    0    0  0.16437715192E+02 -0.23231760899E+02  0.14380788297E+02  0.59301948704E+02  0.50000008529E+02 0.  0.
        -12    1    1    2    0    0 -0.16437715192E+02  0.23231760899E+02 -0.14380788297E+02  0.31886051296E+02  0.00000000000E+00 0.  1.
         11    1    3    3    0    0  0.12499535378E+02  0.97566018340E+01  0.18261250797E+02  0.24184766795E+02  0.51100000000E-03 0. -1.
        -11    1    3    3    0    0  0.23114124167E+01 -0.16369647369E+02  0.34379060744E+01  0.16885709366E+02  0.51100000000E-03 0.  1.
         12    1    3    3    0    0  0.16267673976E+01 -0.16618715364E+02 -0.73183685746E+01  0.18231472544E+02  0.00000000000E+00 0. -1.
</event>
<event>
 7    1  0.5979290E-013  0.5930208E+02  0.7816164E-02  0.1266604E+00
        -11   -1    0    0    0    0  0.00000000000E+00  0.00000000000E+00  0.45593999997E+02  0.45594000000E+02  0.51100000000E-03 0.  1.
         11   -1    0    0    0    0 -0.00000000000E+00 -0.00000000000E+00 -0.45593999997E+02  0.45594000000E+02  0.51100000000E-03 0. -1.
    9900012    2    1    2    0    0 -0.15403620915E+02  0.20176930176E+02 -0.19295900795E+02  0.59302080911E+02  0.50000249642E+02 0.  0.
        -12    1    1    2    0    0  0.15403620915E+02 -0.20176930176E+02  0.19295900795E+02  0.31885919089E+02  0.00000000000E+00 0.  1.
         11    1    3    3    0    0 -0.20185518174E+02  0.69659096734E+01 -0.28875042697E+02  0.35913049614E+02  0.51100000000E-03 0. -1.
        -11    1    3    3    0    0 -0.56755318917E+01  0.38268925725E+01  0.97769337422E+00  0.69146694506E+01  0.51100000000E-03 0.  1.
         12    1    3    3    0    0  0.10457429152E+02  0.93841279304E+01  0.86014485278E+01  0.16474361847E+02  0.00000000000E+00 0. -1.
</event>
<event>
 7    1  0.5979290E-013  0.5930197E+02  0.7816164E-02  0.1266605E+00
        -11   -1    0    0    0    0  0.00000000000E+00  0.00000000000E+00  0.45593999997E+02  0.45594000000E+02  0.51100000000E-03 0.  1.
         11   -1    0    0    0    0 -0.00000000000E+00 -0.00000000000E+00 -0.45593999997E+02  0.45594000000E+02  0.51100000000E-03 0. -1.
    9900012    2    1    2    0    0  0.33016253685E+01 -0.18522400712E+02 -0.25743719677E+02  0.59301966051E+02  0.50000040164E+02 0.  0.
        -12    1    1    2    0    0 -0.33016253685E+01  0.18522400712E+02  0.25743719677E+02  0.31886033949E+02  0.00000000000E+00 0.  1.
         11    1    3    3    0    0 -0.43003381673E+01  0.10855432073E+02 -0.12271264187E+02  0.16938631552E+02  0.51100000000E-03 0. -1.
        -11    1    3    3    0    0  0.13222565834E+02 -0.12720265219E+02  0.26150824580E+01  0.18533214804E+02  0.51100000000E-03 0.  1.
         12    1    3    3    0    0 -0.56206022977E+01 -0.16657567567E+02 -0.16087537948E+02  0.23830119695E+02  0.00000000000E+00 0. -1.
</event>
<event>
 7    1  0.5979290E-013  0.5930194E+02  0.7816164E-02  0.1266605E+00
        -11   -1    0    0    0    0  0.00000000000E+00  0.00000000000E+00  0.45593999997E+02  0.45594000000E+02  0.51100000000E-03 0. -1.
         11   -1    0    0    0    0 -0.00000000000E+00 -0.00000000000E+00 -0.45593999997E+02  0.45594000000E+02  0.51100000000E-03 0.  1.
    9900012    2    1    2    0    0  0.23845366853E+02 -0.13694840413E+02 -0.16142203689E+02  0.59301938559E+02  0.49999990027E+02 0.  0.
        -12    1    1    2    0    0 -0.23845366853E+02  0.13694840413E+02  0.16142203689E+02  0.31886061441E+02  0.00000000000E+00 0.  1.
         11    1    3    3    0    0 -0.77311367482E+01 -0.83567466983E+01 -0.58811992108E+01  0.12813828281E+02  0.51100000000E-03 0. -1.
        -11    1    3    3    0    0  0.31896604382E+02  0.22528507376E+01 -0.17103934447E+02  0.36263111855E+02  0.51100000000E-03 0.  1.
        -12    1    3    3    0    0 -0.32010078125E+00 -0.75909444526E+01  0.68429299691E+01  0.10224998423E+02  0.00000000000E+00 0.  1.
</event>
<event>
 7    1  0.5979290E-013  0.5930194E+02  0.7816164E-02  0.1266605E+00
        -11   -1    0    0    0    0  0.00000000000E+00  0.00000000000E+00  0.45593999997E+02  0.45594000000E+02  0.51100000000E-03 0.  1.
         11   -1    0    0    0    0 -0.00000000000E+00 -0.00000000000E+00 -0.45593999997E+02  0.45594000000E+02  0.51100000000E-03 0. -1.
    9900012    2    1    2    0    0  0.23369813824E+02  0.21573192969E+02 -0.22737137284E+01  0.59301943060E+02  0.49999998235E+02 0.  0.
        -12    1    1    2    0    0 -0.23369813824E+02 -0.21573192969E+02  0.22737137284E+01  0.31886056940E+02  0.00000000000E+00 0.  1.
         11    1    3    3    0    0  0.18289581334E+02  0.16903205170E+02 -0.12607834632E+02  0.27913878712E+02  0.51100000000E-03 0. -1.
        -11    1    3    3    0    0  0.43326412851E+00 -0.11683973403E+02  0.81382202310E+01  0.14245475811E+02  0.51100000000E-03 0.  1.
        -12    1    3    3    0    0  0.46469683616E+01  0.16353961203E+02  0.21959006722E+01  0.17142588537E+02  0.00000000000E+00 0.  1.
</event>
<event>
 7    1  0.5979290E-013  0.5930195E+02  0.7816164E-02  0.1266605E+00
        -11   -1    0    0    0    0  0.00000000000E+00  0.00000000000E+00  0.45593999997E+02  0.45594000000E+02  0.51100000000E-03 0.  1.
         11   -1    0    0    0    0 -0.00000000000E+00 -0.00000000000E+00 -0.45593999997E+02  0.45594000000E+02  0.51100000000E-03 0. -1.
    9900012    2    1    2    0    0 -0.26462033959E+02  0.73712721117E+01 -0.16190895975E+02  0.59301952797E+02  0.50000015993E+02 0.  0.
        -12    1    1    2    0    0  0.26462033959E+02 -0.73712721117E+01  0.16190895975E+02  0.31886047203E+02  0.00000000000E+00 0.  1.
         11    1    3    3    0    0 -0.23557648665E+01  0.18021999055E+02 -0.15404901265E+02  0.23825470852E+02  0.51100000000E-03 0. -1.
        -11    1    3    3    0    0 -0.17250500553E+02  0.38590929484E+01  0.50762680375E+01  0.18391325813E+02  0.51100000000E-03 0.  1.
         12    1    3    3    0    0 -0.68557685395E+01 -0.14509819892E+02 -0.58622627469E+01  0.17085156132E+02  0.00000000000E+00 0. -1.
</event>
<event>
 7    1  0.5979290E-013  0.5930194E+02  0.7816164E-02  0.1266605E+00
        -11   -1    0    0    0    0  0.00000000000E+00  0.00000000000E+00  0.45593999997E+02  0.45594000000E+02  0.51100000000E-03 0. -1.
         11   -1    0    0    0    0 -0.00000000000E+00 -0.00000000000E+00 -0.45593999997E+02  0.45594000000E+02  0.51100000000E-03 0.  1.
    9900012    2    1    2    0    0  0.23647853152E+02  0.11824652999E+02  0.17823505978E+02  0.59301941250E+02  0.49999994935E+02 0.  0.
        -12    1    1    2    0    0 -0.23647853152E+02 -0.11824652999E+02 -0.17823505978E+02  0.31886058750E+02  0.00000000000E+00 0.  1.
         11    1    3    3    0    0  0.19154341696E+02  0.62239450302E+01  0.25228101856E+02  0.32281316904E+02  0.51100000000E-03 0. -1.
        -11    1    3    3    0    0 -0.87265504428E+01  0.73831783903E+01 -0.75160700411E+01  0.13680472028E+02  0.51100000000E-03 0.  1.
         12    1    3    3    0    0  0.13220061898E+02 -0.17824704219E+01  0.11147416358E+00  0.13340152319E+02  0.00000000000E+00 0. -1.
</event>
<event>
 7    1  0.5979290E-013  0.5930194E+02  0.7816164E-02  0.1266605E+00
        -11   -1    0    0    0    0  0.00000000000E+00  0.00000000000E+00  0.45593999997E+02  0.45594000000E+02  0.51100000000E-03 0. -1.
         11   -1    0    0    0    0 -0.00000000000E+00 -0.00000000000E+00 -0.45593999997E+02  0.45594000000E+02  0.51100000000E-03 0.  1.
    9900012    2    1    2    0    0 -0.31310875443E+02 -0.43402816630E+01 -0.41846814614E+01  0.59301944664E+02  0.50000001161E+02 0.  0.
        -12    1    1    2    0    0  0.31310875443E+02  0.43402816630E+01  0.41846814614E+01  0.31886055336E+02  0.00000000000E+00 0.  1.
         11    1    3    3    0    0 -0.29551219649E+02  0.11647296837E+02 -0.80740015148E+01  0.32773825030E+02  0.51100000000E-03 0. -1.
        -11    1    3    3    0    0  0.75092402355E+01 -0.34211522532E+01  0.67405678397E+01  0.10654962539E+02  0.51100000000E-03 0.  1.
        -12    1    3    3    0    0 -0.92688960298E+01 -0.12566426247E+02 -0.28512477862E+01  0.15873157095E+02  0.00000000000E+00 0.  1.
</event>
<event>
 7    1  0.5979290E-013  0.5930191E+02  0.7816164E-02  0.1266605E+00
        -11   -1    0    0    0    0  0.00000000000E+00  0.00000000000E+00  0.45593999997E+02  0.45594000000E+02  0.51100000000E-03 0. -1.
         11   -1    0    0    0    0 -0.00000000000E+00 -0.00000000000E+00 -0.45593999997E+02  0.45594000000E+02  0.51100000000E-03 0.  1.
    9900012    2    1    2    0    0  0.52735082144E+01  0.78817437368E+01  0.30443245384E+02  0.59301906436E+02  0.49999931442E+02 0.  0.
        -12    1    1    2    0    0 -0.52735082144E+01 -0.78817437368E+01 -0.30443245384E+02  0.31886093564E+02  0.00000000000E+00 0.  1.
         11    1    3    3    0    0  0.11433868299E+02  0.40555380827E+01  0.52262864634E+01  0.13209648136E+02  0.51100000000E-03 0. -1.
        -11    1    3    3    0    0 -0.69130047715E+01 -0.16677214580E+02  0.12375544118E+02  0.21887741172E+02  0.51100000000E-03 0.  1.
        -12    1    3    3    0    0  0.75264468696E+00  0.20503420234E+02  0.12841414802E+02  0.24204517129E+02  0.00000000000E+00 0.  1.
</event>
<event>
 7    1  0.5979290E-013  0.5930195E+02  0.7816164E-02  0.1266605E+00
        -11   -1    0    0    0    0  0.00000000000E+00  0.00000000000E+00  0.45593999997E+02  0.45594000000E+02  0.51100000000E-03 0.  1.
         11   -1    0    0    0    0 -0.00000000000E+00 -0.00000000000E+00 -0.45593999997E+02  0.45594000000E+02  0.51100000000E-03 0. -1.
    9900012    2    1    2    0    0  0.70516877895E+01 -0.29117314056E+02 -0.10916775057E+02  0.59301948878E+02  0.50000008846E+02 0.  0.
        -12    1    1    2    0    0 -0.70516877895E+01  0.29117314056E+02  0.10916775057E+02  0.31886051122E+02  0.00000000000E+00 0.  1.
         11    1    3    3    0    0 -0.14560312723E+02 -0.16262613645E+02  0.51844407597E+01  0.22435546247E+02  0.51100000000E-03 0. -1.
        -11    1    3    3    0    0  0.10309011232E+02  0.32550335630E+01 -0.13059100235E+02  0.16953201918E+02  0.51100000000E-03 0.  1.
         12    1    3    3    0    0  0.11302989281E+02 -0.16109733974E+02 -0.30421155821E+01  0.19913200712E+02  0.00000000000E+00 0. -1.
</event>
<event>
 7    1  0.5979290E-013  0.5930193E+02  0.7816164E-02  0.1266605E+00
        -11   -1    0    0    0    0  0.00000000000E+00  0.00000000000E+00  0.45593999997E+02  0.45594000000E+02  0.51100000000E-03 0.  1.
         11   -1    0    0    0    0 -0.00000000000E+00 -0.00000000000E+00 -0.45593999997E+02  0.45594000000E+02  0.51100000000E-03 0. -1.
    9900012    2    1    2    0    0 -0.31347205555E+02 -0.56758016251E+01 -0.13636381259E+01  0.59301928916E+02  0.49999972441E+02 0.  0.
        -12    1    1    2    0    0  0.31347205555E+02  0.56758016251E+01  0.13636381259E+01  0.31886071084E+02  0.00000000000E+00 0.  1.
         11    1    3    3    0    0 -0.34844243881E+02 -0.54282866162E+01 -0.15161379998E+02  0.38385610207E+02  0.51100000000E-03 0. -1.
        -11    1    3    3    0    0  0.16511112441E+01  0.49132380674E+01  0.14492498666E+02  0.15391510468E+02  0.51100000000E-03 0.  1.
        -12    1    3    3    0    0  0.18459270816E+01 -0.51607530763E+01 -0.69475679326E+00  0.55248082417E+01  0.00000000000E+00 0.  1.
</event>
<event>
 7    1  0.5979290E-013  0.5930196E+02  0.7816164E-02  0.1266605E+00
        -11   -1    0    0    0    0  0.00000000000E+00  0.00000000000E+00  0.45593999997E+02  0.45594000000E+02  0.51100000000E-03 0.  1.
         11   -1    0    0    0    0 -0.00000000000E+00 -0.00000000000E+00 -0.45593999997E+02  0.45594000000E+02  0.51100000000E-03 0. -1.
    9900012    2    1    2    0    0 -0.11333196727E+02 -0.78613938468E+01 -0.28748509837E+02  0.59301957927E+02  0.50000025349E+02 0.  0.
        -12    1    1    2    0    0  0.11333196727E+02  0.78613938468E+01  0.28748509837E+02  0.31886042073E+02  0.00000000000E+00 0.  1.
         11    1    3    3    0    0 -0.14218550413E+02 -0.17113596599E+02 -0.88049411980E+01  0.23928421473E+02  0.51100000000E-03 0. -1.
        -11    1    3    3    0    0  0.78596660741E+01  0.90220126739E+01  0.26352116002E+01  0.12252159154E+02  0.51100000000E-03 0.  1.
         12    1    3    3    0    0 -0.49743123876E+01  0.23019007869E+00 -0.22578780239E+02  0.23121377301E+02  0.00000000000E+00 0. -1.
</event>
<event>
 7    1  0.5979290E-013  0.5930195E+02  0.7816164E-02  0.1266605E+00
        -11   -1    0    0    0    0  0.00000000000E+00  0.00000000000E+00  0.45593999997E+02  0.45594000000E+02  0.51100000000E-03 0.  1.
         11   -1    0    0    0    0 -0.00000000000E+00 -0.00000000000E+00 -0.45593999997E+02  0.45594000000E+02  0.51100000000E-03 0. -1.
    9900012    2    1    2    0    0  0.26396354887E+02 -0.14685083968E+02 -0.10212768819E+02  0.59301954629E+02  0.50000019334E+02 0.  0.
        -12    1    1    2    0    0 -0.26396354887E+02  0.14685083968E+02  0.10212768819E+02  0.31886045371E+02  0.00000000000E+00 0.  1.
         11    1    3    3    0    0  0.18763378474E+02 -0.29779869365E+01 -0.40600697813E+01  0.19427221747E+02  0.51100000000E-03 0. -1.
        -11    1    3    3    0    0  0.99318293317E+01 -0.23719712249E+02  0.94757056080E+00  0.25732545021E+02  0.51100000000E-03 0.  1.
        -12    1    3    3    0    0 -0.22988529187E+01  0.12012615217E+02 -0.71002695989E+01  0.14142187860E+02  0.00000000000E+00 0.  1.
</event>
<event>
 7    1  0.5979290E-013  0.5930195E+02  0.7816164E-02  0.1266605E+00
        -11   -1    0    0    0    0  0.00000000000E+00  0.00000000000E+00  0.45593999997E+02  0.45594000000E+02  0.51100000000E-03 0. -1.
         11   -1    0    0    0    0 -0.00000000000E+00 -0.00000000000E+00 -0.45593999997E+02  0.45594000000E+02  0.51100000000E-03 0.  1.
    9900012    2    1    2    0    0 -0.25890635317E+02  0.30164798914E+01  0.18365628984E+02  0.59301945430E+02  0.50000002558E+02 0.  0.
        -12    1    1    2    0    0  0.25890635317E+02 -0.30164798914E+01 -0.18365628984E+02  0.31886054570E+02  0.00000000000E+00 0.  1.
         11    1    3    3    0    0 -0.19075065689E+02  0.14374384274E+02  0.27889648440E+02  0.36719389219E+02  0.51100000000E-03 0. -1.
        -11    1    3    3    0    0  0.71741852802E+00 -0.12392016152E+02 -0.35431053553E+01  0.12908537852E+02  0.51100000000E-03 0.  1.
         12    1    3    3    0    0 -0.75329881565E+01  0.10341117697E+01 -0.59809141009E+01  0.96740183585E+01  0.00000000000E+00 0. -1.
</event>
<event>
 7    1  0.5979290E-013  0.5930194E+02  0.7816164E-02  0.1266605E+00
        -11   -1    0    0    0    0  0.00000000000E+00  0.00000000000E+00  0.45593999997E+02  0.45594000000E+02  0.51100000000E-03 0.  1.
         11   -1    0    0    0    0 -0.00000000000E+00 -0.00000000000E+00 -0.45593999997E+02  0.45594000000E+02  0.51100000000E-03 0. -1.
    9900012    2    1    2    0    0 -0.43504581308E+01  0.29537974112E+02 -0.11193846193E+02  0.59301943593E+02  0.49999999208E+02 0.  0.
        -12    1    1    2    0    0  0.43504581308E+01 -0.29537974112E+02  0.11193846193E+02  0.31886056407E+02  0.00000000000E+00 0.  1.
         11    1    3    3    0    0 -0.50959464808E+01 -0.81244079167E+01 -0.13946514991E+02  0.16925718749E+02  0.51100000000E-03 0. -1.
        -11    1    3    3    0    0  0.94263824228E+01  0.23111179904E+02  0.44292559375E+01  0.25349588370E+02  0.51100000000E-03 0.  1.
         12    1    3    3    0    0 -0.86808940728E+01  0.14551202125E+02 -0.16765871397E+01  0.17026636474E+02  0.00000000000E+00 0. -1.
</event>
<event>
 7    1  0.5979290E-013  0.5930196E+02  0.7816164E-02  0.1266605E+00
        -11   -1    0    0    0    0  0.00000000000E+00  0.00000000000E+00  0.45593999997E+02  0.45594000000E+02  0.51100000000E-03 0.  1.
         11   -1    0    0    0    0 -0.00000000000E+00 -0.00000000000E+00 -0.45593999997E+02  0.45594000000E+02  0.51100000000E-03 0. -1.
    9900012    2    1    2    0    0  0.22233803634E+02  0.10323895724E+02 -0.20391048567E+02  0.59301957463E+02  0.50000024504E+02 0.  0.
        -12    1    1    2    0    0 -0.22233803634E+02 -0.10323895724E+02  0.20391048567E+02  0.31886042537E+02  0.00000000000E+00 0.  1.
         11    1    3    3    0    0 -0.61577914028E+01  0.19495295053E+01 -0.17747238466E+02  0.18886067184E+02  0.51100000000E-03 0. -1.
        -11    1    3    3    0    0  0.32576668336E+02  0.36445148305E+01 -0.59058013874E+01  0.33307661258E+02  0.51100000000E-03 0.  1.
        -12    1    3    3    0    0 -0.41850732987E+01  0.47298513878E+01  0.32619912859E+01  0.71082290211E+01  0.00000000000E+00 0.  1.
</event>
<event>
 7    1  0.5979290E-013  0.5930197E+02  0.7816164E-02  0.1266605E+00
        -11   -1    0    0    0    0  0.00000000000E+00  0.00000000000E+00  0.45593999997E+02  0.45594000000E+02  0.51100000000E-03 0.  1.
         11   -1    0    0    0    0 -0.00000000000E+00 -0.00000000000E+00 -0.45593999997E+02  0.45594000000E+02  0.51100000000E-03 0. -1.
    9900012    2    1    2    0    0 -0.10505357409E+02 -0.39790803839E+01 -0.29841635825E+02  0.59301971027E+02  0.50000049240E+02 0.  0.
        -12    1    1    2    0    0  0.10505357409E+02  0.39790803839E+01  0.29841635825E+02  0.31886028973E+02  0.00000000000E+00 0.  1.
         11    1    3    3    0    0  0.20350097964E+01 -0.76929569909E+01  0.47454154533E+01  0.92650860881E+01  0.51100000000E-03 0.  1.
        -11    1    3    3    0    0 -0.19230758426E+02  0.82417596487E+01 -0.36188252590E+02  0.41801175791E+02  0.51100000000E-03 0. -1.
         12    1    3    3    0    0  0.66903912205E+01 -0.45278830418E+01  0.16012013117E+01  0.82357091476E+01  0.00000000000E+00 0. -1.
</event>
<event>
 7    1  0.5979290E-013  0.5930196E+02  0.7816164E-02  0.1266605E+00
        -11   -1    0    0    0    0  0.00000000000E+00  0.00000000000E+00  0.45593999997E+02  0.45594000000E+02  0.51100000000E-03 0.  1.
         11   -1    0    0    0    0 -0.00000000000E+00 -0.00000000000E+00 -0.45593999997E+02  0.45594000000E+02  0.51100000000E-03 0. -1.
    9900012    2    1    2    0    0 -0.30745416326E+02 -0.72739887459E+01  0.43043966196E+01  0.59301962811E+02  0.50000034257E+02 0.  0.
        -12    1    1    2    0    0  0.30745416326E+02  0.72739887459E+01 -0.43043966196E+01  0.31886037189E+02  0.00000000000E+00 0.  1.
         11    1    3    3    0    0 -0.12425438484E+02 -0.14309384960E+02  0.23933572914E+02  0.30528117075E+02  0.51100000000E-03 0.  1.
        -11    1    3    3    0    0 -0.14396548547E+02  0.85849936849E+01 -0.14789442807E+02  0.22353754616E+02  0.51100000000E-03 0. -1.
         12    1    3    3    0    0 -0.39234292960E+01 -0.15495974707E+01 -0.48397334876E+01  0.64200911203E+01  0.00000000000E+00 0. -1.
</event>
<event>
 7    1  0.5979290E-013  0.5930207E+02  0.7816164E-02  0.1266604E+00
        -11   -1    0    0    0    0  0.00000000000E+00  0.00000000000E+00  0.45593999997E+02  0.45594000000E+02  0.51100000000E-03 0.  1.
         11   -1    0    0    0    0 -0.00000000000E+00 -0.00000000000E+00 -0.45593999997E+02  0.45594000000E+02  0.51100000000E-03 0. -1.
    9900012    2    1    2    0    0 -0.31846961322E+01  0.31328459128E+02 -0.50097854630E+01  0.59302069071E+02  0.50000228049E+02 0.  0.
        -12    1    1    2    0    0  0.31846961322E+01 -0.31328459128E+02  0.50097854630E+01  0.31885930929E+02  0.00000000000E+00 0.  1.
         11    1    3    3    0    0 -0.15972947456E+02  0.19220152496E+02  0.13182864154E+02  0.28254861882E+02  0.51100000000E-03 0. -1.
        -11    1    3    3    0    0  0.15681521589E+02  0.99353707773E+01 -0.79690257580E+01  0.20202155420E+02  0.51100000000E-03 0.  1.
        -12    1    3    3    0    0 -0.28932702648E+01  0.21729358549E+01 -0.10223623859E+02  0.10845051769E+02  0.00000000000E+00 0.  1.
</event>
<event>
 7    1  0.5979290E-013  0.5930196E+02  0.7816164E-02  0.1266605E+00
        -11   -1    0    0    0    0  0.00000000000E+00  0.00000000000E+00  0.45593999997E+02  0.45594000000E+02  0.51100000000E-03 0. -1.
         11   -1    0    0    0    0 -0.00000000000E+00 -0.00000000000E+00 -0.45593999997E+02  0.45594000000E+02  0.51100000000E-03 0.  1.
    9900012    2    1    2    0    0  0.26116858655E+02  0.17593009563E+02 -0.50115029414E+01  0.59301961468E+02  0.50000031807E+02 0.  0.
        -12    1    1    2    0    0 -0.26116858655E+02 -0.17593009563E+02  0.50115029414E+01  0.31886038532E+02  0.00000000000E+00 0.  1.
         11    1    3    3    0    0  0.20736433996E+02  0.11961467273E+02  0.18623394537E+02  0.30329972280E+02  0.51100000000E-03 0. -1.
        -11    1    3    3    0    0  0.84260661825E+01  0.57154892534E+01 -0.77449145210E+01  0.12792541183E+02  0.51100000000E-03 0.  1.
         12    1    3    3    0    0 -0.30456415228E+01 -0.83946962840E-01 -0.15889982957E+02  0.16179448005E+02  0.00000000000E+00 0. -1.
</event>
<event>
 7    1  0.5979290E-013  0.5930193E+02  0.7816164E-02  0.1266605E+00
        -11   -1    0    0    0    0  0.00000000000E+00  0.00000000000E+00  0.45593999997E+02  0.45594000000E+02  0.51100000000E-03 0.  1.
         11   -1    0    0    0    0 -0.00000000000E+00 -0.00000000000E+00 -0.45593999997E+02  0.45594000000E+02  0.51100000000E-03 0. -1.
    9900012    2    1    2    0    0 -0.91346977728E+01 -0.59797619440E+00 -0.30543762779E+02  0.59301925867E+02  0.49999966879E+02 0.  0.
        -12    1    1    2    0    0  0.91346977728E+01  0.59797619440E+00  0.30543762779E+02  0.31886074133E+02  0.00000000000E+00 0.  1.
         11    1    3    3    0    0 -0.17356409040E+02 -0.11375372437E+02 -0.18561655283E+02  0.27842037999E+02  0.51100000000E-03 0. -1.
        -11    1    3    3    0    0  0.12239089724E+02  0.37742158263E+00  0.31694968246E+01  0.12648457405E+02  0.51100000000E-03 0.  1.
         12    1    3    3    0    0 -0.40173784574E+01  0.10399974660E+02 -0.15151604320E+02  0.18811430463E+02  0.00000000000E+00 0. -1.
</event>
<event>
 7    1  0.6848864E-013  0.5930196E+02  0.7816164E-02  0.1266605E+00
        -11   -1    0    0    0    0  0.00000000000E+00  0.00000000000E+00  0.45593999997E+02  0.45594000000E+02  0.51100000000E-03 0.  1.
         11   -1    0    0    0    0 -0.00000000000E+00 -0.00000000000E+00 -0.45593999997E+02  0.45594000000E+02  0.51100000000E-03 0. -1.
    9900012    2    1    2    0    0  0.20961320251E+02 -0.21476367145E+02 -0.10775366339E+02  0.59301955841E+02  0.50000021544E+02 0.  0.
        -12    1    1    2    0    0 -0.20961320251E+02  0.21476367145E+02  0.10775366339E+02  0.31886044159E+02  0.00000000000E+00 0.  1.
         11    1    3    3    0    0  0.19012368331E+02 -0.29527651820E+02 -0.12949325956E+02  0.37430434335E+02  0.51100000000E-03 0. -1.
        -11    1    3    3    0    0  0.32670921243E+01 -0.27469410046E+01  0.83387800787E+01  0.93677547627E+01  0.51100000000E-03 0.  1.
         12    1    3    3    0    0 -0.13181402043E+01  0.10798225680E+02 -0.61648204621E+01  0.12503766743E+02  0.00000000000E+00 0. -1.
</event>
<event>
 7    1  0.5979290E-013  0.5930195E+02  0.7816164E-02  0.1266605E+00
        -11   -1    0    0    0    0  0.00000000000E+00  0.00000000000E+00  0.45593999997E+02  0.45594000000E+02  0.51100000000E-03 0. -1.
         11   -1    0    0    0    0 -0.00000000000E+00 -0.00000000000E+00 -0.45593999997E+02  0.45594000000E+02  0.51100000000E-03 0.  1.
    9900012    2    1    2    0    0  0.19961357050E+02 -0.15734723642E+02  0.19253123232E+02  0.59301951993E+02  0.50000014526E+02 0.  0.
        -12    1    1    2    0    0 -0.19961357050E+02  0.15734723642E+02 -0.19253123232E+02  0.31886048007E+02  0.00000000000E+00 0.  1.
         11    1    3    3    0    0  0.26034416825E+02 -0.20002456300E+02  0.10118331665E+02  0.34355054263E+02  0.51100000000E-03 0. -1.
        -11    1    3    3    0    0  0.13529951009E+01  0.12222251128E+02  0.41594382397E+01  0.12981330637E+02  0.51100000000E-03 0.  1.
         12    1    3    3    0    0 -0.74260548761E+01 -0.79545184699E+01  0.49753533266E+01  0.11965567092E+02  0.00000000000E+00 0. -1.
</event>
<event>
 7    1  0.5979290E-013  0.5930193E+02  0.7816164E-02  0.1266605E+00
        -11   -1    0    0    0    0  0.00000000000E+00  0.00000000000E+00  0.45593999997E+02  0.45594000000E+02  0.51100000000E-03 0.  1.
         11   -1    0    0    0    0 -0.00000000000E+00 -0.00000000000E+00 -0.45593999997E+02  0.45594000000E+02  0.51100000000E-03 0. -1.
    9900012    2    1    2    0    0 -0.15416245737E+02 -0.23413402458E+02 -0.15194512875E+02  0.59301932999E+02  0.49999979887E+02 0.  0.
        -12    1    1    2    0    0  0.15416245737E+02  0.23413402458E+02  0.15194512875E+02  0.31886067001E+02  0.00000000000E+00 0.  1.
         11    1    3    3    0    0 -0.24794500050E+01 -0.21709384896E+02 -0.16032245807E+02  0.27101254044E+02  0.51100000000E-03 0. -1.
        -11    1    3    3    0    0  0.28169226538E+01  0.43935600272E+00  0.12283743480E+02  0.12610251428E+02  0.51100000000E-03 0.  1.
        -12    1    3    3    0    0 -0.15753718386E+02 -0.21433735644E+01 -0.11446010548E+02  0.19590427527E+02  0.00000000000E+00 0.  1.
</event>
<event>
 7    1  0.5979290E-013  0.5930196E+02  0.7816164E-02  0.1266605E+00
        -11   -1    0    0    0    0  0.00000000000E+00  0.00000000000E+00  0.45593999997E+02  0.45594000000E+02  0.51100000000E-03 0. -1.
         11   -1    0    0    0    0 -0.00000000000E+00 -0.00000000000E+00 -0.45593999997E+02  0.45594000000E+02  0.51100000000E-03 0.  1.
    9900012    2    1    2    0    0  0.33172270013E+01  0.86226218926E+01  0.30518290969E+02  0.59301957804E+02  0.50000025125E+02 0.  0.
        -12    1    1    2    0    0 -0.33172270013E+01 -0.86226218926E+01 -0.30518290969E+02  0.31886042196E+02  0.00000000000E+00 0.  1.
         11    1    3    3    0    0 -0.18467186433E+02 -0.26604038608E+01  0.10112649126E+02  0.21222167562E+02  0.51100000000E-03 0. -1.
        -11    1    3    3    0    0  0.67833016405E+01 -0.44117072684E+01 -0.27397973320E+00  0.80963823602E+01  0.51100000000E-03 0.  1.
         12    1    3    3    0    0  0.15001111793E+02  0.15694733022E+02  0.20679621576E+02  0.29983407881E+02  0.00000000000E+00 0. -1.
</event>
<event>
 7    1  0.5979290E-013  0.5930194E+02  0.7816164E-02  0.1266605E+00
        -11   -1    0    0    0    0  0.00000000000E+00  0.00000000000E+00  0.45593999997E+02  0.45594000000E+02  0.51100000000E-03 0. -1.
         11   -1    0    0    0    0 -0.00000000000E+00 -0.00000000000E+00 -0.45593999997E+02  0.45594000000E+02  0.51100000000E-03 0.  1.
    9900012    2    1    2    0    0  0.93834910197E+01  0.16026979635E+02  0.25919234908E+02  0.59301941633E+02  0.49999995633E+02 0.  0.
        -12    1    1    2    0    0 -0.93834910197E+01 -0.16026979635E+02 -0.25919234908E+02  0.31886058367E+02  0.00000000000E+00 0.  1.
         11    1    3    3    0    0  0.17551839985E+01  0.20730402330E+02  0.30809499064E+02  0.37176006839E+02  0.51100000000E-03 0. -1.
        -11    1    3    3    0    0  0.92915226782E+01 -0.95364865614E+01 -0.85644005244E+01  0.15831169452E+02  0.51100000000E-03 0.  1.
        -12    1    3    3    0    0 -0.16632156570E+01  0.48330638665E+01  0.36741363689E+01  0.62947653424E+01  0.00000000000E+00 0.  1.
</event>
<event>
 7    1  0.6523525E-013  0.5930193E+02  0.7816164E-02  0.1266605E+00
        -11   -1    0    0    0    0  0.00000000000E+00  0.00000000000E+00  0.45593999997E+02  0.45594000000E+02  0.51100000000E-03 0. -1.
         11   -1    0    0    0    0 -0.00000000000E+00 -0.00000000000E+00 -0.45593999997E+02  0.45594000000E+02  0.51100000000E-03 0.  1.
    9900012    2    1    2    0    0  0.97683942880E+00  0.13334669039E+02  0.28947429871E+02  0.59301932357E+02  0.49999978715E+02 0.  0.
        -12    1    1    2    0    0 -0.97683942880E+00 -0.13334669039E+02 -0.28947429871E+02  0.31886067643E+02  0.00000000000E+00 0.  1.
         11    1    3    3    0    0  0.11097349268E+02  0.17598362584E+02  0.24004457276E+01  0.20943153210E+02  0.51100000000E-03 0. -1.
        -11    1    3    3    0    0 -0.54792547571E+01 -0.12326788524E+02  0.41615452764E+01  0.14117025443E+02  0.51100000000E-03 0.  1.
         12    1    3    3    0    0 -0.46412550823E+01  0.80630949784E+01  0.22385438867E+02  0.24241753704E+02  0.00000000000E+00 0. -1.
</event>
<event>
 7    1  0.5979290E-013  0.5930163E+02  0.7816164E-02  0.1266606E+00
        -11   -1    0    0    0    0  0.00000000000E+00  0.00000000000E+00  0.45593999997E+02  0.45594000000E+02  0.51100000000E-03 0.  1.
         11   -1    0    0    0    0 -0.00000000000E+00 -0.00000000000E+00 -0.45593999997E+02  0.45594000000E+02  0.51100000000E-03 0. -1.
    9900012    2    1    2    0    0  0.10740284217E+01 -0.28521975892E+02 -0.14215630662E+02  0.59301626720E+02  0.49999421304E+02 0.  0.
        -12    1    1    2    0    0 -0.10740284217E+01  0.28521975892E+02  0.14215630662E+02  0.31886373280E+02  0.00000000000E+00 0.  1.
         11    1    3    3    0    0 -0.73163735100E+01 -0.13359651225E+02 -0.30821840846E+02  0.34380161076E+02  0.51100000000E-03 0.  1.
        -11    1    3    3    0    0  0.76310039547E+01 -0.85749410525E+01  0.77177144410E+01  0.13832026311E+02  0.51100000000E-03 0. -1.
        -12    1    3    3    0    0  0.75939797694E+00 -0.65873836136E+01  0.88884957430E+01  0.11089439334E+02  0.00000000000E+00 0.  1.
</event>
<event>
 7    1  0.5979290E-013  0.5930193E+02  0.7816164E-02  0.1266605E+00
        -11   -1    0    0    0    0  0.00000000000E+00  0.00000000000E+00  0.45593999997E+02  0.45594000000E+02  0.51100000000E-03 0.  1.
         11   -1    0    0    0    0 -0.00000000000E+00 -0.00000000000E+00 -0.45593999997E+02  0.45594000000E+02  0.51100000000E-03 0. -1.
    9900012    2    1    2    0    0 -0.82709453694E+01 -0.23698560986E+02 -0.19664463326E+02  0.59301930189E+02  0.49999974762E+02 0.  0.
        -12    1    1    2    0    0  0.82709453694E+01  0.23698560986E+02  0.19664463326E+02  0.31886069811E+02  0.00000000000E+00 0.  1.
         11    1    3    3    0    0 -0.12523492442E+02 -0.81919050556E+01  0.11584384251E+02  0.18924669881E+02  0.51100000000E-03 0. -1.
        -11    1    3    3    0    0  0.11440139331E+02 -0.43098658727E+01 -0.16091219515E+02  0.20208391264E+02  0.51100000000E-03 0.  1.
         12    1    3    3    0    0 -0.71875922584E+01 -0.11196790057E+02 -0.15157628061E+02  0.20168869044E+02  0.00000000000E+00 0. -1.
</event>
<event>
 7    1  0.5979290E-013  0.5930194E+02  0.7816164E-02  0.1266605E+00
        -11   -1    0    0    0    0  0.00000000000E+00  0.00000000000E+00  0.45593999997E+02  0.45594000000E+02  0.51100000000E-03 0. -1.
         11   -1    0    0    0    0 -0.00000000000E+00 -0.00000000000E+00 -0.45593999997E+02  0.45594000000E+02  0.51100000000E-03 0.  1.
    9900012    2    1    2    0    0  0.18892440859E+02  0.21971628576E+02  0.13305793797E+02  0.59301938273E+02  0.49999989504E+02 0.  0.
        -12    1    1    2    0    0 -0.18892440859E+02 -0.21971628576E+02 -0.13305793797E+02  0.31886061727E+02  0.00000000000E+00 0.  1.
         11    1    3    3    0    0  0.10591824426E+02  0.43762758509E+01  0.23146468806E+02  0.25828231714E+02  0.51100000000E-03 0. -1.
        -11    1    3    3    0    0 -0.60952866411E+01  0.15955390973E+02 -0.26019103513E+01  0.17277064510E+02  0.51100000000E-03 0.  1.
        -12    1    3    3    0    0  0.14395903075E+02  0.16399617519E+01 -0.72387646580E+01  0.16196642049E+02  0.00000000000E+00 0.  1.
</event>
<event>
 7    1  0.5979290E-013  0.5930194E+02  0.7816164E-02  0.1266605E+00
        -11   -1    0    0    0    0  0.00000000000E+00  0.00000000000E+00  0.45593999997E+02  0.45594000000E+02  0.51100000000E-03 0. -1.
         11   -1    0    0    0    0 -0.00000000000E+00 -0.00000000000E+00 -0.45593999997E+02  0.45594000000E+02  0.51100000000E-03 0.  1.
    9900012    2    1    2    0    0  0.98413566777E+01 -0.10808419214E+02  0.28338074881E+02  0.59301941681E+02  0.49999995720E+02 0.  0.
        -12    1    1    2    0    0 -0.98413566777E+01  0.10808419214E+02 -0.28338074881E+02  0.31886058319E+02  0.00000000000E+00 0.  1.
         11    1    3    3    0    0 -0.83141139898E+00 -0.11671659120E+02  0.99022189747E+01  0.15328822930E+02  0.51100000000E-03 0. -1.
        -11    1    3    3    0    0  0.15981504596E+02  0.73760761134E+01 -0.56320718186E+01  0.18480671558E+02  0.51100000000E-03 0.  1.
        -12    1    3    3    0    0 -0.53087365198E+01 -0.65128362069E+01  0.24067927725E+02  0.25492447193E+02  0.00000000000E+00 0.  1.
</event>
<event>
 7    1  0.5979290E-013  0.5930193E+02  0.7816164E-02  0.1266605E+00
        -11   -1    0    0    0    0  0.00000000000E+00  0.00000000000E+00  0.45593999997E+02  0.45594000000E+02  0.51100000000E-03 0.  1.
         11   -1    0    0    0    0 -0.00000000000E+00 -0.00000000000E+00 -0.45593999997E+02  0.45594000000E+02  0.51100000000E-03 0. -1.
    9900012    2    1    2    0    0 -0.79146271372E+01 -0.10721711951E+02 -0.28967649697E+02  0.59301934723E+02  0.49999983030E+02 0.  0.
        -12    1    1    2    0    0  0.79146271372E+01  0.10721711951E+02  0.28967649697E+02  0.31886065277E+02  0.00000000000E+00 0.  1.
         11    1    3    3    0    0 -0.76396384854E+01  0.10056500237E+00  0.11543404065E+00  0.76411723437E+01  0.51100000000E-03 0. -1.
        -11    1    3    3    0    0  0.12776573298E+02 -0.81746302360E+01  0.42614543948E+01  0.15755170534E+02  0.51100000000E-03 0.  1.
        -12    1    3    3    0    0 -0.13051561950E+02 -0.26476467178E+01 -0.33344538132E+02  0.35905591845E+02  0.00000000000E+00 0.  1.
</event>
<event>
 7    1  0.8109734E-013  0.5930186E+02  0.7816164E-02  0.1266605E+00
        -11   -1    0    0    0    0  0.00000000000E+00  0.00000000000E+00  0.45593999997E+02  0.45594000000E+02  0.51100000000E-03 0. -1.
         11   -1    0    0    0    0 -0.00000000000E+00 -0.00000000000E+00 -0.45593999997E+02  0.45594000000E+02  0.51100000000E-03 0.  1.
    9900012    2    1    2    0    0 -0.10949342661E+01 -0.18186225253E+02  0.26168458966E+02  0.59301860148E+02  0.49999847024E+02 0.  0.
        -12    1    1    2    0    0  0.10949342661E+01  0.18186225253E+02 -0.26168458966E+02  0.31886139852E+02  0.00000000000E+00 0.  1.
         11    1    3    3    0    0  0.11631751557E+02  0.45104265813E+01  0.23606489176E+02  0.26700335648E+02  0.51100000000E-03 0. -1.
        -11    1    3    3    0    0 -0.66075191099E+01 -0.72593701162E+01 -0.82191990153E+01  0.12802851088E+02  0.51100000000E-03 0.  1.
         12    1    3    3    0    0 -0.61191667128E+01 -0.15437281718E+02  0.10781168805E+02  0.19798673413E+02  0.00000000000E+00 0. -1.
</event>
<event>
 7    1  0.5979290E-013  0.5930193E+02  0.7816164E-02  0.1266605E+00
        -11   -1    0    0    0    0  0.00000000000E+00  0.00000000000E+00  0.45593999997E+02  0.45594000000E+02  0.51100000000E-03 0. -1.
         11   -1    0    0    0    0 -0.00000000000E+00 -0.00000000000E+00 -0.45593999997E+02  0.45594000000E+02  0.51100000000E-03 0.  1.
    9900012    2    1    2    0    0 -0.38832699399E+01 -0.30177119658E+02  0.95385155938E+01  0.59301927554E+02  0.49999969957E+02 0.  0.
        -12    1    1    2    0    0  0.38832699399E+01  0.30177119658E+02 -0.95385155938E+01  0.31886072446E+02  0.00000000000E+00 0.  1.
         11    1    3    3    0    0 -0.94275048710E+01 -0.31818107020E+02  0.13469448658E+02  0.35814743191E+02  0.51100000000E-03 0. -1.
        -11    1    3    3    0    0  0.35438631127E+01  0.95679698645E+01 -0.92184741331E+01  0.13750828291E+02  0.51100000000E-03 0.  1.
        -12    1    3    3    0    0  0.20003718185E+01 -0.79269825028E+01  0.52875410694E+01  0.97363560726E+01  0.00000000000E+00 0.  1.
</event>
<event>
 7    1  0.5979290E-013  0.5930197E+02  0.7816164E-02  0.1266605E+00
        -11   -1    0    0    0    0  0.00000000000E+00  0.00000000000E+00  0.45593999997E+02  0.45594000000E+02  0.51100000000E-03 0.  1.
         11   -1    0    0    0    0 -0.00000000000E+00 -0.00000000000E+00 -0.45593999997E+02  0.45594000000E+02  0.51100000000E-03 0. -1.
    9900012    2    1    2    0    0  0.83052658989E+01  0.14523198894E+02 -0.27144399912E+02  0.59301965528E+02  0.50000039211E+02 0.  0.
        -12    1    1    2    0    0 -0.83052658989E+01 -0.14523198894E+02  0.27144399912E+02  0.31886034472E+02  0.00000000000E+00 0.  1.
         11    1    3    3    0    0  0.16299453240E+02 -0.68416667090E+01 -0.31424012763E+02  0.36054807691E+02  0.51100000000E-03 0. -1.
        -11    1    3    3    0    0 -0.35758973501E+01  0.10597938659E+02  0.15361101378E+01  0.11289950411E+02  0.51100000000E-03 0.  1.
         12    1    3    3    0    0 -0.44182899909E+01  0.10766926945E+02  0.27435027125E+01  0.11957207425E+02  0.00000000000E+00 0. -1.
</event>
<event>
 7    1  0.5979290E-013  0.5930197E+02  0.7816164E-02  0.1266605E+00
        -11   -1    0    0    0    0  0.00000000000E+00  0.00000000000E+00  0.45593999997E+02  0.45594000000E+02  0.51100000000E-03 0. -1.
         11   -1    0    0    0    0 -0.00000000000E+00 -0.00000000000E+00 -0.45593999997E+02  0.45594000000E+02  0.51100000000E-03 0.  1.
    9900012    2    1    2    0    0 -0.53819290048E+01  0.18743296631E+02  0.25227818882E+02  0.59301965848E+02  0.50000039795E+02 0.  0.
        -12    1    1    2    0    0  0.53819290048E+01 -0.18743296631E+02 -0.25227818882E+02  0.31886034152E+02  0.00000000000E+00 0.  1.
         11    1    3    3    0    0 -0.67289675674E+00  0.69434062000E+01  0.39757090438E+01  0.80293176775E+01  0.51100000000E-03 0. -1.
        -11    1    3    3    0    0 -0.18011678504E+02  0.61656332010E+01 -0.63912590267E+01  0.20081926888E+02  0.51100000000E-03 0.  1.
        -12    1    3    3    0    0  0.13302646256E+02  0.56342572303E+01  0.27643368865E+02  0.31190721283E+02  0.00000000000E+00 0.  1.
</event>
<event>
 7    1  0.5979290E-013  0.5930184E+02  0.7816164E-02  0.1266605E+00
        -11   -1    0    0    0    0  0.00000000000E+00  0.00000000000E+00  0.45593999997E+02  0.45594000000E+02  0.51100000000E-03 0.  1.
         11   -1    0    0    0    0 -0.00000000000E+00 -0.00000000000E+00 -0.45593999997E+02  0.45594000000E+02  0.51100000000E-03 0. -1.
    9900012    2    1    2    0    0  0.18159149457E+02  0.20305590887E+02 -0.16572741913E+02  0.59301835214E+02  0.49999801549E+02 0.  0.
        -12    1    1    2    0    0 -0.18159149457E+02 -0.20305590887E+02  0.16572741913E+02  0.31886164786E+02  0.00000000000E+00 0.  1.
         11    1    3    3    0    0  0.79860358293E+01  0.51602748545E+00 -0.31485085180E+02  0.32486206946E+02  0.51100000000E-03 0. -1.
        -11    1    3    3    0    0  0.32582932772E+01  0.76349589033E+01  0.57165708692E+01  0.10079099925E+02  0.51100000000E-03 0.  1.
         12    1    3    3    0    0  0.69148203506E+01  0.12154604498E+02  0.91957723977E+01  0.16736528343E+02  0.00000000000E+00 0. -1.
</event>
<event>
 7    1  0.5979290E-013  0.5930195E+02  0.7816164E-02  0.1266605E+00
        -11   -1    0    0    0    0  0.00000000000E+00  0.00000000000E+00  0.45593999997E+02  0.45594000000E+02  0.51100000000E-03 0. -1.
         11   -1    0    0    0    0 -0.00000000000E+00 -0.00000000000E+00 -0.45593999997E+02  0.45594000000E+02  0.51100000000E-03 0.  1.
    9900012    2    1    2    0    0 -0.11452254754E+01 -0.30304071534E+02  0.98525215023E+01  0.59301945480E+02  0.50000002648E+02 0.  0.
        -12    1    1    2    0    0  0.11452254754E+01  0.30304071534E+02 -0.98525215023E+01  0.31886054520E+02  0.00000000000E+00 0.  1.
         11    1    3    3    0    0 -0.13372216716E+02 -0.46935108484E+01  0.86855695977E+01  0.16621803256E+02  0.51100000000E-03 0. -1.
        -11    1    3    3    0    0  0.21781072961E+02 -0.17756267242E+02 -0.54921880688E+01  0.28633272529E+02  0.51100000000E-03 0.  1.
        -12    1    3    3    0    0 -0.95540817204E+01 -0.78542934439E+01  0.66591399734E+01  0.14046869694E+02  0.00000000000E+00 0.  1.
</event>
<event>
 7    1  0.5979290E-013  0.5930198E+02  0.7816164E-02  0.1266605E+00
        -11   -1    0    0    0    0  0.00000000000E+00  0.00000000000E+00  0.45593999997E+02  0.45594000000E+02  0.51100000000E-03 0.  1.
         11   -1    0    0    0    0 -0.00000000000E+00 -0.00000000000E+00 -0.45593999997E+02  0.45594000000E+02  0.51100000000E-03 0. -1.
    9900012    2    1    2    0    0  0.12848637499E+01  0.13947037958E+02 -0.28645204190E+02  0.59301976953E+02  0.50000060049E+02 0.  0.
        -12    1    1    2    0    0 -0.12848637499E+01 -0.13947037958E+02  0.28645204190E+02  0.31886023047E+02  0.00000000000E+00 0.  1.
         11    1    3    3    0    0 -0.19698972799E+02  0.13529793185E+02 -0.15151318641E+02  0.28296064917E+02  0.51100000000E-03 0.  1.
        -11    1    3    3    0    0  0.20978327698E+02 -0.47467003922E+00 -0.17238455721E+02  0.27156581165E+02  0.51100000000E-03 0. -1.
        -12    1    3    3    0    0  0.55088502704E-02  0.89191481245E+00  0.37445701727E+01  0.38493308715E+01  0.00000000000E+00 0.  1.
</event>
<event>
 7    1  0.5979290E-013  0.5930186E+02  0.7816164E-02  0.1266605E+00
        -11   -1    0    0    0    0  0.00000000000E+00  0.00000000000E+00  0.45593999997E+02  0.45594000000E+02  0.51100000000E-03 0. -1.
         11   -1    0    0    0    0 -0.00000000000E+00 -0.00000000000E+00 -0.45593999997E+02  0.45594000000E+02  0.51100000000E-03 0.  1.
    9900012    2    1    2    0    0 -0.54735598960E+01 -0.27119093684E+02  0.15853103117E+02  0.59301859145E+02  0.49999845194E+02 0.  0.
        -12    1    1    2    0    0  0.54735598960E+01  0.27119093684E+02 -0.15853103117E+02  0.31886140855E+02  0.00000000000E+00 0.  1.
         11    1    3    3    0    0 -0.20177299691E+01 -0.36716704680E+01  0.20414446456E+02  0.20839914170E+02  0.51100000000E-03 0. -1.
        -11    1    3    3    0    0  0.10263511587E+02 -0.36232592205E+01 -0.87837831690E+01  0.13986512235E+02  0.51100000000E-03 0.  1.
        -12    1    3    3    0    0 -0.13719341514E+02 -0.19824163996E+02  0.42224398307E+01  0.24475432740E+02  0.00000000000E+00 0.  1.
</event>
<event>
 7    1  0.5979290E-013  0.5930195E+02  0.7816164E-02  0.1266605E+00
        -11   -1    0    0    0    0  0.00000000000E+00  0.00000000000E+00  0.45593999997E+02  0.45594000000E+02  0.51100000000E-03 0. -1.
         11   -1    0    0    0    0 -0.00000000000E+00 -0.00000000000E+00 -0.45593999997E+02  0.45594000000E+02  0.51100000000E-03 0.  1.
    9900012    2    1    2    0    0 -0.79980196324E+01 -0.12488609110E+01  0.30841408724E+02  0.59301945624E+02  0.50000002911E+02 0.  0.
        -12    1    1    2    0    0  0.79980196324E+01  0.12488609110E+01 -0.30841408724E+02  0.31886054376E+02  0.00000000000E+00 0.  1.
         11    1    3    3    0    0 -0.16551151081E+02 -0.11713055291E+02  0.28456515717E+02  0.34941516186E+02  0.51100000000E-03 0. -1.
        -11    1    3    3    0    0  0.13252138464E+02  0.66987490507E+01  0.73382803242E+01  0.16563295901E+02  0.51100000000E-03 0.  1.
        -12    1    3    3    0    0 -0.46990070158E+01  0.37654453297E+01 -0.49533873178E+01  0.77971335364E+01  0.00000000000E+00 0.  1.
</event>
<event>
 7    1  0.5979290E-013  0.5930202E+02  0.7816164E-02  0.1266605E+00
        -11   -1    0    0    0    0  0.00000000000E+00  0.00000000000E+00  0.45593999997E+02  0.45594000000E+02  0.51100000000E-03 0. -1.
         11   -1    0    0    0    0 -0.00000000000E+00 -0.00000000000E+00 -0.45593999997E+02  0.45594000000E+02  0.51100000000E-03 0.  1.
    9900012    2    1    2    0    0 -0.11835734107E+02 -0.20469277646E+02  0.21392523872E+02  0.59302015511E+02  0.50000130369E+02 0.  0.
        -12    1    1    2    0    0  0.11835734107E+02  0.20469277646E+02 -0.21392523872E+02  0.31885984489E+02  0.00000000000E+00 0.  1.
         11    1    3    3    0    0 -0.25307499292E+02 -0.38524433457E+01  0.12410382215E+02  0.28448698162E+02  0.51100000000E-03 0. -1.
        -11    1    3    3    0    0  0.12199853455E+02 -0.19321153549E+02  0.16200851955E+01  0.22907816899E+02  0.51100000000E-03 0.  1.
        -12    1    3    3    0    0  0.12719117297E+01  0.27043192494E+01  0.73620564617E+01  0.79455004497E+01  0.00000000000E+00 0.  1.
</event>
<event>
 7    1  0.5979290E-013  0.5930196E+02  0.7816164E-02  0.1266605E+00
        -11   -1    0    0    0    0  0.00000000000E+00  0.00000000000E+00  0.45593999997E+02  0.45594000000E+02  0.51100000000E-03 0.  1.
         11   -1    0    0    0    0 -0.00000000000E+00 -0.00000000000E+00 -0.45593999997E+02  0.45594000000E+02  0.51100000000E-03 0. -1.
    9900012    2    1    2    0    0  0.65685970970E+01  0.15773459340E+02 -0.26921567325E+02  0.59301964269E+02  0.50000036916E+02 0.  0.
        -12    1    1    2    0    0 -0.65685970970E+01 -0.15773459340E+02  0.26921567325E+02  0.31886035731E+02  0.00000000000E+00 0.  1.
         11    1    3    3    0    0  0.24690884114E+02 -0.70116026846E+00 -0.20430233116E+02  0.32055043433E+02  0.51100000000E-03 0. -1.
        -11    1    3    3    0    0 -0.18275002602E+02  0.12410906014E+02 -0.39210383506E+01  0.22436150521E+02  0.51100000000E-03 0.  1.
         12    1    3    3    0    0  0.15271558441E+00  0.40637135939E+01 -0.25702958586E+01  0.48107703150E+01  0.00000000000E+00 0. -1.
</event>
<event>
 7    1  0.7048895E-013  0.5930172E+02  0.7816164E-02  0.1266606E+00
        -11   -1    0    0    0    0  0.00000000000E+00  0.00000000000E+00  0.45593999997E+02  0.45594000000E+02  0.51100000000E-03 0.  1.
         11   -1    0    0    0    0 -0.00000000000E+00 -0.00000000000E+00 -0.45593999997E+02  0.45594000000E+02  0.51100000000E-03 0. -1.
    9900012    2    1    2    0    0 -0.23778387290E+02  0.12763539624E+02 -0.16982798572E+02  0.59301716222E+02  0.49999584536E+02 0.  0.
        -12    1    1    2    0    0  0.23778387290E+02 -0.12763539624E+02  0.16982798572E+02  0.31886283778E+02  0.00000000000E+00 0.  1.
         11    1    3    3    0    0 -0.25374879383E+02  0.62755582963E+01 -0.24483435199E+02  0.35814881474E+02  0.51100000000E-03 0. -1.
        -11    1    3    3    0    0 -0.48229792062E+01 -0.55592315938E+01  0.64662719538E+01  0.97968799921E+01  0.51100000000E-03 0.  1.
         12    1    3    3    0    0  0.64194712989E+01  0.12047212921E+02  0.10343646740E+01  0.13689954756E+02  0.00000000000E+00 0. -1.
</event>
<event>
 7    1  0.5979290E-013  0.5930195E+02  0.7816164E-02  0.1266605E+00
        -11   -1    0    0    0    0  0.00000000000E+00  0.00000000000E+00  0.45593999997E+02  0.45594000000E+02  0.51100000000E-03 0.  1.
         11   -1    0    0    0    0 -0.00000000000E+00 -0.00000000000E+00 -0.45593999997E+02  0.45594000000E+02  0.51100000000E-03 0. -1.
    9900012    2    1    2    0    0  0.15374995427E+01 -0.12080460813E+02 -0.29468950137E+02  0.59301945674E+02  0.50000003003E+02 0.  0.
        -12    1    1    2    0    0 -0.15374995427E+01  0.12080460813E+02  0.29468950137E+02  0.31886054326E+02  0.00000000000E+00 0.  1.
         11    1    3    3    0    0  0.82560763283E+01 -0.24102915393E+02 -0.91108134944E+01  0.27057720702E+02  0.51100000000E-03 0. -1.
        -11    1    3    3    0    0 -0.48210118050E+01  0.84395275947E+01  0.16562856669E+01  0.98595670958E+01  0.51100000000E-03 0.  1.
         12    1    3    3    0    0 -0.18975649806E+01  0.35829269857E+01 -0.22014422309E+02  0.22384657877E+02  0.00000000000E+00 0. -1.
</event>
<event>
 7    1  0.5979290E-013  0.5930192E+02  0.7816164E-02  0.1266605E+00
        -11   -1    0    0    0    0  0.00000000000E+00  0.00000000000E+00  0.45593999997E+02  0.45594000000E+02  0.51100000000E-03 0. -1.
         11   -1    0    0    0    0 -0.00000000000E+00 -0.00000000000E+00 -0.45593999997E+02  0.45594000000E+02  0.51100000000E-03 0.  1.
    9900012    2    1    2    0    0  0.25009186831E+02  0.96986389274E+01  0.17239469276E+02  0.59301916454E+02  0.49999949713E+02 0.  0.
        -12    1    1    2    0    0 -0.25009186831E+02 -0.96986389274E+01 -0.17239469276E+02  0.31886083546E+02  0.00000000000E+00 0.  1.
         11    1    3    3    0    0 -0.41080386924E+01 -0.24210169233E+01  0.11229132304E+02  0.12199619560E+02  0.51100000000E-03 0. -1.
        -11    1    3    3    0    0  0.30804715840E+02  0.16223027332E+02  0.14349199444E+02  0.37656561962E+02  0.51100000000E-03 0.  1.
        -12    1    3    3    0    0 -0.16874903170E+01 -0.41033714816E+01 -0.83388624727E+01  0.94457349330E+01  0.00000000000E+00 0.  1.
</event>
<event>
 7    1  0.5979290E-013  0.5930196E+02  0.7816164E-02  0.1266605E+00
        -11   -1    0    0    0    0  0.00000000000E+00  0.00000000000E+00  0.45593999997E+02  0.45594000000E+02  0.51100000000E-03 0.  1.
         11   -1    0    0    0    0 -0.00000000000E+00 -0.00000000000E+00 -0.45593999997E+02  0.45594000000E+02  0.51100000000E-03 0. -1.
    9900012    2    1    2    0    0 -0.14008228416E+02 -0.27312290443E+02  0.86329578893E+01  0.59301958626E+02  0.50000026624E+02 0.  0.
        -12    1    1    2    0    0  0.14008228416E+02  0.27312290443E+02 -0.86329578893E+01  0.31886041374E+02  0.00000000000E+00 0.  1.
         11    1    3    3    0    0  0.58753846619E+01  0.56920450606E+01 -0.87895992906E+01  0.12007355156E+02  0.51100000000E-03 0. -1.
        -11    1    3    3    0    0 -0.18091829906E+02 -0.34421859498E+02  0.20100468678E+02  0.43774508130E+02  0.51100000000E-03 0.  1.
        -12    1    3    3    0    0 -0.17917831717E+01  0.14175239948E+01 -0.26779114981E+01  0.35200953399E+01  0.00000000000E+00 0.  1.
</event>
<event>
 7    1  0.5979290E-013  0.5930195E+02  0.7816164E-02  0.1266605E+00
        -11   -1    0    0    0    0  0.00000000000E+00  0.00000000000E+00  0.45593999997E+02  0.45594000000E+02  0.51100000000E-03 0.  1.
         11   -1    0    0    0    0 -0.00000000000E+00 -0.00000000000E+00 -0.45593999997E+02  0.45594000000E+02  0.51100000000E-03 0. -1.
    9900012    2    1    2    0    0 -0.32194300454E+01  0.12861723841E+02 -0.28998817486E+02  0.59301951553E+02  0.50000013725E+02 0.  0.
        -12    1    1    2    0    0  0.32194300454E+01 -0.12861723841E+02  0.28998817486E+02  0.31886048447E+02  0.00000000000E+00 0.  1.
         11    1    3    3    0    0  0.39467749809E+01  0.15020021786E+02  0.67166431094E+01  0.16920147225E+02  0.51100000000E-03 0.  1.
        -11    1    3    3    0    0 -0.14895032000E+02 -0.22529547610E+01 -0.24499358272E+02  0.28760325788E+02  0.51100000000E-03 0. -1.
         12    1    3    3    0    0  0.77288269733E+01  0.94656816294E-01 -0.11216102323E+02  0.13621478540E+02  0.00000000000E+00 0. -1.
</event>
<event>
 7    1  0.5979290E-013  0.5930195E+02  0.7816164E-02  0.1266605E+00
        -11   -1    0    0    0    0  0.00000000000E+00  0.00000000000E+00  0.45593999997E+02  0.45594000000E+02  0.51100000000E-03 0.  1.
         11   -1    0    0    0    0 -0.00000000000E+00 -0.00000000000E+00 -0.45593999997E+02  0.45594000000E+02  0.51100000000E-03 0. -1.
    9900012    2    1    2    0    0 -0.17665997330E+02 -0.14680272018E+02 -0.22116111062E+02  0.59301949497E+02  0.50000009975E+02 0.  0.
        -12    1    1    2    0    0  0.17665997330E+02  0.14680272018E+02  0.22116111062E+02  0.31886050503E+02  0.00000000000E+00 0.  1.
         11    1    3    3    0    0  0.13704797876E+02  0.37551384384E+01 -0.63025081858E+01  0.15544907822E+02  0.51100000000E-03 0.  1.
        -11    1    3    3    0    0 -0.74513372034E+01 -0.22312385028E+01  0.39782732483E+01  0.87365616620E+01  0.51100000000E-03 0. -1.
         12    1    3    3    0    0 -0.23919458002E+02 -0.16204171954E+02 -0.19791876124E+02  0.35020480013E+02  0.00000000000E+00 0. -1.
</event>
<event>
 7    1  0.5979290E-013  0.5930188E+02  0.7816164E-02  0.1266605E+00
        -11   -1    0    0    0    0  0.00000000000E+00  0.00000000000E+00  0.45593999997E+02  0.45594000000E+02  0.51100000000E-03 0. -1.
         11   -1    0    0    0    0 -0.00000000000E+00 -0.00000000000E+00 -0.45593999997E+02  0.45594000000E+02  0.51100000000E-03 0.  1.
    9900012    2    1    2    0    0  0.24405770676E+02 -0.18192795352E+02  0.94923597166E+01  0.59301884871E+02  0.49999892113E+02 0.  0.
        -12    1    1    2    0    0 -0.24405770676E+02  0.18192795352E+02 -0.94923597166E+01  0.31886115129E+02  0.00000000000E+00 0.  1.
         11    1    3    3    0    0  0.25322270861E+01 -0.17504034262E+02  0.11004990213E+02  0.20830583269E+02  0.51100000000E-03 0. -1.
        -11    1    3    3    0    0  0.25504998781E+02  0.63976888357E+01 -0.87481728252E+01  0.27712197916E+02  0.51100000000E-03 0.  1.
        -12    1    3    3    0    0 -0.36314551915E+01 -0.70864499254E+01  0.72355423293E+01  0.10759103687E+02  0.00000000000E+00 0.  1.
</event>
<event>
 7    1  0.5979290E-013  0.5930191E+02  0.7816164E-02  0.1266605E+00
        -11   -1    0    0    0    0  0.00000000000E+00  0.00000000000E+00  0.45593999997E+02  0.45594000000E+02  0.51100000000E-03 0. -1.
         11   -1    0    0    0    0 -0.00000000000E+00 -0.00000000000E+00 -0.45593999997E+02  0.45594000000E+02  0.51100000000E-03 0.  1.
    9900012    2    1    2    0    0 -0.17893176299E+02 -0.21000674547E+02  0.15985255732E+02  0.59301913845E+02  0.49999944953E+02 0.  0.
        -12    1    1    2    0    0  0.17893176299E+02  0.21000674547E+02 -0.15985255732E+02  0.31886086155E+02  0.00000000000E+00 0.  1.
         11    1    3    3    0    0 -0.73298675950E+00 -0.40800577374E+01 -0.13278432350E+02  0.13910460332E+02  0.51100000000E-03 0.  1.
        -11    1    3    3    0    0 -0.16168391796E+02 -0.19941394674E+02  0.12917891499E+02  0.28739311681E+02  0.51100000000E-03 0. -1.
         12    1    3    3    0    0 -0.99179774369E+00  0.30207778650E+01  0.16345796582E+02  0.16652141832E+02  0.00000000000E+00 0. -1.
</event>
<event>
 7    1  0.5979290E-013  0.5930196E+02  0.7816164E-02  0.1266605E+00
        -11   -1    0    0    0    0  0.00000000000E+00  0.00000000000E+00  0.45593999997E+02  0.45594000000E+02  0.51100000000E-03 0.  1.
         11   -1    0    0    0    0 -0.00000000000E+00 -0.00000000000E+00 -0.45593999997E+02  0.45594000000E+02  0.51100000000E-03 0. -1.
    9900012    2    1    2    0    0  0.17132406127E+02 -0.11004582119E+02 -0.24537718270E+02  0.59301956263E+02  0.50000022314E+02 0.  0.
        -12    1    1    2    0    0 -0.17132406127E+02  0.11004582119E+02  0.24537718270E+02  0.31886043737E+02  0.00000000000E+00 0.  1.
         11    1    3    3    0    0  0.16091250218E+02 -0.10682965706E+02 -0.30063813037E+02  0.35733554881E+02  0.51100000000E-03 0. -1.
        -11    1    3    3    0    0 -0.62499094483E+01  0.79122032843E+01 -0.19503962666E+01  0.10269779685E+02  0.51100000000E-03 0.  1.
         12    1    3    3    0    0  0.72910653571E+01 -0.82338196973E+01  0.74764910335E+01  0.13298621696E+02  0.00000000000E+00 0. -1.
</event>
<event>
 7    1  0.5979290E-013  0.5930195E+02  0.7816164E-02  0.1266605E+00
        -11   -1    0    0    0    0  0.00000000000E+00  0.00000000000E+00  0.45593999997E+02  0.45594000000E+02  0.51100000000E-03 0. -1.
         11   -1    0    0    0    0 -0.00000000000E+00 -0.00000000000E+00 -0.45593999997E+02  0.45594000000E+02  0.51100000000E-03 0.  1.
    9900012    2    1    2    0    0 -0.28766312854E+02  0.28084794259E+01 -0.13465956565E+02  0.59301948220E+02  0.50000007646E+02 0.  0.
        -12    1    1    2    0    0  0.28766312854E+02 -0.28084794259E+01  0.13465956565E+02  0.31886051780E+02  0.00000000000E+00 0.  1.
         11    1    3    3    0    0 -0.25887958482E+02  0.14176202128E+02 -0.72024285142E+01  0.30381344241E+02  0.51100000000E-03 0. -1.
        -11    1    3    3    0    0  0.25467084851E+01 -0.71318964944E+01  0.92465540287E+01  0.11951921744E+02  0.51100000000E-03 0.  1.
        -12    1    3    3    0    0 -0.54250628572E+01 -0.42358262079E+01 -0.15510082080E+02  0.16968682235E+02  0.00000000000E+00 0.  1.
</event>
<event>
 7    1  0.5979290E-013  0.5930195E+02  0.7816164E-02  0.1266605E+00
        -11   -1    0    0    0    0  0.00000000000E+00  0.00000000000E+00  0.45593999997E+02  0.45594000000E+02  0.51100000000E-03 0.  1.
         11   -1    0    0    0    0 -0.00000000000E+00 -0.00000000000E+00 -0.45593999997E+02  0.45594000000E+02  0.51100000000E-03 0. -1.
    9900012    2    1    2    0    0 -0.29657554155E+02  0.84393653734E+00 -0.11680656062E+02  0.59301945471E+02  0.50000002633E+02 0.  0.
        -12    1    1    2    0    0  0.29657554155E+02 -0.84393653734E+00  0.11680656062E+02  0.31886054529E+02  0.00000000000E+00 0.  1.
         11    1    3    3    0    0  0.26292802153E+01  0.19637735696E+01 -0.24316160152E+02  0.24536608688E+02  0.51100000000E-03 0. -1.
        -11    1    3    3    0    0 -0.12239706181E+02 -0.62902535824E+00  0.59770520589E+01  0.13635660302E+02  0.51100000000E-03 0.  1.
         12    1    3    3    0    0 -0.20047128190E+02 -0.49081167402E+00  0.66584520316E+01  0.21129676482E+02  0.00000000000E+00 0. -1.
</event>
<event>
 7    1  0.6045421E-013  0.5930195E+02  0.7816164E-02  0.1266605E+00
        -11   -1    0    0    0    0  0.00000000000E+00  0.00000000000E+00  0.45593999997E+02  0.45594000000E+02  0.51100000000E-03 0. -1.
         11   -1    0    0    0    0 -0.00000000000E+00 -0.00000000000E+00 -0.45593999997E+02  0.45594000000E+02  0.51100000000E-03 0.  1.
    9900012    2    1    2    0    0 -0.21620455904E+01  0.97737894997E+01  0.30274061327E+02  0.59301949891E+02  0.50000010693E+02 0.  0.
        -12    1    1    2    0    0  0.21620455904E+01 -0.97737894997E+01 -0.30274061327E+02  0.31886050109E+02  0.00000000000E+00 0.  1.
         11    1    3    3    0    0 -0.38880422412E+01 -0.26897565693E+01  0.31628845760E+02  0.31980236823E+02  0.51100000000E-03 0. -1.
        -11    1    3    3    0    0 -0.83770504829E+01 -0.24720977256E+01 -0.29514130170E+01  0.92193861518E+01  0.51100000000E-03 0.  1.
         12    1    3    3    0    0  0.10103047134E+02  0.14935643795E+02  0.15966285839E+01  0.18102326916E+02  0.00000000000E+00 0. -1.
</event>
<event>
 7    1  0.5979290E-013  0.5930195E+02  0.7816164E-02  0.1266605E+00
        -11   -1    0    0    0    0  0.00000000000E+00  0.00000000000E+00  0.45593999997E+02  0.45594000000E+02  0.51100000000E-03 0. -1.
         11   -1    0    0    0    0 -0.00000000000E+00 -0.00000000000E+00 -0.45593999997E+02  0.45594000000E+02  0.51100000000E-03 0.  1.
    9900012    2    1    2    0    0 -0.14392585711E+02  0.20509580650E+02  0.19721328933E+02  0.59301949182E+02  0.50000009400E+02 0.  0.
        -12    1    1    2    0    0  0.14392585711E+02 -0.20509580650E+02 -0.19721328933E+02  0.31886050818E+02  0.00000000000E+00 0.  1.
         11    1    3    3    0    0  0.26337505499E+01 -0.75763844633E+01  0.24588494573E+02  0.25863725739E+02  0.51100000000E-03 0. -1.
        -11    1    3    3    0    0 -0.71808630758E+01  0.12161662558E+02 -0.40743187533E+01  0.14699350470E+02  0.51100000000E-03 0.  1.
         12    1    3    3    0    0 -0.98454731851E+01  0.15924302555E+02 -0.79284688577E+00  0.18738872973E+02  0.00000000000E+00 0. -1.
</event>
<event>
 7    1  0.5979290E-013  0.5930194E+02  0.7816164E-02  0.1266605E+00
        -11   -1    0    0    0    0  0.00000000000E+00  0.00000000000E+00  0.45593999997E+02  0.45594000000E+02  0.51100000000E-03 0. -1.
         11   -1    0    0    0    0 -0.00000000000E+00 -0.00000000000E+00 -0.45593999997E+02  0.45594000000E+02  0.51100000000E-03 0.  1.
    9900012    2    1    2    0    0  0.14861797353E+01  0.14552475286E+01  0.31818141084E+02  0.59301943837E+02  0.49999999652E+02 0.  0.
        -12    1    1    2    0    0 -0.14861797353E+01 -0.14552475286E+01 -0.31818141084E+02  0.31886056163E+02  0.00000000000E+00 0.  1.
         11    1    3    3    0    0 -0.10900261085E+02  0.78950738377E+01 -0.80094284150E+01  0.15662018593E+02  0.51100000000E-03 0. -1.
        -11    1    3    3    0    0  0.14035121984E+02 -0.36427203982E+01  0.34123662446E+02  0.37076655728E+02  0.51100000000E-03 0.  1.
         12    1    3    3    0    0 -0.16486811640E+01 -0.27971059109E+01  0.57039070534E+01  0.65632695153E+01  0.00000000000E+00 0. -1.
</event>
<event>
 7    1  0.5979290E-013  0.5930195E+02  0.7816164E-02  0.1266605E+00
        -11   -1    0    0    0    0  0.00000000000E+00  0.00000000000E+00  0.45593999997E+02  0.45594000000E+02  0.51100000000E-03 0.  1.
         11   -1    0    0    0    0 -0.00000000000E+00 -0.00000000000E+00 -0.45593999997E+02  0.45594000000E+02  0.51100000000E-03 0. -1.
    9900012    2    1    2    0    0 -0.70251204467E+01  0.20871201308E+02 -0.23059943285E+02  0.59301947475E+02  0.50000006287E+02 0.  0.
        -12    1    1    2    0    0  0.70251204467E+01 -0.20871201308E+02  0.23059943285E+02  0.31886052525E+02  0.00000000000E+00 0.  1.
         11    1    3    3    0    0  0.59581338705E+01 -0.57960212332E+01 -0.12032962051E+02  0.14624821275E+02  0.51100000000E-03 0. -1.
        -11    1    3    3    0    0 -0.53834430555E+01  0.28886118665E+02  0.19799804665E+01  0.29450121113E+02  0.51100000000E-03 0.  1.
        -12    1    3    3    0    0 -0.75998112617E+01 -0.22188961238E+01 -0.13006961701E+02  0.15227005086E+02  0.00000000000E+00 0.  1.
</event>
<event>
 7    1  0.5979290E-013  0.5930195E+02  0.7816164E-02  0.1266605E+00
        -11   -1    0    0    0    0  0.00000000000E+00  0.00000000000E+00  0.45593999997E+02  0.45594000000E+02  0.51100000000E-03 0. -1.
         11   -1    0    0    0    0 -0.00000000000E+00 -0.00000000000E+00 -0.45593999997E+02  0.45594000000E+02  0.51100000000E-03 0.  1.
    9900012    2    1    2    0    0  0.21274835364E+02 -0.89097346185E+01 -0.22016320453E+02  0.59301947296E+02  0.50000005961E+02 0.  0.
        -12    1    1    2    0    0 -0.21274835364E+02  0.89097346185E+01  0.22016320453E+02  0.31886052704E+02  0.00000000000E+00 0.  1.
         11    1    3    3    0    0  0.25716551876E+02  0.97060831474E+01 -0.97983528683E+00  0.27504711740E+02  0.51100000000E-03 0. -1.
        -11    1    3    3    0    0 -0.44130947237E+01 -0.20146940151E+02 -0.21863833619E+02  0.30056643580E+02  0.51100000000E-03 0.  1.
        -12    1    3    3    0    0 -0.28621787913E-01  0.15311223852E+01  0.82734845350E+00  0.17405919765E+01  0.00000000000E+00 0.  1.
</event>
<event>
 7    1  0.5979290E-013  0.5930188E+02  0.7816164E-02  0.1266605E+00
        -11   -1    0    0    0    0  0.00000000000E+00  0.00000000000E+00  0.45593999997E+02  0.45594000000E+02  0.51100000000E-03 0. -1.
         11   -1    0    0    0    0 -0.00000000000E+00 -0.00000000000E+00 -0.45593999997E+02  0.45594000000E+02  0.51100000000E-03 0.  1.
    9900012    2    1    2    0    0 -0.25548455955E+02  0.38174319648E+01  0.18693004089E+02  0.59301877777E+02  0.49999879175E+02 0.  0.
        -12    1    1    2    0    0  0.25548455955E+02 -0.38174319648E+01 -0.18693004089E+02  0.31886122223E+02  0.00000000000E+00 0.  1.
         11    1    3    3    0    0 -0.14348092527E+02  0.16399288949E+02  0.12447366360E+02  0.25094648169E+02  0.51100000000E-03 0. -1.
        -11    1    3    3    0    0  0.34371792649E+01 -0.17585267582E+02  0.12927530325E+01  0.17964605419E+02  0.51100000000E-03 0.  1.
        -12    1    3    3    0    0 -0.14637542694E+02  0.50034105979E+01  0.49528846964E+01  0.16242624189E+02  0.00000000000E+00 0.  1.
</event>
<event>
 7    1  0.5979290E-013  0.5930196E+02  0.7816164E-02  0.1266605E+00
        -11   -1    0    0    0    0  0.00000000000E+00  0.00000000000E+00  0.45593999997E+02  0.45594000000E+02  0.51100000000E-03 0. -1.
         11   -1    0    0    0    0 -0.00000000000E+00 -0.00000000000E+00 -0.45593999997E+02  0.45594000000E+02  0.51100000000E-03 0.  1.
    9900012    2    1    2    0    0 -0.12494981277E+02  0.21470292021E+02  0.19990541008E+02  0.59301957185E+02  0.50000023996E+02 0.  0.
        -12    1    1    2    0    0  0.12494981277E+02 -0.21470292021E+02 -0.19990541008E+02  0.31886042815E+02  0.00000000000E+00 0.  1.
         11    1    3    3    0    0 -0.10791959969E+01  0.13864046205E+02  0.82634031597E+01  0.16175916457E+02  0.51100000000E-03 0. -1.
        -11    1    3    3    0    0 -0.89474884614E+01  0.80377484427E+01 -0.13324110500E+02  0.17949787483E+02  0.51100000000E-03 0.  1.
        -12    1    3    3    0    0 -0.24682968193E+01 -0.43150262626E+00  0.25051248348E+02  0.25176253246E+02  0.00000000000E+00 0.  1.
</event>
<event>
 7    1  0.5979290E-013  0.5930196E+02  0.7816164E-02  0.1266605E+00
        -11   -1    0    0    0    0  0.00000000000E+00  0.00000000000E+00  0.45593999997E+02  0.45594000000E+02  0.51100000000E-03 0.  1.
         11   -1    0    0    0    0 -0.00000000000E+00 -0.00000000000E+00 -0.45593999997E+02  0.45594000000E+02  0.51100000000E-03 0. -1.
    9900012    2    1    2    0    0  0.78523365406E+01  0.25695432137E+02 -0.17169894531E+02  0.59301957598E+02  0.50000024749E+02 0.  0.
        -12    1    1    2    0    0 -0.78523365406E+01 -0.25695432137E+02  0.17169894531E+02  0.31886042402E+02  0.00000000000E+00 0.  1.
         11    1    3    3    0    0 -0.45416652198E+01  0.73027784515E+01  0.11761911485E+02  0.14570513310E+02  0.51100000000E-03 0. -1.
        -11    1    3    3    0    0  0.12200143572E+02  0.24827120622E+02 -0.23983345943E+02  0.36611887474E+02  0.51100000000E-03 0.  1.
        -12    1    3    3    0    0  0.19385818833E+00 -0.64344669361E+01 -0.49484600735E+01  0.81195568135E+01  0.00000000000E+00 0.  1.
</event>
<event>
 7    1  0.5979290E-013  0.5930198E+02  0.7816164E-02  0.1266605E+00
        -11   -1    0    0    0    0  0.00000000000E+00  0.00000000000E+00  0.45593999997E+02  0.45594000000E+02  0.51100000000E-03 0.  1.
         11   -1    0    0    0    0 -0.00000000000E+00 -0.00000000000E+00 -0.45593999997E+02  0.45594000000E+02  0.51100000000E-03 0. -1.
    9900012    2    1    2    0    0  0.17790890226E+00  0.53031662325E+01 -0.31441424641E+02  0.59301977873E+02  0.50000061725E+02 0.  0.
        -12    1    1    2    0    0 -0.17790890226E+00 -0.53031662325E+01  0.31441424641E+02  0.31886022127E+02  0.00000000000E+00 0.  1.
         11    1    3    3    0    0  0.10630218238E+02 -0.84113359629E+01 -0.11569191109E+02  0.17821287710E+02  0.51100000000E-03 0. -1.
        -11    1    3    3    0    0 -0.27436921815E+01  0.18979372092E+02 -0.24458505577E+02  0.31079943808E+02  0.51100000000E-03 0.  1.
        -12    1    3    3    0    0 -0.77086171542E+01 -0.52648698967E+01  0.45862720452E+01  0.10400746355E+02  0.00000000000E+00 0.  1.
</event>
<event>
 7    1  0.6854586E-013  0.5930193E+02  0.7816164E-02  0.1266605E+00
        -11   -1    0    0    0    0  0.00000000000E+00  0.00000000000E+00  0.45593999997E+02  0.45594000000E+02  0.51100000000E-03 0.  1.
         11   -1    0    0    0    0 -0.00000000000E+00 -0.00000000000E+00 -0.45593999997E+02  0.45594000000E+02  0.51100000000E-03 0. -1.
    9900012    2    1    2    0    0 -0.23030692310E+02  0.13360359458E+01 -0.22011897768E+02  0.59301930570E+02  0.49999975456E+02 0.  0.
        -12    1    1    2    0    0  0.23030692310E+02 -0.13360359458E+01  0.22011897768E+02  0.31886069430E+02  0.00000000000E+00 0.  1.
         11    1    3    3    0    0 -0.13269452650E+02  0.19391623495E+02 -0.85500325501E+01  0.25004329470E+02  0.51100000000E-03 0. -1.
        -11    1    3    3    0    0  0.42793831055E+01 -0.67409708163E+01  0.42298982337E+01  0.90358091303E+01  0.51100000000E-03 0.  1.
         12    1    3    3    0    0 -0.14040622766E+02 -0.11314616733E+02 -0.17691763452E+02  0.25261791969E+02  0.00000000000E+00 0. -1.
</event>
<event>
 7    1  0.5979290E-013  0.5930194E+02  0.7816164E-02  0.1266605E+00
        -11   -1    0    0    0    0  0.00000000000E+00  0.00000000000E+00  0.45593999997E+02  0.45594000000E+02  0.51100000000E-03 0. -1.
         11   -1    0    0    0    0 -0.00000000000E+00 -0.00000000000E+00 -0.45593999997E+02  0.45594000000E+02  0.51100000000E-03 0.  1.
    9900012    2    1    2    0    0 -0.22601031491E+02 -0.12412429172E+02 -0.18757552688E+02  0.59301940268E+02  0.49999993143E+02 0.  0.
        -12    1    1    2    0    0  0.22601031491E+02  0.12412429172E+02  0.18757552688E+02  0.31886059732E+02  0.00000000000E+00 0.  1.
         11    1    3    3    0    0 -0.35474259879E+01 -0.13026364890E+02  0.74685858663E+01  0.15428875153E+02  0.51100000000E-03 0. -1.
        -11    1    3    3    0    0 -0.59717028257E+01 -0.74068465961E+01 -0.26879982536E+02  0.28514138117E+02  0.51100000000E-03 0.  1.
        -12    1    3    3    0    0 -0.13081902677E+02  0.80207823139E+01  0.65384398247E+00  0.15358926998E+02  0.00000000000E+00 0.  1.
</event>
<event>
 7    1  0.5979290E-013  0.5930200E+02  0.7816164E-02  0.1266605E+00
        -11   -1    0    0    0    0  0.00000000000E+00  0.00000000000E+00  0.45593999997E+02  0.45594000000E+02  0.51100000000E-03 0. -1.
         11   -1    0    0    0    0 -0.00000000000E+00 -0.00000000000E+00 -0.45593999997E+02  0.45594000000E+02  0.51100000000E-03 0.  1.
    9900012    2    1    2    0    0 -0.24942271655E+02 -0.34811296628E-01  0.19864508200E+02  0.59302002867E+02  0.50000107309E+02 0.  0.
        -12    1    1    2    0    0  0.24942271655E+02  0.34811296628E-01 -0.19864508200E+02  0.31885997133E+02  0.00000000000E+00 0.  1.
         11    1    3    3    0    0 -0.25479644320E+02  0.15452938795E+02  0.28187004811E+00  0.29800755746E+02  0.51100000000E-03 0. -1.
        -11    1    3    3    0    0  0.11897795241E+01 -0.15691747610E+02  0.75588204633E+01  0.17458014934E+02  0.51100000000E-03 0.  1.
        -12    1    3    3    0    0 -0.65240685913E+00  0.20399751846E+00  0.12023817689E+02  0.12043232187E+02  0.00000000000E+00 0.  1.
</event>
<event>
 7    1  0.5979290E-013  0.5930194E+02  0.7816164E-02  0.1266605E+00
        -11   -1    0    0    0    0  0.00000000000E+00  0.00000000000E+00  0.45593999997E+02  0.45594000000E+02  0.51100000000E-03 0.  1.
         11   -1    0    0    0    0 -0.00000000000E+00 -0.00000000000E+00 -0.45593999997E+02  0.45594000000E+02  0.51100000000E-03 0. -1.
    9900012    2    1    2    0    0  0.25391652501E+01 -0.55583116853E+01 -0.31295028583E+02  0.59301937167E+02  0.49999987488E+02 0.  0.
        -12    1    1    2    0    0 -0.25391652501E+01  0.55583116853E+01  0.31295028583E+02  0.31886062833E+02  0.00000000000E+00 0.  1.
         11    1    3    3    0    0  0.39311519131E+01  0.66486469050E+01 -0.29399408693E+02  0.30397100072E+02  0.51100000000E-03 0. -1.
        -11    1    3    3    0    0  0.10386957317E+01 -0.18826318716E+02  0.45004972952E+01  0.19384623840E+02  0.51100000000E-03 0.  1.
        -12    1    3    3    0    0 -0.24306823947E+01  0.66193601261E+01 -0.63961171859E+01  0.95202132559E+01  0.00000000000E+00 0.  1.
</event>
<event>
 7    1  0.5979290E-013  0.5930195E+02  0.7816164E-02  0.1266605E+00
        -11   -1    0    0    0    0  0.00000000000E+00  0.00000000000E+00  0.45593999997E+02  0.45594000000E+02  0.51100000000E-03 0.  1.
         11   -1    0    0    0    0 -0.00000000000E+00 -0.00000000000E+00 -0.45593999997E+02  0.45594000000E+02  0.51100000000E-03 0. -1.
    9900012    2    1    2    0    0 -0.11008551769E+02 -0.24277575901E+02 -0.17496599039E+02  0.59301954752E+02  0.50000019558E+02 0.  0.
        -12    1    1    2    0    0  0.11008551769E+02  0.24277575901E+02  0.17496599039E+02  0.31886045248E+02  0.00000000000E+00 0.  1.
         11    1    3    3    0    0 -0.69707085865E+01 -0.27302958544E+02  0.31007082045E+01  0.28348839749E+02  0.51100000000E-03 0. -1.
        -11    1    3    3    0    0  0.22564505359E+01  0.11946732874E+02 -0.10078037230E+02  0.15791859614E+02  0.51100000000E-03 0.  1.
         12    1    3    3    0    0 -0.62942937187E+01 -0.89213502306E+01 -0.10519270013E+02  0.15161255389E+02  0.00000000000E+00 0. -1.
</event>
<event>
 7    1  0.5979290E-013  0.5930192E+02  0.7816164E-02  0.1266605E+00
        -11   -1    0    0    0    0  0.00000000000E+00  0.00000000000E+00  0.45593999997E+02  0.45594000000E+02  0.51100000000E-03 0. -1.
         11   -1    0    0    0    0 -0.00000000000E+00 -0.00000000000E+00 -0.45593999997E+02  0.45594000000E+02  0.51100000000E-03 0.  1.
    9900012    2    1    2    0    0  0.21564528325E+02 -0.21431728550E+02 -0.96111531589E+01  0.59301919408E+02  0.49999955099E+02 0.  0.
        -12    1    1    2    0    0 -0.21564528325E+02  0.21431728550E+02  0.96111531589E+01  0.31886080592E+02  0.00000000000E+00 0.  1.
         11    1    3    3    0    0 -0.97636114109E+00  0.16344497679E+01  0.31797190154E+01  0.37061193180E+01  0.51100000000E-03 0. -1.
        -11    1    3    3    0    0  0.34675419504E+02 -0.13886257500E+02 -0.29366163091E+01  0.37467807258E+02  0.51100000000E-03 0.  1.
        -12    1    3    3    0    0 -0.12134530038E+02 -0.91799208171E+01 -0.98542558652E+01  0.18127992832E+02  0.00000000000E+00 0.  1.
</event>
<event>
 7    1  0.5979290E-013  0.5930199E+02  0.7816164E-02  0.1266605E+00
        -11   -1    0    0    0    0  0.00000000000E+00  0.00000000000E+00  0.45593999997E+02  0.45594000000E+02  0.51100000000E-03 0. -1.
         11   -1    0    0    0    0 -0.00000000000E+00 -0.00000000000E+00 -0.45593999997E+02  0.45594000000E+02  0.51100000000E-03 0.  1.
    9900012    2    1    2    0    0  0.20665948824E+02 -0.24210993589E+02 -0.18611272429E+01  0.59301992944E+02  0.50000089212E+02 0.  0.
        -12    1    1    2    0    0 -0.20665948824E+02  0.24210993589E+02  0.18611272429E+01  0.31886007056E+02  0.00000000000E+00 0.  1.
         11    1    3    3    0    0  0.81666131578E+01 -0.18385033457E+02  0.15175809371E+02  0.25199369357E+02  0.51100000000E-03 0. -1.
        -11    1    3    3    0    0  0.10013283799E+02  0.50614541169E+01 -0.19655272250E+02  0.22632143021E+02  0.51100000000E-03 0.  1.
         12    1    3    3    0    0  0.24860518666E+01 -0.10887414249E+02  0.26183356364E+01  0.11470480566E+02  0.00000000000E+00 0. -1.
</event>
<event>
 7    1  0.5979290E-013  0.5930195E+02  0.7816164E-02  0.1266605E+00
        -11   -1    0    0    0    0  0.00000000000E+00  0.00000000000E+00  0.45593999997E+02  0.45594000000E+02  0.51100000000E-03 0. -1.
         11   -1    0    0    0    0 -0.00000000000E+00 -0.00000000000E+00 -0.45593999997E+02  0.45594000000E+02  0.51100000000E-03 0.  1.
    9900012    2    1    2    0    0  0.20340330656E+02 -0.20420594218E+02  0.13637835117E+02  0.59301948722E+02  0.50000008562E+02 0.  0.
        -12    1    1    2    0    0 -0.20340330656E+02  0.20420594218E+02 -0.13637835117E+02  0.31886051278E+02  0.00000000000E+00 0.  1.
         11    1    3    3    0    0  0.42019307592E+01 -0.25583091554E+01  0.65613926435E+01  0.82007951762E+01  0.51100000000E-03 0. -1.
        -11    1    3    3    0    0  0.17851396487E+02 -0.18350771004E+02 -0.14519455890E+02  0.29431917243E+02  0.51100000000E-03 0.  1.
        -12    1    3    3    0    0 -0.17129965896E+01  0.48848594170E+00  0.21595898364E+02  0.21669236303E+02  0.00000000000E+00 0.  1.
</event>
<event>
 7    1  0.5979290E-013  0.5930210E+02  0.7816164E-02  0.1266604E+00
        -11   -1    0    0    0    0  0.00000000000E+00  0.00000000000E+00  0.45593999997E+02  0.45594000000E+02  0.51100000000E-03 0. -1.
         11   -1    0    0    0    0 -0.00000000000E+00 -0.00000000000E+00 -0.45593999997E+02  0.45594000000E+02  0.51100000000E-03 0.  1.
    9900012    2    1    2    0    0 -0.29922014219E+02  0.79549512661E+01  0.76224884960E+01  0.59302101621E+02  0.50000287412E+02 0.  0.
        -12    1    1    2    0    0  0.29922014219E+02 -0.79549512661E+01 -0.76224884960E+01  0.31885898379E+02  0.00000000000E+00 0.  1.
         11    1    3    3    0    0 -0.90360279900E+00 -0.23180841264E+01 -0.32054691585E+01  0.40577142362E+01  0.51100000000E-03 0. -1.
        -11    1    3    3    0    0 -0.91071996414E+01  0.23792410820E+02  0.16712203878E+02  0.30468305773E+02  0.51100000000E-03 0.  1.
        -12    1    3    3    0    0 -0.19911211778E+02 -0.13519375428E+02 -0.58842462238E+01  0.24776081612E+02  0.00000000000E+00 0.  1.
</event>
<event>
 7    1  0.5979290E-013  0.5930195E+02  0.7816164E-02  0.1266605E+00
        -11   -1    0    0    0    0  0.00000000000E+00  0.00000000000E+00  0.45593999997E+02  0.45594000000E+02  0.51100000000E-03 0.  1.
         11   -1    0    0    0    0 -0.00000000000E+00 -0.00000000000E+00 -0.45593999997E+02  0.45594000000E+02  0.51100000000E-03 0. -1.
    9900012    2    1    2    0    0 -0.20559167938E+02  0.23088386216E+02 -0.78081521533E+01  0.59301949690E+02  0.50000010327E+02 0.  0.
        -12    1    1    2    0    0  0.20559167938E+02 -0.23088386216E+02  0.78081521533E+01  0.31886050310E+02  0.00000000000E+00 0.  1.
         11    1    3    3    0    0 -0.15803382698E+02  0.15322917526E+02 -0.79951573895E+01  0.23419249522E+02  0.51100000000E-03 0. -1.
        -11    1    3    3    0    0  0.10538332032E+02  0.61386627069E+01 -0.11346867051E+02  0.16658061531E+02  0.51100000000E-03 0.  1.
        -12    1    3    3    0    0 -0.15294117271E+02  0.16268059824E+01  0.11533872287E+02  0.19224638637E+02  0.00000000000E+00 0.  1.
</event>
<event>
 7    1  0.5979290E-013  0.5930180E+02  0.7816164E-02  0.1266605E+00
        -11   -1    0    0    0    0  0.00000000000E+00  0.00000000000E+00  0.45593999997E+02  0.45594000000E+02  0.51100000000E-03 0. -1.
         11   -1    0    0    0    0 -0.00000000000E+00 -0.00000000000E+00 -0.45593999997E+02  0.45594000000E+02  0.51100000000E-03 0.  1.
    9900012    2    1    2    0    0 -0.10707170382E+01  0.41715435805E+01  0.31594010844E+02  0.59301800288E+02  0.49999737853E+02 0.  0.
        -12    1    1    2    0    0  0.10707170382E+01 -0.41715435805E+01 -0.31594010844E+02  0.31886199712E+02  0.00000000000E+00 0.  1.
         11    1    3    3    0    0  0.15974008689E+02  0.14363272243E+01  0.17556894206E+02  0.23779750291E+02  0.51100000000E-03 0. -1.
        -11    1    3    3    0    0 -0.12629804188E+02  0.14787302179E+02  0.58889337837E+01  0.20318853337E+02  0.51100000000E-03 0.  1.
        -12    1    3    3    0    0 -0.44149215387E+01 -0.12052085822E+02  0.81481828548E+01  0.15203196661E+02  0.00000000000E+00 0.  1.
</event>
<event>
 7    1  0.5979290E-013  0.5930192E+02  0.7816164E-02  0.1266605E+00
        -11   -1    0    0    0    0  0.00000000000E+00  0.00000000000E+00  0.45593999997E+02  0.45594000000E+02  0.51100000000E-03 0.  1.
         11   -1    0    0    0    0 -0.00000000000E+00 -0.00000000000E+00 -0.45593999997E+02  0.45594000000E+02  0.51100000000E-03 0. -1.
    9900012    2    1    2    0    0  0.21609684378E+00 -0.31820269344E+02 -0.20361205609E+01  0.59301921127E+02  0.49999958234E+02 0.  0.
        -12    1    1    2    0    0 -0.21609684378E+00  0.31820269344E+02  0.20361205609E+01  0.31886078873E+02  0.00000000000E+00 0.  1.
         11    1    3    3    0    0 -0.12685354579E+02  0.74872367737E+01 -0.12118894786E+01  0.14779905672E+02  0.51100000000E-03 0. -1.
        -11    1    3    3    0    0  0.64548021615E+01 -0.18112855656E+02  0.77982572595E+01  0.20749766927E+02  0.51100000000E-03 0.  1.
         12    1    3    3    0    0  0.64466492610E+01 -0.21194650461E+02 -0.86224883418E+01  0.23772248528E+02  0.00000000000E+00 0. -1.
</event>
<event>
 7    1  0.5979290E-013  0.5930193E+02  0.7816164E-02  0.1266605E+00
        -11   -1    0    0    0    0  0.00000000000E+00  0.00000000000E+00  0.45593999997E+02  0.45594000000E+02  0.51100000000E-03 0.  1.
         11   -1    0    0    0    0 -0.00000000000E+00 -0.00000000000E+00 -0.45593999997E+02  0.45594000000E+02  0.51100000000E-03 0. -1.
    9900012    2    1    2    0    0 -0.94765526438E+01  0.13754215941E+02 -0.27161327800E+02  0.59301933545E+02  0.49999980881E+02 0.  0.
        -12    1    1    2    0    0  0.94765526438E+01 -0.13754215941E+02  0.27161327800E+02  0.31886066455E+02  0.00000000000E+00 0.  1.
         11    1    3    3    0    0  0.77263343455E+01  0.64898898852E+01  0.62775347740E+01  0.11883701285E+02  0.51100000000E-03 0. -1.
        -11    1    3    3    0    0  0.56565582733E-01  0.58489705627E+01 -0.28941112494E+02  0.29526287423E+02  0.51100000000E-03 0.  1.
        -12    1    3    3    0    0 -0.17259452572E+02  0.14153554926E+01 -0.44977500798E+01  0.17891944837E+02  0.00000000000E+00 0.  1.
</event>
<event>
 7    1  0.8416071E-013  0.5930187E+02  0.7816164E-02  0.1266605E+00
        -11   -1    0    0    0    0  0.00000000000E+00  0.00000000000E+00  0.45593999997E+02  0.45594000000E+02  0.51100000000E-03 0. -1.
         11   -1    0    0    0    0 -0.00000000000E+00 -0.00000000000E+00 -0.45593999997E+02  0.45594000000E+02  0.51100000000E-03 0.  1.
    9900012    2    1    2    0    0  0.11133454451E+02  0.16697713562E+02  0.24778166659E+02  0.59301874660E+02  0.49999873490E+02 0.  0.
        -12    1    1    2    0    0 -0.11133454451E+02 -0.16697713562E+02 -0.24778166659E+02  0.31886125340E+02  0.00000000000E+00 0.  1.
         11    1    3    3    0    0  0.23196395829E+02 -0.34361256717E+01  0.12758258481E+02  0.26695559534E+02  0.51100000000E-03 0. -1.
        -11    1    3    3    0    0 -0.73176268863E+01 -0.16196217973E+01  0.43412749140E+00  0.75072834603E+01  0.51100000000E-03 0.  1.
         12    1    3    3    0    0 -0.47453144917E+01  0.21753461031E+02  0.11585780687E+02  0.25099031666E+02  0.00000000000E+00 0. -1.
</event>
<event>
 7    1  0.5979290E-013  0.5930194E+02  0.7816164E-02  0.1266605E+00
        -11   -1    0    0    0    0  0.00000000000E+00  0.00000000000E+00  0.45593999997E+02  0.45594000000E+02  0.51100000000E-03 0. -1.
         11   -1    0    0    0    0 -0.00000000000E+00 -0.00000000000E+00 -0.45593999997E+02  0.45594000000E+02  0.51100000000E-03 0.  1.
    9900012    2    1    2    0    0  0.23682188673E+02 -0.20039740597E+02 -0.73677209424E+01  0.59301943872E+02  0.49999999715E+02 0.  0.
        -12    1    1    2    0    0 -0.23682188673E+02  0.20039740597E+02  0.73677209424E+01  0.31886056128E+02  0.00000000000E+00 0.  1.
         11    1    3    3    0    0  0.21947657968E+02 -0.28712196213E+02  0.11317009598E+02  0.37870365830E+02  0.51100000000E-03 0. -1.
        -11    1    3    3    0    0  0.16120159297E+01  0.17562004415E+01 -0.10247844717E+02  0.10521461730E+02  0.51100000000E-03 0.  1.
         12    1    3    3    0    0  0.12251477595E+00  0.69162551749E+01 -0.84368858236E+01  0.10910116311E+02  0.00000000000E+00 0. -1.
</event>
<event>
 7    1  0.5979290E-013  0.5930195E+02  0.7816164E-02  0.1266605E+00
        -11   -1    0    0    0    0  0.00000000000E+00  0.00000000000E+00  0.45593999997E+02  0.45594000000E+02  0.51100000000E-03 0.  1.
         11   -1    0    0    0    0 -0.00000000000E+00 -0.00000000000E+00 -0.45593999997E+02  0.45594000000E+02  0.51100000000E-03 0. -1.
    9900012    2    1    2    0    0 -0.50144694478E+01  0.10287290854E+02 -0.29761504971E+02  0.59301946072E+02  0.50000003729E+02 0.  0.
        -12    1    1    2    0    0  0.50144694478E+01 -0.10287290854E+02  0.29761504971E+02  0.31886053928E+02  0.00000000000E+00 0.  1.
         11    1    3    3    0    0 -0.15548992823E+02  0.22748940677E+02 -0.24301674472E+02  0.36740398231E+02  0.51100000000E-03 0. -1.
        -11    1    3    3    0    0  0.77597953498E+01 -0.84782813970E+01  0.38009794907E+01  0.12105499769E+02  0.51100000000E-03 0.  1.
         12    1    3    3    0    0  0.27747280255E+01 -0.39833684261E+01 -0.92608099890E+01  0.10456048072E+02  0.00000000000E+00 0. -1.
</event>
<event>
 7    1  0.5979290E-013  0.5930194E+02  0.7816164E-02  0.1266605E+00
        -11   -1    0    0    0    0  0.00000000000E+00  0.00000000000E+00  0.45593999997E+02  0.45594000000E+02  0.51100000000E-03 0.  1.
         11   -1    0    0    0    0 -0.00000000000E+00 -0.00000000000E+00 -0.45593999997E+02  0.45594000000E+02  0.51100000000E-03 0. -1.
    9900012    2    1    2    0    0  0.51689827759E+01  0.59567901558E+01 -0.30895295527E+02  0.59301936938E+02  0.49999987070E+02 0.  0.
        -12    1    1    2    0    0 -0.51689827759E+01 -0.59567901558E+01  0.30895295527E+02  0.31886063062E+02  0.00000000000E+00 0.  1.
         11    1    3    3    0    0 -0.22957297395E+01 -0.14389989471E+02 -0.21179380364E+02  0.25708137328E+02  0.51100000000E-03 0. -1.
        -11    1    3    3    0    0  0.51484223808E+01  0.13823909632E+02  0.63804299301E+01  0.16072231235E+02  0.51100000000E-03 0.  1.
        -12    1    3    3    0    0  0.23162901346E+01  0.65228699951E+01 -0.16096345093E+02  0.17521568375E+02  0.00000000000E+00 0.  1.
</event>
<event>
 7    1  0.5979290E-013  0.5930187E+02  0.7816164E-02  0.1266605E+00
        -11   -1    0    0    0    0  0.00000000000E+00  0.00000000000E+00  0.45593999997E+02  0.45594000000E+02  0.51100000000E-03 0. -1.
         11   -1    0    0    0    0 -0.00000000000E+00 -0.00000000000E+00 -0.45593999997E+02  0.45594000000E+02  0.51100000000E-03 0.  1.
    9900012    2    1    2    0    0  0.38132911095E+01  0.74005323687E+01  0.30780124147E+02  0.59301872751E+02  0.49999870008E+02 0.  0.
        -12    1    1    2    0    0 -0.38132911095E+01 -0.74005323687E+01 -0.30780124147E+02  0.31886127249E+02  0.00000000000E+00 0.  1.
         11    1    3    3    0    0  0.21142723744E+02 -0.33285287517E+01  0.52523121714E+01  0.22038163589E+02  0.51100000000E-03 0. -1.
        -11    1    3    3    0    0 -0.90293523895E+01 -0.41774726328E+01  0.76403927257E+01  0.12544165314E+02  0.51100000000E-03 0.  1.
         12    1    3    3    0    0 -0.83000802448E+01  0.14906533753E+02  0.17887419250E+02  0.24719543848E+02  0.00000000000E+00 0. -1.
</event>
<event>
 7    1  0.5979290E-013  0.5930204E+02  0.7816164E-02  0.1266604E+00
        -11   -1    0    0    0    0  0.00000000000E+00  0.00000000000E+00  0.45593999997E+02  0.45594000000E+02  0.51100000000E-03 0.  1.
         11   -1    0    0    0    0 -0.00000000000E+00 -0.00000000000E+00 -0.45593999997E+02  0.45594000000E+02  0.51100000000E-03 0. -1.
    9900012    2    1    2    0    0 -0.15660632097E+02  0.29165173059E+01 -0.27621608736E+02  0.59302035376E+02  0.50000166597E+02 0.  0.
        -12    1    1    2    0    0  0.15660632097E+02 -0.29165173059E+01  0.27621608736E+02  0.31885964624E+02  0.00000000000E+00 0.  1.
         11    1    3    3    0    0 -0.15974907733E+02  0.15754591810E+01 -0.40668168129E+02  0.43721615340E+02  0.51100000000E-03 0. -1.
        -11    1    3    3    0    0 -0.40148147020E+01  0.55894873953E+00  0.53070377154E+01  0.66780094608E+01  0.51100000000E-03 0.  1.
         12    1    3    3    0    0  0.43290903382E+01  0.78210938536E+00  0.77395216778E+01  0.89024105751E+01  0.00000000000E+00 0. -1.
</event>
<event>
 7    1  0.5979290E-013  0.5930194E+02  0.7816164E-02  0.1266605E+00
        -11   -1    0    0    0    0  0.00000000000E+00  0.00000000000E+00  0.45593999997E+02  0.45594000000E+02  0.51100000000E-03 0. -1.
         11   -1    0    0    0    0 -0.00000000000E+00 -0.00000000000E+00 -0.45593999997E+02  0.45594000000E+02  0.51100000000E-03 0.  1.
    9900012    2    1    2    0    0  0.20714443097E+02 -0.21104886965E+01  0.24149084068E+02  0.59301943852E+02  0.49999999680E+02 0.  0.
        -12    1    1    2    0    0 -0.20714443097E+02  0.21104886965E+01 -0.24149084068E+02  0.31886056148E+02  0.00000000000E+00 0.  1.
         11    1    3    3    0    0  0.25630545512E+02 -0.12615300323E+01  0.21638005409E+02  0.33566644152E+02  0.51100000000E-03 0. -1.
        -11    1    3    3    0    0 -0.69122306720E+01  0.49680715123E+01 -0.91837120272E+01  0.12522029958E+02  0.51100000000E-03 0.  1.
        -12    1    3    3    0    0  0.19961282568E+01 -0.58170301765E+01  0.11694790686E+02  0.13213269742E+02  0.00000000000E+00 0.  1.
</event>
<event>
 7    1  0.5979290E-013  0.5930199E+02  0.7816164E-02  0.1266605E+00
        -11   -1    0    0    0    0  0.00000000000E+00  0.00000000000E+00  0.45593999997E+02  0.45594000000E+02  0.51100000000E-03 0. -1.
         11   -1    0    0    0    0 -0.00000000000E+00 -0.00000000000E+00 -0.45593999997E+02  0.45594000000E+02  0.51100000000E-03 0.  1.
    9900012    2    1    2    0    0 -0.79988746883E+01 -0.76298706860E+01  0.29908541787E+02  0.59301987474E+02  0.50000079236E+02 0.  0.
        -12    1    1    2    0    0  0.79988746883E+01  0.76298706860E+01 -0.29908541787E+02  0.31886012526E+02  0.00000000000E+00 0.  1.
         11    1    3    3    0    0 -0.10932629528E+01  0.13919563211E+02  0.26927061763E+02  0.30331767494E+02  0.51100000000E-03 0. -1.
        -11    1    3    3    0    0  0.50095796627E+01 -0.13532594910E+02  0.88856088995E+00  0.14457404819E+02  0.51100000000E-03 0.  1.
         12    1    3    3    0    0 -0.11915191398E+02 -0.80168389872E+01  0.20929191341E+01  0.14512815161E+02  0.00000000000E+00 0. -1.
</event>
<event>
 7    1  0.5979290E-013  0.5930193E+02  0.7816164E-02  0.1266605E+00
        -11   -1    0    0    0    0  0.00000000000E+00  0.00000000000E+00  0.45593999997E+02  0.45594000000E+02  0.51100000000E-03 0.  1.
         11   -1    0    0    0    0 -0.00000000000E+00 -0.00000000000E+00 -0.45593999997E+02  0.45594000000E+02  0.51100000000E-03 0. -1.
    9900012    2    1    2    0    0  0.64434783263E+01 -0.26332094416E+02 -0.16787603029E+02  0.59301933690E+02  0.49999981146E+02 0.  0.
        -12    1    1    2    0    0 -0.64434783263E+01  0.26332094416E+02  0.16787603029E+02  0.31886066310E+02  0.00000000000E+00 0.  1.
         11    1    3    3    0    0 -0.26351952215E+01  0.13310147174E+01 -0.25862322719E+02  0.26030282187E+02  0.51100000000E-03 0. -1.
        -11    1    3    3    0    0  0.15193400322E+01 -0.63915475816E+01  0.84300017289E+01  0.10687619194E+02  0.51100000000E-03 0.  1.
         12    1    3    3    0    0  0.75593335155E+01 -0.21271561552E+02  0.64471796177E+00  0.22584032309E+02  0.00000000000E+00 0. -1.
</event>
<event>
 7    1  0.5979290E-013  0.5930192E+02  0.7816164E-02  0.1266605E+00
        -11   -1    0    0    0    0  0.00000000000E+00  0.00000000000E+00  0.45593999997E+02  0.45594000000E+02  0.51100000000E-03 0.  1.
         11   -1    0    0    0    0 -0.00000000000E+00 -0.00000000000E+00 -0.45593999997E+02  0.45594000000E+02  0.51100000000E-03 0. -1.
    9900012    2    1    2    0    0 -0.26057747597E+01 -0.28432700532E+02 -0.14195541957E+02  0.59301922583E+02  0.49999960889E+02 0.  0.
        -12    1    1    2    0    0  0.26057747597E+01  0.28432700532E+02  0.14195541957E+02  0.31886077417E+02  0.00000000000E+00 0.  1.
         11    1    3    3    0    0  0.13305765525E+01  0.86394666229E+01 -0.62099818572E+01  0.10722625258E+02  0.51100000000E-03 0. -1.
        -11    1    3    3    0    0 -0.16010698117E+02 -0.24452596057E+02  0.34236768035E+00  0.29229935409E+02  0.51100000000E-03 0.  1.
         12    1    3    3    0    0  0.12074346805E+02 -0.12619571097E+02 -0.83279277799E+01  0.19349361916E+02  0.00000000000E+00 0. -1.
</event>
<event>
 7    1  0.5979290E-013  0.5930195E+02  0.7816164E-02  0.1266605E+00
        -11   -1    0    0    0    0  0.00000000000E+00  0.00000000000E+00  0.45593999997E+02  0.45594000000E+02  0.51100000000E-03 0.  1.
         11   -1    0    0    0    0 -0.00000000000E+00 -0.00000000000E+00 -0.45593999997E+02  0.45594000000E+02  0.51100000000E-03 0. -1.
    9900012    2    1    2    0    0 -0.22447621809E+02  0.16166525559E+02 -0.15857736373E+02  0.59301951697E+02  0.50000013986E+02 0.  0.
        -12    1    1    2    0    0  0.22447621809E+02 -0.16166525559E+02  0.15857736373E+02  0.31886048303E+02  0.00000000000E+00 0.  1.
         11    1    3    3    0    0 -0.15690066129E+02 -0.76719354962E+00 -0.27753852945E+02  0.31891113412E+02  0.51100000000E-03 0. -1.
        -11    1    3    3    0    0  0.50746600803E+01  0.72563812210E+01  0.72220027959E+01  0.11426485374E+02  0.51100000000E-03 0.  1.
         12    1    3    3    0    0 -0.11832215760E+02  0.96773378877E+01  0.46741137766E+01  0.15984352911E+02  0.00000000000E+00 0. -1.
</event>
<event>
 7    1  0.5979290E-013  0.5930194E+02  0.7816164E-02  0.1266605E+00
        -11   -1    0    0    0    0  0.00000000000E+00  0.00000000000E+00  0.45593999997E+02  0.45594000000E+02  0.51100000000E-03 0. -1.
         11   -1    0    0    0    0 -0.00000000000E+00 -0.00000000000E+00 -0.45593999997E+02  0.45594000000E+02  0.51100000000E-03 0.  1.
    9900012    2    1    2    0    0  0.22772541402E+02  0.21636631187E+02  0.54761662159E+01  0.59301939606E+02  0.49999991936E+02 0.  0.
        -12    1    1    2    0    0 -0.22772541402E+02 -0.21636631187E+02 -0.54761662159E+01  0.31886060394E+02  0.00000000000E+00 0.  1.
         11    1    3    3    0    0 -0.66785701556E+01 -0.55326105119E+01  0.42665102458E+01  0.96652050334E+01  0.51100000000E-03 0. -1.
        -11    1    3    3    0    0  0.20337960159E+02  0.79853496333E+01  0.12920277475E+02  0.25383695604E+02  0.51100000000E-03 0.  1.
        -12    1    3    3    0    0  0.91131513980E+01  0.19183892066E+02 -0.11710621505E+02  0.24253038969E+02  0.00000000000E+00 0.  1.
</event>
<event>
 7    1  0.7958488E-013  0.5930195E+02  0.7816164E-02  0.1266605E+00
        -11   -1    0    0    0    0  0.00000000000E+00  0.00000000000E+00  0.45593999997E+02  0.45594000000E+02  0.51100000000E-03 0. -1.
         11   -1    0    0    0    0 -0.00000000000E+00 -0.00000000000E+00 -0.45593999997E+02  0.45594000000E+02  0.51100000000E-03 0.  1.
    9900012    2    1    2    0    0  0.32926370371E+01 -0.29807919456E+02 -0.10833580196E+02  0.59301953196E+02  0.50000016721E+02 0.  0.
        -12    1    1    2    0    0 -0.32926370371E+01  0.29807919456E+02  0.10833580196E+02  0.31886046804E+02  0.00000000000E+00 0.  1.
         11    1    3    3    0    0  0.10350518527E+01 -0.25702579023E+02 -0.10602166785E+02  0.27822649794E+02  0.51100000000E-03 0. -1.
        -11    1    3    3    0    0 -0.40360651386E+00  0.56833665314E+00  0.15159626359E+02  0.15175644183E+02  0.51100000000E-03 0.  1.
         12    1    3    3    0    0  0.26611916982E+01 -0.46736770858E+01 -0.15391039769E+02  0.16303659219E+02  0.00000000000E+00 0. -1.
</event>
<event>
 7    1  0.5979290E-013  0.5930208E+02  0.7816164E-02  0.1266604E+00
        -11   -1    0    0    0    0  0.00000000000E+00  0.00000000000E+00  0.45593999997E+02  0.45594000000E+02  0.51100000000E-03 0. -1.
         11   -1    0    0    0    0 -0.00000000000E+00 -0.00000000000E+00 -0.45593999997E+02  0.45594000000E+02  0.51100000000E-03 0.  1.
    9900012    2    1    2    0    0 -0.39196091226E+01  0.30984837846E+02 -0.64256079547E+01  0.59302079132E+02  0.50000246397E+02 0.  0.
        -12    1    1    2    0    0  0.39196091226E+01 -0.30984837846E+02  0.64256079547E+01  0.31885920868E+02  0.00000000000E+00 0.  1.
         11    1    3    3    0    0  0.21726450654E+01 -0.61298785318E+01  0.28313095604E+01  0.70931030927E+01  0.51100000000E-03 0.  1.
        -11    1    3    3    0    0 -0.12521302465E+02  0.41352709854E+02 -0.10356382059E+02  0.44430668207E+02  0.51100000000E-03 0. -1.
         12    1    3    3    0    0  0.64290482771E+01 -0.42379934759E+01  0.10994645437E+01  0.77783078323E+01  0.00000000000E+00 0. -1.
</event>
<event>
 7    1  0.5979290E-013  0.5930195E+02  0.7816164E-02  0.1266605E+00
        -11   -1    0    0    0    0  0.00000000000E+00  0.00000000000E+00  0.45593999997E+02  0.45594000000E+02  0.51100000000E-03 0.  1.
         11   -1    0    0    0    0 -0.00000000000E+00 -0.00000000000E+00 -0.45593999997E+02  0.45594000000E+02  0.51100000000E-03 0. -1.
    9900012    2    1    2    0    0  0.92582585664E+01 -0.17118305635E+02 -0.25258036616E+02  0.59301950493E+02  0.50000011790E+02 0.  0.
        -12    1    1    2    0    0 -0.92582585664E+01  0.17118305635E+02  0.25258036616E+02  0.31886049507E+02  0.00000000000E+00 0.  1.
         11    1    3    3    0    0  0.24881863834E+02 -0.10639418502E+02 -0.11291513707E+02  0.29322391717E+02  0.51100000000E-03 0. -1.
        -11    1    3    3    0    0 -0.64086471377E+01 -0.13494374021E+02 -0.82117544817E+01  0.17047046674E+02  0.51100000000E-03 0.  1.
         12    1    3    3    0    0 -0.92149581301E+01  0.70154868887E+01 -0.57547684274E+01  0.12932512102E+02  0.00000000000E+00 0. -1.
</event>
<event>
 7    1  0.5979290E-013  0.5930196E+02  0.7816164E-02  0.1266605E+00
        -11   -1    0    0    0    0  0.00000000000E+00  0.00000000000E+00  0.45593999997E+02  0.45594000000E+02  0.51100000000E-03 0. -1.
         11   -1    0    0    0    0 -0.00000000000E+00 -0.00000000000E+00 -0.45593999997E+02  0.45594000000E+02  0.51100000000E-03 0.  1.
    9900012    2    1    2    0    0  0.15905581621E+02 -0.17558475525E+02  0.21340854215E+02  0.59301958413E+02  0.50000026236E+02 0.  0.
        -12    1    1    2    0    0 -0.15905581621E+02  0.17558475525E+02 -0.21340854215E+02  0.31886041587E+02  0.00000000000E+00 0.  1.
         11    1    3    3    0    0  0.53224923643E+01  0.11830990824E+02  0.12683848331E+02  0.18143353537E+02  0.51100000000E-03 0. -1.
        -11    1    3    3    0    0  0.50481548627E+01 -0.21312769174E+02 -0.67364903692E+01  0.22915023459E+02  0.51100000000E-03 0.  1.
        -12    1    3    3    0    0  0.55349343940E+01 -0.80766971746E+01  0.15393496253E+02  0.18243581416E+02  0.00000000000E+00 0.  1.
</event>
<event>
 7    1  0.5979290E-013  0.5930196E+02  0.7816164E-02  0.1266605E+00
        -11   -1    0    0    0    0  0.00000000000E+00  0.00000000000E+00  0.45593999997E+02  0.45594000000E+02  0.51100000000E-03 0.  1.
         11   -1    0    0    0    0 -0.00000000000E+00 -0.00000000000E+00 -0.45593999997E+02  0.45594000000E+02  0.51100000000E-03 0. -1.
    9900012    2    1    2    0    0 -0.59338773157E+01  0.26206270604E+02 -0.17167996954E+02  0.59301958565E+02  0.50000026512E+02 0.  0.
        -12    1    1    2    0    0  0.59338773157E+01 -0.26206270604E+02  0.17167996954E+02  0.31886041435E+02  0.00000000000E+00 0.  1.
         11    1    3    3    0    0  0.41725931739E+01  0.29186007089E+02 -0.70349506698E+01  0.30310461474E+02  0.51100000000E-03 0. -1.
        -11    1    3    3    0    0 -0.15221512319E+02 -0.93494512905E+01 -0.10664840872E+02  0.20804939505E+02  0.51100000000E-03 0.  1.
        -12    1    3    3    0    0  0.51150418295E+01  0.63697148058E+01  0.53179458695E+00  0.81865575859E+01  0.00000000000E+00 0.  1.
</event>
<event>
 7    1  0.5979290E-013  0.5930209E+02  0.7816164E-02  0.1266604E+00
        -11   -1    0    0    0    0  0.00000000000E+00  0.00000000000E+00  0.45593999997E+02  0.45594000000E+02  0.51100000000E-03 0.  1.
         11   -1    0    0    0    0 -0.00000000000E+00 -0.00000000000E+00 -0.45593999997E+02  0.45594000000E+02  0.51100000000E-03 0. -1.
    9900012    2    1    2    0    0 -0.78080602347E-01  0.31881222368E+02  0.54089872373E+00  0.59302093902E+02  0.50000273334E+02 0.  0.
        -12    1    1    2    0    0  0.78080602347E-01 -0.31881222368E+02 -0.54089872373E+00  0.31885906098E+02  0.00000000000E+00 0.  1.
         11    1    3    3    0    0  0.22551822380E+02  0.77153491528E+01  0.79283883842E+01  0.25119129122E+02  0.51100000000E-03 0. -1.
        -11    1    3    3    0    0 -0.18762707540E+02  0.17846943283E+02 -0.66677999617E+01  0.26739710832E+02  0.51100000000E-03 0.  1.
         12    1    3    3    0    0 -0.38671954423E+01  0.63189299319E+01 -0.71968969884E+00  0.74432539481E+01  0.00000000000E+00 0. -1.
</event>
<event>
 7    1  0.5979290E-013  0.5930196E+02  0.7816164E-02  0.1266605E+00
        -11   -1    0    0    0    0  0.00000000000E+00  0.00000000000E+00  0.45593999997E+02  0.45594000000E+02  0.51100000000E-03 0.  1.
         11   -1    0    0    0    0 -0.00000000000E+00 -0.00000000000E+00 -0.45593999997E+02  0.45594000000E+02  0.51100000000E-03 0. -1.
    9900012    2    1    2    0    0 -0.50303923462E+01 -0.13555543570E+02 -0.28419388375E+02  0.59301964745E+02  0.50000037784E+02 0.  0.
        -12    1    1    2    0    0  0.50303923462E+01  0.13555543570E+02  0.28419388375E+02  0.31886035255E+02  0.00000000000E+00 0.  1.
         11    1    3    3    0    0  0.12519886311E+02  0.97911324326E+01 -0.17701438892E+02  0.23789803839E+02  0.51100000000E-03 0. -1.
        -11    1    3    3    0    0 -0.11221031113E+02 -0.33319158240E+01 -0.83692828589E+01  0.14389513478E+02  0.51100000000E-03 0.  1.
         12    1    3    3    0    0 -0.63292475449E+01 -0.20014760179E+02 -0.23486666237E+01  0.21122647429E+02  0.00000000000E+00 0. -1.
</event>
<event>
 7    1  0.5979290E-013  0.5930192E+02  0.7816164E-02  0.1266605E+00
        -11   -1    0    0    0    0  0.00000000000E+00  0.00000000000E+00  0.45593999997E+02  0.45594000000E+02  0.51100000000E-03 0.  1.
         11   -1    0    0    0    0 -0.00000000000E+00 -0.00000000000E+00 -0.45593999997E+02  0.45594000000E+02  0.51100000000E-03 0. -1.
    9900012    2    1    2    0    0 -0.52469408571E+01 -0.12381054267E+02 -0.28911952238E+02  0.59301923488E+02  0.49999962540E+02 0.  0.
        -12    1    1    2    0    0  0.52469408571E+01  0.12381054267E+02  0.28911952238E+02  0.31886076512E+02  0.00000000000E+00 0.  1.
         11    1    3    3    0    0 -0.41374032813E-02 -0.30449852072E+02 -0.15919699493E+02  0.34360301811E+02  0.51100000000E-03 0. -1.
        -11    1    3    3    0    0 -0.41995452592E+01  0.75036299607E+01 -0.11286473237E+02  0.14188908392E+02  0.51100000000E-03 0.  1.
         12    1    3    3    0    0 -0.10432581946E+01  0.10565167844E+02 -0.17057795082E+01  0.10752713284E+02  0.00000000000E+00 0. -1.
</event>
<event>
 7    1  0.5979290E-013  0.5930198E+02  0.7816164E-02  0.1266605E+00
        -11   -1    0    0    0    0  0.00000000000E+00  0.00000000000E+00  0.45593999997E+02  0.45594000000E+02  0.51100000000E-03 0.  1.
         11   -1    0    0    0    0 -0.00000000000E+00 -0.00000000000E+00 -0.45593999997E+02  0.45594000000E+02  0.51100000000E-03 0. -1.
    9900012    2    1    2    0    0  0.31340481904E+02 -0.58374509047E+01 -0.64547513436E+00  0.59301979910E+02  0.50000065440E+02 0.  0.
        -12    1    1    2    0    0 -0.31340481904E+02  0.58374509047E+01  0.64547513436E+00  0.31886020090E+02  0.00000000000E+00 0.  1.
         11    1    3    3    0    0  0.15229881465E+02  0.19535813406E+02 -0.40050958680E+01  0.25092590301E+02  0.51100000000E-03 0. -1.
        -11    1    3    3    0    0  0.58960435384E+01 -0.18469042001E+02  0.80852481281E+01  0.21005715399E+02  0.51100000000E-03 0.  1.
        -12    1    3    3    0    0  0.10214556901E+02 -0.69042223092E+01 -0.47256273945E+01  0.13203674210E+02  0.00000000000E+00 0.  1.
</event>
<event>
 7    1  0.5979290E-013  0.5930194E+02  0.7816164E-02  0.1266605E+00
        -11   -1    0    0    0    0  0.00000000000E+00  0.00000000000E+00  0.45593999997E+02  0.45594000000E+02  0.51100000000E-03 0.  1.
         11   -1    0    0    0    0 -0.00000000000E+00 -0.00000000000E+00 -0.45593999997E+02  0.45594000000E+02  0.51100000000E-03 0. -1.
    9900012    2    1    2    0    0  0.14492023149E+02 -0.21226105827E+02 -0.18872048474E+02  0.59301944785E+02  0.50000001382E+02 0.  0.
        -12    1    1    2    0    0 -0.14492023149E+02  0.21226105827E+02  0.18872048474E+02  0.31886055215E+02  0.00000000000E+00 0.  1.
         11    1    3    3    0    0  0.83314500303E+00  0.10283550123E+02 -0.39210427232E+01  0.11037214777E+02  0.51100000000E-03 0.  1.
        -11    1    3    3    0    0 -0.51257380377E+01 -0.18788228275E+02  0.25105536482E+01  0.19636027909E+02  0.51100000000E-03 0. -1.
         12    1    3    3    0    0  0.18784616184E+02 -0.12721427675E+02 -0.17461559399E+02  0.28628702100E+02  0.00000000000E+00 0. -1.
</event>
<event>
 7    1  0.5979290E-013  0.5930191E+02  0.7816164E-02  0.1266605E+00
        -11   -1    0    0    0    0  0.00000000000E+00  0.00000000000E+00  0.45593999997E+02  0.45594000000E+02  0.51100000000E-03 0. -1.
         11   -1    0    0    0    0 -0.00000000000E+00 -0.00000000000E+00 -0.45593999997E+02  0.45594000000E+02  0.51100000000E-03 0.  1.
    9900012    2    1    2    0    0  0.27654911964E+00  0.31567519213E+02  0.44875345473E+01  0.59301910322E+02  0.49999938528E+02 0.  0.
        -12    1    1    2    0    0 -0.27654911964E+00 -0.31567519213E+02 -0.44875345473E+01  0.31886089678E+02  0.00000000000E+00 0.  1.
         11    1    3    3    0    0  0.18637968366E+02  0.10058444116E+02  0.61487654377E+01  0.22053423306E+02  0.51100000000E-03 0. -1.
        -11    1    3    3    0    0 -0.14241085649E+02  0.11023173486E+02 -0.12255483236E+02  0.21783382285E+02  0.51100000000E-03 0.  1.
        -12    1    3    3    0    0 -0.41203335974E+01  0.10485901611E+02  0.10594252346E+02  0.15465104730E+02  0.00000000000E+00 0.  1.
</event>
<event>
 7    1  0.5979290E-013  0.5930196E+02  0.7816164E-02  0.1266605E+00
        -11   -1    0    0    0    0  0.00000000000E+00  0.00000000000E+00  0.45593999997E+02  0.45594000000E+02  0.51100000000E-03 0.  1.
         11   -1    0    0    0    0 -0.00000000000E+00 -0.00000000000E+00 -0.45593999997E+02  0.45594000000E+02  0.51100000000E-03 0. -1.
    9900012    2    1    2    0    0 -0.23025723849E+01 -0.11934343290E+02 -0.29478627131E+02  0.59301955296E+02  0.50000020551E+02 0.  0.
        -12    1    1    2    0    0  0.23025723849E+01  0.11934343290E+02  0.29478627131E+02  0.31886044704E+02  0.00000000000E+00 0.  1.
         11    1    3    3    0    0  0.78942680091E+01 -0.69211219179E+01  0.79566931662E+01  0.13173092363E+02  0.51100000000E-03 0. -1.
        -11    1    3    3    0    0 -0.67649193550E+01  0.96764502939E+01 -0.14904699331E+02  0.19014412601E+02  0.51100000000E-03 0.  1.
         12    1    3    3    0    0 -0.34319210390E+01 -0.14689671666E+02 -0.22530620966E+02  0.27114450332E+02  0.00000000000E+00 0. -1.
</event>
<event>
 7    1  0.5979290E-013  0.5930197E+02  0.7816164E-02  0.1266605E+00
        -11   -1    0    0    0    0  0.00000000000E+00  0.00000000000E+00  0.45593999997E+02  0.45594000000E+02  0.51100000000E-03 0.  1.
         11   -1    0    0    0    0 -0.00000000000E+00 -0.00000000000E+00 -0.45593999997E+02  0.45594000000E+02  0.51100000000E-03 0. -1.
    9900012    2    1    2    0    0  0.12223059938E+02 -0.14685239818E+00 -0.29449855867E+02  0.59301972175E+02  0.50000051335E+02 0.  0.
        -12    1    1    2    0    0 -0.12223059938E+02  0.14685239818E+00  0.29449855867E+02  0.31886027825E+02  0.00000000000E+00 0.  1.
         11    1    3    3    0    0  0.18558089258E+02  0.30090988201E+01 -0.17902566240E+02  0.25960724775E+02  0.51100000000E-03 0. -1.
        -11    1    3    3    0    0 -0.15995756250E+02 -0.91692343539E+01 -0.11921274379E+02  0.21955770534E+02  0.51100000000E-03 0.  1.
        -12    1    3    3    0    0  0.96607269301E+01  0.60132831356E+01  0.37398475247E+00  0.11385476867E+02  0.00000000000E+00 0.  1.
</event>
<event>
 7    1  0.1127845E-012  0.5930194E+02  0.7816164E-02  0.1266605E+00
        -11   -1    0    0    0    0  0.00000000000E+00  0.00000000000E+00  0.45593999997E+02  0.45594000000E+02  0.51100000000E-03 0.  1.
         11   -1    0    0    0    0 -0.00000000000E+00 -0.00000000000E+00 -0.45593999997E+02  0.45594000000E+02  0.51100000000E-03 0. -1.
    9900012    2    1    2    0    0 -0.28826392576E+02  0.75594588399E+00  0.13608396015E+02  0.59301940268E+02  0.49999993142E+02 0.  0.
        -12    1    1    2    0    0  0.28826392576E+02 -0.75594588399E+00 -0.13608396015E+02  0.31886059732E+02  0.00000000000E+00 0.  1.
         11    1    3    3    0    0 -0.25279385820E+02  0.14004420840E+02 -0.45222430293E+01  0.29251014218E+02  0.51100000000E-03 0. -1.
        -11    1    3    3    0    0  0.64826965362E+01 -0.64417429336E+00  0.10184218726E+02  0.12089608192E+02  0.51100000000E-03 0.  1.
         12    1    3    3    0    0 -0.10029703293E+02 -0.12604300662E+02  0.79464203183E+01  0.17961317858E+02  0.00000000000E+00 0. -1.
</event>
<event>
 7    1  0.5979290E-013  0.5930195E+02  0.7816164E-02  0.1266605E+00
        -11   -1    0    0    0    0  0.00000000000E+00  0.00000000000E+00  0.45593999997E+02  0.45594000000E+02  0.51100000000E-03 0.  1.
         11   -1    0    0    0    0 -0.00000000000E+00 -0.00000000000E+00 -0.45593999997E+02  0.45594000000E+02  0.51100000000E-03 0. -1.
    9900012    2    1    2    0    0  0.13268229362E+02 -0.20288533042E+02 -0.20713514916E+02  0.59301950016E+02  0.50000010921E+02 0.  0.
        -12    1    1    2    0    0 -0.13268229362E+02  0.20288533042E+02  0.20713514916E+02  0.31886049984E+02  0.00000000000E+00 0.  1.
         11    1    3    3    0    0  0.12564340775E+02 -0.25894821117E+02 -0.13831237512E+02  0.31932860053E+02  0.51100000000E-03 0. -1.
        -11    1    3    3    0    0 -0.75434434451E+01 -0.20160117906E+00  0.69435851491E+01  0.10254635880E+02  0.51100000000E-03 0.  1.
        -12    1    3    3    0    0  0.82473320322E+01  0.58078892540E+01 -0.13825862553E+02  0.17114454083E+02  0.00000000000E+00 0.  1.
</event>
<event>
 7    1  0.5979290E-013  0.5930194E+02  0.7816164E-02  0.1266605E+00
        -11   -1    0    0    0    0  0.00000000000E+00  0.00000000000E+00  0.45593999997E+02  0.45594000000E+02  0.51100000000E-03 0.  1.
         11   -1    0    0    0    0 -0.00000000000E+00 -0.00000000000E+00 -0.45593999997E+02  0.45594000000E+02  0.51100000000E-03 0. -1.
    9900012    2    1    2    0    0  0.28586969586E+02  0.89569825386E+01 -0.10921467113E+02  0.59301940190E+02  0.49999993002E+02 0.  0.
        -12    1    1    2    0    0 -0.28586969586E+02 -0.89569825386E+01  0.10921467113E+02  0.31886059810E+02  0.00000000000E+00 0.  1.
         11    1    3    3    0    0  0.59473484311E+01 -0.13387930987E+02  0.67098597624E+01  0.16113034095E+02  0.51100000000E-03 0.  1.
        -11    1    3    3    0    0  0.22572697270E+02  0.12052427652E+02 -0.20176156434E+02  0.32586269548E+02  0.51100000000E-03 0. -1.
        -12    1    3    3    0    0  0.66923884941E-01  0.10292485874E+02  0.25448295592E+01  0.10602636547E+02  0.00000000000E+00 0.  1.
</event>
<event>
 7    1  0.5979290E-013  0.5930192E+02  0.7816164E-02  0.1266605E+00
        -11   -1    0    0    0    0  0.00000000000E+00  0.00000000000E+00  0.45593999997E+02  0.45594000000E+02  0.51100000000E-03 0. -1.
         11   -1    0    0    0    0 -0.00000000000E+00 -0.00000000000E+00 -0.45593999997E+02  0.45594000000E+02  0.51100000000E-03 0.  1.
    9900012    2    1    2    0    0  0.21179365788E+02  0.14170671414E+02  0.19166348002E+02  0.59301915900E+02  0.49999948702E+02 0.  0.
        -12    1    1    2    0    0 -0.21179365788E+02 -0.14170671414E+02 -0.19166348002E+02  0.31886084100E+02  0.00000000000E+00 0.  1.
         11    1    3    3    0    0  0.21322914090E+02  0.85817472785E+01  0.17417805549E+02  0.28839088093E+02  0.51100000000E-03 0. -1.
        -11    1    3    3    0    0 -0.14102784059E+02  0.38250298681E+01 -0.41742272300E+01  0.15196826804E+02  0.51100000000E-03 0.  1.
        -12    1    3    3    0    0  0.13959235757E+02  0.17638942672E+01  0.59227696829E+01  0.15266001003E+02  0.00000000000E+00 0.  1.
</event>
<event>
 7    1  0.5979290E-013  0.5930188E+02  0.7816164E-02  0.1266605E+00
        -11   -1    0    0    0    0  0.00000000000E+00  0.00000000000E+00  0.45593999997E+02  0.45594000000E+02  0.51100000000E-03 0.  1.
         11   -1    0    0    0    0 -0.00000000000E+00 -0.00000000000E+00 -0.45593999997E+02  0.45594000000E+02  0.51100000000E-03 0. -1.
    9900012    2    1    2    0    0  0.94747282613E+01 -0.22681478214E+02 -0.20310217681E+02  0.59301876500E+02  0.49999876846E+02 0.  0.
        -12    1    1    2    0    0 -0.94747282613E+01  0.22681478214E+02  0.20310217681E+02  0.31886123500E+02  0.00000000000E+00 0.  1.
         11    1    3    3    0    0  0.13879242451E+02 -0.24075010262E+02 -0.28647208165E+02  0.39911176706E+02  0.51100000000E-03 0. -1.
        -11    1    3    3    0    0  0.49256349317E+01  0.16272906771E+01  0.86118771172E+01  0.10053575591E+02  0.51100000000E-03 0.  1.
         12    1    3    3    0    0 -0.93301491210E+01 -0.23375862901E+00 -0.27488663311E+00  0.93371242028E+01  0.00000000000E+00 0. -1.
</event>
<event>
 7    1  0.5979290E-013  0.5930190E+02  0.7816164E-02  0.1266605E+00
        -11   -1    0    0    0    0  0.00000000000E+00  0.00000000000E+00  0.45593999997E+02  0.45594000000E+02  0.51100000000E-03 0.  1.
         11   -1    0    0    0    0 -0.00000000000E+00 -0.00000000000E+00 -0.45593999997E+02  0.45594000000E+02  0.51100000000E-03 0. -1.
    9900012    2    1    2    0    0  0.28808138111E+01 -0.23901436999E+02 -0.20908030042E+02  0.59301898026E+02  0.49999916104E+02 0.  0.
        -12    1    1    2    0    0 -0.28808138111E+01  0.23901436999E+02  0.20908030042E+02  0.31886101974E+02  0.00000000000E+00 0.  1.
         11    1    3    3    0    0 -0.10981348770E+02 -0.14014111230E+02  0.96088118613E+01  0.20231524906E+02  0.51100000000E-03 0. -1.
        -11    1    3    3    0    0  0.13783276135E+02 -0.92788204809E+01 -0.11885449693E+02  0.20428879686E+02  0.51100000000E-03 0.  1.
         12    1    3    3    0    0  0.78886445252E-01 -0.60850528819E+00 -0.18631392211E+02  0.18641493435E+02  0.00000000000E+00 0. -1.
</event>
<event>
 7    1  0.5979290E-013  0.5930193E+02  0.7816164E-02  0.1266605E+00
        -11   -1    0    0    0    0  0.00000000000E+00  0.00000000000E+00  0.45593999997E+02  0.45594000000E+02  0.51100000000E-03 0. -1.
         11   -1    0    0    0    0 -0.00000000000E+00 -0.00000000000E+00 -0.45593999997E+02  0.45594000000E+02  0.51100000000E-03 0.  1.
    9900012    2    1    2    0    0  0.28781109217E+02  0.13034588790E+02 -0.42975466140E+01  0.59301926871E+02  0.49999968710E+02 0.  0.
        -12    1    1    2    0    0 -0.28781109217E+02 -0.13034588790E+02  0.42975466140E+01  0.31886073129E+02  0.00000000000E+00 0.  1.
         11    1    3    3    0    0  0.20582259104E+02  0.18244585893E+02 -0.21520929764E+01  0.27588508634E+02  0.51100000000E-03 0. -1.
        -11    1    3    3    0    0  0.19726895618E+01 -0.65312444404E+01  0.13333107909E+02  0.14977330364E+02  0.51100000000E-03 0.  1.
        -12    1    3    3    0    0  0.62261605514E+01  0.13212473378E+01 -0.15478561547E+02  0.16736087873E+02  0.00000000000E+00 0.  1.
</event>
<event>
 7    1  0.5979290E-013  0.5930193E+02  0.7816164E-02  0.1266605E+00
        -11   -1    0    0    0    0  0.00000000000E+00  0.00000000000E+00  0.45593999997E+02  0.45594000000E+02  0.51100000000E-03 0.  1.
         11   -1    0    0    0    0 -0.00000000000E+00 -0.00000000000E+00 -0.45593999997E+02  0.45594000000E+02  0.51100000000E-03 0. -1.
    9900012    2    1    2    0    0  0.20277042481E+02 -0.16813385340E+02 -0.17968670030E+02  0.59301929671E+02  0.49999973817E+02 0.  0.
        -12    1    1    2    0    0 -0.20277042481E+02  0.16813385340E+02  0.17968670030E+02  0.31886070329E+02  0.00000000000E+00 0.  1.
         11    1    3    3    0    0 -0.14121766556E+02  0.22492088918E+01 -0.34558079479E+01  0.14711418699E+02  0.51100000000E-03 0.  1.
        -11    1    3    3    0    0  0.25363730801E+02 -0.20792568278E+02 -0.96620647856E+01  0.34190718505E+02  0.51100000000E-03 0. -1.
        -12    1    3    3    0    0  0.90350782363E+01  0.17299740468E+01 -0.48507972967E+01  0.10399792467E+02  0.00000000000E+00 0.  1.
</event>
<event>
 7    1  0.5979290E-013  0.5930194E+02  0.7816164E-02  0.1266605E+00
        -11   -1    0    0    0    0  0.00000000000E+00  0.00000000000E+00  0.45593999997E+02  0.45594000000E+02  0.51100000000E-03 0. -1.
         11   -1    0    0    0    0 -0.00000000000E+00 -0.00000000000E+00 -0.45593999997E+02  0.45594000000E+02  0.51100000000E-03 0.  1.
    9900012    2    1    2    0    0 -0.29196411271E+02  0.11591120438E+02  0.54714017390E+01  0.59301941274E+02  0.49999994977E+02 0.  0.
        -12    1    1    2    0    0  0.29196411271E+02 -0.11591120438E+02 -0.54714017390E+01  0.31886058726E+02  0.00000000000E+00 0.  1.
         11    1    3    3    0    0 -0.31483931156E+02  0.12987261218E+02  0.21898458207E+01  0.34127735055E+02  0.51100000000E-03 0. -1.
        -11    1    3    3    0    0  0.68624442669E+01  0.39587706257E+01 -0.83918177713E+01  0.11540693738E+02  0.51100000000E-03 0.  1.
        -12    1    3    3    0    0 -0.45749243816E+01 -0.53549114064E+01  0.11673373690E+02  0.13633512481E+02  0.00000000000E+00 0.  1.
</event>
<event>
 7    1  0.5979290E-013  0.5930196E+02  0.7816164E-02  0.1266605E+00
        -11   -1    0    0    0    0  0.00000000000E+00  0.00000000000E+00  0.45593999997E+02  0.45594000000E+02  0.51100000000E-03 0.  1.
         11   -1    0    0    0    0 -0.00000000000E+00 -0.00000000000E+00 -0.45593999997E+02  0.45594000000E+02  0.51100000000E-03 0. -1.
    9900012    2    1    2    0    0  0.25636078812E+02 -0.14405515799E+02 -0.12328515772E+02  0.59301957232E+02  0.50000024081E+02 0.  0.
        -12    1    1    2    0    0 -0.25636078812E+02  0.14405515799E+02  0.12328515772E+02  0.31886042768E+02  0.00000000000E+00 0.  1.
         11    1    3    3    0    0  0.18086565288E+02 -0.19619393027E+02 -0.85462501253E+01  0.28019329366E+02  0.51100000000E-03 0. -1.
        -11    1    3    3    0    0  0.12381328442E+02  0.54859036129E+01 -0.14306237032E+02  0.19699260157E+02  0.51100000000E-03 0.  1.
        -12    1    3    3    0    0 -0.48318149180E+01 -0.27202638425E+00  0.10523971386E+02  0.11583367709E+02  0.00000000000E+00 0.  1.
</event>
<event>
 7    1  0.5979290E-013  0.5930195E+02  0.7816164E-02  0.1266605E+00
        -11   -1    0    0    0    0  0.00000000000E+00  0.00000000000E+00  0.45593999997E+02  0.45594000000E+02  0.51100000000E-03 0. -1.
         11   -1    0    0    0    0 -0.00000000000E+00 -0.00000000000E+00 -0.45593999997E+02  0.45594000000E+02  0.51100000000E-03 0.  1.
    9900012    2    1    2    0    0 -0.27654358623E+02 -0.44414072736E+01  0.15239108372E+02  0.59301951744E+02  0.50000014073E+02 0.  0.
        -12    1    1    2    0    0  0.27654358623E+02  0.44414072736E+01 -0.15239108372E+02  0.31886048256E+02  0.00000000000E+00 0.  1.
         11    1    3    3    0    0 -0.20677653271E+01 -0.11730030658E+02  0.21893855914E+02  0.24924088744E+02  0.51100000000E-03 0. -1.
        -11    1    3    3    0    0 -0.22102303032E+02 -0.32706654842E+01 -0.23967592391E+01  0.22471170578E+02  0.51100000000E-03 0.  1.
        -12    1    3    3    0    0 -0.34842902629E+01  0.10559288868E+02 -0.42579883034E+01  0.11906692422E+02  0.00000000000E+00 0.  1.
</event>
<event>
 7    1  0.5979290E-013  0.5930195E+02  0.7816164E-02  0.1266605E+00
        -11   -1    0    0    0    0  0.00000000000E+00  0.00000000000E+00  0.45593999997E+02  0.45594000000E+02  0.51100000000E-03 0.  1.
         11   -1    0    0    0    0 -0.00000000000E+00 -0.00000000000E+00 -0.45593999997E+02  0.45594000000E+02  0.51100000000E-03 0. -1.
    9900012    2    1    2    0    0 -0.14622565111E+02  0.48158087272E+01 -0.27923267403E+02  0.59301948401E+02  0.50000007976E+02 0.  0.
        -12    1    1    2    0    0  0.14622565111E+02 -0.48158087272E+01  0.27923267403E+02  0.31886051599E+02  0.00000000000E+00 0.  1.
         11    1    3    3    0    0 -0.37109823956E+01  0.21688791949E+02  0.94638093008E+00  0.22024321185E+02  0.51100000000E-03 0. -1.
        -11    1    3    3    0    0  0.16361293224E+01 -0.47363062123E+01 -0.11988209382E+02  0.12993332142E+02  0.51100000000E-03 0.  1.
         12    1    3    3    0    0 -0.12547712038E+02 -0.12136677009E+02 -0.16881438951E+02  0.24284295074E+02  0.00000000000E+00 0. -1.
</event>
<event>
 7    1  0.5979290E-013  0.5930198E+02  0.7816164E-02  0.1266605E+00
        -11   -1    0    0    0    0  0.00000000000E+00  0.00000000000E+00  0.45593999997E+02  0.45594000000E+02  0.51100000000E-03 0. -1.
         11   -1    0    0    0    0 -0.00000000000E+00 -0.00000000000E+00 -0.45593999997E+02  0.45594000000E+02  0.51100000000E-03 0.  1.
    9900012    2    1    2    0    0 -0.31826106996E+02 -0.15301754795E+01  0.12148448132E+01  0.59301978432E+02  0.50000062745E+02 0.  0.
        -12    1    1    2    0    0  0.31826106996E+02  0.15301754795E+01 -0.12148448132E+01  0.31886021568E+02  0.00000000000E+00 0.  1.
         11    1    3    3    0    0 -0.25544253719E+02 -0.11281040201E+02 -0.18619022424E+02  0.33562460612E+02  0.51100000000E-03 0.  1.
        -11    1    3    3    0    0 -0.29494484771E+01  0.11434104105E+02  0.10954099561E+02  0.16106839555E+02  0.51100000000E-03 0. -1.
        -12    1    3    3    0    0 -0.33324048005E+01 -0.16832393834E+01  0.88797676759E+01  0.96326782649E+01  0.00000000000E+00 0.  1.
</event>
<event>
 7    1  0.5979290E-013  0.5930194E+02  0.7816164E-02  0.1266605E+00
        -11   -1    0    0    0    0  0.00000000000E+00  0.00000000000E+00  0.45593999997E+02  0.45594000000E+02  0.51100000000E-03 0. -1.
         11   -1    0    0    0    0 -0.00000000000E+00 -0.00000000000E+00 -0.45593999997E+02  0.45594000000E+02  0.51100000000E-03 0.  1.
    9900012    2    1    2    0    0  0.67798283061E+01  0.14073736842E+02  0.27797210060E+02  0.59301936780E+02  0.49999986781E+02 0.  0.
        -12    1    1    2    0    0 -0.67798283061E+01 -0.14073736842E+02 -0.27797210060E+02  0.31886063220E+02  0.00000000000E+00 0.  1.
         11    1    3    3    0    0  0.10951364618E+02 -0.98070947678E+00  0.87774945496E+01  0.14069064962E+02  0.51100000000E-03 0. -1.
        -11    1    3    3    0    0 -0.17913835940E+02 -0.13847514180E+01  0.15058626845E+02  0.23443235641E+02  0.51100000000E-03 0.  1.
        -12    1    3    3    0    0  0.13742299628E+02  0.16439197736E+02  0.39610886655E+01  0.21789636177E+02  0.00000000000E+00 0.  1.
</event>
<event>
 7    1  0.5979290E-013  0.5930195E+02  0.7816164E-02  0.1266605E+00
        -11   -1    0    0    0    0  0.00000000000E+00  0.00000000000E+00  0.45593999997E+02  0.45594000000E+02  0.51100000000E-03 0.  1.
         11   -1    0    0    0    0 -0.00000000000E+00 -0.00000000000E+00 -0.45593999997E+02  0.45594000000E+02  0.51100000000E-03 0. -1.
    9900012    2    1    2    0    0  0.18675259358E+02 -0.20396037271E+02 -0.15873140286E+02  0.59301949273E+02  0.50000009565E+02 0.  0.
        -12    1    1    2    0    0 -0.18675259358E+02  0.20396037271E+02  0.15873140286E+02  0.31886050727E+02  0.00000000000E+00 0.  1.
         11    1    3    3    0    0  0.24215317588E+02 -0.12946960276E+02 -0.14157356364E+02  0.30893949663E+02  0.51100000000E-03 0. -1.
        -11    1    3    3    0    0 -0.63912647817E+01  0.63323014489E+01  0.75786163061E+01  0.11763576519E+02  0.51100000000E-03 0.  1.
         12    1    3    3    0    0  0.85120655148E+00 -0.13781378444E+02 -0.92944002282E+01  0.16644423091E+02  0.00000000000E+00 0. -1.
</event>
<event>
 7    1  0.5979290E-013  0.5930195E+02  0.7816164E-02  0.1266605E+00
        -11   -1    0    0    0    0  0.00000000000E+00  0.00000000000E+00  0.45593999997E+02  0.45594000000E+02  0.51100000000E-03 0.  1.
         11   -1    0    0    0    0 -0.00000000000E+00 -0.00000000000E+00 -0.45593999997E+02  0.45594000000E+02  0.51100000000E-03 0. -1.
    9900012    2    1    2    0    0 -0.21108836789E+01  0.30642667687E+02 -0.85610449894E+01  0.59301946556E+02  0.50000004612E+02 0.  0.
        -12    1    1    2    0    0  0.21108836789E+01 -0.30642667687E+02  0.85610449894E+01  0.31886053444E+02  0.00000000000E+00 0.  1.
         11    1    3    3    0    0 -0.23199048808E+02  0.15354027023E+02 -0.97079383445E+01  0.29464997516E+02  0.51100000000E-03 0. -1.
        -11    1    3    3    0    0  0.13957365742E+02  0.16131421421E+01  0.27969971948E+01  0.14325972204E+02  0.51100000000E-03 0.  1.
        -12    1    3    3    0    0  0.71307993874E+01  0.13675498522E+02 -0.16501038398E+01  0.15510976836E+02  0.00000000000E+00 0.  1.
</event>
<event>
 7    1  0.5979290E-013  0.5930194E+02  0.7816164E-02  0.1266605E+00
        -11   -1    0    0    0    0  0.00000000000E+00  0.00000000000E+00  0.45593999997E+02  0.45594000000E+02  0.51100000000E-03 0.  1.
         11   -1    0    0    0    0 -0.00000000000E+00 -0.00000000000E+00 -0.45593999997E+02  0.45594000000E+02  0.51100000000E-03 0. -1.
    9900012    2    1    2    0    0 -0.11689981950E+02 -0.25405377893E+02  0.15317691946E+02  0.59301943637E+02  0.49999999287E+02 0.  0.
        -12    1    1    2    0    0  0.11689981950E+02  0.25405377893E+02 -0.15317691946E+02  0.31886056363E+02  0.00000000000E+00 0.  1.
         11    1    3    3    0    0  0.40716299691E+01  0.53711747339E+01 -0.91433704415E+01  0.11359089397E+02  0.51100000000E-03 0.  1.
        -11    1    3    3    0    0 -0.11553809109E+02 -0.31381408411E+02  0.13280351659E+02  0.35981259555E+02  0.51100000000E-03 0. -1.
        -12    1    3    3    0    0 -0.42078028106E+01  0.60485578387E+00  0.11180710728E+02  0.11961594685E+02  0.00000000000E+00 0.  1.
</event>
<event>
 7    1  0.5979290E-013  0.5930193E+02  0.7816164E-02  0.1266605E+00
        -11   -1    0    0    0    0  0.00000000000E+00  0.00000000000E+00  0.45593999997E+02  0.45594000000E+02  0.51100000000E-03 0. -1.
         11   -1    0    0    0    0 -0.00000000000E+00 -0.00000000000E+00 -0.45593999997E+02  0.45594000000E+02  0.51100000000E-03 0.  1.
    9900012    2    1    2    0    0  0.21639229644E+02  0.87657195025E+01 -0.21716977303E+02  0.59301934059E+02  0.49999981820E+02 0.  0.
        -12    1    1    2    0    0 -0.21639229644E+02 -0.87657195025E+01  0.21716977303E+02  0.31886065941E+02  0.00000000000E+00 0.  1.
         11    1    3    3    0    0  0.34025135771E+02  0.10902684218E+02 -0.15407293239E+02  0.38909678393E+02  0.51100000000E-03 0. -1.
        -11    1    3    3    0    0 -0.11166742073E+02 -0.60214670813E+01  0.22993727947E+00  0.12688855967E+02  0.51100000000E-03 0.  1.
        -12    1    3    3    0    0 -0.12191640540E+01  0.38845023657E+01 -0.65396213433E+01  0.77033996997E+01  0.00000000000E+00 0.  1.
</event>
<event>
 7    1  0.5979290E-013  0.5930200E+02  0.7816164E-02  0.1266605E+00
        -11   -1    0    0    0    0  0.00000000000E+00  0.00000000000E+00  0.45593999997E+02  0.45594000000E+02  0.51100000000E-03 0.  1.
         11   -1    0    0    0    0 -0.00000000000E+00 -0.00000000000E+00 -0.45593999997E+02  0.45594000000E+02  0.51100000000E-03 0. -1.
    9900012    2    1    2    0    0 -0.23154257013E+02  0.20895930842E+02 -0.66300337552E+01  0.59302001644E+02  0.50000105077E+02 0.  0.
        -12    1    1    2    0    0  0.23154257013E+02 -0.20895930842E+02  0.66300337552E+01  0.31885998356E+02  0.00000000000E+00 0.  1.
         11    1    3    3    0    0 -0.25465634220E+01  0.75931314473E+01  0.54757279588E+01  0.97017641374E+01  0.51100000000E-03 0. -1.
        -11    1    3    3    0    0 -0.77113157436E+01  0.10722985926E+02 -0.26801224926E+02  0.29878963761E+02  0.51100000000E-03 0.  1.
        -12    1    3    3    0    0 -0.12896377847E+02  0.25798134687E+01  0.14695463212E+02  0.19721273745E+02  0.00000000000E+00 0.  1.
</event>
<event>
 7    1  0.5979290E-013  0.5930195E+02  0.7816164E-02  0.1266605E+00
        -11   -1    0    0    0    0  0.00000000000E+00  0.00000000000E+00  0.45593999997E+02  0.45594000000E+02  0.51100000000E-03 0. -1.
         11   -1    0    0    0    0 -0.00000000000E+00 -0.00000000000E+00 -0.45593999997E+02  0.45594000000E+02  0.51100000000E-03 0.  1.
    9900012    2    1    2    0    0 -0.82707279981E+01  0.29773871689E+02  0.78633266084E+01  0.59301948468E+02  0.50000008098E+02 0.  0.
        -12    1    1    2    0    0  0.82707279981E+01 -0.29773871689E+02 -0.78633266084E+01  0.31886051532E+02  0.00000000000E+00 0.  1.
         11    1    3    3    0    0 -0.13060312418E+02  0.34397167220E+02 -0.98155422487E+01  0.38079938854E+02  0.51100000000E-03 0. -1.
        -11    1    3    3    0    0  0.62033034402E+01 -0.51630833747E+01  0.77867277142E+01  0.11214790781E+02  0.51100000000E-03 0.  1.
         12    1    3    3    0    0 -0.14137190204E+01  0.53978784338E+00  0.98921411428E+01  0.10007218833E+02  0.00000000000E+00 0. -1.
</event>
<event>
 7    1  0.5979290E-013  0.5930194E+02  0.7816164E-02  0.1266605E+00
        -11   -1    0    0    0    0  0.00000000000E+00  0.00000000000E+00  0.45593999997E+02  0.45594000000E+02  0.51100000000E-03 0.  1.
         11   -1    0    0    0    0 -0.00000000000E+00 -0.00000000000E+00 -0.45593999997E+02  0.45594000000E+02  0.51100000000E-03 0. -1.
    9900012    2    1    2    0    0  0.56683439145E+01  0.10016002634E+02 -0.29736683635E+02  0.59301940583E+02  0.49999993719E+02 0.  0.
        -12    1    1    2    0    0 -0.56683439145E+01 -0.10016002634E+02  0.29736683635E+02  0.31886059417E+02  0.00000000000E+00 0.  1.
         11    1    3    3    0    0  0.45375665430E+01  0.10415427126E+02 -0.12877741070E+02  0.17172852055E+02  0.51100000000E-03 0. -1.
        -11    1    3    3    0    0 -0.10746025834E+02  0.76142566244E+00  0.87483692908E+01  0.13877708953E+02  0.51100000000E-03 0.  1.
        -12    1    3    3    0    0  0.11876803206E+02 -0.11608501544E+01 -0.25607311856E+02  0.28251379576E+02  0.00000000000E+00 0.  1.
</event>
<event>
 7    1  0.5979290E-013  0.5930192E+02  0.7816164E-02  0.1266605E+00
        -11   -1    0    0    0    0  0.00000000000E+00  0.00000000000E+00  0.45593999997E+02  0.45594000000E+02  0.51100000000E-03 0.  1.
         11   -1    0    0    0    0 -0.00000000000E+00 -0.00000000000E+00 -0.45593999997E+02  0.45594000000E+02  0.51100000000E-03 0. -1.
    9900012    2    1    2    0    0 -0.13619206312E+02  0.36548393236E+01 -0.28598622208E+02  0.59301924305E+02  0.49999964030E+02 0.  0.
        -12    1    1    2    0    0  0.13619206312E+02 -0.36548393236E+01  0.28598622208E+02  0.31886075695E+02  0.00000000000E+00 0.  1.
         11    1    3    3    0    0 -0.84244502087E+01  0.18373886072E+00 -0.40143282860E+02  0.41018145744E+02  0.51100000000E-03 0. -1.
        -11    1    3    3    0    0  0.25848414972E+01 -0.10704689511E+01  0.82175918003E+01  0.86807905514E+01  0.51100000000E-03 0.  1.
         12    1    3    3    0    0 -0.77795976001E+01  0.45415694140E+01  0.33270688516E+01  0.96029880092E+01  0.00000000000E+00 0. -1.
</event>
<event>
 7    1  0.5979290E-013  0.5930195E+02  0.7816164E-02  0.1266605E+00
        -11   -1    0    0    0    0  0.00000000000E+00  0.00000000000E+00  0.45593999997E+02  0.45594000000E+02  0.51100000000E-03 0.  1.
         11   -1    0    0    0    0 -0.00000000000E+00 -0.00000000000E+00 -0.45593999997E+02  0.45594000000E+02  0.51100000000E-03 0. -1.
    9900012    2    1    2    0    0  0.23324182965E+02 -0.14944307254E+02 -0.15791471796E+02  0.59301946438E+02  0.50000004395E+02 0.  0.
        -12    1    1    2    0    0 -0.23324182965E+02  0.14944307254E+02  0.15791471796E+02  0.31886053562E+02  0.00000000000E+00 0.  1.
         11    1    3    3    0    0  0.10055288323E+01 -0.28759731394E+02 -0.30306205675E+01  0.28936445866E+02  0.51100000000E-03 0. -1.
        -11    1    3    3    0    0  0.11512603294E+02  0.75116701518E+01 -0.11252300605E+02  0.17764557192E+02  0.51100000000E-03 0.  1.
         12    1    3    3    0    0  0.10806050839E+02  0.63037539874E+01 -0.15085506232E+01  0.12600943379E+02  0.00000000000E+00 0. -1.
</event>
<event>
 7    1  0.5979290E-013  0.5930196E+02  0.7816164E-02  0.1266605E+00
        -11   -1    0    0    0    0  0.00000000000E+00  0.00000000000E+00  0.45593999997E+02  0.45594000000E+02  0.51100000000E-03 0.  1.
         11   -1    0    0    0    0 -0.00000000000E+00 -0.00000000000E+00 -0.45593999997E+02  0.45594000000E+02  0.51100000000E-03 0. -1.
    9900012    2    1    2    0    0  0.19583486591E+02 -0.14542610061E+02 -0.20535799832E+02  0.59301960277E+02  0.50000029635E+02 0.  0.
        -12    1    1    2    0    0 -0.19583486591E+02  0.14542610061E+02  0.20535799832E+02  0.31886039723E+02  0.00000000000E+00 0.  1.
         11    1    3    3    0    0  0.24516084304E+02  0.10767125535E+01 -0.75481684086E+01  0.25674355807E+02  0.51100000000E-03 0. -1.
        -11    1    3    3    0    0 -0.66527414696E+01 -0.16543534367E+02  0.25104951191E+01  0.18006945450E+02  0.51100000000E-03 0.  1.
         12    1    3    3    0    0  0.17201437566E+01  0.92421175236E+00 -0.15498126542E+02  0.15620659020E+02  0.00000000000E+00 0. -1.
</event>
<event>
 7    1  0.6551352E-013  0.5930218E+02  0.7816164E-02  0.1266604E+00
        -11   -1    0    0    0    0  0.00000000000E+00  0.00000000000E+00  0.45593999997E+02  0.45594000000E+02  0.51100000000E-03 0.  1.
         11   -1    0    0    0    0 -0.00000000000E+00 -0.00000000000E+00 -0.45593999997E+02  0.45594000000E+02  0.51100000000E-03 0. -1.
    9900012    2    1    2    0    0 -0.67893638458E+01  0.31146419958E+02 -0.71444477570E+00  0.59302182322E+02  0.50000434591E+02 0.  0.
        -12    1    1    2    0    0  0.67893638458E+01 -0.31146419958E+02  0.71444477570E+00  0.31885817678E+02  0.00000000000E+00 0.  1.
         11    1    3    3    0    0 -0.16223299332E+02  0.31873940544E+01 -0.84793967390E+01  0.18581041181E+02  0.51100000000E-03 0. -1.
        -11    1    3    3    0    0  0.67244463633E+01  0.24524676150E+01  0.12721193944E+02  0.14596628101E+02  0.51100000000E-03 0.  1.
         12    1    3    3    0    0  0.27094891227E+01  0.25506558289E+02 -0.49562419804E+01  0.26124513040E+02  0.00000000000E+00 0. -1.
</event>
<event>
 7    1  0.5979290E-013  0.5930190E+02  0.7816164E-02  0.1266605E+00
        -11   -1    0    0    0    0  0.00000000000E+00  0.00000000000E+00  0.45593999997E+02  0.45594000000E+02  0.51100000000E-03 0. -1.
         11   -1    0    0    0    0 -0.00000000000E+00 -0.00000000000E+00 -0.45593999997E+02  0.45594000000E+02  0.51100000000E-03 0.  1.
    9900012    2    1    2    0    0 -0.83019016792E+01 -0.28713841708E+02  0.11104829481E+02  0.59301897778E+02  0.49999915651E+02 0.  0.
        -12    1    1    2    0    0  0.83019016792E+01  0.28713841708E+02 -0.11104829481E+02  0.31886102222E+02  0.00000000000E+00 0.  1.
         11    1    3    3    0    0 -0.41158409243E+01 -0.12179996386E+02  0.51147580304E+01  0.13836661752E+02  0.51100000000E-03 0. -1.
        -11    1    3    3    0    0  0.35001860844E+01 -0.20443661450E+02 -0.13090364253E+02  0.24526561778E+02  0.51100000000E-03 0.  1.
        -12    1    3    3    0    0 -0.76862468393E+01  0.39098161274E+01  0.19080435703E+02  0.20938674248E+02  0.00000000000E+00 0.  1.
</event>
<event>
 7    1  0.5979290E-013  0.5930212E+02  0.7816164E-02  0.1266604E+00
        -11   -1    0    0    0    0  0.00000000000E+00  0.00000000000E+00  0.45593999997E+02  0.45594000000E+02  0.51100000000E-03 0.  1.
         11   -1    0    0    0    0 -0.00000000000E+00 -0.00000000000E+00 -0.45593999997E+02  0.45594000000E+02  0.51100000000E-03 0. -1.
    9900012    2    1    2    0    0  0.44727576134E+01  0.23045793422E+02 -0.21577653692E+02  0.59302120774E+02  0.50000322342E+02 0.  0.
        -12    1    1    2    0    0 -0.44727576134E+01 -0.23045793422E+02  0.21577653692E+02  0.31885879226E+02  0.00000000000E+00 0.  1.
         11    1    3    3    0    0 -0.48158866144E+01  0.13713191276E+02 -0.74328417189E+01  0.16324567839E+02  0.51100000000E-03 0. -1.
        -11    1    3    3    0    0  0.67621529231E+01 -0.12840834563E+02  0.30195477252E+01  0.14823340148E+02  0.51100000000E-03 0.  1.
        -12    1    3    3    0    0  0.25264913048E+01  0.22173436709E+02 -0.17164359699E+02  0.28154212787E+02  0.00000000000E+00 0.  1.
</event>
<event>
 7    1  0.5979290E-013  0.5930200E+02  0.7816164E-02  0.1266605E+00
        -11   -1    0    0    0    0  0.00000000000E+00  0.00000000000E+00  0.45593999997E+02  0.45594000000E+02  0.51100000000E-03 0. -1.
         11   -1    0    0    0    0 -0.00000000000E+00 -0.00000000000E+00 -0.45593999997E+02  0.45594000000E+02  0.51100000000E-03 0.  1.
    9900012    2    1    2    0    0  0.11435415386E+02 -0.34076817432E+01  0.29569168415E+02  0.59302004004E+02  0.50000109382E+02 0.  0.
        -12    1    1    2    0    0 -0.11435415386E+02  0.34076817432E+01 -0.29569168415E+02  0.31885995996E+02  0.00000000000E+00 0.  1.
         11    1    3    3    0    0  0.19577194191E+02  0.59906516714E+01  0.21218143954E+02  0.29484980464E+02  0.51100000000E-03 0. -1.
        -11    1    3    3    0    0 -0.15757197549E+02 -0.10644905687E+02  0.10611091063E+02  0.21776100328E+02  0.51100000000E-03 0.  1.
        -12    1    3    3    0    0  0.76154187435E+01  0.12465722721E+01 -0.22600666018E+01  0.80409232127E+01  0.00000000000E+00 0.  1.
</event>
<event>
 7    1  0.5979290E-013  0.5930193E+02  0.7816164E-02  0.1266605E+00
        -11   -1    0    0    0    0  0.00000000000E+00  0.00000000000E+00  0.45593999997E+02  0.45594000000E+02  0.51100000000E-03 0. -1.
         11   -1    0    0    0    0 -0.00000000000E+00 -0.00000000000E+00 -0.45593999997E+02  0.45594000000E+02  0.51100000000E-03 0.  1.
    9900012    2    1    2    0    0 -0.30315544830E+02  0.93874659899E+01 -0.30927229830E+01  0.59301926057E+02  0.49999967226E+02 0.  0.
        -12    1    1    2    0    0  0.30315544830E+02 -0.93874659899E+01  0.30927229830E+01  0.31886073943E+02  0.00000000000E+00 0.  1.
         11    1    3    3    0    0 -0.39602430843E+01  0.99431751483E+01  0.15698095179E+02  0.18999485515E+02  0.51100000000E-03 0. -1.
        -11    1    3    3    0    0 -0.30569919278E+02  0.20129706540E+01 -0.17098835063E+02  0.35084785539E+02  0.51100000000E-03 0.  1.
        -12    1    3    3    0    0  0.42146175328E+01 -0.25686798124E+01 -0.16919830995E+01  0.52176550035E+01  0.00000000000E+00 0.  1.
</event>
<event>
 7    1  0.5979290E-013  0.5930194E+02  0.7816164E-02  0.1266605E+00
        -11   -1    0    0    0    0  0.00000000000E+00  0.00000000000E+00  0.45593999997E+02  0.45594000000E+02  0.51100000000E-03 0. -1.
         11   -1    0    0    0    0 -0.00000000000E+00 -0.00000000000E+00 -0.45593999997E+02  0.45594000000E+02  0.51100000000E-03 0.  1.
    9900012    2    1    2    0    0 -0.31594484882E+01  0.13344115938E+02  0.28786686586E+02  0.59301939260E+02  0.49999991304E+02 0.  0.
        -12    1    1    2    0    0  0.31594484882E+01 -0.13344115938E+02 -0.28786686586E+02  0.31886060740E+02  0.00000000000E+00 0.  1.
         11    1    3    3    0    0  0.98098863126E+01 -0.39612886036E+01  0.92660197829E+00  0.10619993802E+02  0.51100000000E-03 0.  1.
        -11    1    3    3    0    0  0.50720567214E+01  0.17432888728E+02  0.24231788550E+02  0.30278886132E+02  0.51100000000E-03 0. -1.
        -12    1    3    3    0    0 -0.18041391522E+02 -0.12748418623E+00  0.36282960580E+01  0.18403059326E+02  0.00000000000E+00 0.  1.
</event>
<event>
 7    1  0.5979290E-013  0.5930195E+02  0.7816164E-02  0.1266605E+00
        -11   -1    0    0    0    0  0.00000000000E+00  0.00000000000E+00  0.45593999997E+02  0.45594000000E+02  0.51100000000E-03 0. -1.
         11   -1    0    0    0    0 -0.00000000000E+00 -0.00000000000E+00 -0.45593999997E+02  0.45594000000E+02  0.51100000000E-03 0.  1.
    9900012    2    1    2    0    0 -0.13799658674E+02  0.28642229875E+02  0.24315466465E+01  0.59301947707E+02  0.50000006711E+02 0.  0.
        -12    1    1    2    0    0  0.13799658674E+02 -0.28642229875E+02 -0.24315466465E+01  0.31886052293E+02  0.00000000000E+00 0.  1.
         11    1    3    3    0    0  0.14723189986E+02  0.29477086232E+01  0.89618192528E+01  0.17486438004E+02  0.51100000000E-03 0. -1.
        -11    1    3    3    0    0 -0.17939213345E+01  0.43008652463E+01 -0.59715814643E+01  0.75746538580E+01  0.51100000000E-03 0.  1.
         12    1    3    3    0    0 -0.26728927325E+02  0.21393656005E+02 -0.55869114194E+00  0.34240855845E+02  0.00000000000E+00 0. -1.
</event>
<event>
 7    1  0.5979290E-013  0.5930194E+02  0.7816164E-02  0.1266605E+00
        -11   -1    0    0    0    0  0.00000000000E+00  0.00000000000E+00  0.45593999997E+02  0.45594000000E+02  0.51100000000E-03 0.  1.
         11   -1    0    0    0    0 -0.00000000000E+00 -0.00000000000E+00 -0.45593999997E+02  0.45594000000E+02  0.51100000000E-03 0. -1.
    9900012    2    1    2    0    0 -0.28177143748E+02  0.24987332599E+01  0.14714811486E+02  0.59301940746E+02  0.49999994015E+02 0.  0.
        -12    1    1    2    0    0  0.28177143748E+02 -0.24987332599E+01 -0.14714811486E+02  0.31886059254E+02  0.00000000000E+00 0.  1.
         11    1    3    3    0    0 -0.17574141723E+02  0.45191879384E+01 -0.71335120040E+00  0.18159911540E+02  0.51100000000E-03 0. -1.
        -11    1    3    3    0    0  0.34576060312E+00 -0.18398976663E+02  0.65530654435E+01  0.19534189505E+02  0.51100000000E-03 0.  1.
        -12    1    3    3    0    0 -0.10948762628E+02  0.16378521985E+02  0.88750972424E+01  0.21607839701E+02  0.00000000000E+00 0.  1.
</event>
<event>
 7    1  0.5979290E-013  0.5930190E+02  0.7816164E-02  0.1266605E+00
        -11   -1    0    0    0    0  0.00000000000E+00  0.00000000000E+00  0.45593999997E+02  0.45594000000E+02  0.51100000000E-03 0. -1.
         11   -1    0    0    0    0 -0.00000000000E+00 -0.00000000000E+00 -0.45593999997E+02  0.45594000000E+02  0.51100000000E-03 0.  1.
    9900012    2    1    2    0    0 -0.23077249990E+02 -0.19775146357E+02 -0.96492231943E+01  0.59301899755E+02  0.49999919258E+02 0.  0.
        -12    1    1    2    0    0  0.23077249990E+02  0.19775146357E+02  0.96492231943E+01  0.31886100245E+02  0.00000000000E+00 0.  1.
         11    1    3    3    0    0 -0.96349847813E+01 -0.32950338287E+02  0.31611815716E+01  0.34475365033E+02  0.51100000000E-03 0. -1.
        -11    1    3    3    0    0 -0.39818741012E+01  0.10675789042E+02 -0.57694985967E+01  0.12771644661E+02  0.51100000000E-03 0.  1.
        -12    1    3    3    0    0 -0.94603911078E+01  0.24994028881E+01 -0.70409061692E+01  0.12054890061E+02  0.00000000000E+00 0.  1.
</event>
<event>
 7    1  0.5979290E-013  0.5930200E+02  0.7816164E-02  0.1266605E+00
        -11   -1    0    0    0    0  0.00000000000E+00  0.00000000000E+00  0.45593999997E+02  0.45594000000E+02  0.51100000000E-03 0.  1.
         11   -1    0    0    0    0 -0.00000000000E+00 -0.00000000000E+00 -0.45593999997E+02  0.45594000000E+02  0.51100000000E-03 0. -1.
    9900012    2    1    2    0    0  0.22625353712E+02 -0.15665704361E+02 -0.16105776990E+02  0.59302000311E+02  0.50000102647E+02 0.  0.
        -12    1    1    2    0    0 -0.22625353712E+02  0.15665704361E+02  0.16105776990E+02  0.31885999689E+02  0.00000000000E+00 0.  1.
         11    1    3    3    0    0  0.12893786502E+02 -0.23693419136E+01 -0.20903152016E+02  0.24673979734E+02  0.51100000000E-03 0. -1.
        -11    1    3    3    0    0  0.98259903918E+01 -0.22745231792E+02  0.44423612485E+01  0.25172012835E+02  0.51100000000E-03 0.  1.
        -12    1    3    3    0    0 -0.94423181580E-01  0.94488693444E+01  0.35501377737E+00  0.94560077415E+01  0.00000000000E+00 0.  1.
</event>
<event>
 7    1  0.5979290E-013  0.5930196E+02  0.7816164E-02  0.1266605E+00
        -11   -1    0    0    0    0  0.00000000000E+00  0.00000000000E+00  0.45593999997E+02  0.45594000000E+02  0.51100000000E-03 0.  1.
         11   -1    0    0    0    0 -0.00000000000E+00 -0.00000000000E+00 -0.45593999997E+02  0.45594000000E+02  0.51100000000E-03 0. -1.
    9900012    2    1    2    0    0 -0.21459002365E+02  0.11058405099E+02 -0.20831281027E+02  0.59301962695E+02  0.50000034044E+02 0.  0.
        -12    1    1    2    0    0  0.21459002365E+02 -0.11058405099E+02  0.20831281027E+02  0.31886037305E+02  0.00000000000E+00 0.  1.
         11    1    3    3    0    0 -0.46663052579E+01 -0.35910034068E+01 -0.10244663278E+02  0.11816210736E+02  0.51100000000E-03 0. -1.
        -11    1    3    3    0    0 -0.62386218529E+01  0.22562001257E+02  0.79614862463E+01  0.24725484159E+02  0.51100000000E-03 0.  1.
        -12    1    3    3    0    0 -0.10554075254E+02 -0.79125927516E+01 -0.18548103995E+02  0.22760267800E+02  0.00000000000E+00 0.  1.
</event>
<event>
 7    1  0.5979290E-013  0.5930198E+02  0.7816164E-02  0.1266605E+00
        -11   -1    0    0    0    0  0.00000000000E+00  0.00000000000E+00  0.45593999997E+02  0.45594000000E+02  0.51100000000E-03 0.  1.
         11   -1    0    0    0    0 -0.00000000000E+00 -0.00000000000E+00 -0.45593999997E+02  0.45594000000E+02  0.51100000000E-03 0. -1.
    9900012    2    1    2    0    0  0.63153004851E+01 -0.26971198271E+02 -0.15792077901E+02  0.59301979853E+02  0.50000065336E+02 0.  0.
        -12    1    1    2    0    0 -0.63153004851E+01  0.26971198271E+02  0.15792077901E+02  0.31886020147E+02  0.00000000000E+00 0.  1.
         11    1    3    3    0    0 -0.92996769440E+01 -0.29325471992E+02 -0.38303919912E+01  0.31002245110E+02  0.51100000000E-03 0. -1.
        -11    1    3    3    0    0  0.38570338743E+01  0.63588920697E+01  0.37029411057E+01  0.83080678713E+01  0.51100000000E-03 0.  1.
         12    1    3    3    0    0  0.11757943555E+02 -0.40046183491E+01 -0.15664627015E+02  0.19991666871E+02  0.00000000000E+00 0. -1.
</event>
<event>
 7    1  0.5979290E-013  0.5930176E+02  0.7816164E-02  0.1266605E+00
        -11   -1    0    0    0    0  0.00000000000E+00  0.00000000000E+00  0.45593999997E+02  0.45594000000E+02  0.51100000000E-03 0. -1.
         11   -1    0    0    0    0 -0.00000000000E+00 -0.00000000000E+00 -0.45593999997E+02  0.45594000000E+02  0.51100000000E-03 0.  1.
    9900012    2    1    2    0    0 -0.12691069860E+02 -0.68759241709E+01  0.28432210325E+02  0.59301762038E+02  0.49999668093E+02 0.  0.
        -12    1    1    2    0    0  0.12691069860E+02  0.68759241709E+01 -0.28432210325E+02  0.31886237962E+02  0.00000000000E+00 0.  1.
         11    1    3    3    0    0 -0.65416804414E+01 -0.13342666297E+02  0.36452552170E+02  0.39365071915E+02  0.51100000000E-03 0. -1.
        -11    1    3    3    0    0 -0.10140647017E+02 -0.28606940491E+00 -0.61824242090E+01  0.11880106354E+02  0.51100000000E-03 0.  1.
         12    1    3    3    0    0  0.39912575985E+01  0.67528115310E+01 -0.18379176352E+01  0.80565837688E+01  0.00000000000E+00 0. -1.
</event>
<event>
 7    1  0.5979290E-013  0.5930183E+02  0.7816164E-02  0.1266605E+00
        -11   -1    0    0    0    0  0.00000000000E+00  0.00000000000E+00  0.45593999997E+02  0.45594000000E+02  0.51100000000E-03 0.  1.
         11   -1    0    0    0    0 -0.00000000000E+00 -0.00000000000E+00 -0.45593999997E+02  0.45594000000E+02  0.51100000000E-03 0. -1.
    9900012    2    1    2    0    0 -0.73594153149E+01  0.25646880428E+02 -0.17458644663E+02  0.59301831479E+02  0.49999794737E+02 0.  0.
        -12    1    1    2    0    0  0.73594153149E+01 -0.25646880428E+02  0.17458644663E+02  0.31886168521E+02  0.00000000000E+00 0.  1.
         11    1    3    3    0    0 -0.16567391175E+02  0.32660796477E+02 -0.10359230045E+02  0.38059423593E+02  0.51100000000E-03 0. -1.
        -11    1    3    3    0    0  0.49093960915E+01 -0.10773161200E+01  0.50041756065E+01  0.70925703216E+01  0.51100000000E-03 0.  1.
         12    1    3    3    0    0  0.42985797684E+01 -0.59365999290E+01 -0.12103590225E+02  0.14149837564E+02  0.00000000000E+00 0. -1.
</event>
<event>
 7    1  0.5979290E-013  0.5930198E+02  0.7816164E-02  0.1266605E+00
        -11   -1    0    0    0    0  0.00000000000E+00  0.00000000000E+00  0.45593999997E+02  0.45594000000E+02  0.51100000000E-03 0.  1.
         11   -1    0    0    0    0 -0.00000000000E+00 -0.00000000000E+00 -0.45593999997E+02  0.45594000000E+02  0.51100000000E-03 0. -1.
    9900012    2    1    2    0    0 -0.19758753694E+02  0.12654352286E+02 -0.21591142859E+02  0.59301977525E+02  0.50000061090E+02 0.  0.
        -12    1    1    2    0    0  0.19758753694E+02 -0.12654352286E+02  0.21591142859E+02  0.31886022475E+02  0.00000000000E+00 0.  1.
         11    1    3    3    0    0 -0.11507477364E+02  0.22233524802E+01 -0.24535756810E+02  0.27191334907E+02  0.51100000000E-03 0. -1.
        -11    1    3    3    0    0 -0.34237107799E+01  0.16759046872E+02  0.11355104901E+02  0.20531094835E+02  0.51100000000E-03 0.  1.
        -12    1    3    3    0    0 -0.48275655501E+01 -0.63280470661E+01 -0.84104909506E+01  0.11579547782E+02  0.00000000000E+00 0.  1.
</event>
<event>
 7    1  0.5979290E-013  0.5930196E+02  0.7816164E-02  0.1266605E+00
        -11   -1    0    0    0    0  0.00000000000E+00  0.00000000000E+00  0.45593999997E+02  0.45594000000E+02  0.51100000000E-03 0. -1.
         11   -1    0    0    0    0 -0.00000000000E+00 -0.00000000000E+00 -0.45593999997E+02  0.45594000000E+02  0.51100000000E-03 0.  1.
    9900012    2    1    2    0    0  0.20296054540E+02  0.24107029941E-01  0.24592463210E+02  0.59301958261E+02  0.50000025959E+02 0.  0.
        -12    1    1    2    0    0 -0.20296054540E+02 -0.24107029941E-01 -0.24592463210E+02  0.31886041739E+02  0.00000000000E+00 0.  1.
         11    1    3    3    0    0  0.43954251274E+01  0.50684411548E+01 -0.13493092044E+02  0.15068921360E+02  0.51100000000E-03 0. -1.
        -11    1    3    3    0    0 -0.14198971031E+01 -0.45913953894E+01  0.53266330558E+01  0.71742622880E+01  0.51100000000E-03 0.  1.
         12    1    3    3    0    0  0.17320526516E+02 -0.45293873541E+00  0.32758922198E+02  0.37058774613E+02  0.00000000000E+00 0. -1.
</event>
<event>
 7    1  0.6162800E-013  0.5930199E+02  0.7816164E-02  0.1266605E+00
        -11   -1    0    0    0    0  0.00000000000E+00  0.00000000000E+00  0.45593999997E+02  0.45594000000E+02  0.51100000000E-03 0.  1.
         11   -1    0    0    0    0 -0.00000000000E+00 -0.00000000000E+00 -0.45593999997E+02  0.45594000000E+02  0.51100000000E-03 0. -1.
    9900012    2    1    2    0    0  0.12377801287E+02 -0.13670696010E+02  0.26011916740E+02  0.59301988858E+02  0.50000081759E+02 0.  0.
        -12    1    1    2    0    0 -0.12377801287E+02  0.13670696010E+02 -0.26011916740E+02  0.31886011142E+02  0.00000000000E+00 0.  1.
         11    1    3    3    0    0  0.12585789557E+02 -0.22320248800E+02  0.11377096390E+02  0.28036296613E+02  0.51100000000E-03 0. -1.
        -11    1    3    3    0    0  0.25065022735E+01  0.12144364584E+02 -0.32682863472E+01  0.12823799777E+02  0.51100000000E-03 0.  1.
        -12    1    3    3    0    0 -0.27144905435E+01 -0.34948117943E+01  0.17903106697E+02  0.18441892468E+02  0.00000000000E+00 0.  1.
</event>
<event>
 7    1  0.5979290E-013  0.5930194E+02  0.7816164E-02  0.1266605E+00
        -11   -1    0    0    0    0  0.00000000000E+00  0.00000000000E+00  0.45593999997E+02  0.45594000000E+02  0.51100000000E-03 0. -1.
         11   -1    0    0    0    0 -0.00000000000E+00 -0.00000000000E+00 -0.45593999997E+02  0.45594000000E+02  0.51100000000E-03 0.  1.
    9900012    2    1    2    0    0 -0.30295394145E+02  0.48226895713E+01  0.86978044534E+01  0.59301936533E+02  0.49999986332E+02 0.  0.
        -12    1    1    2    0    0  0.30295394145E+02 -0.48226895713E+01 -0.86978044534E+01  0.31886063467E+02  0.00000000000E+00 0.  1.
         11    1    3    3    0    0 -0.10531538417E+02 -0.11953915050E+02  0.14407882642E+02  0.21480141268E+02  0.51100000000E-03 0. -1.
        -11    1    3    3    0    0 -0.91762433961E+01  0.45169233689E+01 -0.15738709869E+02  0.18770003415E+02  0.51100000000E-03 0.  1.
        -12    1    3    3    0    0 -0.10587612332E+02  0.12259681252E+02  0.10028631681E+02  0.19051791850E+02  0.00000000000E+00 0.  1.
</event>
<event>
 7    1  0.5979290E-013  0.5930194E+02  0.7816164E-02  0.1266605E+00
        -11   -1    0    0    0    0  0.00000000000E+00  0.00000000000E+00  0.45593999997E+02  0.45594000000E+02  0.51100000000E-03 0.  1.
         11   -1    0    0    0    0 -0.00000000000E+00 -0.00000000000E+00 -0.45593999997E+02  0.45594000000E+02  0.51100000000E-03 0. -1.
    9900012    2    1    2    0    0  0.17659068975E+02 -0.10794948302E+02 -0.24255871246E+02  0.59301938534E+02  0.49999989981E+02 0.  0.
        -12    1    1    2    0    0 -0.17659068975E+02  0.10794948302E+02  0.24255871246E+02  0.31886061466E+02  0.00000000000E+00 0.  1.
         11    1    3    3    0    0  0.72372498187E+01 -0.17077715054E+02 -0.27721167246E+02  0.33353999013E+02  0.51100000000E-03 0. -1.
        -11    1    3    3    0    0  0.10291677877E+02  0.48297990352E+01  0.12441840029E+02  0.16853633905E+02  0.51100000000E-03 0.  1.
        -12    1    3    3    0    0  0.13014127905E+00  0.14529677166E+01 -0.89765440289E+01  0.90943056162E+01  0.00000000000E+00 0.  1.
</event>
<event>
 7    1  0.5979290E-013  0.5930197E+02  0.7816164E-02  0.1266605E+00
        -11   -1    0    0    0    0  0.00000000000E+00  0.00000000000E+00  0.45593999997E+02  0.45594000000E+02  0.51100000000E-03 0. -1.
         11   -1    0    0    0    0 -0.00000000000E+00 -0.00000000000E+00 -0.45593999997E+02  0.45594000000E+02  0.51100000000E-03 0.  1.
    9900012    2    1    2    0    0 -0.12394824209E+02 -0.16441350725E+02 -0.24346850983E+02  0.59301971185E+02  0.50000049529E+02 0.  0.
        -12    1    1    2    0    0  0.12394824209E+02  0.16441350725E+02  0.24346850983E+02  0.31886028815E+02  0.00000000000E+00 0.  1.
         11    1    3    3    0    0 -0.84084712613E+01 -0.23854322653E+02 -0.30086731618E+01  0.25471223227E+02  0.51100000000E-03 0. -1.
        -11    1    3    3    0    0  0.94507030521E+01  0.46988350334E+01 -0.15897613347E+02  0.19082163118E+02  0.51100000000E-03 0.  1.
         12    1    3    3    0    0 -0.13437055999E+02  0.27141368954E+01 -0.54405644735E+01  0.14748584841E+02  0.00000000000E+00 0. -1.
</event>
<event>
 7    1  0.5979290E-013  0.5930192E+02  0.7816164E-02  0.1266605E+00
        -11   -1    0    0    0    0  0.00000000000E+00  0.00000000000E+00  0.45593999997E+02  0.45594000000E+02  0.51100000000E-03 0.  1.
         11   -1    0    0    0    0 -0.00000000000E+00 -0.00000000000E+00 -0.45593999997E+02  0.45594000000E+02  0.51100000000E-03 0. -1.
    9900012    2    1    2    0    0 -0.20342552550E+02  0.14178040461E+02 -0.20047088180E+02  0.59301921219E+02  0.49999958402E+02 0.  0.
        -12    1    1    2    0    0  0.20342552550E+02 -0.14178040461E+02  0.20047088180E+02  0.31886078781E+02  0.00000000000E+00 0.  1.
         11    1    3    3    0    0 -0.15716327775E+02  0.20323623610E+02  0.70308539314E+01  0.26636169819E+02  0.51100000000E-03 0. -1.
        -11    1    3    3    0    0 -0.10586173235E+02 -0.58388560119E+01 -0.20369009748E+02  0.23686617776E+02  0.51100000000E-03 0.  1.
        -12    1    3    3    0    0  0.59599484602E+01 -0.30672713724E+00 -0.67089323629E+01  0.89791336238E+01  0.00000000000E+00 0.  1.
</event>
<event>
 7    1  0.5979290E-013  0.5930224E+02  0.7816164E-02  0.1266604E+00
        -11   -1    0    0    0    0  0.00000000000E+00  0.00000000000E+00  0.45593999997E+02  0.45594000000E+02  0.51100000000E-03 0.  1.
         11   -1    0    0    0    0 -0.00000000000E+00 -0.00000000000E+00 -0.45593999997E+02  0.45594000000E+02  0.51100000000E-03 0. -1.
    9900012    2    1    2    0    0 -0.18008835333E+02 -0.22319909458E+02 -0.13935762236E+02  0.59302235506E+02  0.50000531584E+02 0.  0.
        -12    1    1    2    0    0  0.18008835333E+02  0.22319909458E+02  0.13935762236E+02  0.31885764494E+02  0.00000000000E+00 0.  1.
         11    1    3    3    0    0 -0.16114308498E+02 -0.24837181801E+02 -0.30291784240E+02  0.42357392872E+02  0.51100000000E-03 0. -1.
        -11    1    3    3    0    0 -0.23292710373E+01  0.13046216859E+01  0.14068068167E+02  0.14319150936E+02  0.51100000000E-03 0.  1.
         12    1    3    3    0    0  0.43474420295E+00  0.12126506573E+01  0.22879538365E+01  0.26256916987E+01  0.00000000000E+00 0. -1.
</event>
<event>
 7    1  0.5979290E-013  0.5930195E+02  0.7816164E-02  0.1266605E+00
        -11   -1    0    0    0    0  0.00000000000E+00  0.00000000000E+00  0.45593999997E+02  0.45594000000E+02  0.51100000000E-03 0.  1.
         11   -1    0    0    0    0 -0.00000000000E+00 -0.00000000000E+00 -0.45593999997E+02  0.45594000000E+02  0.51100000000E-03 0. -1.
    9900012    2    1    2    0    0 -0.79059777589E+01  0.22203545687E+02  0.21475988372E+02  0.59301952864E+02  0.50000016116E+02 0.  0.
        -12    1    1    2    0    0  0.79059777589E+01 -0.22203545687E+02 -0.21475988372E+02  0.31886047136E+02  0.00000000000E+00 0.  1.
         11    1    3    3    0    0 -0.17183027066E+02  0.33436737413E+02  0.15069425429E+02  0.40501350730E+02  0.51100000000E-03 0. -1.
        -11    1    3    3    0    0  0.28770534327E+01 -0.50970214082E+01  0.78766445170E+01  0.98131846410E+01  0.51100000000E-03 0.  1.
         12    1    3    3    0    0  0.63999958739E+01 -0.61361703181E+01 -0.14700815740E+01  0.89874174930E+01  0.00000000000E+00 0. -1.
</event>
<event>
 7    1  0.5979290E-013  0.5930193E+02  0.7816164E-02  0.1266605E+00
        -11   -1    0    0    0    0  0.00000000000E+00  0.00000000000E+00  0.45593999997E+02  0.45594000000E+02  0.51100000000E-03 0.  1.
         11   -1    0    0    0    0 -0.00000000000E+00 -0.00000000000E+00 -0.45593999997E+02  0.45594000000E+02  0.51100000000E-03 0. -1.
    9900012    2    1    2    0    0  0.21511615726E+02 -0.16209650552E+02 -0.17065133121E+02  0.59301934852E+02  0.49999983266E+02 0.  0.
        -12    1    1    2    0    0 -0.21511615726E+02  0.16209650552E+02  0.17065133121E+02  0.31886065148E+02  0.00000000000E+00 0.  1.
         11    1    3    3    0    0  0.68892143501E+01 -0.12431417095E+02  0.88887649625E+01  0.16763399064E+02  0.51100000000E-03 0. -1.
        -11    1    3    3    0    0 -0.34487197434E+01  0.97616186195E+01 -0.12588001882E+02  0.16298486359E+02  0.51100000000E-03 0.  1.
         12    1    3    3    0    0  0.18071121120E+02 -0.13539852076E+02 -0.13365896202E+02  0.26240049429E+02  0.00000000000E+00 0. -1.
</event>
<event>
 7    1  0.5979290E-013  0.5930195E+02  0.7816164E-02  0.1266605E+00
        -11   -1    0    0    0    0  0.00000000000E+00  0.00000000000E+00  0.45593999997E+02  0.45594000000E+02  0.51100000000E-03 0.  1.
         11   -1    0    0    0    0 -0.00000000000E+00 -0.00000000000E+00 -0.45593999997E+02  0.45594000000E+02  0.51100000000E-03 0. -1.
    9900012    2    1    2    0    0 -0.16540072533E+02  0.86007338710E+01 -0.25868392202E+02  0.59301947601E+02  0.50000006517E+02 0.  0.
        -12    1    1    2    0    0  0.16540072533E+02 -0.86007338710E+01  0.25868392202E+02  0.31886052399E+02  0.00000000000E+00 0.  1.
         11    1    3    3    0    0 -0.72325062814E+01 -0.61539618998E+01 -0.21340116328E+02  0.23357674528E+02  0.51100000000E-03 0. -1.
        -11    1    3    3    0    0 -0.57121618496E+01 -0.39999284574E+01  0.98300745000E+01  0.12052326979E+02  0.51100000000E-03 0.  1.
         12    1    3    3    0    0 -0.35954044016E+01  0.18754624228E+02 -0.14358350373E+02  0.23891946095E+02  0.00000000000E+00 0. -1.
</event>
<event>
 7    1  0.5979290E-013  0.5930195E+02  0.7816164E-02  0.1266605E+00
        -11   -1    0    0    0    0  0.00000000000E+00  0.00000000000E+00  0.45593999997E+02  0.45594000000E+02  0.51100000000E-03 0. -1.
         11   -1    0    0    0    0 -0.00000000000E+00 -0.00000000000E+00 -0.45593999997E+02  0.45594000000E+02  0.51100000000E-03 0.  1.
    9900012    2    1    2    0    0 -0.31833771461E+02  0.10440595053E+01 -0.14970099763E+01  0.59301951255E+02  0.50000013181E+02 0.  0.
        -12    1    1    2    0    0  0.31833771461E+02 -0.10440595053E+01  0.14970099763E+01  0.31886048745E+02  0.00000000000E+00 0.  1.
         11    1    3    3    0    0 -0.78520262117E+01 -0.12109229824E+02 -0.11136885714E+02  0.18229590951E+02  0.51100000000E-03 0. -1.
        -11    1    3    3    0    0 -0.15452032562E+01  0.17904857823E+00  0.14601370693E+02  0.14683995977E+02  0.51100000000E-03 0.  1.
         12    1    3    3    0    0 -0.22436541993E+02  0.12974240751E+02 -0.49614949544E+01  0.26388364327E+02  0.00000000000E+00 0. -1.
</event>
<event>
 7    1  0.5979290E-013  0.5930194E+02  0.7816164E-02  0.1266605E+00
        -11   -1    0    0    0    0  0.00000000000E+00  0.00000000000E+00  0.45593999997E+02  0.45594000000E+02  0.51100000000E-03 0.  1.
         11   -1    0    0    0    0 -0.00000000000E+00 -0.00000000000E+00 -0.45593999997E+02  0.45594000000E+02  0.51100000000E-03 0. -1.
    9900012    2    1    2    0    0 -0.25445336669E+02 -0.51407772421E+01 -0.18515617431E+02  0.59301939759E+02  0.49999992214E+02 0.  0.
        -12    1    1    2    0    0  0.25445336669E+02  0.51407772421E+01  0.18515617431E+02  0.31886060241E+02  0.00000000000E+00 0.  1.
         11    1    3    3    0    0  0.24006715233E+01 -0.16961996496E+02 -0.90248416761E+01  0.19362859201E+02  0.51100000000E-03 0. -1.
        -11    1    3    3    0    0 -0.87111323641E+01  0.14610845719E+02 -0.11446554984E+02  0.20503274396E+02  0.51100000000E-03 0.  1.
        -12    1    3    3    0    0 -0.19134875828E+02 -0.27896264648E+01  0.19557792287E+01  0.19435806162E+02  0.00000000000E+00 0.  1.
</event>
<event>
 7    1  0.5979290E-013  0.5930193E+02  0.7816164E-02  0.1266605E+00
        -11   -1    0    0    0    0  0.00000000000E+00  0.00000000000E+00  0.45593999997E+02  0.45594000000E+02  0.51100000000E-03 0.  1.
         11   -1    0    0    0    0 -0.00000000000E+00 -0.00000000000E+00 -0.45593999997E+02  0.45594000000E+02  0.51100000000E-03 0. -1.
    9900012    2    1    2    0    0 -0.13702182337E+02 -0.28605286312E+02 -0.32725228280E+01  0.59301927625E+02  0.49999970086E+02 0.  0.
        -12    1    1    2    0    0  0.13702182337E+02  0.28605286312E+02  0.32725228280E+01  0.31886072375E+02  0.00000000000E+00 0.  1.
         11    1    3    3    0    0 -0.57115223558E+01 -0.15022512686E+02 -0.25324248923E+02  0.29993581960E+02  0.51100000000E-03 0. -1.
        -11    1    3    3    0    0 -0.74396431156E+01 -0.20484868345E+01  0.97838414171E+01  0.12460663752E+02  0.51100000000E-03 0.  1.
         12    1    3    3    0    0 -0.55101686587E+00 -0.11534286792E+02  0.12267884678E+02  0.16847681914E+02  0.00000000000E+00 0. -1.
</event>
<event>
 7    1  0.5979290E-013  0.5930194E+02  0.7816164E-02  0.1266605E+00
        -11   -1    0    0    0    0  0.00000000000E+00  0.00000000000E+00  0.45593999997E+02  0.45594000000E+02  0.51100000000E-03 0.  1.
         11   -1    0    0    0    0 -0.00000000000E+00 -0.00000000000E+00 -0.45593999997E+02  0.45594000000E+02  0.51100000000E-03 0. -1.
    9900012    2    1    2    0    0 -0.13973263142E+02  0.27055837668E+02  0.94578309618E+01  0.59301937194E+02  0.49999987538E+02 0.  0.
        -12    1    1    2    0    0  0.13973263142E+02 -0.27055837668E+02 -0.94578309618E+01  0.31886062806E+02  0.00000000000E+00 0.  1.
         11    1    3    3    0    0  0.10300163082E+02  0.22854969294E+02  0.14888728951E+02  0.29156769900E+02  0.51100000000E-03 0.  1.
        -11    1    3    3    0    0 -0.14847962066E+01  0.61349292250E+01 -0.34388498496E+01  0.71880223233E+01  0.51100000000E-03 0. -1.
         12    1    3    3    0    0 -0.22788630017E+02 -0.19340608515E+01 -0.19920481395E+01  0.22957144971E+02  0.00000000000E+00 0. -1.
</event>
<event>
 7    1  0.5979290E-013  0.5930195E+02  0.7816164E-02  0.1266605E+00
        -11   -1    0    0    0    0  0.00000000000E+00  0.00000000000E+00  0.45593999997E+02  0.45594000000E+02  0.51100000000E-03 0.  1.
         11   -1    0    0    0    0 -0.00000000000E+00 -0.00000000000E+00 -0.45593999997E+02  0.45594000000E+02  0.51100000000E-03 0. -1.
    9900012    2    1    2    0    0 -0.19110191092E+02  0.64780534683E+01 -0.24689177688E+02  0.59301951715E+02  0.50000014021E+02 0.  0.
        -12    1    1    2    0    0  0.19110191092E+02 -0.64780534683E+01  0.24689177688E+02  0.31886048285E+02  0.00000000000E+00 0.  1.
         11    1    3    3    0    0 -0.65468289918E+01  0.14551910955E+02  0.95026905171E+01  0.18572027612E+02  0.51100000000E-03 0. -1.
        -11    1    3    3    0    0 -0.88591527208E+01 -0.12259780675E+02 -0.17519976446E+02  0.23145979868E+02  0.51100000000E-03 0.  1.
         12    1    3    3    0    0 -0.37042093791E+01  0.41859231885E+01 -0.16671891759E+02  0.17583944236E+02  0.00000000000E+00 0. -1.
</event>
<event>
 7    1  0.5979290E-013  0.5930193E+02  0.7816164E-02  0.1266605E+00
        -11   -1    0    0    0    0  0.00000000000E+00  0.00000000000E+00  0.45593999997E+02  0.45594000000E+02  0.51100000000E-03 0.  1.
         11   -1    0    0    0    0 -0.00000000000E+00 -0.00000000000E+00 -0.45593999997E+02  0.45594000000E+02  0.51100000000E-03 0. -1.
    9900012    2    1    2    0    0 -0.16859138298E+02 -0.26641030241E+02  0.47693512505E+01  0.59301925488E+02  0.49999966188E+02 0.  0.
        -12    1    1    2    0    0  0.16859138298E+02  0.26641030241E+02 -0.47693512505E+01  0.31886074512E+02  0.00000000000E+00 0.  1.
         11    1    3    3    0    0 -0.21878090157E+02 -0.22954396508E+01 -0.13560123489E+02  0.25841765060E+02  0.51100000000E-03 0. -1.
        -11    1    3    3    0    0  0.32199401831E+01 -0.17798414700E+02  0.54333251698E+01  0.18885777804E+02  0.51100000000E-03 0.  1.
         12    1    3    3    0    0  0.17990116766E+01 -0.65471758898E+01  0.12896149569E+02  0.14574382624E+02  0.00000000000E+00 0. -1.
</event>
<event>
 7    1  0.5979290E-013  0.5930195E+02  0.7816164E-02  0.1266605E+00
        -11   -1    0    0    0    0  0.00000000000E+00  0.00000000000E+00  0.45593999997E+02  0.45594000000E+02  0.51100000000E-03 0.  1.
         11   -1    0    0    0    0 -0.00000000000E+00 -0.00000000000E+00 -0.45593999997E+02  0.45594000000E+02  0.51100000000E-03 0. -1.
    9900012    2    1    2    0    0  0.84968477196E-03 -0.27837012623E+02 -0.15550596298E+02  0.59301947912E+02  0.50000007084E+02 0.  0.
        -12    1    1    2    0    0 -0.84968477196E-03  0.27837012623E+02  0.15550596298E+02  0.31886052088E+02  0.00000000000E+00 0.  1.
         11    1    3    3    0    0  0.28277139552E+01 -0.25041985344E+02 -0.29248154762E+02  0.38607661849E+02  0.51100000000E-03 0. -1.
        -11    1    3    3    0    0  0.49338945720E+01 -0.25027959459E+01  0.11274634476E+02  0.12558848913E+02  0.51100000000E-03 0.  1.
        -12    1    3    3    0    0 -0.77607588424E+01 -0.29223133281E+00  0.24229239878E+01  0.81354371494E+01  0.00000000000E+00 0.  1.
</event>
<event>
 7    1  0.5979290E-013  0.5930191E+02  0.7816164E-02  0.1266605E+00
        -11   -1    0    0    0    0  0.00000000000E+00  0.00000000000E+00  0.45593999997E+02  0.45594000000E+02  0.51100000000E-03 0.  1.
         11   -1    0    0    0    0 -0.00000000000E+00 -0.00000000000E+00 -0.45593999997E+02  0.45594000000E+02  0.51100000000E-03 0. -1.
    9900012    2    1    2    0    0 -0.24897562986E+02  0.13045635503E+02 -0.15054753211E+02  0.59301908321E+02  0.49999934879E+02 0.  0.
        -12    1    1    2    0    0  0.24897562986E+02 -0.13045635503E+02  0.15054753211E+02  0.31886091679E+02  0.00000000000E+00 0.  1.
         11    1    3    3    0    0 -0.24171981937E+02  0.10124017683E+02 -0.18012966156E+02  0.31800116270E+02  0.51100000000E-03 0.  1.
        -11    1    3    3    0    0  0.44683324046E+01 -0.11160345031E+02  0.33761381315E+01  0.12486697107E+02  0.51100000000E-03 0. -1.
         12    1    3    3    0    0 -0.51939134534E+01  0.14081962851E+02 -0.41792518694E+00  0.15015094944E+02  0.00000000000E+00 0. -1.
</event>
<event>
 7    1  0.5979290E-013  0.5930204E+02  0.7816164E-02  0.1266604E+00
        -11   -1    0    0    0    0  0.00000000000E+00  0.00000000000E+00  0.45593999997E+02  0.45594000000E+02  0.51100000000E-03 0. -1.
         11   -1    0    0    0    0 -0.00000000000E+00 -0.00000000000E+00 -0.45593999997E+02  0.45594000000E+02  0.51100000000E-03 0.  1.
    9900012    2    1    2    0    0 -0.47762081857E+01 -0.15649937524E+02  0.27367531438E+02  0.59302039357E+02  0.50000173857E+02 0.  0.
        -12    1    1    2    0    0  0.47762081857E+01  0.15649937524E+02 -0.27367531438E+02  0.31885960643E+02  0.00000000000E+00 0.  1.
         11    1    3    3    0    0 -0.22587574544E+01 -0.23097264317E+02  0.14720761423E+02  0.27482474803E+02  0.51100000000E-03 0. -1.
        -11    1    3    3    0    0  0.10996202860E+01  0.46692464172E+01  0.21409855072E+02  0.21940668207E+02  0.51100000000E-03 0.  1.
         12    1    3    3    0    0 -0.36170710172E+01  0.27780803761E+01 -0.87630850571E+01  0.98788963471E+01  0.00000000000E+00 0. -1.
</event>
<event>
 7    1  0.5979290E-013  0.5930196E+02  0.7816164E-02  0.1266605E+00
        -11   -1    0    0    0    0  0.00000000000E+00  0.00000000000E+00  0.45593999997E+02  0.45594000000E+02  0.51100000000E-03 0.  1.
         11   -1    0    0    0    0 -0.00000000000E+00 -0.00000000000E+00 -0.45593999997E+02  0.45594000000E+02  0.51100000000E-03 0. -1.
    9900012    2    1    2    0    0 -0.23881006049E+02 -0.19993305466E+02 -0.68326176052E+01  0.59301962668E+02  0.50000033996E+02 0.  0.
        -12    1    1    2    0    0  0.23881006049E+02  0.19993305466E+02  0.68326176052E+01  0.31886037332E+02  0.00000000000E+00 0.  1.
         11    1    3    3    0    0 -0.10055115388E+02 -0.27823960350E+02  0.20348931187E-01  0.29585106546E+02  0.51100000000E-03 0. -1.
        -11    1    3    3    0    0  0.49736592567E+01  0.13165527445E+01  0.44776729132E+01  0.68205683421E+01  0.51100000000E-03 0.  1.
         12    1    3    3    0    0 -0.18799549917E+02  0.65141021389E+01 -0.11330639450E+02  0.22896287780E+02  0.00000000000E+00 0. -1.
</event>
<event>
 7    1  0.5979290E-013  0.5930195E+02  0.7816164E-02  0.1266605E+00
        -11   -1    0    0    0    0  0.00000000000E+00  0.00000000000E+00  0.45593999997E+02  0.45594000000E+02  0.51100000000E-03 0.  1.
         11   -1    0    0    0    0 -0.00000000000E+00 -0.00000000000E+00 -0.45593999997E+02  0.45594000000E+02  0.51100000000E-03 0. -1.
    9900012    2    1    2    0    0 -0.31438231185E+02 -0.53233925099E+01  0.13990226422E+00  0.59301945674E+02  0.50000003002E+02 0.  0.
        -12    1    1    2    0    0  0.31438231185E+02  0.53233925099E+01 -0.13990226422E+00  0.31886054326E+02  0.00000000000E+00 0.  1.
         11    1    3    3    0    0 -0.79136910041E+01  0.64123977862E+01 -0.17274275156E+02  0.20053576567E+02  0.51100000000E-03 0. -1.
        -11    1    3    3    0    0 -0.28907731570E+01 -0.96214965193E+01  0.15429357606E+02  0.18411812543E+02  0.51100000000E-03 0.  1.
        -12    1    3    3    0    0 -0.20633767024E+02 -0.21142937768E+01  0.19848198142E+01  0.20836556564E+02  0.00000000000E+00 0.  1.
</event>
<event>
 7    1  0.5979290E-013  0.5930194E+02  0.7816164E-02  0.1266605E+00
        -11   -1    0    0    0    0  0.00000000000E+00  0.00000000000E+00  0.45593999997E+02  0.45594000000E+02  0.51100000000E-03 0. -1.
         11   -1    0    0    0    0 -0.00000000000E+00 -0.00000000000E+00 -0.45593999997E+02  0.45594000000E+02  0.51100000000E-03 0.  1.
    9900012    2    1    2    0    0 -0.20493061757E+01  0.25203580301E+02  0.19424230485E+02  0.59301939634E+02  0.49999991986E+02 0.  0.
        -12    1    1    2    0    0  0.20493061757E+01 -0.25203580301E+02 -0.19424230485E+02  0.31886060366E+02  0.00000000000E+00 0.  1.
         11    1    3    3    0    0 -0.34400050854E+01  0.11539423332E+02  0.55082202213E+01  0.13241314741E+02  0.51100000000E-03 0. -1.
        -11    1    3    3    0    0  0.16166681654E+02 -0.70894949663E+01  0.99900000567E+01  0.20283555802E+02  0.51100000000E-03 0.  1.
        -12    1    3    3    0    0 -0.14775982745E+02  0.20753651935E+02  0.39260102068E+01  0.25777069090E+02  0.00000000000E+00 0.  1.
</event>
<event>
 7    1  0.5979290E-013  0.5930195E+02  0.7816164E-02  0.1266605E+00
        -11   -1    0    0    0    0  0.00000000000E+00  0.00000000000E+00  0.45593999997E+02  0.45594000000E+02  0.51100000000E-03 0.  1.
         11   -1    0    0    0    0 -0.00000000000E+00 -0.00000000000E+00 -0.45593999997E+02  0.45594000000E+02  0.51100000000E-03 0. -1.
    9900012    2    1    2    0    0  0.48571598159E+01  0.93469731397E+01 -0.30095882179E+02  0.59301952385E+02  0.50000015242E+02 0.  0.
        -12    1    1    2    0    0 -0.48571598159E+01 -0.93469731397E+01  0.30095882179E+02  0.31886047615E+02  0.00000000000E+00 0.  1.
         11    1    3    3    0    0  0.22034981284E+02  0.16325130460E+02 -0.17334549743E+02  0.32442825089E+02  0.51100000000E-03 0. -1.
        -11    1    3    3    0    0 -0.46815575974E+01  0.28744734273E+01  0.12754866034E+01  0.56397203263E+01  0.51100000000E-03 0.  1.
         12    1    3    3    0    0 -0.12496263871E+02 -0.98526307474E+01 -0.14036819040E+02  0.21219406970E+02  0.00000000000E+00 0. -1.
</event>
<event>
 7    1  0.5979290E-013  0.5930193E+02  0.7816164E-02  0.1266605E+00
        -11   -1    0    0    0    0  0.00000000000E+00  0.00000000000E+00  0.45593999997E+02  0.45594000000E+02  0.51100000000E-03 0.  1.
         11   -1    0    0    0    0 -0.00000000000E+00 -0.00000000000E+00 -0.45593999997E+02  0.45594000000E+02  0.51100000000E-03 0. -1.
    9900012    2    1    2    0    0  0.44301822913E+01  0.17603102154E+02 -0.26214996390E+02  0.59301925355E+02  0.49999965945E+02 0.  0.
        -12    1    1    2    0    0 -0.44301822913E+01 -0.17603102154E+02  0.26214996390E+02  0.31886074645E+02  0.00000000000E+00 0.  1.
         11    1    3    3    0    0 -0.73463219452E+01  0.14400279388E+02 -0.18044114873E+02  0.24226567532E+02  0.51100000000E-03 0. -1.
        -11    1    3    3    0    0 -0.41436910757E+01 -0.11123445274E+02  0.70665851391E+00  0.11891197459E+02  0.51100000000E-03 0.  1.
        -12    1    3    3    0    0  0.15920195312E+02  0.14326268040E+02 -0.88775400308E+01  0.23184160363E+02  0.00000000000E+00 0.  1.
</event>
<event>
 7    1  0.5979290E-013  0.5930196E+02  0.7816164E-02  0.1266605E+00
        -11   -1    0    0    0    0  0.00000000000E+00  0.00000000000E+00  0.45593999997E+02  0.45594000000E+02  0.51100000000E-03 0. -1.
         11   -1    0    0    0    0 -0.00000000000E+00 -0.00000000000E+00 -0.45593999997E+02  0.45594000000E+02  0.51100000000E-03 0.  1.
    9900012    2    1    2    0    0 -0.44569110987E+01  0.23592564173E+02 -0.20982044276E+02  0.59301963514E+02  0.50000035539E+02 0.  0.
        -12    1    1    2    0    0  0.44569110987E+01 -0.23592564173E+02  0.20982044276E+02  0.31886036486E+02  0.00000000000E+00 0.  1.
         11    1    3    3    0    0  0.46690139937E+01 -0.63756258143E+01  0.53079111127E+01  0.95195702024E+01  0.51100000000E-03 0. -1.
        -11    1    3    3    0    0  0.44222157305E+01  0.44069358888E+01 -0.18927409620E+02  0.19930476941E+02  0.51100000000E-03 0.  1.
         12    1    3    3    0    0 -0.13548140823E+02  0.25561254098E+02 -0.73625457684E+01  0.29851916371E+02  0.00000000000E+00 0. -1.
</event>
<event>
 7    1  0.5979290E-013  0.5930202E+02  0.7816164E-02  0.1266605E+00
        -11   -1    0    0    0    0  0.00000000000E+00  0.00000000000E+00  0.45593999997E+02  0.45594000000E+02  0.51100000000E-03 0.  1.
         11   -1    0    0    0    0 -0.00000000000E+00 -0.00000000000E+00 -0.45593999997E+02  0.45594000000E+02  0.51100000000E-03 0. -1.
    9900012    2    1    2    0    0 -0.25582955292E+02  0.99555021740E+01 -0.16220861532E+02  0.59302016028E+02  0.50000131312E+02 0.  0.
        -12    1    1    2    0    0  0.25582955292E+02 -0.99555021740E+01  0.16220861532E+02  0.31885983972E+02  0.00000000000E+00 0.  1.
         11    1    3    3    0    0  0.10826857972E+01  0.15524548902E+02 -0.17089823856E+02  0.23113760119E+02  0.51100000000E-03 0.  1.
        -11    1    3    3    0    0 -0.19501510738E+02 -0.13765509239E+02  0.52715792781E+01  0.24445607254E+02  0.51100000000E-03 0. -1.
         12    1    3    3    0    0 -0.71641303513E+01  0.81964625112E+01 -0.44026169538E+01  0.11742648655E+02  0.00000000000E+00 0. -1.
</event>
<event>
 7    1  0.5979290E-013  0.5930198E+02  0.7816164E-02  0.1266605E+00
        -11   -1    0    0    0    0  0.00000000000E+00  0.00000000000E+00  0.45593999997E+02  0.45594000000E+02  0.51100000000E-03 0. -1.
         11   -1    0    0    0    0 -0.00000000000E+00 -0.00000000000E+00 -0.45593999997E+02  0.45594000000E+02  0.51100000000E-03 0.  1.
    9900012    2    1    2    0    0  0.27836050484E+02  0.14155567048E+02  0.64414504143E+01  0.59301983183E+02  0.50000071410E+02 0.  0.
        -12    1    1    2    0    0 -0.27836050484E+02 -0.14155567048E+02 -0.64414504143E+01  0.31886016817E+02  0.00000000000E+00 0.  1.
         11    1    3    3    0    0 -0.52659442263E+01 -0.24016126838E+00  0.84613523987E+01  0.99690686980E+01  0.51100000000E-03 0. -1.
        -11    1    3    3    0    0  0.20101052931E+02  0.18746478796E+02 -0.14250510235E+02  0.30960617539E+02  0.51100000000E-03 0.  1.
         12    1    3    3    0    0  0.13000941780E+02 -0.43507504795E+01  0.12230608251E+02  0.18372296946E+02  0.00000000000E+00 0. -1.
</event>
<event>
 7    1  0.5979290E-013  0.5930195E+02  0.7816164E-02  0.1266605E+00
        -11   -1    0    0    0    0  0.00000000000E+00  0.00000000000E+00  0.45593999997E+02  0.45594000000E+02  0.51100000000E-03 0.  1.
         11   -1    0    0    0    0 -0.00000000000E+00 -0.00000000000E+00 -0.45593999997E+02  0.45594000000E+02  0.51100000000E-03 0. -1.
    9900012    2    1    2    0    0  0.31622212219E+02  0.36164680906E+01  0.19175793123E+01  0.59301948857E+02  0.50000008808E+02 0.  0.
        -12    1    1    2    0    0 -0.31622212219E+02 -0.36164680906E+01 -0.19175793123E+01  0.31886051143E+02  0.00000000000E+00 0.  1.
         11    1    3    3    0    0  0.28451507327E+02  0.12806319511E+02  0.19145579978E+02  0.36606602158E+02  0.51100000000E-03 0. -1.
        -11    1    3    3    0    0 -0.16071175927E+00 -0.98930555236E+01 -0.75798761205E+01  0.12464064270E+02  0.51100000000E-03 0.  1.
         12    1    3    3    0    0  0.33314166505E+01  0.70320410313E+00 -0.96481245450E+01  0.10231282429E+02  0.00000000000E+00 0. -1.
</event>
<event>
 7    1  0.5979290E-013  0.5930197E+02  0.7816164E-02  0.1266605E+00
        -11   -1    0    0    0    0  0.00000000000E+00  0.00000000000E+00  0.45593999997E+02  0.45594000000E+02  0.51100000000E-03 0.  1.
         11   -1    0    0    0    0 -0.00000000000E+00 -0.00000000000E+00 -0.45593999997E+02  0.45594000000E+02  0.51100000000E-03 0. -1.
    9900012    2    1    2    0    0  0.20541517567E+02  0.22977033007E+02 -0.81743918280E+01  0.59301973726E+02  0.50000054163E+02 0.  0.
        -12    1    1    2    0    0 -0.20541517567E+02 -0.22977033007E+02  0.81743918280E+01  0.31886026274E+02  0.00000000000E+00 0.  1.
         11    1    3    3    0    0  0.26875452307E+02  0.10845545622E+02 -0.13630100128E+02  0.32026480080E+02  0.51100000000E-03 0. -1.
        -11    1    3    3    0    0 -0.73937332895E+01  0.63454273854E+01 -0.79892876686E+01  0.12600018189E+02  0.51100000000E-03 0.  1.
         12    1    3    3    0    0  0.10597985490E+01  0.57860599999E+01  0.13444995968E+02  0.14675475457E+02  0.00000000000E+00 0. -1.
</event>
<event>
 7    1  0.5979290E-013  0.5930193E+02  0.7816164E-02  0.1266605E+00
        -11   -1    0    0    0    0  0.00000000000E+00  0.00000000000E+00  0.45593999997E+02  0.45594000000E+02  0.51100000000E-03 0.  1.
         11   -1    0    0    0    0 -0.00000000000E+00 -0.00000000000E+00 -0.45593999997E+02  0.45594000000E+02  0.51100000000E-03 0. -1.
    9900012    2    1    2    0    0 -0.26972497553E+02 -0.15309122085E+02 -0.74051672514E+01  0.59301931800E+02  0.49999977699E+02 0.  0.
        -12    1    1    2    0    0  0.26972497553E+02  0.15309122085E+02  0.74051672514E+01  0.31886068200E+02  0.00000000000E+00 0.  1.
         11    1    3    3    0    0 -0.18782818905E+02 -0.24131446540E+02 -0.82582663734E+01  0.31675226311E+02  0.51100000000E-03 0. -1.
        -11    1    3    3    0    0 -0.11296723348E+02  0.76647012792E+01  0.10630532197E+02  0.17302364554E+02  0.51100000000E-03 0.  1.
         12    1    3    3    0    0  0.31070446999E+01  0.11576231760E+01 -0.97774330752E+01  0.10324340934E+02  0.00000000000E+00 0. -1.
</event>
<event>
 7    1  0.5979290E-013  0.5930193E+02  0.7816164E-02  0.1266605E+00
        -11   -1    0    0    0    0  0.00000000000E+00  0.00000000000E+00  0.45593999997E+02  0.45594000000E+02  0.51100000000E-03 0.  1.
         11   -1    0    0    0    0 -0.00000000000E+00 -0.00000000000E+00 -0.45593999997E+02  0.45594000000E+02  0.51100000000E-03 0. -1.
    9900012    2    1    2    0    0  0.54429058984E+01 -0.22296097956E+01 -0.31338872041E+02  0.59301932741E+02  0.49999979415E+02 0.  0.
        -12    1    1    2    0    0 -0.54429058984E+01  0.22296097956E+01  0.31338872041E+02  0.31886067259E+02  0.00000000000E+00 0.  1.
         11    1    3    3    0    0 -0.49056244917E+01 -0.98968378240E+01 -0.19870067639E+02  0.22733942438E+02  0.51100000000E-03 0. -1.
        -11    1    3    3    0    0 -0.17096388766E+00 -0.84602438595E+00  0.10624504503E+02  0.10659506654E+02  0.51100000000E-03 0.  1.
        -12    1    3    3    0    0  0.10519494278E+02  0.85132524144E+01 -0.22093308906E+02  0.25908483648E+02  0.00000000000E+00 0.  1.
</event>
<event>
 7    1  0.5979290E-013  0.5930194E+02  0.7816164E-02  0.1266605E+00
        -11   -1    0    0    0    0  0.00000000000E+00  0.00000000000E+00  0.45593999997E+02  0.45594000000E+02  0.51100000000E-03 0.  1.
         11   -1    0    0    0    0 -0.00000000000E+00 -0.00000000000E+00 -0.45593999997E+02  0.45594000000E+02  0.51100000000E-03 0. -1.
    9900012    2    1    2    0    0 -0.12230318225E+02 -0.21109830761E+02 -0.20530832893E+02  0.59301941323E+02  0.49999995068E+02 0.  0.
        -12    1    1    2    0    0  0.12230318225E+02  0.21109830761E+02  0.20530832893E+02  0.31886058677E+02  0.00000000000E+00 0.  1.
         11    1    3    3    0    0  0.95189277140E+01 -0.10647483328E+02 -0.18351348474E+02  0.23254050768E+02  0.51100000000E-03 0. -1.
        -11    1    3    3    0    0 -0.55408210444E+01 -0.26279028683E+01  0.11771064342E+02  0.13272698571E+02  0.51100000000E-03 0.  1.
        -12    1    3    3    0    0 -0.16208424895E+02 -0.78344445648E+01 -0.13950548761E+02  0.22775191985E+02  0.00000000000E+00 0.  1.
</event>
<event>
 7    1  0.5979290E-013  0.5930216E+02  0.7816164E-02  0.1266604E+00
        -11   -1    0    0    0    0  0.00000000000E+00  0.00000000000E+00  0.45593999997E+02  0.45594000000E+02  0.51100000000E-03 0. -1.
         11   -1    0    0    0    0 -0.00000000000E+00 -0.00000000000E+00 -0.45593999997E+02  0.45594000000E+02  0.51100000000E-03 0.  1.
    9900012    2    1    2    0    0  0.36183438790E+01  0.20811022121E+02  0.23885475232E+02  0.59302157040E+02  0.50000388483E+02 0.  0.
        -12    1    1    2    0    0 -0.36183438790E+01 -0.20811022121E+02 -0.23885475232E+02  0.31885842960E+02  0.00000000000E+00 0.  1.
         11    1    3    3    0    0 -0.65248010934E+00  0.12093055091E+02  0.28393245699E+02  0.30868173145E+02  0.51100000000E-03 0. -1.
        -11    1    3    3    0    0 -0.78663036878E+01 -0.36785540733E+01 -0.66713974139E+01  0.10950709452E+02  0.51100000000E-03 0.  1.
        -12    1    3    3    0    0  0.12137127676E+02  0.12396521104E+02  0.21636269470E+01  0.17483274444E+02  0.00000000000E+00 0.  1.
</event>
<event>
 7    1  0.5979290E-013  0.5930198E+02  0.7816164E-02  0.1266605E+00
        -11   -1    0    0    0    0  0.00000000000E+00  0.00000000000E+00  0.45593999997E+02  0.45594000000E+02  0.51100000000E-03 0. -1.
         11   -1    0    0    0    0 -0.00000000000E+00 -0.00000000000E+00 -0.45593999997E+02  0.45594000000E+02  0.51100000000E-03 0.  1.
    9900012    2    1    2    0    0 -0.23588546770E+02 -0.97297267713E+01  0.19121490627E+02  0.59301976015E+02  0.50000058336E+02 0.  0.
        -12    1    1    2    0    0  0.23588546770E+02  0.97297267713E+01 -0.19121490627E+02  0.31886023985E+02  0.00000000000E+00 0.  1.
         11    1    3    3    0    0 -0.19104074514E+02 -0.18306297499E+02  0.17825041409E+01  0.26519115981E+02  0.51100000000E-03 0. -1.
        -11    1    3    3    0    0  0.38402510694E+01  0.16109861044E+02  0.11121042496E+02  0.19948752783E+02  0.51100000000E-03 0.  1.
        -12    1    3    3    0    0 -0.83247233258E+01 -0.75332903165E+01  0.62179439902E+01  0.12834107250E+02  0.00000000000E+00 0.  1.
</event>
<event>
 7    1  0.5979290E-013  0.5930194E+02  0.7816164E-02  0.1266605E+00
        -11   -1    0    0    0    0  0.00000000000E+00  0.00000000000E+00  0.45593999997E+02  0.45594000000E+02  0.51100000000E-03 0. -1.
         11   -1    0    0    0    0 -0.00000000000E+00 -0.00000000000E+00 -0.45593999997E+02  0.45594000000E+02  0.51100000000E-03 0.  1.
    9900012    2    1    2    0    0 -0.68249430004E+00  0.30459332022E+02 -0.94066033744E+01  0.59301938896E+02  0.49999990641E+02 0.  0.
        -12    1    1    2    0    0  0.68249430004E+00 -0.30459332022E+02  0.94066033744E+01  0.31886061104E+02  0.00000000000E+00 0.  1.
         11    1    3    3    0    0  0.11611108191E+01  0.31129610907E+02 -0.86631178249E+01  0.32333426424E+02  0.51100000000E-03 0. -1.
        -11    1    3    3    0    0 -0.44566099613E+01 -0.29180824980E+01 -0.13099262575E+02  0.14140977975E+02  0.51100000000E-03 0.  1.
         12    1    3    3    0    0  0.26130048422E+01  0.22478036126E+01  0.12355777025E+02  0.12827534498E+02  0.00000000000E+00 0. -1.
</event>
<event>
 7    1  0.5979290E-013  0.5930193E+02  0.7816164E-02  0.1266605E+00
        -11   -1    0    0    0    0  0.00000000000E+00  0.00000000000E+00  0.45593999997E+02  0.45594000000E+02  0.51100000000E-03 0. -1.
         11   -1    0    0    0    0 -0.00000000000E+00 -0.00000000000E+00 -0.45593999997E+02  0.45594000000E+02  0.51100000000E-03 0.  1.
    9900012    2    1    2    0    0  0.58039962668E+01 -0.28694613218E+02  0.12635434612E+02  0.59301930812E+02  0.49999975898E+02 0.  0.
        -12    1    1    2    0    0 -0.58039962668E+01  0.28694613218E+02 -0.12635434612E+02  0.31886069188E+02  0.00000000000E+00 0.  1.
         11    1    3    3    0    0  0.17266545965E+02  0.42483604007E+01  0.68748470852E+01  0.19064251844E+02  0.51100000000E-03 0. -1.
        -11    1    3    3    0    0 -0.14629624494E+02 -0.16660408612E+02 -0.12995189486E+01  0.22209994996E+02  0.51100000000E-03 0.  1.
        -12    1    3    3    0    0  0.31670747955E+01 -0.16282565007E+02  0.70601064757E+01  0.18027683973E+02  0.00000000000E+00 0.  1.
</event>
<event>
 7    1  0.5979290E-013  0.5930201E+02  0.7816164E-02  0.1266605E+00
        -11   -1    0    0    0    0  0.00000000000E+00  0.00000000000E+00  0.45593999997E+02  0.45594000000E+02  0.51100000000E-03 0. -1.
         11   -1    0    0    0    0 -0.00000000000E+00 -0.00000000000E+00 -0.45593999997E+02  0.45594000000E+02  0.51100000000E-03 0.  1.
    9900012    2    1    2    0    0  0.12284414415E+02 -0.26506364135E+02  0.12775848392E+02  0.59302008102E+02  0.50000116857E+02 0.  0.
        -12    1    1    2    0    0 -0.12284414415E+02  0.26506364135E+02 -0.12775848392E+02  0.31885991898E+02  0.00000000000E+00 0.  1.
         11    1    3    3    0    0 -0.76800574887E+00 -0.17648091479E+02  0.27191036067E+02  0.32425258802E+02  0.51100000000E-03 0. -1.
        -11    1    3    3    0    0  0.53377278552E+00 -0.94457176779E+01 -0.95220445261E+01  0.13422958990E+02  0.51100000000E-03 0.  1.
         12    1    3    3    0    0  0.12518647378E+02  0.58744502244E+00 -0.48931431494E+01  0.13453790310E+02  0.00000000000E+00 0. -1.
</event>
<event>
 7    1  0.5979290E-013  0.5930195E+02  0.7816164E-02  0.1266605E+00
        -11   -1    0    0    0    0  0.00000000000E+00  0.00000000000E+00  0.45593999997E+02  0.45594000000E+02  0.51100000000E-03 0.  1.
         11   -1    0    0    0    0 -0.00000000000E+00 -0.00000000000E+00 -0.45593999997E+02  0.45594000000E+02  0.51100000000E-03 0. -1.
    9900012    2    1    2    0    0 -0.31874756543E+02 -0.33563233236E+00 -0.77927182649E+00  0.59301952608E+02  0.50000015648E+02 0.  0.
        -12    1    1    2    0    0  0.31874756543E+02  0.33563233236E+00  0.77927182649E+00  0.31886047392E+02  0.00000000000E+00 0.  1.
         11    1    3    3    0    0 -0.28239570870E+02 -0.18982215599E+02  0.73440827980E+01  0.34809961568E+02  0.51100000000E-03 0.  1.
        -11    1    3    3    0    0 -0.54174610114E+01  0.19990669543E+02 -0.64195396979E+01  0.21683778333E+02  0.51100000000E-03 0. -1.
        -12    1    3    3    0    0  0.17822753385E+01 -0.13440862769E+01 -0.17038149266E+01  0.28082127067E+01  0.00000000000E+00 0.  1.
</event>
<event>
 7    1  0.5979290E-013  0.5930181E+02  0.7816164E-02  0.1266605E+00
        -11   -1    0    0    0    0  0.00000000000E+00  0.00000000000E+00  0.45593999997E+02  0.45594000000E+02  0.51100000000E-03 0. -1.
         11   -1    0    0    0    0 -0.00000000000E+00 -0.00000000000E+00 -0.45593999997E+02  0.45594000000E+02  0.51100000000E-03 0.  1.
    9900012    2    1    2    0    0 -0.27519915133E+02 -0.14569211555E+02  0.68645194208E+01  0.59301807359E+02  0.49999750749E+02 0.  0.
        -12    1    1    2    0    0  0.27519915133E+02  0.14569211555E+02 -0.68645194208E+01  0.31886192641E+02  0.00000000000E+00 0.  1.
         11    1    3    3    0    0 -0.17348082174E+02  0.57356693396E+01  0.23206945901E+02  0.29536692371E+02  0.51100000000E-03 0. -1.
        -11    1    3    3    0    0 -0.11720932896E+02 -0.13746531767E+02 -0.12898512973E+02  0.22197275526E+02  0.51100000000E-03 0.  1.
        -12    1    3    3    0    0  0.15490999375E+01 -0.65583491270E+01 -0.34439135068E+01  0.75678394625E+01  0.00000000000E+00 0.  1.
</event>
<event>
 7    1  0.5979290E-013  0.5930193E+02  0.7816164E-02  0.1266605E+00
        -11   -1    0    0    0    0  0.00000000000E+00  0.00000000000E+00  0.45593999997E+02  0.45594000000E+02  0.51100000000E-03 0.  1.
         11   -1    0    0    0    0 -0.00000000000E+00 -0.00000000000E+00 -0.45593999997E+02  0.45594000000E+02  0.51100000000E-03 0. -1.
    9900012    2    1    2    0    0 -0.58776282794E+01 -0.25759302862E+02 -0.17850302827E+02  0.59301929230E+02  0.49999973013E+02 0.  0.
        -12    1    1    2    0    0  0.58776282794E+01  0.25759302862E+02  0.17850302827E+02  0.31886070770E+02  0.00000000000E+00 0.  1.
         11    1    3    3    0    0  0.59616638333E+01 -0.30976365760E+01 -0.14955904351E+02  0.16395604998E+02  0.51100000000E-03 0. -1.
        -11    1    3    3    0    0  0.42936191292E+01 -0.24414171361E+02  0.42933911514E+01  0.25157904052E+02  0.51100000000E-03 0.  1.
        -12    1    3    3    0    0 -0.16132911242E+02  0.17525050745E+01 -0.71877896269E+01  0.17748420180E+02  0.00000000000E+00 0.  1.
</event>
<event>
 7    1  0.5979290E-013  0.5930190E+02  0.7816164E-02  0.1266605E+00
        -11   -1    0    0    0    0  0.00000000000E+00  0.00000000000E+00  0.45593999997E+02  0.45594000000E+02  0.51100000000E-03 0.  1.
         11   -1    0    0    0    0 -0.00000000000E+00 -0.00000000000E+00 -0.45593999997E+02  0.45594000000E+02  0.51100000000E-03 0. -1.
    9900012    2    1    2    0    0 -0.10912653445E+02  0.28249657839E+02 -0.99796903826E+01  0.59301899684E+02  0.49999919127E+02 0.  0.
        -12    1    1    2    0    0  0.10912653445E+02 -0.28249657839E+02  0.99796903826E+01  0.31886100316E+02  0.00000000000E+00 0.  1.
         11    1    3    3    0    0 -0.70975541519E+01  0.27260739392E+02 -0.12418309252E+02  0.30785347035E+02  0.51100000000E-03 0. -1.
        -11    1    3    3    0    0  0.78613966944E+01 -0.97228677631E+01  0.13330399245E+00  0.12504138744E+02  0.51100000000E-03 0.  1.
        -12    1    3    3    0    0 -0.11676495988E+02  0.10711786210E+02  0.23053148768E+01  0.16012413904E+02  0.00000000000E+00 0.  1.
</event>
<event>
 7    1  0.5979290E-013  0.5930196E+02  0.7816164E-02  0.1266605E+00
        -11   -1    0    0    0    0  0.00000000000E+00  0.00000000000E+00  0.45593999997E+02  0.45594000000E+02  0.51100000000E-03 0.  1.
         11   -1    0    0    0    0 -0.00000000000E+00 -0.00000000000E+00 -0.45593999997E+02  0.45594000000E+02  0.51100000000E-03 0. -1.
    9900012    2    1    2    0    0  0.36493380059E+01 -0.26541740191E+02 -0.17289829927E+02  0.59301955103E+02  0.50000020199E+02 0.  0.
        -12    1    1    2    0    0 -0.36493380059E+01  0.26541740191E+02  0.17289829927E+02  0.31886044897E+02  0.00000000000E+00 0.  1.
         11    1    3    3    0    0 -0.53785622117E+01  0.37811185864E+01 -0.45690316835E+01  0.80063624709E+01  0.51100000000E-03 0. -1.
        -11    1    3    3    0    0  0.70190215620E+01 -0.99155993273E+01  0.13400111383E+02  0.18087254049E+02  0.51100000000E-03 0.  1.
        -12    1    3    3    0    0  0.20088786556E+01 -0.20407259450E+02 -0.26120909627E+02  0.33208338583E+02  0.00000000000E+00 0.  1.
</event>
<event>
 7    1  0.5979290E-013  0.5930193E+02  0.7816164E-02  0.1266605E+00
        -11   -1    0    0    0    0  0.00000000000E+00  0.00000000000E+00  0.45593999997E+02  0.45594000000E+02  0.51100000000E-03 0. -1.
         11   -1    0    0    0    0 -0.00000000000E+00 -0.00000000000E+00 -0.45593999997E+02  0.45594000000E+02  0.51100000000E-03 0.  1.
    9900012    2    1    2    0    0  0.18701480875E+02 -0.19039213799E+01  0.25755601205E+02  0.59301932557E+02  0.49999979081E+02 0.  0.
        -12    1    1    2    0    0 -0.18701480875E+02  0.19039213799E+01 -0.25755601205E+02  0.31886067443E+02  0.00000000000E+00 0.  1.
         11    1    3    3    0    0  0.10391028849E+02  0.87785793715E+01 -0.79895061024E+01  0.15775586973E+02  0.51100000000E-03 0.  1.
        -11    1    3    3    0    0 -0.15923458092E+01 -0.12492032981E+02  0.30421719169E+02  0.32925179584E+02  0.51100000000E-03 0. -1.
         12    1    3    3    0    0  0.99027978349E+01  0.18095322293E+01  0.33233881379E+01  0.10601166000E+02  0.00000000000E+00 0. -1.
</event>
<event>
 7    1  0.5979290E-013  0.5930195E+02  0.7816164E-02  0.1266605E+00
        -11   -1    0    0    0    0  0.00000000000E+00  0.00000000000E+00  0.45593999997E+02  0.45594000000E+02  0.51100000000E-03 0.  1.
         11   -1    0    0    0    0 -0.00000000000E+00 -0.00000000000E+00 -0.45593999997E+02  0.45594000000E+02  0.51100000000E-03 0. -1.
    9900012    2    1    2    0    0 -0.13138151708E+02  0.87643757244E+01 -0.27700093459E+02  0.59301945214E+02  0.50000002164E+02 0.  0.
        -12    1    1    2    0    0  0.13138151708E+02 -0.87643757244E+01  0.27700093459E+02  0.31886054786E+02  0.00000000000E+00 0.  1.
         11    1    3    3    0    0  0.10643611236E+02  0.19339431413E+01 -0.20227704785E+02  0.22938758409E+02  0.51100000000E-03 0. -1.
        -11    1    3    3    0    0 -0.22608743093E+02  0.14589227616E+02 -0.89928564453E+01  0.28370271306E+02  0.51100000000E-03 0.  1.
        -12    1    3    3    0    0 -0.11730198515E+01 -0.77587950332E+01  0.15204677707E+01  0.79929154995E+01  0.00000000000E+00 0.  1.
</event>
<event>
 7    1  0.5979290E-013  0.5930194E+02  0.7816164E-02  0.1266605E+00
        -11   -1    0    0    0    0  0.00000000000E+00  0.00000000000E+00  0.45593999997E+02  0.45594000000E+02  0.51100000000E-03 0.  1.
         11   -1    0    0    0    0 -0.00000000000E+00 -0.00000000000E+00 -0.45593999997E+02  0.45594000000E+02  0.51100000000E-03 0. -1.
    9900012    2    1    2    0    0  0.31033858824E+02  0.63994954849E+01  0.35590420840E+01  0.59301941659E+02  0.49999995681E+02 0.  0.
        -12    1    1    2    0    0 -0.31033858824E+02 -0.63994954849E+01 -0.35590420840E+01  0.31886058341E+02  0.00000000000E+00 0.  1.
         11    1    3    3    0    0  0.21300901653E+02  0.14758114642E+02 -0.15303479950E+02  0.30095296275E+02  0.51100000000E-03 0. -1.
        -11    1    3    3    0    0  0.13556928043E+02 -0.42280983281E+01  0.64896082262E+01  0.15613523902E+02  0.51100000000E-03 0.  1.
         12    1    3    3    0    0 -0.38239708722E+01 -0.41305208293E+01  0.12372913808E+02  0.13593121483E+02  0.00000000000E+00 0. -1.
</event>
<event>
 7    1  0.5979290E-013  0.5930195E+02  0.7816164E-02  0.1266605E+00
        -11   -1    0    0    0    0  0.00000000000E+00  0.00000000000E+00  0.45593999997E+02  0.45594000000E+02  0.51100000000E-03 0. -1.
         11   -1    0    0    0    0 -0.00000000000E+00 -0.00000000000E+00 -0.45593999997E+02  0.45594000000E+02  0.51100000000E-03 0.  1.
    9900012    2    1    2    0    0 -0.28123836028E+02 -0.53449437608E+01 -0.14042854345E+02  0.59301947643E+02  0.50000006593E+02 0.  0.
        -12    1    1    2    0    0  0.28123836028E+02  0.53449437608E+01  0.14042854345E+02  0.31886052357E+02  0.00000000000E+00 0.  1.
         11    1    3    3    0    0 -0.26989253341E+02 -0.36321008694E+01 -0.36554444479E+01  0.27476794337E+02  0.51100000000E-03 0. -1.
        -11    1    3    3    0    0  0.23689585767E+01  0.11785866772E+02 -0.12923609785E+02  0.17650447883E+02  0.51100000000E-03 0.  1.
        -12    1    3    3    0    0 -0.35035412639E+01 -0.13498709664E+02  0.25361998880E+01  0.14174705424E+02  0.00000000000E+00 0.  1.
</event>
<event>
 7    1  0.5979290E-013  0.5930195E+02  0.7816164E-02  0.1266605E+00
        -11   -1    0    0    0    0  0.00000000000E+00  0.00000000000E+00  0.45593999997E+02  0.45594000000E+02  0.51100000000E-03 0.  1.
         11   -1    0    0    0    0 -0.00000000000E+00 -0.00000000000E+00 -0.45593999997E+02  0.45594000000E+02  0.51100000000E-03 0. -1.
    9900012    2    1    2    0    0 -0.19169153405E+01 -0.63879690696E+01 -0.31180756247E+02  0.59301948608E+02  0.50000008352E+02 0.  0.
        -12    1    1    2    0    0  0.19169153405E+01  0.63879690696E+01  0.31180756247E+02  0.31886051392E+02  0.00000000000E+00 0.  1.
         11    1    3    3    0    0  0.57415844495E+01 -0.14615530279E+02 -0.17555204097E+02  0.23553443665E+02  0.51100000000E-03 0. -1.
        -11    1    3    3    0    0 -0.81786829658E+01  0.15607512809E+02  0.26986650959E+01  0.17826051293E+02  0.51100000000E-03 0.  1.
        -12    1    3    3    0    0  0.52018317579E+00 -0.73799515992E+01 -0.16324217246E+02  0.17922453650E+02  0.00000000000E+00 0.  1.
</event>
<event>
 7    1  0.5979290E-013  0.5930193E+02  0.7816164E-02  0.1266605E+00
        -11   -1    0    0    0    0  0.00000000000E+00  0.00000000000E+00  0.45593999997E+02  0.45594000000E+02  0.51100000000E-03 0. -1.
         11   -1    0    0    0    0 -0.00000000000E+00 -0.00000000000E+00 -0.45593999997E+02  0.45594000000E+02  0.51100000000E-03 0.  1.
    9900012    2    1    2    0    0 -0.19216407934E+02 -0.79635270037E+01  0.24166777538E+02  0.59301933563E+02  0.49999980915E+02 0.  0.
        -12    1    1    2    0    0  0.19216407934E+02  0.79635270037E+01 -0.24166777538E+02  0.31886066437E+02  0.00000000000E+00 0.  1.
         11    1    3    3    0    0 -0.18247083017E+02 -0.24673072739E+02  0.11442892059E+02  0.32751432579E+02  0.51100000000E-03 0. -1.
        -11    1    3    3    0    0 -0.83975840317E+01  0.94903849131E+01  0.49723729982E+01  0.13612909934E+02  0.51100000000E-03 0.  1.
         12    1    3    3    0    0  0.74282591143E+01  0.72191608223E+01  0.77515124808E+01  0.12937591050E+02  0.00000000000E+00 0. -1.
</event>
<event>
 7    1  0.5979290E-013  0.5930198E+02  0.7816164E-02  0.1266605E+00
        -11   -1    0    0    0    0  0.00000000000E+00  0.00000000000E+00  0.45593999997E+02  0.45594000000E+02  0.51100000000E-03 0.  1.
         11   -1    0    0    0    0 -0.00000000000E+00 -0.00000000000E+00 -0.45593999997E+02  0.45594000000E+02  0.51100000000E-03 0. -1.
    9900012    2    1    2    0    0  0.24112584806E+02  0.15830009180E+02 -0.13590902553E+02  0.59301975336E+02  0.50000057099E+02 0.  0.
        -12    1    1    2    0    0 -0.24112584806E+02 -0.15830009180E+02  0.13590902553E+02  0.31886024664E+02  0.00000000000E+00 0.  1.
         11    1    3    3    0    0  0.32617424855E+02  0.10951785420E+02 -0.10508793923E+02  0.35976002530E+02  0.51100000000E-03 0. -1.
        -11    1    3    3    0    0 -0.24051894322E+01  0.12826406033E+02 -0.25216233958E+01  0.13291358574E+02  0.51100000000E-03 0.  1.
         12    1    3    3    0    0 -0.60996506169E+01 -0.79481822731E+01 -0.56048523401E+00  0.10034614232E+02  0.00000000000E+00 0. -1.
</event>
<event>
 7    1  0.5979290E-013  0.5930194E+02  0.7816164E-02  0.1266605E+00
        -11   -1    0    0    0    0  0.00000000000E+00  0.00000000000E+00  0.45593999997E+02  0.45594000000E+02  0.51100000000E-03 0. -1.
         11   -1    0    0    0    0 -0.00000000000E+00 -0.00000000000E+00 -0.45593999997E+02  0.45594000000E+02  0.51100000000E-03 0.  1.
    9900012    2    1    2    0    0  0.25551061850E+02  0.59219076825E+01  0.18132714109E+02  0.59301936065E+02  0.49999985478E+02 0.  0.
        -12    1    1    2    0    0 -0.25551061850E+02 -0.59219076825E+01 -0.18132714109E+02  0.31886063935E+02  0.00000000000E+00 0.  1.
         11    1    3    3    0    0  0.89372928958E+01  0.61396133242E+01  0.23863910633E+02  0.26211758565E+02  0.51100000000E-03 0. -1.
        -11    1    3    3    0    0  0.74846592919E+01  0.35530044984E+01 -0.16508789314E+02  0.18471169171E+02  0.51100000000E-03 0.  1.
        -12    1    3    3    0    0  0.91291096628E+01 -0.37707101402E+01  0.10777592790E+02  0.14619008330E+02  0.00000000000E+00 0.  1.
</event>
<event>
 7    1  0.5979290E-013  0.5930195E+02  0.7816164E-02  0.1266605E+00
        -11   -1    0    0    0    0  0.00000000000E+00  0.00000000000E+00  0.45593999997E+02  0.45594000000E+02  0.51100000000E-03 0.  1.
         11   -1    0    0    0    0 -0.00000000000E+00 -0.00000000000E+00 -0.45593999997E+02  0.45594000000E+02  0.51100000000E-03 0. -1.
    9900012    2    1    2    0    0 -0.84903000115E+01  0.24154277611E+02 -0.19005419599E+02  0.59301948264E+02  0.50000007725E+02 0.  0.
        -12    1    1    2    0    0  0.84903000115E+01 -0.24154277611E+02  0.19005419599E+02  0.31886051736E+02  0.00000000000E+00 0.  1.
         11    1    3    3    0    0 -0.57293381979E+01 -0.32501753190E+01 -0.15112229414E+02  0.16485400629E+02  0.51100000000E-03 0. -1.
        -11    1    3    3    0    0  0.41550065288E+01  0.92350817388E+01  0.13400653723E+02  0.16796676291E+02  0.51100000000E-03 0.  1.
         12    1    3    3    0    0 -0.69159683424E+01  0.18169371191E+02 -0.17293843908E+02  0.26019871343E+02  0.00000000000E+00 0. -1.
</event>
<event>
 7    1  0.5979290E-013  0.5930175E+02  0.7816164E-02  0.1266605E+00
        -11   -1    0    0    0    0  0.00000000000E+00  0.00000000000E+00  0.45593999997E+02  0.45594000000E+02  0.51100000000E-03 0.  1.
         11   -1    0    0    0    0 -0.00000000000E+00 -0.00000000000E+00 -0.45593999997E+02  0.45594000000E+02  0.51100000000E-03 0. -1.
    9900012    2    1    2    0    0  0.36564020523E+01 -0.51233467092E+01 -0.31258839650E+02  0.59301748829E+02  0.49999644004E+02 0.  0.
        -12    1    1    2    0    0 -0.36564020523E+01  0.51233467092E+01  0.31258839650E+02  0.31886251171E+02  0.00000000000E+00 0.  1.
         11    1    3    3    0    0 -0.66212930337E+01  0.46197966313E+01 -0.10698305461E+02  0.13402902012E+02  0.51100000000E-03 0. -1.
        -11    1    3    3    0    0  0.73739753343E+00 -0.17393085177E+02  0.45287058486E+01  0.17988116745E+02  0.51100000000E-03 0.  1.
        -12    1    3    3    0    0  0.95402975526E+01  0.76499418368E+01 -0.25089240038E+02  0.27910730072E+02  0.00000000000E+00 0.  1.
</event>
<event>
 7    1  0.5979290E-013  0.5930194E+02  0.7816164E-02  0.1266605E+00
        -11   -1    0    0    0    0  0.00000000000E+00  0.00000000000E+00  0.45593999997E+02  0.45594000000E+02  0.51100000000E-03 0.  1.
         11   -1    0    0    0    0 -0.00000000000E+00 -0.00000000000E+00 -0.45593999997E+02  0.45594000000E+02  0.51100000000E-03 0. -1.
    9900012    2    1    2    0    0  0.13261368609E+02  0.13844496375E+01 -0.28964462438E+02  0.59301942192E+02  0.49999996653E+02 0.  0.
        -12    1    1    2    0    0 -0.13261368609E+02 -0.13844496375E+01  0.28964462438E+02  0.31886057808E+02  0.00000000000E+00 0.  1.
         11    1    3    3    0    0  0.37566978589E+01  0.14826795644E+02  0.52664252916E+01  0.16176584420E+02  0.51100000000E-03 0. -1.
        -11    1    3    3    0    0  0.40774974611E+00 -0.14707069445E+02 -0.11710856900E+02  0.18804476092E+02  0.51100000000E-03 0.  1.
         12    1    3    3    0    0  0.90969210043E+01  0.12647234387E+01 -0.22520030830E+02  0.24320881680E+02  0.00000000000E+00 0. -1.
</event>
<event>
 7    1  0.5979290E-013  0.5930194E+02  0.7816164E-02  0.1266605E+00
        -11   -1    0    0    0    0  0.00000000000E+00  0.00000000000E+00  0.45593999997E+02  0.45594000000E+02  0.51100000000E-03 0. -1.
         11   -1    0    0    0    0 -0.00000000000E+00 -0.00000000000E+00 -0.45593999997E+02  0.45594000000E+02  0.51100000000E-03 0.  1.
    9900012    2    1    2    0    0  0.13821240443E+02 -0.17884031412E+02  0.22491226543E+02  0.59301944453E+02  0.50000000775E+02 0.  0.
        -12    1    1    2    0    0 -0.13821240443E+02  0.17884031412E+02 -0.22491226543E+02  0.31886055547E+02  0.00000000000E+00 0.  1.
         11    1    3    3    0    0 -0.20045703478E+01 -0.59715653427E+01  0.94421337007E+01  0.11350408980E+02  0.51100000000E-03 0. -1.
        -11    1    3    3    0    0 -0.75012823604E+01  0.63561617809E+00 -0.10220773350E+02  0.12693992796E+02  0.51100000000E-03 0.  1.
        -12    1    3    3    0    0  0.23327093151E+02 -0.12548082248E+02  0.23269866193E+02  0.35257542677E+02  0.00000000000E+00 0.  1.
</event>
<event>
 7    1  0.5979290E-013  0.5930196E+02  0.7816164E-02  0.1266605E+00
        -11   -1    0    0    0    0  0.00000000000E+00  0.00000000000E+00  0.45593999997E+02  0.45594000000E+02  0.51100000000E-03 0.  1.
         11   -1    0    0    0    0 -0.00000000000E+00 -0.00000000000E+00 -0.45593999997E+02  0.45594000000E+02  0.51100000000E-03 0. -1.
    9900012    2    1    2    0    0  0.40007369391E+01 -0.31253900981E+02 -0.48895072506E+01  0.59301960677E+02  0.50000030364E+02 0.  0.
        -12    1    1    2    0    0 -0.40007369391E+01  0.31253900981E+02  0.48895072506E+01  0.31886039323E+02  0.00000000000E+00 0.  1.
         11    1    3    3    0    0  0.10426611566E+02 -0.42068319786E+02  0.14605543281E+01  0.43365781182E+02  0.51100000000E-03 0. -1.
        -11    1    3    3    0    0 -0.22374546349E+01  0.58205504882E+01  0.77025379226E+00  0.62831761391E+01  0.51100000000E-03 0.  1.
         12    1    3    3    0    0 -0.41884199919E+01  0.49938683168E+01 -0.71203153709E+01  0.96530033552E+01  0.00000000000E+00 0. -1.
</event>
<event>
 7    1  0.5979290E-013  0.5930194E+02  0.7816164E-02  0.1266605E+00
        -11   -1    0    0    0    0  0.00000000000E+00  0.00000000000E+00  0.45593999997E+02  0.45594000000E+02  0.51100000000E-03 0.  1.
         11   -1    0    0    0    0 -0.00000000000E+00 -0.00000000000E+00 -0.45593999997E+02  0.45594000000E+02  0.51100000000E-03 0. -1.
    9900012    2    1    2    0    0  0.28360378279E+02 -0.13346575820E+02 -0.58548136784E+01  0.59301937441E+02  0.49999987988E+02 0.  0.
        -12    1    1    2    0    0 -0.28360378279E+02  0.13346575820E+02  0.58548136784E+01  0.31886062559E+02  0.00000000000E+00 0.  1.
         11    1    3    3    0    0  0.90763642955E+01 -0.16777668044E+02 -0.17683645202E+02  0.26011186857E+02  0.51100000000E-03 0. -1.
        -11    1    3    3    0    0  0.16656610818E+02 -0.84237317980E+01  0.94347139408E+01  0.20914487054E+02  0.51100000000E-03 0.  1.
         12    1    3    3    0    0  0.26274031662E+01  0.11854824021E+02  0.23941175829E+01  0.12376263530E+02  0.00000000000E+00 0. -1.
</event>
<event>
 7    1  0.5979290E-013  0.5930192E+02  0.7816164E-02  0.1266605E+00
        -11   -1    0    0    0    0  0.00000000000E+00  0.00000000000E+00  0.45593999997E+02  0.45594000000E+02  0.51100000000E-03 0.  1.
         11   -1    0    0    0    0 -0.00000000000E+00 -0.00000000000E+00 -0.45593999997E+02  0.45594000000E+02  0.51100000000E-03 0. -1.
    9900012    2    1    2    0    0 -0.11642751508E+02  0.96012116643E+00 -0.29668954626E+02  0.59301915827E+02  0.49999948568E+02 0.  0.
        -12    1    1    2    0    0  0.11642751508E+02 -0.96012116643E+00  0.29668954626E+02  0.31886084173E+02  0.00000000000E+00 0.  1.
         11    1    3    3    0    0  0.68654803859E+00 -0.31759847615E+01 -0.26058995885E+02  0.26260797669E+02  0.51100000000E-03 0. -1.
        -11    1    3    3    0    0 -0.21892247879E+02 -0.10495187529E+01 -0.15744365177E+01  0.21973867602E+02  0.51100000000E-03 0.  1.
        -12    1    3    3    0    0  0.95629483323E+01  0.51856246809E+01 -0.20355222232E+01  0.11067250555E+02  0.00000000000E+00 0.  1.
</event>
<event>
 7    1  0.5979290E-013  0.5930196E+02  0.7816164E-02  0.1266605E+00
        -11   -1    0    0    0    0  0.00000000000E+00  0.00000000000E+00  0.45593999997E+02  0.45594000000E+02  0.51100000000E-03 0.  1.
         11   -1    0    0    0    0 -0.00000000000E+00 -0.00000000000E+00 -0.45593999997E+02  0.45594000000E+02  0.51100000000E-03 0. -1.
    9900012    2    1    2    0    0 -0.12668124213E+02 -0.28692268706E+02  0.57438347319E+01  0.59301963996E+02  0.50000036418E+02 0.  0.
        -12    1    1    2    0    0  0.12668124213E+02  0.28692268706E+02 -0.57438347319E+01  0.31886036004E+02  0.00000000000E+00 0.  1.
         11    1    3    3    0    0  0.41624641341E-01 -0.24105563805E+02 -0.13597326903E+02  0.27676113133E+02  0.51100000000E-03 0. -1.
        -11    1    3    3    0    0 -0.70283242351E+01  0.39042698592E+01  0.19829851779E+02  0.21397749567E+02  0.51100000000E-03 0.  1.
        -12    1    3    3    0    0 -0.56814246191E+01 -0.84909747606E+01 -0.48869014364E+00  0.10228101297E+02  0.00000000000E+00 0.  1.
</event>
<event>
 7    1  0.5979290E-013  0.5930200E+02  0.7816164E-02  0.1266605E+00
        -11   -1    0    0    0    0  0.00000000000E+00  0.00000000000E+00  0.45593999997E+02  0.45594000000E+02  0.51100000000E-03 0. -1.
         11   -1    0    0    0    0 -0.00000000000E+00 -0.00000000000E+00 -0.45593999997E+02  0.45594000000E+02  0.51100000000E-03 0.  1.
    9900012    2    1    2    0    0 -0.30509745471E+02 -0.33731932903E+01 -0.86309824775E+01  0.59302002129E+02  0.50000105962E+02 0.  0.
        -12    1    1    2    0    0  0.30509745471E+02  0.33731932903E+01  0.86309824775E+01  0.31885997871E+02  0.00000000000E+00 0.  1.
         11    1    3    3    0    0 -0.32185337496E+02 -0.35996624178E+01  0.80527107164E+01  0.33372139119E+02  0.51100000000E-03 0.  1.
        -11    1    3    3    0    0 -0.75565574040E+01 -0.46467975753E+01 -0.47082748195E+01  0.10043014465E+02  0.51100000000E-03 0. -1.
         12    1    3    3    0    0  0.92321494287E+01  0.48732667029E+01 -0.11975418374E+02  0.15886848544E+02  0.00000000000E+00 0. -1.
</event>
<event>
 7    1  0.5979290E-013  0.5930183E+02  0.7816164E-02  0.1266605E+00
        -11   -1    0    0    0    0  0.00000000000E+00  0.00000000000E+00  0.45593999997E+02  0.45594000000E+02  0.51100000000E-03 0.  1.
         11   -1    0    0    0    0 -0.00000000000E+00 -0.00000000000E+00 -0.45593999997E+02  0.45594000000E+02  0.51100000000E-03 0. -1.
    9900012    2    1    2    0    0 -0.12985320136E+01  0.28161416951E+02 -0.14898869724E+02  0.59301828873E+02  0.49999789985E+02 0.  0.
        -12    1    1    2    0    0  0.12985320136E+01 -0.28161416951E+02  0.14898869724E+02  0.31886171127E+02  0.00000000000E+00 0.  1.
         11    1    3    3    0    0 -0.60501483166E+01 -0.62718357837E+01 -0.51761766694E+01  0.10135730064E+02  0.51100000000E-03 0.  1.
        -11    1    3    3    0    0  0.34072556150E+01  0.37938842637E+01 -0.16913535254E+02  0.17665520759E+02  0.51100000000E-03 0. -1.
        -12    1    3    3    0    0  0.13443606880E+01  0.30639368471E+02  0.71908421997E+01  0.31500578050E+02  0.00000000000E+00 0.  1.
</event>
<event>
 7    1  0.5979290E-013  0.5930194E+02  0.7816164E-02  0.1266605E+00
        -11   -1    0    0    0    0  0.00000000000E+00  0.00000000000E+00  0.45593999997E+02  0.45594000000E+02  0.51100000000E-03 0.  1.
         11   -1    0    0    0    0 -0.00000000000E+00 -0.00000000000E+00 -0.45593999997E+02  0.45594000000E+02  0.51100000000E-03 0. -1.
    9900012    2    1    2    0    0  0.14773521835E+01 -0.31844794764E+02 -0.66893229126E+00  0.59301937316E+02  0.49999987760E+02 0.  0.
        -12    1    1    2    0    0 -0.14773521835E+01  0.31844794764E+02  0.66893229126E+00  0.31886062684E+02  0.00000000000E+00 0.  1.
         11    1    3    3    0    0  0.72315716671E+01 -0.84867774057E+01  0.32848083324E+01  0.11623725115E+02  0.51100000000E-03 0. -1.
        -11    1    3    3    0    0 -0.51473744038E+01 -0.71134721245E+01 -0.21821775403E+02  0.23522049888E+02  0.51100000000E-03 0.  1.
        -12    1    3    3    0    0 -0.60684507977E+00 -0.16244545234E+02  0.17868034780E+02  0.24156162313E+02  0.00000000000E+00 0.  1.
</event>
<event>
 7    1  0.5979290E-013  0.5930196E+02  0.7816164E-02  0.1266605E+00
        -11   -1    0    0    0    0  0.00000000000E+00  0.00000000000E+00  0.45593999997E+02  0.45594000000E+02  0.51100000000E-03 0. -1.
         11   -1    0    0    0    0 -0.00000000000E+00 -0.00000000000E+00 -0.45593999997E+02  0.45594000000E+02  0.51100000000E-03 0.  1.
    9900012    2    1    2    0    0 -0.19009904680E+02 -0.95417999065E+01  0.23754942927E+02  0.59301957053E+02  0.50000023754E+02 0.  0.
        -12    1    1    2    0    0  0.19009904680E+02  0.95417999065E+01 -0.23754942927E+02  0.31886042947E+02  0.00000000000E+00 0.  1.
         11    1    3    3    0    0 -0.11151569607E+02  0.41095155314E+01  0.34406600719E+02  0.36401370797E+02  0.51100000000E-03 0. -1.
        -11    1    3    3    0    0 -0.10034679303E+02 -0.14593435514E+02 -0.10341783580E+02  0.20508916029E+02  0.51100000000E-03 0.  1.
         12    1    3    3    0    0  0.21763442300E+01  0.94212007593E+00 -0.30987421194E+00  0.23916702265E+01  0.00000000000E+00 0. -1.
</event>
<event>
 7    1  0.5979290E-013  0.5930190E+02  0.7816164E-02  0.1266605E+00
        -11   -1    0    0    0    0  0.00000000000E+00  0.00000000000E+00  0.45593999997E+02  0.45594000000E+02  0.51100000000E-03 0.  1.
         11   -1    0    0    0    0 -0.00000000000E+00 -0.00000000000E+00 -0.45593999997E+02  0.45594000000E+02  0.51100000000E-03 0. -1.
    9900012    2    1    2    0    0  0.22503841550E+01 -0.19235187236E+02 -0.25331142196E+02  0.59301899238E+02  0.49999918314E+02 0.  0.
        -12    1    1    2    0    0 -0.22503841550E+01  0.19235187236E+02  0.25331142196E+02  0.31886100762E+02  0.00000000000E+00 0.  1.
         11    1    3    3    0    0 -0.17615576359E+02 -0.14392381364E+02 -0.26599027107E+01  0.22902494504E+02  0.51100000000E-03 0. -1.
        -11    1    3    3    0    0  0.19541354826E+02 -0.89079919481E+00 -0.78855564334E+01  0.21091232115E+02  0.51100000000E-03 0.  1.
         12    1    3    3    0    0  0.32460568878E+00 -0.39520066773E+01 -0.14785683051E+02  0.15308172619E+02  0.00000000000E+00 0. -1.
</event>
<event>
 7    1  0.5979290E-013  0.5930195E+02  0.7816164E-02  0.1266605E+00
        -11   -1    0    0    0    0  0.00000000000E+00  0.00000000000E+00  0.45593999997E+02  0.45594000000E+02  0.51100000000E-03 0.  1.
         11   -1    0    0    0    0 -0.00000000000E+00 -0.00000000000E+00 -0.45593999997E+02  0.45594000000E+02  0.51100000000E-03 0. -1.
    9900012    2    1    2    0    0 -0.65245037532E+01 -0.11008679360E+02 -0.29205479288E+02  0.59301949901E+02  0.50000010711E+02 0.  0.
        -12    1    1    2    0    0  0.65245037532E+01  0.11008679360E+02  0.29205479288E+02  0.31886050099E+02  0.00000000000E+00 0.  1.
         11    1    3    3    0    0  0.97090710250E+01 -0.21270212501E+02 -0.16909891762E+02  0.28855371072E+02  0.51100000000E-03 0. -1.
        -11    1    3    3    0    0  0.12424069209E+01  0.79689730635E+01  0.13223972641E+01  0.81729334654E+01  0.51100000000E-03 0.  1.
         12    1    3    3    0    0 -0.17475981699E+02  0.22925600776E+01 -0.13617984790E+02  0.22273645364E+02  0.00000000000E+00 0. -1.
</event>
<event>
 7    1  0.5979290E-013  0.5930196E+02  0.7816164E-02  0.1266605E+00
        -11   -1    0    0    0    0  0.00000000000E+00  0.00000000000E+00  0.45593999997E+02  0.45594000000E+02  0.51100000000E-03 0.  1.
         11   -1    0    0    0    0 -0.00000000000E+00 -0.00000000000E+00 -0.45593999997E+02  0.45594000000E+02  0.51100000000E-03 0. -1.
    9900012    2    1    2    0    0  0.22328060097E+01 -0.27996176908E+02 -0.15097954935E+02  0.59301959365E+02  0.50000027972E+02 0.  0.
        -12    1    1    2    0    0 -0.22328060097E+01  0.27996176908E+02  0.15097954935E+02  0.31886040635E+02  0.00000000000E+00 0.  1.
         11    1    3    3    0    0  0.10296502057E+02 -0.12519055710E+02 -0.25613740836E+02  0.30311852968E+02  0.51100000000E-03 0. -1.
        -11    1    3    3    0    0 -0.14731923805E+02 -0.72316622157E+01  0.63525029839E+01  0.17597750192E+02  0.51100000000E-03 0.  1.
         12    1    3    3    0    0  0.66682277575E+01 -0.82454589822E+01  0.41632829169E+01  0.11392356205E+02  0.00000000000E+00 0. -1.
</event>
<event>
 7    1  0.5979290E-013  0.5930194E+02  0.7816164E-02  0.1266605E+00
        -11   -1    0    0    0    0  0.00000000000E+00  0.00000000000E+00  0.45593999997E+02  0.45594000000E+02  0.51100000000E-03 0. -1.
         11   -1    0    0    0    0 -0.00000000000E+00 -0.00000000000E+00 -0.45593999997E+02  0.45594000000E+02  0.51100000000E-03 0.  1.
    9900012    2    1    2    0    0 -0.22779433305E+01 -0.76052607871E+01  0.30881896146E+02  0.59301944631E+02  0.50000001100E+02 0.  0.
        -12    1    1    2    0    0  0.22779433305E+01  0.76052607871E+01 -0.30881896146E+02  0.31886055369E+02  0.00000000000E+00 0.  1.
         11    1    3    3    0    0 -0.15943318043E+02  0.52552958025E+00  0.24972277521E+02  0.29632418335E+02  0.51100000000E-03 0. -1.
        -11    1    3    3    0    0  0.15511939528E+02 -0.14611268257E+02  0.77647392683E+01  0.22680401322E+02  0.51100000000E-03 0.  1.
        -12    1    3    3    0    0 -0.18465648156E+01  0.64804778892E+01 -0.18551206435E+01  0.69891249733E+01  0.00000000000E+00 0.  1.
</event>
<event>
 7    1  0.5979290E-013  0.5930199E+02  0.7816164E-02  0.1266605E+00
        -11   -1    0    0    0    0  0.00000000000E+00  0.00000000000E+00  0.45593999997E+02  0.45594000000E+02  0.51100000000E-03 0.  1.
         11   -1    0    0    0    0 -0.00000000000E+00 -0.00000000000E+00 -0.45593999997E+02  0.45594000000E+02  0.51100000000E-03 0. -1.
    9900012    2    1    2    0    0  0.15117281392E+02  0.16486161816E+02 -0.22724257217E+02  0.59301990620E+02  0.50000084973E+02 0.  0.
        -12    1    1    2    0    0 -0.15117281392E+02 -0.16486161816E+02  0.22724257217E+02  0.31886009380E+02  0.00000000000E+00 0.  1.
         11    1    3    3    0    0  0.20299236083E+02  0.18894547203E+02 -0.31009776411E+02  0.41601311672E+02  0.51100000000E-03 0. -1.
        -11    1    3    3    0    0  0.26155551237E+00  0.49322328928E+01  0.68574577664E+01  0.84510389819E+01  0.51100000000E-03 0.  1.
         12    1    3    3    0    0 -0.54435102038E+01 -0.73406182791E+01  0.14280614272E+01  0.92496399658E+01  0.00000000000E+00 0. -1.
</event>
<event>
 7    1  0.5979290E-013  0.5930196E+02  0.7816164E-02  0.1266605E+00
        -11   -1    0    0    0    0  0.00000000000E+00  0.00000000000E+00  0.45593999997E+02  0.45594000000E+02  0.51100000000E-03 0.  1.
         11   -1    0    0    0    0 -0.00000000000E+00 -0.00000000000E+00 -0.45593999997E+02  0.45594000000E+02  0.51100000000E-03 0. -1.
    9900012    2    1    2    0    0  0.69292891031E+00  0.22978587534E+02 -0.22095789288E+02  0.59301960111E+02  0.50000029332E+02 0.  0.
        -12    1    1    2    0    0 -0.69292891031E+00 -0.22978587534E+02  0.22095789288E+02  0.31886039889E+02  0.00000000000E+00 0.  1.
         11    1    3    3    0    0 -0.18464757037E+02  0.22830354464E+01 -0.99436245711E+01  0.21095856777E+02  0.51100000000E-03 0. -1.
        -11    1    3    3    0    0  0.19147363012E+02  0.94649577234E+01 -0.15610005465E+02  0.26455230218E+02  0.51100000000E-03 0.  1.
        -12    1    3    3    0    0  0.10322935494E-01  0.11230594365E+02  0.34578407487E+01  0.11750873116E+02  0.00000000000E+00 0.  1.
</event>
<event>
 7    1  0.5979290E-013  0.5930192E+02  0.7816164E-02  0.1266605E+00
        -11   -1    0    0    0    0  0.00000000000E+00  0.00000000000E+00  0.45593999997E+02  0.45594000000E+02  0.51100000000E-03 0. -1.
         11   -1    0    0    0    0 -0.00000000000E+00 -0.00000000000E+00 -0.45593999997E+02  0.45594000000E+02  0.51100000000E-03 0.  1.
    9900012    2    1    2    0    0  0.18740256301E+02  0.51886049829E-02  0.25797764413E+02  0.59301923386E+02  0.49999962355E+02 0.  0.
        -12    1    1    2    0    0 -0.18740256301E+02 -0.51886049829E-02 -0.25797764413E+02  0.31886076614E+02  0.00000000000E+00 0.  1.
         11    1    3    3    0    0 -0.95699777427E+01  0.88016353496E+01  0.22595401311E+02  0.26069242787E+02  0.51100000000E-03 0. -1.
        -11    1    3    3    0    0  0.69588047316E+01 -0.34851176430E+01 -0.55443966869E+01  0.95556968956E+01  0.51100000000E-03 0.  1.
         12    1    3    3    0    0  0.21351429312E+02 -0.53113291017E+01  0.87467597885E+01  0.23676983703E+02  0.00000000000E+00 0. -1.
</event>
<event>
 7    1  0.5979290E-013  0.5930194E+02  0.7816164E-02  0.1266605E+00
        -11   -1    0    0    0    0  0.00000000000E+00  0.00000000000E+00  0.45593999997E+02  0.45594000000E+02  0.51100000000E-03 0.  1.
         11   -1    0    0    0    0 -0.00000000000E+00 -0.00000000000E+00 -0.45593999997E+02  0.45594000000E+02  0.51100000000E-03 0. -1.
    9900012    2    1    2    0    0  0.25647204728E+02  0.82726437407E+01 -0.17044213339E+02  0.59301937948E+02  0.49999988912E+02 0.  0.
        -12    1    1    2    0    0 -0.25647204728E+02 -0.82726437407E+01  0.17044213339E+02  0.31886062052E+02  0.00000000000E+00 0.  1.
         11    1    3    3    0    0  0.84534673019E+01 -0.74598242411E+01  0.14562839924E+02  0.18417013711E+02  0.51100000000E-03 0.  1.
        -11    1    3    3    0    0  0.10468737581E+02  0.45355691665E+01 -0.21610334103E+02  0.24437111010E+02  0.51100000000E-03 0. -1.
        -12    1    3    3    0    0  0.67249998446E+01  0.11196898815E+02 -0.99967191604E+01  0.16447813227E+02  0.00000000000E+00 0.  1.
</event>
<event>
 7    1  0.5979290E-013  0.5930195E+02  0.7816164E-02  0.1266605E+00
        -11   -1    0    0    0    0  0.00000000000E+00  0.00000000000E+00  0.45593999997E+02  0.45594000000E+02  0.51100000000E-03 0.  1.
         11   -1    0    0    0    0 -0.00000000000E+00 -0.00000000000E+00 -0.45593999997E+02  0.45594000000E+02  0.51100000000E-03 0. -1.
    9900012    2    1    2    0    0 -0.10542193616E+02  0.20042581951E+02 -0.22447210380E+02  0.59301949894E+02  0.50000010699E+02 0.  0.
        -12    1    1    2    0    0  0.10542193616E+02 -0.20042581951E+02  0.22447210380E+02  0.31886050106E+02  0.00000000000E+00 0.  1.
         11    1    3    3    0    0 -0.10868379435E+02 -0.10330993425E+02 -0.10643356917E+02  0.18388369787E+02  0.51100000000E-03 0. -1.
        -11    1    3    3    0    0 -0.42207076817E+01  0.29988546710E+02 -0.23003761794E+01  0.30371352257E+02  0.51100000000E-03 0.  1.
        -12    1    3    3    0    0  0.45468935004E+01  0.38502866626E+00 -0.95034772833E+01  0.10542227851E+02  0.00000000000E+00 0.  1.
</event>
<event>
 7    1  0.5979290E-013  0.5930198E+02  0.7816164E-02  0.1266605E+00
        -11   -1    0    0    0    0  0.00000000000E+00  0.00000000000E+00  0.45593999997E+02  0.45594000000E+02  0.51100000000E-03 0. -1.
         11   -1    0    0    0    0 -0.00000000000E+00 -0.00000000000E+00 -0.45593999997E+02  0.45594000000E+02  0.51100000000E-03 0.  1.
    9900012    2    1    2    0    0 -0.60215482486E+01  0.31122857467E+02  0.34390756616E+01  0.59301975763E+02  0.50000057878E+02 0.  0.
        -12    1    1    2    0    0  0.60215482486E+01 -0.31122857467E+02 -0.34390756616E+01  0.31886024237E+02  0.00000000000E+00 0.  1.
         11    1    3    3    0    0 -0.16403515213E+02  0.30080940119E+02  0.12445878355E+00  0.34263008625E+02  0.51100000000E-03 0. -1.
        -11    1    3    3    0    0  0.98855965582E+01  0.69801750042E+01 -0.63640812816E+01  0.13672943839E+02  0.51100000000E-03 0.  1.
         12    1    3    3    0    0  0.49637040580E+00 -0.59382576568E+01  0.96786981596E+01  0.11366023299E+02  0.00000000000E+00 0. -1.
</event>
<event>
 7    1  0.5979290E-013  0.5930194E+02  0.7816164E-02  0.1266605E+00
        -11   -1    0    0    0    0  0.00000000000E+00  0.00000000000E+00  0.45593999997E+02  0.45594000000E+02  0.51100000000E-03 0.  1.
         11   -1    0    0    0    0 -0.00000000000E+00 -0.00000000000E+00 -0.45593999997E+02  0.45594000000E+02  0.51100000000E-03 0. -1.
    9900012    2    1    2    0    0 -0.70515523450E+00 -0.19245927660E+02 -0.25412951197E+02  0.59301936212E+02  0.49999985746E+02 0.  0.
        -12    1    1    2    0    0  0.70515523450E+00  0.19245927660E+02  0.25412951197E+02  0.31886063788E+02  0.00000000000E+00 0.  1.
         11    1    3    3    0    0  0.19001362528E+02 -0.14235190871E+02 -0.18929815622E+02  0.30364952771E+02  0.51100000000E-03 0. -1.
        -11    1    3    3    0    0 -0.14970431311E+02 -0.12274298997E+02 -0.29897906647E+01  0.19588544561E+02  0.51100000000E-03 0.  1.
         12    1    3    3    0    0 -0.47360864508E+01  0.72635622092E+01 -0.34933449097E+01  0.93484388801E+01  0.00000000000E+00 0. -1.
</event>
<event>
 7    1  0.5979290E-013  0.5930194E+02  0.7816164E-02  0.1266605E+00
        -11   -1    0    0    0    0  0.00000000000E+00  0.00000000000E+00  0.45593999997E+02  0.45594000000E+02  0.51100000000E-03 0.  1.
         11   -1    0    0    0    0 -0.00000000000E+00 -0.00000000000E+00 -0.45593999997E+02  0.45594000000E+02  0.51100000000E-03 0. -1.
    9900012    2    1    2    0    0  0.22531725884E+02  0.43066368733E+00 -0.22557848867E+02  0.59301942106E+02  0.49999996495E+02 0.  0.
        -12    1    1    2    0    0 -0.22531725884E+02 -0.43066368733E+00  0.22557848867E+02  0.31886057894E+02  0.00000000000E+00 0.  1.
         11    1    3    3    0    0  0.62597333838E+01 -0.12431423467E+01 -0.15662082329E+01  0.65713524803E+01  0.51100000000E-03 0. -1.
        -11    1    3    3    0    0 -0.49330873832E+01  0.11407166261E+02 -0.26044184219E+02  0.28857552307E+02  0.51100000000E-03 0.  1.
        -12    1    3    3    0    0  0.21205079883E+02 -0.97333602273E+01  0.50525435844E+01  0.23873037319E+02  0.00000000000E+00 0.  1.
</event>
<event>
 7    1  0.5979290E-013  0.5930199E+02  0.7816164E-02  0.1266605E+00
        -11   -1    0    0    0    0  0.00000000000E+00  0.00000000000E+00  0.45593999997E+02  0.45594000000E+02  0.51100000000E-03 0. -1.
         11   -1    0    0    0    0 -0.00000000000E+00 -0.00000000000E+00 -0.45593999997E+02  0.45594000000E+02  0.51100000000E-03 0.  1.
    9900012    2    1    2    0    0 -0.80127554852E+01 -0.27379423908E+02  0.14243611321E+02  0.59301991038E+02  0.50000085736E+02 0.  0.
        -12    1    1    2    0    0  0.80127554852E+01  0.27379423908E+02 -0.14243611321E+02  0.31886008962E+02  0.00000000000E+00 0.  1.
         11    1    3    3    0    0  0.14237651166E+02 -0.81529625435E+01  0.38790631070E+01  0.16859081820E+02  0.51100000000E-03 0. -1.
        -11    1    3    3    0    0 -0.23948279938E+02 -0.25306915771E+02  0.85906941516E+01  0.35885374794E+02  0.51100000000E-03 0.  1.
        -12    1    3    3    0    0  0.16978732870E+01  0.60804544064E+01  0.17738540626E+01  0.65575344241E+01  0.00000000000E+00 0.  1.
</event>
<event>
 7    1  0.5979290E-013  0.5930193E+02  0.7816164E-02  0.1266605E+00
        -11   -1    0    0    0    0  0.00000000000E+00  0.00000000000E+00  0.45593999997E+02  0.45594000000E+02  0.51100000000E-03 0. -1.
         11   -1    0    0    0    0 -0.00000000000E+00 -0.00000000000E+00 -0.45593999997E+02  0.45594000000E+02  0.51100000000E-03 0.  1.
    9900012    2    1    2    0    0 -0.21695124451E+02 -0.21173315265E+01  0.23271437703E+02  0.59301932031E+02  0.49999978122E+02 0.  0.
        -12    1    1    2    0    0  0.21695124451E+02  0.21173315265E+01 -0.23271437703E+02  0.31886067969E+02  0.00000000000E+00 0.  1.
         11    1    3    3    0    0 -0.74881931868E+01 -0.36997171324E+01  0.17834576206E+02  0.19693477417E+02  0.51100000000E-03 0. -1.
        -11    1    3    3    0    0 -0.15143749615E+02  0.17400792506E+02  0.56945655601E+01  0.23760235887E+02  0.51100000000E-03 0.  1.
        -12    1    3    3    0    0  0.93681835071E+00 -0.15818406900E+02 -0.25770406244E+00  0.15848218728E+02  0.00000000000E+00 0.  1.
</event>
<event>
 7    1  0.5979290E-013  0.5930192E+02  0.7816164E-02  0.1266605E+00
        -11   -1    0    0    0    0  0.00000000000E+00  0.00000000000E+00  0.45593999997E+02  0.45594000000E+02  0.51100000000E-03 0. -1.
         11   -1    0    0    0    0 -0.00000000000E+00 -0.00000000000E+00 -0.45593999997E+02  0.45594000000E+02  0.51100000000E-03 0.  1.
    9900012    2    1    2    0    0 -0.30384730063E+02  0.68905281366E+00  0.96444491208E+01  0.59301921319E+02  0.49999958585E+02 0.  0.
        -12    1    1    2    0    0  0.30384730063E+02 -0.68905281366E+00 -0.96444491208E+01  0.31886078681E+02  0.00000000000E+00 0.  1.
         11    1    3    3    0    0 -0.21436335599E+01  0.35178091308E+01  0.98003011906E+01  0.10630900696E+02  0.51100000000E-03 0. -1.
        -11    1    3    3    0    0 -0.37160006602E+02 -0.81485312042E+01  0.18760806757E+01  0.38089162900E+02  0.51100000000E-03 0.  1.
        -12    1    3    3    0    0  0.89189100984E+01  0.53197748870E+01 -0.20319327455E+01  0.10581857723E+02  0.00000000000E+00 0.  1.
</event>
<event>
 7    1  0.5979290E-013  0.5930198E+02  0.7816164E-02  0.1266605E+00
        -11   -1    0    0    0    0  0.00000000000E+00  0.00000000000E+00  0.45593999997E+02  0.45594000000E+02  0.51100000000E-03 0. -1.
         11   -1    0    0    0    0 -0.00000000000E+00 -0.00000000000E+00 -0.45593999997E+02  0.45594000000E+02  0.51100000000E-03 0.  1.
    9900012    2    1    2    0    0 -0.19510841770E+02 -0.72277932671E+01  0.24162041246E+02  0.59301981445E+02  0.50000068241E+02 0.  0.
        -12    1    1    2    0    0  0.19510841770E+02  0.72277932671E+01 -0.24162041246E+02  0.31886018555E+02  0.00000000000E+00 0.  1.
         11    1    3    3    0    0 -0.13198216510E+02  0.29743864936E+01  0.14225709128E+02  0.19631879546E+02  0.51100000000E-03 0. -1.
        -11    1    3    3    0    0  0.38186622500E+01 -0.11679130530E+02  0.21165738662E+02  0.24473920092E+02  0.51100000000E-03 0.  1.
        -12    1    3    3    0    0 -0.10131287511E+02  0.14769507694E+01 -0.11229406544E+02  0.15196181807E+02  0.00000000000E+00 0.  1.
</event>
<event>
 7    1  0.5979290E-013  0.5930194E+02  0.7816164E-02  0.1266605E+00
        -11   -1    0    0    0    0  0.00000000000E+00  0.00000000000E+00  0.45593999997E+02  0.45594000000E+02  0.51100000000E-03 0.  1.
         11   -1    0    0    0    0 -0.00000000000E+00 -0.00000000000E+00 -0.45593999997E+02  0.45594000000E+02  0.51100000000E-03 0. -1.
    9900012    2    1    2    0    0 -0.20277438804E+02  0.24170309446E+02  0.46197684008E+01  0.59301942809E+02  0.49999997776E+02 0.  0.
        -12    1    1    2    0    0  0.20277438804E+02 -0.24170309446E+02 -0.46197684008E+01  0.31886057191E+02  0.00000000000E+00 0.  1.
         11    1    3    3    0    0 -0.14994473056E+02 -0.67996961634E+01 -0.85869499723E+01  0.18568947203E+02  0.51100000000E-03 0. -1.
        -11    1    3    3    0    0  0.68639470426E+01  0.25723077863E+01  0.53982575078E+00  0.73499624798E+01  0.51100000000E-03 0.  1.
         12    1    3    3    0    0 -0.12146912791E+02  0.28397697823E+02  0.12666892622E+02  0.33383033126E+02  0.00000000000E+00 0. -1.
</event>
<event>
 7    1  0.5979290E-013  0.5930201E+02  0.7816164E-02  0.1266605E+00
        -11   -1    0    0    0    0  0.00000000000E+00  0.00000000000E+00  0.45593999997E+02  0.45594000000E+02  0.51100000000E-03 0.  1.
         11   -1    0    0    0    0 -0.00000000000E+00 -0.00000000000E+00 -0.45593999997E+02  0.45594000000E+02  0.51100000000E-03 0. -1.
    9900012    2    1    2    0    0  0.15035575333E+02 -0.27782548246E+02 -0.43333662068E+01  0.59302006597E+02  0.50000114111E+02 0.  0.
        -12    1    1    2    0    0 -0.15035575333E+02  0.27782548246E+02  0.43333662068E+01  0.31885993403E+02  0.00000000000E+00 0.  1.
         11    1    3    3    0    0  0.11325702048E+02  0.70341401557E+01 -0.12541285428E+01  0.13391172214E+02  0.51100000000E-03 0.  1.
        -11    1    3    3    0    0 -0.21856917161E+01 -0.33862024098E+02  0.65701591383E+01  0.34562709900E+02  0.51100000000E-03 0. -1.
         12    1    3    3    0    0  0.58955650020E+01 -0.95466430354E+00 -0.96493968023E+01  0.11348124483E+02  0.00000000000E+00 0. -1.
</event>
<event>
 7    1  0.5979290E-013  0.5930179E+02  0.7816164E-02  0.1266605E+00
        -11   -1    0    0    0    0  0.00000000000E+00  0.00000000000E+00  0.45593999997E+02  0.45594000000E+02  0.51100000000E-03 0.  1.
         11   -1    0    0    0    0 -0.00000000000E+00 -0.00000000000E+00 -0.45593999997E+02  0.45594000000E+02  0.51100000000E-03 0. -1.
    9900012    2    1    2    0    0 -0.45212091036E+01  0.30247454043E+02 -0.90211134723E+01  0.59301791443E+02  0.49999721722E+02 0.  0.
        -12    1    1    2    0    0  0.45212091036E+01 -0.30247454043E+02  0.90211134723E+01  0.31886208557E+02  0.00000000000E+00 0.  1.
         11    1    3    3    0    0 -0.24480429858E+01 -0.43361581957E+00  0.12337017503E+02  0.12585028339E+02  0.51100000000E-03 0.  1.
        -11    1    3    3    0    0  0.11299352421E+02  0.15516179857E+02 -0.17819123557E+02  0.26190616012E+02  0.51100000000E-03 0. -1.
        -12    1    3    3    0    0 -0.13372518539E+02  0.15164890006E+02 -0.35390074186E+01  0.20526147093E+02  0.00000000000E+00 0.  1.
</event>
<event>
 7    1  0.5979290E-013  0.5930197E+02  0.7816164E-02  0.1266605E+00
        -11   -1    0    0    0    0  0.00000000000E+00  0.00000000000E+00  0.45593999997E+02  0.45594000000E+02  0.51100000000E-03 0.  1.
         11   -1    0    0    0    0 -0.00000000000E+00 -0.00000000000E+00 -0.45593999997E+02  0.45594000000E+02  0.51100000000E-03 0. -1.
    9900012    2    1    2    0    0 -0.19499364549E+01 -0.31399665512E+02 -0.51940245299E+01  0.59301966424E+02  0.50000040845E+02 0.  0.
        -12    1    1    2    0    0  0.19499364549E+01  0.31399665512E+02  0.51940245299E+01  0.31886033576E+02  0.00000000000E+00 0.  1.
         11    1    3    3    0    0  0.10331026337E+02 -0.19272095984E+02  0.10778191884E+02  0.24378539934E+02  0.51100000000E-03 0. -1.
        -11    1    3    3    0    0 -0.12284116466E+02 -0.51248508178E+01  0.38865903795E+01  0.13866116915E+02  0.51100000000E-03 0.  1.
         12    1    3    3    0    0  0.31536735506E-02 -0.70027187101E+01 -0.19858806793E+02  0.21057309575E+02  0.00000000000E+00 0. -1.
</event>
<event>
 7    1  0.5979290E-013  0.5930193E+02  0.7816164E-02  0.1266605E+00
        -11   -1    0    0    0    0  0.00000000000E+00  0.00000000000E+00  0.45593999997E+02  0.45594000000E+02  0.51100000000E-03 0.  1.
         11   -1    0    0    0    0 -0.00000000000E+00 -0.00000000000E+00 -0.45593999997E+02  0.45594000000E+02  0.51100000000E-03 0. -1.
    9900012    2    1    2    0    0 -0.16116535192E+02  0.12468710833E+02 -0.24525696332E+02  0.59301933498E+02  0.49999980796E+02 0.  0.
        -12    1    1    2    0    0  0.16116535192E+02 -0.12468710833E+02  0.24525696332E+02  0.31886066502E+02  0.00000000000E+00 0.  1.
         11    1    3    3    0    0  0.13080512243E+02  0.56388249139E+01  0.48962582575E+00  0.14252574527E+02  0.51100000000E-03 0.  1.
        -11    1    3    3    0    0 -0.25989882730E+02 -0.30584190174E+01 -0.13193078836E+02  0.29306744286E+02  0.51100000000E-03 0. -1.
         12    1    3    3    0    0 -0.32071647052E+01  0.98883049365E+01 -0.11822243321E+02  0.15742614685E+02  0.00000000000E+00 0. -1.
</event>
<event>
 7    1  0.5979290E-013  0.5930196E+02  0.7816164E-02  0.1266605E+00
        -11   -1    0    0    0    0  0.00000000000E+00  0.00000000000E+00  0.45593999997E+02  0.45594000000E+02  0.51100000000E-03 0.  1.
         11   -1    0    0    0    0 -0.00000000000E+00 -0.00000000000E+00 -0.45593999997E+02  0.45594000000E+02  0.51100000000E-03 0. -1.
    9900012    2    1    2    0    0  0.23501041305E+02 -0.21083757104E+02 -0.44604812618E+01  0.59301958397E+02  0.50000026207E+02 0.  0.
        -12    1    1    2    0    0 -0.23501041305E+02  0.21083757104E+02  0.44604812618E+01  0.31886041603E+02  0.00000000000E+00 0.  1.
         11    1    3    3    0    0  0.18457125225E+02  0.47480111940E+01 -0.29407301638E+01  0.19283593442E+02  0.51100000000E-03 0.  1.
        -11    1    3    3    0    0  0.55949999307E+01 -0.32220784311E+02 -0.43831596563E+01  0.32995379293E+02  0.51100000000E-03 0. -1.
        -12    1    3    3    0    0 -0.55108385138E+00  0.63890160138E+01  0.28634085583E+01  0.70229856620E+01  0.00000000000E+00 0.  1.
</event>
<event>
 7    1  0.5979290E-013  0.5930217E+02  0.7816164E-02  0.1266604E+00
        -11   -1    0    0    0    0  0.00000000000E+00  0.00000000000E+00  0.45593999997E+02  0.45594000000E+02  0.51100000000E-03 0.  1.
         11   -1    0    0    0    0 -0.00000000000E+00 -0.00000000000E+00 -0.45593999997E+02  0.45594000000E+02  0.51100000000E-03 0. -1.
    9900012    2    1    2    0    0  0.98927973266E+01  0.21901086238E+02 -0.20956652723E+02  0.59302167556E+02  0.50000407659E+02 0.  0.
        -12    1    1    2    0    0 -0.98927973266E+01 -0.21901086238E+02  0.20956652723E+02  0.31885832444E+02  0.00000000000E+00 0.  1.
         11    1    3    3    0    0  0.11750714525E+01  0.87405468892E+01 -0.25988500652E+02  0.27444127227E+02  0.51100000000E-03 0. -1.
        -11    1    3    3    0    0  0.76256296394E+01 -0.53205683472E+01  0.89818845659E+01  0.12927990004E+02  0.51100000000E-03 0.  1.
         12    1    3    3    0    0  0.10920962346E+01  0.18481107696E+02 -0.39500366364E+01  0.18930050324E+02  0.00000000000E+00 0. -1.
</event>
<event>
 7    1  0.5979290E-013  0.5930193E+02  0.7816164E-02  0.1266605E+00
        -11   -1    0    0    0    0  0.00000000000E+00  0.00000000000E+00  0.45593999997E+02  0.45594000000E+02  0.51100000000E-03 0.  1.
         11   -1    0    0    0    0 -0.00000000000E+00 -0.00000000000E+00 -0.45593999997E+02  0.45594000000E+02  0.51100000000E-03 0. -1.
    9900012    2    1    2    0    0 -0.22711059724E+02 -0.23352166941E+01 -0.22259294893E+02  0.59301926552E+02  0.49999968129E+02 0.  0.
        -12    1    1    2    0    0  0.22711059724E+02  0.23352166941E+01  0.22259294893E+02  0.31886073448E+02  0.00000000000E+00 0.  1.
         11    1    3    3    0    0 -0.28076524951E+01 -0.41830512574E+01 -0.29854590714E+02  0.30276681082E+02  0.51100000000E-03 0.  1.
        -11    1    3    3    0    0 -0.37576370426E+01  0.92752220611E+01  0.95470439034E+00  0.10052912074E+02  0.51100000000E-03 0. -1.
         12    1    3    3    0    0 -0.16145770186E+02 -0.74273874979E+01  0.66405914310E+01  0.18972333396E+02  0.00000000000E+00 0. -1.
</event>
<event>
 7    1  0.5979290E-013  0.5930192E+02  0.7816164E-02  0.1266605E+00
        -11   -1    0    0    0    0  0.00000000000E+00  0.00000000000E+00  0.45593999997E+02  0.45594000000E+02  0.51100000000E-03 0. -1.
         11   -1    0    0    0    0 -0.00000000000E+00 -0.00000000000E+00 -0.45593999997E+02  0.45594000000E+02  0.51100000000E-03 0.  1.
    9900012    2    1    2    0    0  0.20108080119E+01 -0.28235682672E+02  0.14677358053E+02  0.59301922094E+02  0.49999959998E+02 0.  0.
        -12    1    1    2    0    0 -0.20108080119E+01  0.28235682672E+02 -0.14677358053E+02  0.31886077906E+02  0.00000000000E+00 0.  1.
         11    1    3    3    0    0  0.14978537474E+02 -0.26210681230E+02  0.33743084982E+01  0.30376674497E+02  0.51100000000E-03 0. -1.
        -11    1    3    3    0    0 -0.19133287397E+02 -0.48258884143E+01  0.95928283160E+01  0.21940698279E+02  0.51100000000E-03 0.  1.
         12    1    3    3    0    0  0.61655579353E+01  0.28008869719E+01  0.17102212383E+01  0.69845493174E+01  0.00000000000E+00 0. -1.
</event>
<event>
 7    1  0.5979290E-013  0.5930193E+02  0.7816164E-02  0.1266605E+00
        -11   -1    0    0    0    0  0.00000000000E+00  0.00000000000E+00  0.45593999997E+02  0.45594000000E+02  0.51100000000E-03 0.  1.
         11   -1    0    0    0    0 -0.00000000000E+00 -0.00000000000E+00 -0.45593999997E+02  0.45594000000E+02  0.51100000000E-03 0. -1.
    9900012    2    1    2    0    0 -0.63311655187E+01  0.78156174314E+01 -0.30258117609E+02  0.59301933860E+02  0.49999981457E+02 0.  0.
        -12    1    1    2    0    0  0.63311655187E+01 -0.78156174314E+01  0.30258117609E+02  0.31886066140E+02  0.00000000000E+00 0.  1.
         11    1    3    3    0    0 -0.96437178441E+01  0.13432624709E+01 -0.15167403299E+02  0.18023755741E+02  0.51100000000E-03 0. -1.
        -11    1    3    3    0    0  0.18467069307E+02  0.11822998988E+02 -0.56681298279E+01  0.22648259312E+02  0.51100000000E-03 0.  1.
        -12    1    3    3    0    0 -0.15154516981E+02 -0.53506440274E+01 -0.94225844819E+01  0.18629918807E+02  0.00000000000E+00 0.  1.
</event>
<event>
 7    1  0.5979290E-013  0.5930192E+02  0.7816164E-02  0.1266605E+00
        -11   -1    0    0    0    0  0.00000000000E+00  0.00000000000E+00  0.45593999997E+02  0.45594000000E+02  0.51100000000E-03 0.  1.
         11   -1    0    0    0    0 -0.00000000000E+00 -0.00000000000E+00 -0.45593999997E+02  0.45594000000E+02  0.51100000000E-03 0. -1.
    9900012    2    1    2    0    0  0.54794993198E+01 -0.40006467049E+01 -0.31155933992E+02  0.59301916675E+02  0.49999950116E+02 0.  0.
        -12    1    1    2    0    0 -0.54794993198E+01  0.40006467049E+01  0.31155933992E+02  0.31886083325E+02  0.00000000000E+00 0.  1.
         11    1    3    3    0    0 -0.36514559070E+01  0.10966945361E+02 -0.24265862851E+02  0.26878227638E+02  0.51100000000E-03 0. -1.
        -11    1    3    3    0    0  0.15279169760E+02 -0.16860240725E+02  0.32691668267E+00  0.22755826081E+02  0.51100000000E-03 0.  1.
        -12    1    3    3    0    0 -0.61482145332E+01  0.18926486592E+01 -0.72169878241E+01  0.96678629566E+01  0.00000000000E+00 0.  1.
</event>
<event>
 7    1  0.5979290E-013  0.5930198E+02  0.7816164E-02  0.1266605E+00
        -11   -1    0    0    0    0  0.00000000000E+00  0.00000000000E+00  0.45593999997E+02  0.45594000000E+02  0.51100000000E-03 0. -1.
         11   -1    0    0    0    0 -0.00000000000E+00 -0.00000000000E+00 -0.45593999997E+02  0.45594000000E+02  0.51100000000E-03 0.  1.
    9900012    2    1    2    0    0  0.28001469505E+02 -0.62420005342E+01  0.13916656079E+02  0.59301981410E+02  0.50000068176E+02 0.  0.
        -12    1    1    2    0    0 -0.28001469505E+02  0.62420005342E+01 -0.13916656079E+02  0.31886018590E+02  0.00000000000E+00 0.  1.
         11    1    3    3    0    0  0.14855505502E+02  0.23139965788E+01  0.15234860088E+00  0.15035419324E+02  0.51100000000E-03 0. -1.
        -11    1    3    3    0    0 -0.78994665435E+01  0.95027107802E+01  0.10737346089E+02  0.16370512672E+02  0.51100000000E-03 0.  1.
        -12    1    3    3    0    0  0.21045430546E+02 -0.18058707893E+02  0.30269613886E+01  0.27896049414E+02  0.00000000000E+00 0.  1.
</event>
<event>
 7    1  0.5979290E-013  0.5930196E+02  0.7816164E-02  0.1266605E+00
        -11   -1    0    0    0    0  0.00000000000E+00  0.00000000000E+00  0.45593999997E+02  0.45594000000E+02  0.51100000000E-03 0. -1.
         11   -1    0    0    0    0 -0.00000000000E+00 -0.00000000000E+00 -0.45593999997E+02  0.45594000000E+02  0.51100000000E-03 0.  1.
    9900012    2    1    2    0    0  0.15721155232E+02 -0.27063023781E+02 -0.60956916971E+01  0.59301961750E+02  0.50000032322E+02 0.  0.
        -12    1    1    2    0    0 -0.15721155232E+02  0.27063023781E+02  0.60956916971E+01  0.31886038250E+02  0.00000000000E+00 0.  1.
         11    1    3    3    0    0  0.87659374144E+01  0.20163731710E+01  0.35867689411E+01  0.96836114759E+01  0.51100000000E-03 0. -1.
        -11    1    3    3    0    0 -0.15178511312E+02 -0.19055541960E+02 -0.44967307299E+01  0.24773402523E+02  0.51100000000E-03 0.  1.
        -12    1    3    3    0    0  0.22133729130E+02 -0.10023854992E+02 -0.51857299082E+01  0.24844947752E+02  0.00000000000E+00 0.  1.
</event>
<event>
 7    1  0.5979290E-013  0.5930198E+02  0.7816164E-02  0.1266605E+00
        -11   -1    0    0    0    0  0.00000000000E+00  0.00000000000E+00  0.45593999997E+02  0.45594000000E+02  0.51100000000E-03 0. -1.
         11   -1    0    0    0    0 -0.00000000000E+00 -0.00000000000E+00 -0.45593999997E+02  0.45594000000E+02  0.51100000000E-03 0.  1.
    9900012    2    1    2    0    0  0.65976326067E+01 -0.14254213336E+02  0.27748995625E+02  0.59301982499E+02  0.50000070163E+02 0.  0.
        -12    1    1    2    0    0 -0.65976326067E+01  0.14254213336E+02 -0.27748995625E+02  0.31886017501E+02  0.00000000000E+00 0.  1.
         11    1    3    3    0    0  0.42275897785E+01 -0.39436327274E+01  0.77732022200E+01  0.96874881903E+01  0.51100000000E-03 0. -1.
        -11    1    3    3    0    0 -0.19456445456E+02 -0.34341492913E+01  0.82508749105E+00  0.19774413285E+02  0.51100000000E-03 0.  1.
        -12    1    3    3    0    0  0.21826488285E+02 -0.68764313178E+01  0.19150705914E+02  0.29840081024E+02  0.00000000000E+00 0.  1.
</event>
<event>
 7    1  0.5979290E-013  0.5930193E+02  0.7816164E-02  0.1266605E+00
        -11   -1    0    0    0    0  0.00000000000E+00  0.00000000000E+00  0.45593999997E+02  0.45594000000E+02  0.51100000000E-03 0. -1.
         11   -1    0    0    0    0 -0.00000000000E+00 -0.00000000000E+00 -0.45593999997E+02  0.45594000000E+02  0.51100000000E-03 0.  1.
    9900012    2    1    2    0    0  0.23240908720E+02  0.16723796395E+02 -0.14031962757E+02  0.59301934348E+02  0.49999982346E+02 0.  0.
        -12    1    1    2    0    0 -0.23240908720E+02 -0.16723796395E+02  0.14031962757E+02  0.31886065652E+02  0.00000000000E+00 0.  1.
         11    1    3    3    0    0 -0.67232239561E+01 -0.81050381570E+01  0.29272408593E+01  0.10929872973E+02  0.51100000000E-03 0.  1.
        -11    1    3    3    0    0  0.71326948638E+01  0.20862623378E+02 -0.97062786310E+01  0.24090168852E+02  0.51100000000E-03 0. -1.
         12    1    3    3    0    0  0.22831437812E+02  0.39662111739E+01 -0.72529249857E+01  0.24281892523E+02  0.00000000000E+00 0. -1.
</event>
<event>
 7    1  0.5979290E-013  0.5930197E+02  0.7816164E-02  0.1266605E+00
        -11   -1    0    0    0    0  0.00000000000E+00  0.00000000000E+00  0.45593999997E+02  0.45594000000E+02  0.51100000000E-03 0.  1.
         11   -1    0    0    0    0 -0.00000000000E+00 -0.00000000000E+00 -0.45593999997E+02  0.45594000000E+02  0.51100000000E-03 0. -1.
    9900012    2    1    2    0    0 -0.28132962778E+01  0.17480612076E+02 -0.26518527613E+02  0.59301972632E+02  0.50000052168E+02 0.  0.
        -12    1    1    2    0    0  0.28132962778E+01 -0.17480612076E+02  0.26518527613E+02  0.31886027368E+02  0.00000000000E+00 0.  1.
         11    1    3    3    0    0 -0.91370124352E+01 -0.26217862025E+01 -0.40714251727E+01  0.10340950746E+02  0.51100000000E-03 0. -1.
        -11    1    3    3    0    0  0.34502418156E+01  0.17235008637E+02  0.72312505535E+01  0.19006332527E+02  0.51100000000E-03 0.  1.
        -12    1    3    3    0    0  0.28734743418E+01  0.28673896416E+01 -0.29678352994E+02  0.29954689359E+02  0.00000000000E+00 0.  1.
</event>
<event>
 7    1  0.5979290E-013  0.5930193E+02  0.7816164E-02  0.1266605E+00
        -11   -1    0    0    0    0  0.00000000000E+00  0.00000000000E+00  0.45593999997E+02  0.45594000000E+02  0.51100000000E-03 0.  1.
         11   -1    0    0    0    0 -0.00000000000E+00 -0.00000000000E+00 -0.45593999997E+02  0.45594000000E+02  0.51100000000E-03 0. -1.
    9900012    2    1    2    0    0 -0.23918710167E+01 -0.21252766093E+02 -0.23649954600E+02  0.59301929905E+02  0.49999974243E+02 0.  0.
        -12    1    1    2    0    0  0.23918710167E+01  0.21252766093E+02  0.23649954600E+02  0.31886070095E+02  0.00000000000E+00 0.  1.
         11    1    3    3    0    0 -0.54592459212E+01  0.10296454529E+02 -0.35256469825E+01  0.12175817377E+02  0.51100000000E-03 0. -1.
        -11    1    3    3    0    0  0.14444060467E+02 -0.25683690558E+02 -0.16726681773E+02  0.33883103855E+02  0.51100000000E-03 0.  1.
         12    1    3    3    0    0 -0.11376685562E+02 -0.58655300641E+01 -0.33976258442E+01  0.13243008672E+02  0.00000000000E+00 0. -1.
</event>
<event>
 7    1  0.5979290E-013  0.5930194E+02  0.7816164E-02  0.1266605E+00
        -11   -1    0    0    0    0  0.00000000000E+00  0.00000000000E+00  0.45593999997E+02  0.45594000000E+02  0.51100000000E-03 0.  1.
         11   -1    0    0    0    0 -0.00000000000E+00 -0.00000000000E+00 -0.45593999997E+02  0.45594000000E+02  0.51100000000E-03 0. -1.
    9900012    2    1    2    0    0  0.28004280525E+02  0.12423932709E+02 -0.88389490273E+01  0.59301939541E+02  0.49999991817E+02 0.  0.
        -12    1    1    2    0    0 -0.28004280525E+02 -0.12423932709E+02  0.88389490273E+01  0.31886060459E+02  0.00000000000E+00 0.  1.
         11    1    3    3    0    0  0.48838801806E+01 -0.11326389601E+01 -0.48956374191E+01  0.70073120833E+01  0.51100000000E-03 0. -1.
        -11    1    3    3    0    0  0.17885588519E+02  0.17729885633E+02  0.16948650408E+02  0.30356216367E+02  0.51100000000E-03 0.  1.
        -12    1    3    3    0    0  0.52348118261E+01 -0.41733139638E+01 -0.20891962016E+02  0.21938411090E+02  0.00000000000E+00 0.  1.
</event>
<event>
 7    1  0.5979290E-013  0.5930195E+02  0.7816164E-02  0.1266605E+00
        -11   -1    0    0    0    0  0.00000000000E+00  0.00000000000E+00  0.45593999997E+02  0.45594000000E+02  0.51100000000E-03 0.  1.
         11   -1    0    0    0    0 -0.00000000000E+00 -0.00000000000E+00 -0.45593999997E+02  0.45594000000E+02  0.51100000000E-03 0. -1.
    9900012    2    1    2    0    0  0.20425866131E+02  0.21434891978E+02 -0.11834253521E+02  0.59301950422E+02  0.50000011661E+02 0.  0.
        -12    1    1    2    0    0 -0.20425866131E+02 -0.21434891978E+02  0.11834253521E+02  0.31886049578E+02  0.00000000000E+00 0.  1.
         11    1    3    3    0    0 -0.14542390029E+02  0.64375792833E+01 -0.61156999471E+01  0.17038935439E+02  0.51100000000E-03 0.  1.
        -11    1    3    3    0    0  0.15192261179E+02  0.57738907712E+00  0.43265269563E+01  0.15806866028E+02  0.51100000000E-03 0. -1.
         12    1    3    3    0    0  0.19775994982E+02  0.14419923617E+02 -0.10045080530E+02  0.26456148955E+02  0.00000000000E+00 0. -1.
</event>
<event>
 7    1  0.5979290E-013  0.5930187E+02  0.7816164E-02  0.1266605E+00
        -11   -1    0    0    0    0  0.00000000000E+00  0.00000000000E+00  0.45593999997E+02  0.45594000000E+02  0.51100000000E-03 0. -1.
         11   -1    0    0    0    0 -0.00000000000E+00 -0.00000000000E+00 -0.45593999997E+02  0.45594000000E+02  0.51100000000E-03 0.  1.
    9900012    2    1    2    0    0  0.60750962732E+01  0.73057421927E+01  0.30437556616E+02  0.59301866392E+02  0.49999858411E+02 0.  0.
        -12    1    1    2    0    0 -0.60750962732E+01 -0.73057421927E+01 -0.30437556616E+02  0.31886133608E+02  0.00000000000E+00 0.  1.
         11    1    3    3    0    0 -0.50688579062E+00  0.17447580574E+02  0.25288298954E+02  0.30727399261E+02  0.51100000000E-03 0. -1.
        -11    1    3    3    0    0 -0.15244003261E+01 -0.76506618684E+01 -0.91039749668E+01  0.11989111053E+02  0.51100000000E-03 0.  1.
        -12    1    3    3    0    0  0.81063823899E+01 -0.24911765128E+01  0.14253232629E+02  0.16585356078E+02  0.00000000000E+00 0.  1.
</event>
<event>
 7    1  0.5979290E-013  0.5930210E+02  0.7816164E-02  0.1266604E+00
        -11   -1    0    0    0    0  0.00000000000E+00  0.00000000000E+00  0.45593999997E+02  0.45594000000E+02  0.51100000000E-03 0.  1.
         11   -1    0    0    0    0 -0.00000000000E+00 -0.00000000000E+00 -0.45593999997E+02  0.45594000000E+02  0.51100000000E-03 0. -1.
    9900012    2    1    2    0    0 -0.16645148732E+02  0.26397267855E+02 -0.65447527156E+01  0.59302101633E+02  0.50000287434E+02 0.  0.
        -12    1    1    2    0    0  0.16645148732E+02 -0.26397267855E+02  0.65447527156E+01  0.31885898367E+02  0.00000000000E+00 0.  1.
         11    1    3    3    0    0  0.96257003871E+01  0.12593275369E+02 -0.18578306402E+02  0.24421264535E+02  0.51100000000E-03 0. -1.
        -11    1    3    3    0    0 -0.33505943548E+01 -0.27099491933E+01  0.28880533787E+01  0.51875967211E+01  0.51100000000E-03 0.  1.
         12    1    3    3    0    0 -0.22920254764E+02  0.16513941680E+02  0.91455003075E+01  0.29693240377E+02  0.00000000000E+00 0. -1.
</event>
<event>
 7    1  0.5979290E-013  0.5930194E+02  0.7816164E-02  0.1266605E+00
        -11   -1    0    0    0    0  0.00000000000E+00  0.00000000000E+00  0.45593999997E+02  0.45594000000E+02  0.51100000000E-03 0.  1.
         11   -1    0    0    0    0 -0.00000000000E+00 -0.00000000000E+00 -0.45593999997E+02  0.45594000000E+02  0.51100000000E-03 0. -1.
    9900012    2    1    2    0    0  0.29780470583E+01 -0.31508480254E+02 -0.38816824571E+01  0.59301944256E+02  0.50000000417E+02 0.  0.
        -12    1    1    2    0    0 -0.29780470583E+01  0.31508480254E+02  0.38816824571E+01  0.31886055744E+02  0.00000000000E+00 0.  1.
         11    1    3    3    0    0  0.79014134331E+01 -0.18555275503E+02  0.81537122042E+01  0.21753473428E+02  0.51100000000E-03 0. -1.
        -11    1    3    3    0    0 -0.10658706756E+02  0.25373478778E+01 -0.17066716149E+02  0.20281000082E+02  0.51100000000E-03 0.  1.
        -12    1    3    3    0    0  0.57353403812E+01 -0.15490552629E+02  0.50313214880E+01  0.17267470746E+02  0.00000000000E+00 0.  1.
</event>
<event>
 7    1  0.5979290E-013  0.5930187E+02  0.7816164E-02  0.1266605E+00
        -11   -1    0    0    0    0  0.00000000000E+00  0.00000000000E+00  0.45593999997E+02  0.45594000000E+02  0.51100000000E-03 0.  1.
         11   -1    0    0    0    0 -0.00000000000E+00 -0.00000000000E+00 -0.45593999997E+02  0.45594000000E+02  0.51100000000E-03 0. -1.
    9900012    2    1    2    0    0 -0.10917567144E+02  0.28498978437E+02 -0.92379894540E+01  0.59301866753E+02  0.49999859069E+02 0.  0.
        -12    1    1    2    0    0  0.10917567144E+02 -0.28498978437E+02  0.92379894540E+01  0.31886133247E+02  0.00000000000E+00 0.  1.
         11    1    3    3    0    0 -0.98902983280E+01 -0.28288351214E+01 -0.14886972408E+02  0.18095365619E+02  0.51100000000E-03 0. -1.
        -11    1    3    3    0    0  0.12229044458E+02  0.19542848749E+02  0.39263439789E+01  0.23385650363E+02  0.51100000000E-03 0.  1.
         12    1    3    3    0    0 -0.13256313274E+02  0.11784964809E+02  0.17226389750E+01  0.17820850771E+02  0.00000000000E+00 0. -1.
</event>
<event>
 7    1  0.5979290E-013  0.5930194E+02  0.7816164E-02  0.1266605E+00
        -11   -1    0    0    0    0  0.00000000000E+00  0.00000000000E+00  0.45593999997E+02  0.45594000000E+02  0.51100000000E-03 0. -1.
         11   -1    0    0    0    0 -0.00000000000E+00 -0.00000000000E+00 -0.45593999997E+02  0.45594000000E+02  0.51100000000E-03 0.  1.
    9900012    2    1    2    0    0  0.54038337564E+01 -0.31199150624E+02 -0.37593451277E+01  0.59301935729E+02  0.49999984865E+02 0.  0.
        -12    1    1    2    0    0 -0.54038337564E+01  0.31199150624E+02  0.37593451277E+01  0.31886064271E+02  0.00000000000E+00 0.  1.
         11    1    3    3    0    0 -0.86822956976E+01 -0.84447574737E+01  0.15704540535E+01  0.12213210617E+02  0.51100000000E-03 0. -1.
        -11    1    3    3    0    0  0.12417234637E+02 -0.33220501437E+02 -0.75506781158E+01  0.36260200937E+02  0.51100000000E-03 0.  1.
        -12    1    3    3    0    0  0.16688948172E+01  0.10466108286E+02  0.22208789347E+01  0.10828524175E+02  0.00000000000E+00 0.  1.
</event>
<event>
 7    1  0.5979290E-013  0.5930194E+02  0.7816164E-02  0.1266605E+00
        -11   -1    0    0    0    0  0.00000000000E+00  0.00000000000E+00  0.45593999997E+02  0.45594000000E+02  0.51100000000E-03 0.  1.
         11   -1    0    0    0    0 -0.00000000000E+00 -0.00000000000E+00 -0.45593999997E+02  0.45594000000E+02  0.51100000000E-03 0. -1.
    9900012    2    1    2    0    0  0.27192644536E+02  0.16649734553E+02 -0.25891577274E+00  0.59301943252E+02  0.49999998585E+02 0.  0.
        -12    1    1    2    0    0 -0.27192644536E+02 -0.16649734553E+02  0.25891577274E+00  0.31886056748E+02  0.00000000000E+00 0.  1.
         11    1    3    3    0    0 -0.34220430370E+01 -0.68491130902E+00  0.13868144227E+02  0.14300521201E+02  0.51100000000E-03 0.  1.
        -11    1    3    3    0    0  0.10987779978E+02  0.16729167146E+02  0.12601176297E+01  0.20054531631E+02  0.51100000000E-03 0. -1.
         12    1    3    3    0    0  0.19626907595E+02  0.60547871639E+00 -0.15387177630E+02  0.24946890420E+02  0.00000000000E+00 0. -1.
</event>
<event>
 7    1  0.5979290E-013  0.5930197E+02  0.7816164E-02  0.1266605E+00
        -11   -1    0    0    0    0  0.00000000000E+00  0.00000000000E+00  0.45593999997E+02  0.45594000000E+02  0.51100000000E-03 0.  1.
         11   -1    0    0    0    0 -0.00000000000E+00 -0.00000000000E+00 -0.45593999997E+02  0.45594000000E+02  0.51100000000E-03 0. -1.
    9900012    2    1    2    0    0 -0.22828144471E+02 -0.64002546889E-01 -0.22261870916E+02  0.59301965863E+02  0.50000039822E+02 0.  0.
        -12    1    1    2    0    0  0.22828144471E+02  0.64002546889E-01  0.22261870916E+02  0.31886034137E+02  0.00000000000E+00 0.  1.
         11    1    3    3    0    0 -0.40119786531E+01 -0.76613237119E+01  0.88042784927E+00  0.86929285739E+01  0.51100000000E-03 0. -1.
        -11    1    3    3    0    0 -0.28593933178E+02  0.12080969354E+02 -0.80366141009E+01  0.32064778209E+02  0.51100000000E-03 0.  1.
        -12    1    3    3    0    0  0.97777673601E+01 -0.44836481891E+01 -0.15105684664E+02  0.18544259080E+02  0.00000000000E+00 0.  1.
</event>
<event>
 7    1  0.5979290E-013  0.5930194E+02  0.7816164E-02  0.1266605E+00
        -11   -1    0    0    0    0  0.00000000000E+00  0.00000000000E+00  0.45593999997E+02  0.45594000000E+02  0.51100000000E-03 0.  1.
         11   -1    0    0    0    0 -0.00000000000E+00 -0.00000000000E+00 -0.45593999997E+02  0.45594000000E+02  0.51100000000E-03 0. -1.
    9900012    2    1    2    0    0 -0.10394635557E+02 -0.24024460333E+02 -0.18207079445E+02  0.59301939024E+02  0.49999990875E+02 0.  0.
        -12    1    1    2    0    0  0.10394635557E+02  0.24024460333E+02  0.18207079445E+02  0.31886060976E+02  0.00000000000E+00 0.  1.
         11    1    3    3    0    0  0.11566680931E+02 -0.96186035012E+01 -0.11374604658E+02  0.18859673180E+02  0.51100000000E-03 0.  1.
        -11    1    3    3    0    0 -0.22370327287E+02 -0.15711537730E+02 -0.15663402825E+02  0.31505970054E+02  0.51100000000E-03 0. -1.
         12    1    3    3    0    0  0.40901079868E+00  0.13056808983E+01  0.88309280373E+01  0.89362957897E+01  0.00000000000E+00 0. -1.
</event>
<event>
 7    1  0.5979290E-013  0.5930195E+02  0.7816164E-02  0.1266605E+00
        -11   -1    0    0    0    0  0.00000000000E+00  0.00000000000E+00  0.45593999997E+02  0.45594000000E+02  0.51100000000E-03 0. -1.
         11   -1    0    0    0    0 -0.00000000000E+00 -0.00000000000E+00 -0.45593999997E+02  0.45594000000E+02  0.51100000000E-03 0.  1.
    9900012    2    1    2    0    0 -0.23703681923E+02  0.17029863030E+02 -0.12838978725E+02  0.59301950601E+02  0.50000011989E+02 0.  0.
        -12    1    1    2    0    0  0.23703681923E+02 -0.17029863030E+02  0.12838978725E+02  0.31886049399E+02  0.00000000000E+00 0.  1.
         11    1    3    3    0    0 -0.24778201061E+02 -0.29231653300E+01  0.15680490363E+01  0.24999258417E+02  0.51100000000E-03 0. -1.
        -11    1    3    3    0    0 -0.32214115477E+01  0.22827756147E+02 -0.16879513169E+02  0.28572747648E+02  0.51100000000E-03 0.  1.
        -12    1    3    3    0    0  0.42959306851E+01 -0.28747277868E+01  0.24724854076E+01  0.57299445364E+01  0.00000000000E+00 0.  1.
</event>
<event>
 7    1  0.5979290E-013  0.5930194E+02  0.7816164E-02  0.1266605E+00
        -11   -1    0    0    0    0  0.00000000000E+00  0.00000000000E+00  0.45593999997E+02  0.45594000000E+02  0.51100000000E-03 0.  1.
         11   -1    0    0    0    0 -0.00000000000E+00 -0.00000000000E+00 -0.45593999997E+02  0.45594000000E+02  0.51100000000E-03 0. -1.
    9900012    2    1    2    0    0 -0.12095938017E+02  0.27927644981E+02 -0.95108317103E+01  0.59301937363E+02  0.49999987844E+02 0.  0.
        -12    1    1    2    0    0  0.12095938017E+02 -0.27927644981E+02  0.95108317103E+01  0.31886062637E+02  0.00000000000E+00 0.  1.
         11    1    3    3    0    0 -0.10973070248E+02  0.42714136345E+00 -0.55948282988E+01  0.12324480694E+02  0.51100000000E-03 0. -1.
        -11    1    3    3    0    0  0.49846578091E+01  0.35764435947E+02 -0.38621639176E+00  0.36112198153E+02  0.51100000000E-03 0.  1.
        -12    1    3    3    0    0 -0.61075255773E+01 -0.82639323289E+01 -0.35297870197E+01  0.10865258516E+02  0.00000000000E+00 0.  1.
</event>
<event>
 7    1  0.5979290E-013  0.5930194E+02  0.7816164E-02  0.1266605E+00
        -11   -1    0    0    0    0  0.00000000000E+00  0.00000000000E+00  0.45593999997E+02  0.45594000000E+02  0.51100000000E-03 0.  1.
         11   -1    0    0    0    0 -0.00000000000E+00 -0.00000000000E+00 -0.45593999997E+02  0.45594000000E+02  0.51100000000E-03 0. -1.
    9900012    2    1    2    0    0  0.31458890565E+02 -0.10487270761E+01 -0.50950098639E+01  0.59301941141E+02  0.49999994735E+02 0.  0.
        -12    1    1    2    0    0 -0.31458890565E+02  0.10487270761E+01  0.50950098639E+01  0.31886058859E+02  0.00000000000E+00 0.  1.
         11    1    3    3    0    0  0.23018009989E+02  0.25519729504E+01 -0.25759621537E+02  0.34639564833E+02  0.51100000000E-03 0. -1.
        -11    1    3    3    0    0 -0.22289482958E+01 -0.52738214850E+00  0.26713969272E+01  0.35189066824E+01  0.51100000000E-03 0.  1.
         12    1    3    3    0    0  0.10669828871E+02 -0.30733178780E+01  0.17993214746E+02  0.21143469626E+02  0.00000000000E+00 0. -1.
</event>
<event>
 7    1  0.5979290E-013  0.5930195E+02  0.7816164E-02  0.1266605E+00
        -11   -1    0    0    0    0  0.00000000000E+00  0.00000000000E+00  0.45593999997E+02  0.45594000000E+02  0.51100000000E-03 0. -1.
         11   -1    0    0    0    0 -0.00000000000E+00 -0.00000000000E+00 -0.45593999997E+02  0.45594000000E+02  0.51100000000E-03 0.  1.
    9900012    2    1    2    0    0  0.24523135737E+02  0.17482975361E+02 -0.10472892153E+02  0.59301951579E+02  0.50000013771E+02 0.  0.
        -12    1    1    2    0    0 -0.24523135737E+02 -0.17482975361E+02  0.10472892153E+02  0.31886048421E+02  0.00000000000E+00 0.  1.
         11    1    3    3    0    0 -0.58992543920E+01  0.14516324114E+02  0.55239812309E+01  0.16614428581E+02  0.51100000000E-03 0. -1.
        -11    1    3    3    0    0  0.15899510142E+02  0.23143454868E+01 -0.21760281647E+02  0.27049223194E+02  0.51100000000E-03 0.  1.
         12    1    3    3    0    0  0.14522879987E+02  0.65230576014E+00  0.57634082636E+01  0.15638299804E+02  0.00000000000E+00 0. -1.
</event>
<event>
 7    1  0.5979290E-013  0.5930192E+02  0.7816164E-02  0.1266605E+00
        -11   -1    0    0    0    0  0.00000000000E+00  0.00000000000E+00  0.45593999997E+02  0.45594000000E+02  0.51100000000E-03 0.  1.
         11   -1    0    0    0    0 -0.00000000000E+00 -0.00000000000E+00 -0.45593999997E+02  0.45594000000E+02  0.51100000000E-03 0. -1.
    9900012    2    1    2    0    0  0.42630980361E+01  0.19979116720E+02 -0.24482299921E+02  0.59301919664E+02  0.49999955566E+02 0.  0.
        -12    1    1    2    0    0 -0.42630980361E+01 -0.19979116720E+02  0.24482299921E+02  0.31886080336E+02  0.00000000000E+00 0.  1.
         11    1    3    3    0    0 -0.33815622558E+01 -0.68819789392E+00 -0.94017421052E+01  0.10015055392E+02  0.51100000000E-03 0. -1.
        -11    1    3    3    0    0  0.45543639559E+01  0.96689507126E+01  0.14248400125E+02  0.17811449837E+02  0.51100000000E-03 0.  1.
        -12    1    3    3    0    0  0.30902963360E+01  0.10998363902E+02 -0.29328957940E+02  0.31475414435E+02  0.00000000000E+00 0.  1.
</event>
<event>
 7    1  0.5979290E-013  0.5930192E+02  0.7816164E-02  0.1266605E+00
        -11   -1    0    0    0    0  0.00000000000E+00  0.00000000000E+00  0.45593999997E+02  0.45594000000E+02  0.51100000000E-03 0.  1.
         11   -1    0    0    0    0 -0.00000000000E+00 -0.00000000000E+00 -0.45593999997E+02  0.45594000000E+02  0.51100000000E-03 0. -1.
    9900012    2    1    2    0    0 -0.23235836499E+01 -0.25923615540E+02  0.18419805354E+02  0.59301919762E+02  0.49999955745E+02 0.  0.
        -12    1    1    2    0    0  0.23235836499E+01  0.25923615540E+02 -0.18419805354E+02  0.31886080238E+02  0.00000000000E+00 0.  1.
         11    1    3    3    0    0  0.10561144540E+02 -0.26860631834E+02  0.41366126236E+01  0.29157209756E+02  0.51100000000E-03 0. -1.
        -11    1    3    3    0    0 -0.64274997367E+01  0.11885467729E+02  0.50109416916E+01  0.14411336958E+02  0.51100000000E-03 0.  1.
         12    1    3    3    0    0 -0.64572284535E+01 -0.10948451436E+02  0.92722510390E+01  0.15733373048E+02  0.00000000000E+00 0. -1.
</event>
<event>
 7    1  0.5979290E-013  0.5930195E+02  0.7816164E-02  0.1266605E+00
        -11   -1    0    0    0    0  0.00000000000E+00  0.00000000000E+00  0.45593999997E+02  0.45594000000E+02  0.51100000000E-03 0.  1.
         11   -1    0    0    0    0 -0.00000000000E+00 -0.00000000000E+00 -0.45593999997E+02  0.45594000000E+02  0.51100000000E-03 0. -1.
    9900012    2    1    2    0    0 -0.48905633662E+01 -0.73461345104E+01 -0.30640449961E+02  0.59301945429E+02  0.50000002556E+02 0.  0.
        -12    1    1    2    0    0  0.48905633662E+01  0.73461345104E+01  0.30640449961E+02  0.31886054571E+02  0.00000000000E+00 0.  1.
         11    1    3    3    0    0 -0.10454940795E+01 -0.79692211916E+01  0.43444371994E+01  0.91365025645E+01  0.51100000000E-03 0. -1.
        -11    1    3    3    0    0  0.24620618618E+01 -0.12496875564E+01 -0.41094339761E+02  0.41186991008E+02  0.51100000000E-03 0.  1.
        -12    1    3    3    0    0 -0.63071311485E+01  0.18727742377E+01  0.61094526010E+01  0.89784518573E+01  0.00000000000E+00 0.  1.
</event>
<event>
 7    1  0.5979290E-013  0.5930194E+02  0.7816164E-02  0.1266605E+00
        -11   -1    0    0    0    0  0.00000000000E+00  0.00000000000E+00  0.45593999997E+02  0.45594000000E+02  0.51100000000E-03 0.  1.
         11   -1    0    0    0    0 -0.00000000000E+00 -0.00000000000E+00 -0.45593999997E+02  0.45594000000E+02  0.51100000000E-03 0. -1.
    9900012    2    1    2    0    0 -0.44125859423E+01 -0.31398376561E+02  0.33751984366E+01  0.59301938313E+02  0.49999989579E+02 0.  0.
        -12    1    1    2    0    0  0.44125859423E+01  0.31398376561E+02 -0.33751984366E+01  0.31886061687E+02  0.00000000000E+00 0.  1.
         11    1    3    3    0    0 -0.10808213935E+02 -0.12189661665E+02  0.15711702214E+02  0.22633226166E+02  0.51100000000E-03 0.  1.
        -11    1    3    3    0    0 -0.91173902036E+01 -0.13589014896E+02 -0.11773720020E+02  0.20159578699E+02  0.51100000000E-03 0. -1.
        -12    1    3    3    0    0  0.15513018196E+02 -0.56197000008E+01 -0.56278375796E+00  0.16509133448E+02  0.00000000000E+00 0.  1.
</event>
<event>
 7    1  0.5979290E-013  0.5930207E+02  0.7816164E-02  0.1266604E+00
        -11   -1    0    0    0    0  0.00000000000E+00  0.00000000000E+00  0.45593999997E+02  0.45594000000E+02  0.51100000000E-03 0.  1.
         11   -1    0    0    0    0 -0.00000000000E+00 -0.00000000000E+00 -0.45593999997E+02  0.45594000000E+02  0.51100000000E-03 0. -1.
    9900012    2    1    2    0    0  0.18965863408E+02 -0.19258957961E+02 -0.16914524559E+02  0.59302069284E+02  0.50000228437E+02 0.  0.
        -12    1    1    2    0    0 -0.18965863408E+02  0.19258957961E+02  0.16914524559E+02  0.31885930716E+02  0.00000000000E+00 0.  1.
         11    1    3    3    0    0  0.15903089319E+02 -0.91681117687E+01 -0.10329189499E+02  0.21063111814E+02  0.51100000000E-03 0. -1.
        -11    1    3    3    0    0 -0.11076690427E+02 -0.18071575635E+02 -0.16085293503E+01  0.21257052563E+02  0.51100000000E-03 0.  1.
        -12    1    3    3    0    0  0.14139464516E+02  0.79807294421E+01 -0.49768057098E+01  0.16981904908E+02  0.00000000000E+00 0.  1.
</event>
<event>
 7    1  0.5979290E-013  0.5930194E+02  0.7816164E-02  0.1266605E+00
        -11   -1    0    0    0    0  0.00000000000E+00  0.00000000000E+00  0.45593999997E+02  0.45594000000E+02  0.51100000000E-03 0.  1.
         11   -1    0    0    0    0 -0.00000000000E+00 -0.00000000000E+00 -0.45593999997E+02  0.45594000000E+02  0.51100000000E-03 0. -1.
    9900012    2    1    2    0    0 -0.19630611327E+02  0.21055491858E+02 -0.13712260983E+02  0.59301941295E+02  0.49999995017E+02 0.  0.
        -12    1    1    2    0    0  0.19630611327E+02 -0.21055491858E+02  0.13712260983E+02  0.31886058705E+02  0.00000000000E+00 0.  1.
         11    1    3    3    0    0 -0.77466392184E+01 -0.10898032029E+02 -0.72458305611E+01  0.15207878947E+02  0.51100000000E-03 0. -1.
        -11    1    3    3    0    0 -0.90771584187E+01  0.12688429132E+02  0.10054677880E+02  0.18560376783E+02  0.51100000000E-03 0.  1.
         12    1    3    3    0    0 -0.28068136895E+01  0.19265094755E+02 -0.16521108302E+02  0.25533685565E+02  0.00000000000E+00 0. -1.
</event>
<event>
 7    1  0.5979290E-013  0.5930196E+02  0.7816164E-02  0.1266605E+00
        -11   -1    0    0    0    0  0.00000000000E+00  0.00000000000E+00  0.45593999997E+02  0.45594000000E+02  0.51100000000E-03 0.  1.
         11   -1    0    0    0    0 -0.00000000000E+00 -0.00000000000E+00 -0.45593999997E+02  0.45594000000E+02  0.51100000000E-03 0. -1.
    9900012    2    1    2    0    0 -0.31756404556E+02  0.11764262894E+01  0.26203756978E+01  0.59301959513E+02  0.50000028241E+02 0.  0.
        -12    1    1    2    0    0  0.31756404556E+02 -0.11764262894E+01 -0.26203756978E+01  0.31886040487E+02  0.00000000000E+00 0.  1.
         11    1    3    3    0    0 -0.24116455719E+02  0.18008005438E+02 -0.25970599531E+00  0.30099155200E+02  0.51100000000E-03 0. -1.
        -11    1    3    3    0    0 -0.87534690774E+01 -0.20734656128E+02  0.68493025723E+01  0.23525775898E+02  0.51100000000E-03 0.  1.
        -12    1    3    3    0    0  0.11135202398E+01  0.39030769787E+01 -0.39692208792E+01  0.56770284141E+01  0.00000000000E+00 0.  1.
</event>
<event>
 7    1  0.5979290E-013  0.5930193E+02  0.7816164E-02  0.1266605E+00
        -11   -1    0    0    0    0  0.00000000000E+00  0.00000000000E+00  0.45593999997E+02  0.45594000000E+02  0.51100000000E-03 0. -1.
         11   -1    0    0    0    0 -0.00000000000E+00 -0.00000000000E+00 -0.45593999997E+02  0.45594000000E+02  0.51100000000E-03 0.  1.
    9900012    2    1    2    0    0 -0.27362322816E+02 -0.14316841968E+02  0.79405604986E+01  0.59301934472E+02  0.49999982573E+02 0.  0.
        -12    1    1    2    0    0  0.27362322816E+02  0.14316841968E+02 -0.79405604986E+01  0.31886065528E+02  0.00000000000E+00 0.  1.
         11    1    3    3    0    0 -0.80886073007E+01 -0.29701339486E+02  0.66349837278E+01  0.31489968953E+02  0.51100000000E-03 0. -1.
        -11    1    3    3    0    0  0.35980823286E+00  0.56498539269E+01 -0.10960182724E+01  0.57664172304E+01  0.51100000000E-03 0.  1.
         12    1    3    3    0    0 -0.19633523748E+02  0.97346435912E+01  0.24015950432E+01  0.22045548289E+02  0.00000000000E+00 0. -1.
</event>
<event>
 7    1  0.5979290E-013  0.5930195E+02  0.7816164E-02  0.1266605E+00
        -11   -1    0    0    0    0  0.00000000000E+00  0.00000000000E+00  0.45593999997E+02  0.45594000000E+02  0.51100000000E-03 0. -1.
         11   -1    0    0    0    0 -0.00000000000E+00 -0.00000000000E+00 -0.45593999997E+02  0.45594000000E+02  0.51100000000E-03 0.  1.
    9900012    2    1    2    0    0 -0.14149929957E+02 -0.75424867066E+01  0.27561035911E+02  0.59301947814E+02  0.50000006906E+02 0.  0.
        -12    1    1    2    0    0  0.14149929957E+02  0.75424867066E+01 -0.27561035911E+02  0.31886052186E+02  0.00000000000E+00 0.  1.
         11    1    3    3    0    0 -0.49064005373E+01 -0.14673503291E+02  0.26280178964E+02  0.30496430475E+02  0.51100000000E-03 0. -1.
        -11    1    3    3    0    0 -0.10876782631E+02 -0.14811955561E+01 -0.97734173170E+01  0.14697551735E+02  0.51100000000E-03 0.  1.
        -12    1    3    3    0    0  0.16332532116E+01  0.86122121402E+01  0.11054274264E+02  0.14107965605E+02  0.00000000000E+00 0.  1.
</event>
<event>
 7    1  0.5979290E-013  0.5930194E+02  0.7816164E-02  0.1266605E+00
        -11   -1    0    0    0    0  0.00000000000E+00  0.00000000000E+00  0.45593999997E+02  0.45594000000E+02  0.51100000000E-03 0.  1.
         11   -1    0    0    0    0 -0.00000000000E+00 -0.00000000000E+00 -0.45593999997E+02  0.45594000000E+02  0.51100000000E-03 0. -1.
    9900012    2    1    2    0    0 -0.18506974535E+02  0.18423225708E+02 -0.18297474328E+02  0.59301938489E+02  0.49999989899E+02 0.  0.
        -12    1    1    2    0    0  0.18506974535E+02 -0.18423225708E+02  0.18297474328E+02  0.31886061511E+02  0.00000000000E+00 0.  1.
         11    1    3    3    0    0 -0.11614325969E+02  0.31818398635E+02 -0.11194941896E+02  0.35673937037E+02  0.51100000000E-03 0. -1.
        -11    1    3    3    0    0 -0.44312967510E+01 -0.11092576143E+02 -0.12484058269E+02  0.17278117592E+02  0.51100000000E-03 0.  1.
         12    1    3    3    0    0 -0.24613518148E+01 -0.23025967838E+01  0.53815258373E+01  0.63498838605E+01  0.00000000000E+00 0. -1.
</event>
<event>
 7    1  0.5979290E-013  0.5930195E+02  0.7816164E-02  0.1266605E+00
        -11   -1    0    0    0    0  0.00000000000E+00  0.00000000000E+00  0.45593999997E+02  0.45594000000E+02  0.51100000000E-03 0.  1.
         11   -1    0    0    0    0 -0.00000000000E+00 -0.00000000000E+00 -0.45593999997E+02  0.45594000000E+02  0.51100000000E-03 0. -1.
    9900012    2    1    2    0    0 -0.27770196347E+02 -0.13077997363E+01 -0.15614929381E+02  0.59301950309E+02  0.50000011456E+02 0.  0.
        -12    1    1    2    0    0  0.27770196347E+02  0.13077997363E+01  0.15614929381E+02  0.31886049691E+02  0.00000000000E+00 0.  1.
         11    1    3    3    0    0 -0.11829359041E+02 -0.95695602228E+01 -0.28651109601E+02  0.32440658129E+02  0.51100000000E-03 0. -1.
        -11    1    3    3    0    0 -0.80320541394E+01  0.12209945296E+02  0.74455517742E+01  0.16402222389E+02  0.51100000000E-03 0.  1.
         12    1    3    3    0    0 -0.79087831673E+01 -0.39481848093E+01  0.55906284461E+01  0.10459069791E+02  0.00000000000E+00 0. -1.
</event>
<event>
 7    1  0.5979290E-013  0.5930194E+02  0.7816164E-02  0.1266605E+00
        -11   -1    0    0    0    0  0.00000000000E+00  0.00000000000E+00  0.45593999997E+02  0.45594000000E+02  0.51100000000E-03 0.  1.
         11   -1    0    0    0    0 -0.00000000000E+00 -0.00000000000E+00 -0.45593999997E+02  0.45594000000E+02  0.51100000000E-03 0. -1.
    9900012    2    1    2    0    0 -0.17564763726E+02 -0.15664969638E+02 -0.21512985831E+02  0.59301941011E+02  0.49999994497E+02 0.  0.
        -12    1    1    2    0    0  0.17564763726E+02  0.15664969638E+02  0.21512985831E+02  0.31886058989E+02  0.00000000000E+00 0.  1.
         11    1    3    3    0    0 -0.85920695066E+01  0.50431095775E+01  0.63236839288E+01  0.11800236917E+02  0.51100000000E-03 0. -1.
        -11    1    3    3    0    0 -0.23376345376E+01 -0.80300328249E+01 -0.31614543187E+02  0.32702068797E+02  0.51100000000E-03 0.  1.
        -12    1    3    3    0    0 -0.66350596816E+01 -0.12678046391E+02  0.37778734272E+01  0.14799635296E+02  0.00000000000E+00 0.  1.
</event>
<event>
 7    1  0.5979290E-013  0.5930193E+02  0.7816164E-02  0.1266605E+00
        -11   -1    0    0    0    0  0.00000000000E+00  0.00000000000E+00  0.45593999997E+02  0.45594000000E+02  0.51100000000E-03 0.  1.
         11   -1    0    0    0    0 -0.00000000000E+00 -0.00000000000E+00 -0.45593999997E+02  0.45594000000E+02  0.51100000000E-03 0. -1.
    9900012    2    1    2    0    0 -0.42719686493E+01  0.40394048676E+01 -0.31339347112E+02  0.59301934309E+02  0.49999982276E+02 0.  0.
        -12    1    1    2    0    0  0.42719686493E+01 -0.40394048676E+01  0.31339347112E+02  0.31886065691E+02  0.00000000000E+00 0.  1.
         11    1    3    3    0    0 -0.44629409252E+01  0.56705439213E+01 -0.43134919726E+01  0.84070876839E+01  0.51100000000E-03 0. -1.
        -11    1    3    3    0    0  0.31836596001E+00 -0.75601953666E+01  0.10478199744E+02  0.12924804873E+02  0.51100000000E-03 0.  1.
        -12    1    3    3    0    0 -0.12739368405E+00  0.59290563129E+01 -0.37504054884E+02  0.37970041752E+02  0.00000000000E+00 0.  1.
</event>
<event>
 7    1  0.5979290E-013  0.5930197E+02  0.7816164E-02  0.1266605E+00
        -11   -1    0    0    0    0  0.00000000000E+00  0.00000000000E+00  0.45593999997E+02  0.45594000000E+02  0.51100000000E-03 0. -1.
         11   -1    0    0    0    0 -0.00000000000E+00 -0.00000000000E+00 -0.45593999997E+02  0.45594000000E+02  0.51100000000E-03 0.  1.
    9900012    2    1    2    0    0  0.17958630049E+02 -0.20944778592E+02  0.15985089413E+02  0.59301965015E+02  0.50000038275E+02 0.  0.
        -12    1    1    2    0    0 -0.17958630049E+02  0.20944778592E+02 -0.15985089413E+02  0.31886034985E+02  0.00000000000E+00 0.  1.
         11    1    3    3    0    0 -0.77315085670E+01  0.52643038368E+01  0.12949414457E+02  0.15974243477E+02  0.51100000000E-03 0. -1.
        -11    1    3    3    0    0  0.26091601028E+02 -0.18367047732E+02  0.93520288437E+01  0.33250271132E+02  0.51100000000E-03 0.  1.
        -12    1    3    3    0    0 -0.40146241142E+00 -0.78420346968E+01 -0.63163538879E+01  0.10077450406E+02  0.00000000000E+00 0.  1.
</event>
<event>
 7    1  0.5979290E-013  0.5930187E+02  0.7816164E-02  0.1266605E+00
        -11   -1    0    0    0    0  0.00000000000E+00  0.00000000000E+00  0.45593999997E+02  0.45594000000E+02  0.51100000000E-03 0.  1.
         11   -1    0    0    0    0 -0.00000000000E+00 -0.00000000000E+00 -0.45593999997E+02  0.45594000000E+02  0.51100000000E-03 0. -1.
    9900012    2    1    2    0    0 -0.39006693971E+01 -0.53481273902E+01 -0.31191468679E+02  0.59301868113E+02  0.49999861550E+02 0.  0.
        -12    1    1    2    0    0  0.39006693971E+01  0.53481273902E+01  0.31191468679E+02  0.31886131887E+02  0.00000000000E+00 0.  1.
         11    1    3    3    0    0 -0.30013991170E+01 -0.23274713983E+02 -0.21920076128E+02  0.32112465576E+02  0.51100000000E-03 0.  1.
        -11    1    3    3    0    0 -0.79286141230E+01  0.15900493952E+02 -0.41111989471E+01  0.18237066290E+02  0.51100000000E-03 0. -1.
        -12    1    3    3    0    0  0.70293438428E+01  0.20260926402E+01 -0.51601936039E+01  0.89523362469E+01  0.00000000000E+00 0.  1.
</event>
<event>
 7    1  0.6489610E-013  0.5930195E+02  0.7816164E-02  0.1266605E+00
        -11   -1    0    0    0    0  0.00000000000E+00  0.00000000000E+00  0.45593999997E+02  0.45594000000E+02  0.51100000000E-03 0. -1.
         11   -1    0    0    0    0 -0.00000000000E+00 -0.00000000000E+00 -0.45593999997E+02  0.45594000000E+02  0.51100000000E-03 0.  1.
    9900012    2    1    2    0    0  0.10123855730E+02 -0.77631872596E+01  0.29222608121E+02  0.59301947302E+02  0.50000005972E+02 0.  0.
        -12    1    1    2    0    0 -0.10123855730E+02  0.77631872596E+01 -0.29222608121E+02  0.31886052698E+02  0.00000000000E+00 0.  1.
         11    1    3    3    0    0 -0.16528447742E+02 -0.11805896824E+02  0.16447856597E+02  0.26136196576E+02  0.51100000000E-03 0. -1.
        -11    1    3    3    0    0  0.80844303536E+01  0.44002948983E+01 -0.20179729183E+01  0.94229944442E+01  0.51100000000E-03 0.  1.
         12    1    3    3    0    0  0.18567873119E+02 -0.35758533364E+00  0.14792724442E+02  0.23742756282E+02  0.00000000000E+00 0. -1.
</event>
<event>
 7    1  0.5979290E-013  0.5930200E+02  0.7816164E-02  0.1266605E+00
        -11   -1    0    0    0    0  0.00000000000E+00  0.00000000000E+00  0.45593999997E+02  0.45594000000E+02  0.51100000000E-03 0. -1.
         11   -1    0    0    0    0 -0.00000000000E+00 -0.00000000000E+00 -0.45593999997E+02  0.45594000000E+02  0.51100000000E-03 0.  1.
    9900012    2    1    2    0    0  0.16603444822E+02 -0.11386557705E+02  0.24726277942E+02  0.59302001550E+02  0.50000104906E+02 0.  0.
        -12    1    1    2    0    0 -0.16603444822E+02  0.11386557705E+02 -0.24726277942E+02  0.31885998450E+02  0.00000000000E+00 0.  1.
         11    1    3    3    0    0 -0.94941837839E+01 -0.93568725476E+01 -0.59129493141E+01  0.14582645831E+02  0.51100000000E-03 0. -1.
        -11    1    3    3    0    0  0.10468364121E+02 -0.10415177906E+02  0.15387570239E+02  0.21326975789E+02  0.51100000000E-03 0.  1.
         12    1    3    3    0    0  0.15629264485E+02  0.83854927489E+01  0.15251657016E+02  0.23392379929E+02  0.00000000000E+00 0. -1.
</event>
<event>
 7    1  0.5979290E-013  0.5930194E+02  0.7816164E-02  0.1266605E+00
        -11   -1    0    0    0    0  0.00000000000E+00  0.00000000000E+00  0.45593999997E+02  0.45594000000E+02  0.51100000000E-03 0.  1.
         11   -1    0    0    0    0 -0.00000000000E+00 -0.00000000000E+00 -0.45593999997E+02  0.45594000000E+02  0.51100000000E-03 0. -1.
    9900012    2    1    2    0    0  0.26449668218E+02 -0.81746074405E+01 -0.15821243332E+02  0.59301938841E+02  0.49999990541E+02 0.  0.
        -12    1    1    2    0    0 -0.26449668218E+02  0.81746074405E+01  0.15821243332E+02  0.31886061159E+02  0.00000000000E+00 0.  1.
         11    1    3    3    0    0  0.10703614906E+02  0.22279933830E+01 -0.19858065553E+01  0.11111919479E+02  0.51100000000E-03 0. -1.
        -11    1    3    3    0    0 -0.83533250427E+01  0.91802951999E+01 -0.11711091615E+02  0.17064745128E+02  0.51100000000E-03 0.  1.
        -12    1    3    3    0    0  0.24099378356E+02 -0.19582896023E+02 -0.21243451614E+01  0.31125274234E+02  0.00000000000E+00 0.  1.
</event>
<event>
 7    1  0.5979290E-013  0.5930199E+02  0.7816164E-02  0.1266605E+00
        -11   -1    0    0    0    0  0.00000000000E+00  0.00000000000E+00  0.45593999997E+02  0.45594000000E+02  0.51100000000E-03 0.  1.
         11   -1    0    0    0    0 -0.00000000000E+00 -0.00000000000E+00 -0.45593999997E+02  0.45594000000E+02  0.51100000000E-03 0. -1.
    9900012    2    1    2    0    0 -0.16950699206E+02 -0.18215319464E+02 -0.19939748455E+02  0.59301989977E+02  0.50000083801E+02 0.  0.
        -12    1    1    2    0    0  0.16950699206E+02  0.18215319464E+02  0.19939748455E+02  0.31886010023E+02  0.00000000000E+00 0.  1.
         11    1    3    3    0    0  0.29579877172E+01 -0.25789076067E+02 -0.95336651722E+00  0.25975662527E+02  0.51100000000E-03 0. -1.
        -11    1    3    3    0    0 -0.17135567971E+02 -0.33130497964E-01 -0.18497765677E+02  0.25214997970E+02  0.51100000000E-03 0.  1.
        -12    1    3    3    0    0 -0.27731189521E+01  0.76068871014E+01 -0.48861626090E+00  0.81113294808E+01  0.00000000000E+00 0.  1.
</event>
<event>
 7    1  0.5979290E-013  0.5930190E+02  0.7816164E-02  0.1266605E+00
        -11   -1    0    0    0    0  0.00000000000E+00  0.00000000000E+00  0.45593999997E+02  0.45594000000E+02  0.51100000000E-03 0. -1.
         11   -1    0    0    0    0 -0.00000000000E+00 -0.00000000000E+00 -0.45593999997E+02  0.45594000000E+02  0.51100000000E-03 0.  1.
    9900012    2    1    2    0    0 -0.19000155736E+02  0.51450703693E+01  0.25084770113E+02  0.59301900227E+02  0.49999920118E+02 0.  0.
        -12    1    1    2    0    0  0.19000155736E+02 -0.51450703693E+01 -0.25084770113E+02  0.31886099773E+02  0.00000000000E+00 0.  1.
         11    1    3    3    0    0 -0.21610866763E+02 -0.12210381707E+02  0.23600681676E+02  0.34250768744E+02  0.51100000000E-03 0. -1.
        -11    1    3    3    0    0 -0.81974256882E+00  0.13563179254E+02 -0.68932219691E+01  0.15236414235E+02  0.51100000000E-03 0.  1.
        -12    1    3    3    0    0  0.34304535957E+01  0.37922728226E+01  0.83773104060E+01  0.98147172488E+01  0.00000000000E+00 0.  1.
</event>
<event>
 7    1  0.5979290E-013  0.5930194E+02  0.7816164E-02  0.1266605E+00
        -11   -1    0    0    0    0  0.00000000000E+00  0.00000000000E+00  0.45593999997E+02  0.45594000000E+02  0.51100000000E-03 0. -1.
         11   -1    0    0    0    0 -0.00000000000E+00 -0.00000000000E+00 -0.45593999997E+02  0.45594000000E+02  0.51100000000E-03 0.  1.
    9900012    2    1    2    0    0 -0.26354019873E+02  0.31683155862E+01  0.17667723638E+02  0.59301936498E+02  0.49999986267E+02 0.  0.
        -12    1    1    2    0    0  0.26354019873E+02 -0.31683155862E+01 -0.17667723638E+02  0.31886063502E+02  0.00000000000E+00 0.  1.
         11    1    3    3    0    0 -0.16179195498E+02 -0.94248044178E+01  0.20181066074E+02  0.27529415785E+02  0.51100000000E-03 0. -1.
        -11    1    3    3    0    0 -0.95482401230E+01  0.18155386975E+02  0.61881443487E+01  0.21426154494E+02  0.51100000000E-03 0.  1.
         12    1    3    3    0    0 -0.62658425196E+00 -0.55622669706E+01 -0.87014867851E+01  0.10346366219E+02  0.00000000000E+00 0. -1.
</event>
<event>
 7    1  0.5979290E-013  0.5930200E+02  0.7816164E-02  0.1266605E+00
        -11   -1    0    0    0    0  0.00000000000E+00  0.00000000000E+00  0.45593999997E+02  0.45594000000E+02  0.51100000000E-03 0.  1.
         11   -1    0    0    0    0 -0.00000000000E+00 -0.00000000000E+00 -0.45593999997E+02  0.45594000000E+02  0.51100000000E-03 0. -1.
    9900012    2    1    2    0    0  0.11300167605E+02  0.22930288419E+01 -0.29728185724E+02  0.59302003142E+02  0.50000107811E+02 0.  0.
        -12    1    1    2    0    0 -0.11300167605E+02 -0.22930288419E+01  0.29728185724E+02  0.31885996858E+02  0.00000000000E+00 0.  1.
         11    1    3    3    0    0  0.13583711975E+02  0.20347370259E+02 -0.25074368786E+02  0.35032223420E+02  0.51100000000E-03 0. -1.
        -11    1    3    3    0    0 -0.57948051862E+01 -0.65644311909E+01  0.38347730754E+01  0.95591322204E+01  0.51100000000E-03 0.  1.
         12    1    3    3    0    0  0.35112608160E+01 -0.11489910226E+02 -0.84885900130E+01  0.14710647502E+02  0.00000000000E+00 0. -1.
</event>
<event>
 7    1  0.5979290E-013  0.5930197E+02  0.7816164E-02  0.1266605E+00
        -11   -1    0    0    0    0  0.00000000000E+00  0.00000000000E+00  0.45593999997E+02  0.45594000000E+02  0.51100000000E-03 0.  1.
         11   -1    0    0    0    0 -0.00000000000E+00 -0.00000000000E+00 -0.45593999997E+02  0.45594000000E+02  0.51100000000E-03 0. -1.
    9900012    2    1    2    0    0  0.20734819300E+02 -0.18431753705E+01 -0.24153447047E+02  0.59301968088E+02  0.50000043880E+02 0.  0.
        -12    1    1    2    0    0 -0.20734819300E+02  0.18431753705E+01  0.24153447047E+02  0.31886031912E+02  0.00000000000E+00 0.  1.
         11    1    3    3    0    0 -0.30530304189E+01 -0.14823856735E+02 -0.15935259639E+02  0.21977266055E+02  0.51100000000E-03 0. -1.
        -11    1    3    3    0    0  0.35165663426E+01  0.13827263594E+02 -0.92599825613E+01  0.17009019215E+02  0.51100000000E-03 0.  1.
         12    1    3    3    0    0  0.20271283376E+02 -0.84658223004E+00  0.10417951538E+01  0.20315682818E+02  0.00000000000E+00 0. -1.
</event>
<event>
 7    1  0.5979290E-013  0.5930194E+02  0.7816164E-02  0.1266605E+00
        -11   -1    0    0    0    0  0.00000000000E+00  0.00000000000E+00  0.45593999997E+02  0.45594000000E+02  0.51100000000E-03 0. -1.
         11   -1    0    0    0    0 -0.00000000000E+00 -0.00000000000E+00 -0.45593999997E+02  0.45594000000E+02  0.51100000000E-03 0.  1.
    9900012    2    1    2    0    0  0.24867224991E+02  0.58035575124E+01  0.19096091594E+02  0.59301939210E+02  0.49999991214E+02 0.  0.
        -12    1    1    2    0    0 -0.24867224991E+02 -0.58035575124E+01 -0.19096091594E+02  0.31886060790E+02  0.00000000000E+00 0.  1.
         11    1    3    3    0    0 -0.89603529817E+01  0.11754343984E+02  0.94680176579E+01  0.17552660387E+02  0.51100000000E-03 0.  1.
        -11    1    3    3    0    0  0.36512042675E+02 -0.61517389619E+01  0.11134348641E+02  0.38664542833E+02  0.51100000000E-03 0. -1.
         12    1    3    3    0    0 -0.26844647021E+01  0.20095249064E+00 -0.15062747050E+01  0.30847359899E+01  0.00000000000E+00 0. -1.
</event>
<event>
 7    1  0.5979290E-013  0.5930196E+02  0.7816164E-02  0.1266605E+00
        -11   -1    0    0    0    0  0.00000000000E+00  0.00000000000E+00  0.45593999997E+02  0.45594000000E+02  0.51100000000E-03 0.  1.
         11   -1    0    0    0    0 -0.00000000000E+00 -0.00000000000E+00 -0.45593999997E+02  0.45594000000E+02  0.51100000000E-03 0. -1.
    9900012    2    1    2    0    0  0.24387773291E+01  0.60485672736E+01 -0.31211968182E+02  0.59301956678E+02  0.50000023072E+02 0.  0.
        -12    1    1    2    0    0 -0.24387773291E+01 -0.60485672736E+01  0.31211968182E+02  0.31886043322E+02  0.00000000000E+00 0.  1.
         11    1    3    3    0    0 -0.11016865921E+02  0.23050678363E+02 -0.12205860620E+02  0.28314097928E+02  0.51100000000E-03 0. -1.
        -11    1    3    3    0    0  0.89513333266E+01 -0.13710352952E+02 -0.71145354389E+01  0.17852640173E+02  0.51100000000E-03 0.  1.
        -12    1    3    3    0    0  0.45043099231E+01 -0.32917581376E+01 -0.11891572123E+02  0.13135218577E+02  0.00000000000E+00 0.  1.
</event>
<event>
 7    1  0.5979290E-013  0.5930194E+02  0.7816164E-02  0.1266605E+00
        -11   -1    0    0    0    0  0.00000000000E+00  0.00000000000E+00  0.45593999997E+02  0.45594000000E+02  0.51100000000E-03 0.  1.
         11   -1    0    0    0    0 -0.00000000000E+00 -0.00000000000E+00 -0.45593999997E+02  0.45594000000E+02  0.51100000000E-03 0. -1.
    9900012    2    1    2    0    0  0.41896529642E+01  0.11177961989E+02 -0.29567229886E+02  0.59301935500E+02  0.49999984447E+02 0.  0.
        -12    1    1    2    0    0 -0.41896529642E+01 -0.11177961989E+02  0.29567229886E+02  0.31886064500E+02  0.00000000000E+00 0.  1.
         11    1    3    3    0    0  0.35143068473E+01  0.71501897323E+01  0.10056152606E+02  0.12829722184E+02  0.51100000000E-03 0. -1.
        -11    1    3    3    0    0 -0.12835213083E+01 -0.92657422696E+01 -0.24589117768E+02  0.26308289941E+02  0.51100000000E-03 0.  1.
         12    1    3    3    0    0  0.19588674252E+01  0.13293514526E+02 -0.15034264724E+02  0.20163923375E+02  0.00000000000E+00 0. -1.
</event>
<event>
 7    1  0.5979290E-013  0.5930195E+02  0.7816164E-02  0.1266605E+00
        -11   -1    0    0    0    0  0.00000000000E+00  0.00000000000E+00  0.45593999997E+02  0.45594000000E+02  0.51100000000E-03 0.  1.
         11   -1    0    0    0    0 -0.00000000000E+00 -0.00000000000E+00 -0.45593999997E+02  0.45594000000E+02  0.51100000000E-03 0. -1.
    9900012    2    1    2    0    0  0.18634657599E+01  0.15334779010E+02 -0.27894309561E+02  0.59301945716E+02  0.50000003079E+02 0.  0.
        -12    1    1    2    0    0 -0.18634657599E+01 -0.15334779010E+02  0.27894309561E+02  0.31886054284E+02  0.00000000000E+00 0.  1.
         11    1    3    3    0    0 -0.19354421547E+01  0.79339544902E+01 -0.35404773706E+02  0.36334440572E+02  0.51100000000E-03 0. -1.
        -11    1    3    3    0    0 -0.56837168171E+01 -0.17372406593E+01  0.77865266671E+01  0.97955418311E+01  0.51100000000E-03 0.  1.
         12    1    3    3    0    0  0.94826247317E+01  0.91380651787E+01 -0.27606252185E+00  0.13171963313E+02  0.00000000000E+00 0. -1.
</event>
<event>
 7    1  0.5979290E-013  0.5930196E+02  0.7816164E-02  0.1266605E+00
        -11   -1    0    0    0    0  0.00000000000E+00  0.00000000000E+00  0.45593999997E+02  0.45594000000E+02  0.51100000000E-03 0.  1.
         11   -1    0    0    0    0 -0.00000000000E+00 -0.00000000000E+00 -0.45593999997E+02  0.45594000000E+02  0.51100000000E-03 0. -1.
    9900012    2    1    2    0    0 -0.22069268391E+02 -0.23006567337E+02 -0.60399095862E+00  0.59301959903E+02  0.50000028953E+02 0.  0.
        -12    1    1    2    0    0  0.22069268391E+02  0.23006567337E+02  0.60399095862E+00  0.31886040097E+02  0.00000000000E+00 0.  1.
         11    1    3    3    0    0  0.65199164593E+01 -0.15157897616E+02  0.84617210240E+01  0.18543783156E+02  0.51100000000E-03 0. -1.
        -11    1    3    3    0    0 -0.31189245916E+02  0.20781561887E+00 -0.60490900172E+01  0.31771114844E+02  0.51100000000E-03 0.  1.
        -12    1    3    3    0    0  0.26000610655E+01 -0.80564853399E+01 -0.30166219654E+01  0.89870619036E+01  0.00000000000E+00 0.  1.
</event>
<event>
 7    1  0.7621023E-013  0.5930193E+02  0.7816164E-02  0.1266605E+00
        -11   -1    0    0    0    0  0.00000000000E+00  0.00000000000E+00  0.45593999997E+02  0.45594000000E+02  0.51100000000E-03 0. -1.
         11   -1    0    0    0    0 -0.00000000000E+00 -0.00000000000E+00 -0.45593999997E+02  0.45594000000E+02  0.51100000000E-03 0.  1.
    9900012    2    1    2    0    0  0.16032575718E+02 -0.27545696286E+02 -0.95513612066E+00  0.59301934814E+02  0.49999983196E+02 0.  0.
        -12    1    1    2    0    0 -0.16032575718E+02  0.27545696286E+02  0.95513612066E+00  0.31886065186E+02  0.00000000000E+00 0.  1.
         11    1    3    3    0    0  0.16735759143E+02 -0.30342757476E+02  0.10311634607E+02  0.36153815482E+02  0.51100000000E-03 0. -1.
        -11    1    3    3    0    0  0.90018390997E+01  0.54336912188E+00 -0.93720562952E+01  0.13006298345E+02  0.51100000000E-03 0.  1.
         12    1    3    3    0    0 -0.97050225246E+01  0.22536920684E+01 -0.18947144328E+01  0.10141820987E+02  0.00000000000E+00 0. -1.
</event>
<event>
 7    1  0.5979290E-013  0.5930205E+02  0.7816164E-02  0.1266604E+00
        -11   -1    0    0    0    0  0.00000000000E+00  0.00000000000E+00  0.45593999997E+02  0.45594000000E+02  0.51100000000E-03 0.  1.
         11   -1    0    0    0    0 -0.00000000000E+00 -0.00000000000E+00 -0.45593999997E+02  0.45594000000E+02  0.51100000000E-03 0. -1.
    9900012    2    1    2    0    0  0.76003299218E+01 -0.25473684305E+02 -0.17607966215E+02  0.59302045706E+02  0.50000185437E+02 0.  0.
        -12    1    1    2    0    0 -0.76003299218E+01  0.25473684305E+02  0.17607966215E+02  0.31885954294E+02  0.00000000000E+00 0.  1.
         11    1    3    3    0    0  0.27442675648E+01 -0.17695675155E+01 -0.26126277095E+01  0.41818892225E+01  0.51100000000E-03 0. -1.
        -11    1    3    3    0    0 -0.18110999771E+02 -0.66130412510E+01  0.53376227463E+01  0.20005770271E+02  0.51100000000E-03 0.  1.
        -12    1    3    3    0    0  0.22967062128E+02 -0.17091075538E+02 -0.20332961252E+02  0.35114386213E+02  0.00000000000E+00 0.  1.
</event>
<event>
 7    1  0.5979290E-013  0.5930194E+02  0.7816164E-02  0.1266605E+00
        -11   -1    0    0    0    0  0.00000000000E+00  0.00000000000E+00  0.45593999997E+02  0.45594000000E+02  0.51100000000E-03 0.  1.
         11   -1    0    0    0    0 -0.00000000000E+00 -0.00000000000E+00 -0.45593999997E+02  0.45594000000E+02  0.51100000000E-03 0. -1.
    9900012    2    1    2    0    0  0.11989433897E+02  0.14404458020E+02 -0.25797007030E+02  0.59301944934E+02  0.50000001652E+02 0.  0.
        -12    1    1    2    0    0 -0.11989433897E+02 -0.14404458020E+02  0.25797007030E+02  0.31886055066E+02  0.00000000000E+00 0.  1.
         11    1    3    3    0    0 -0.52236025486E+01 -0.11170919546E+02 -0.20958398193E+02  0.24317276208E+02  0.51100000000E-03 0. -1.
        -11    1    3    3    0    0  0.16436961046E+02  0.19913226860E+02 -0.95984286778E+01  0.27547052941E+02  0.51100000000E-03 0.  1.
        -12    1    3    3    0    0  0.77607539966E+00  0.56621507063E+01  0.47598198409E+01  0.74376157850E+01  0.00000000000E+00 0.  1.
</event>
<event>
 7    1  0.5979290E-013  0.5930195E+02  0.7816164E-02  0.1266605E+00
        -11   -1    0    0    0    0  0.00000000000E+00  0.00000000000E+00  0.45593999997E+02  0.45594000000E+02  0.51100000000E-03 0.  1.
         11   -1    0    0    0    0 -0.00000000000E+00 -0.00000000000E+00 -0.45593999997E+02  0.45594000000E+02  0.51100000000E-03 0. -1.
    9900012    2    1    2    0    0 -0.15203035320E+02  0.14170067369E+02 -0.24182583810E+02  0.59301945808E+02  0.50000003247E+02 0.  0.
        -12    1    1    2    0    0  0.15203035320E+02 -0.14170067369E+02  0.24182583810E+02  0.31886054192E+02  0.00000000000E+00 0.  1.
         11    1    3    3    0    0 -0.10600084749E+02 -0.67785792020E+01 -0.15439847492E+01  0.12676546133E+02  0.51100000000E-03 0. -1.
        -11    1    3    3    0    0 -0.12028392855E+02  0.27124756588E+02 -0.11349638642E+02  0.31768678792E+02  0.51100000000E-03 0.  1.
        -12    1    3    3    0    0  0.74254422846E+01 -0.61761100167E+01 -0.11288960419E+02  0.14856720883E+02  0.00000000000E+00 0.  1.
</event>
<event>
 7    1  0.5979290E-013  0.5930202E+02  0.7816164E-02  0.1266604E+00
        -11   -1    0    0    0    0  0.00000000000E+00  0.00000000000E+00  0.45593999997E+02  0.45594000000E+02  0.51100000000E-03 0. -1.
         11   -1    0    0    0    0 -0.00000000000E+00 -0.00000000000E+00 -0.45593999997E+02  0.45594000000E+02  0.51100000000E-03 0.  1.
    9900012    2    1    2    0    0  0.22425561918E+02  0.83438232383E+01  0.21075822236E+02  0.59302023514E+02  0.50000144963E+02 0.  0.
        -12    1    1    2    0    0 -0.22425561918E+02 -0.83438232383E+01 -0.21075822236E+02  0.31885976486E+02  0.00000000000E+00 0.  1.
         11    1    3    3    0    0  0.46782595670E+01  0.22460237106E+02  0.19999833954E+01  0.23029292158E+02  0.51100000000E-03 0. -1.
        -11    1    3    3    0    0  0.10272553020E+02 -0.99433496945E+01  0.22820353406E+02  0.26928870725E+02  0.51100000000E-03 0.  1.
         12    1    3    3    0    0  0.74747493310E+01 -0.41730641734E+01 -0.37445145652E+01  0.93438606307E+01  0.00000000000E+00 0. -1.
</event>
<event>
 7    1  0.5979290E-013  0.5930170E+02  0.7816164E-02  0.1266606E+00
        -11   -1    0    0    0    0  0.00000000000E+00  0.00000000000E+00  0.45593999997E+02  0.45594000000E+02  0.51100000000E-03 0. -1.
         11   -1    0    0    0    0 -0.00000000000E+00 -0.00000000000E+00 -0.45593999997E+02  0.45594000000E+02  0.51100000000E-03 0.  1.
    9900012    2    1    2    0    0 -0.11813474135E+02  0.17933502397E+02  0.23570484040E+02  0.59301695773E+02  0.49999547241E+02 0.  0.
        -12    1    1    2    0    0  0.11813474135E+02 -0.17933502397E+02 -0.23570484040E+02  0.31886304227E+02  0.00000000000E+00 0.  1.
         11    1    3    3    0    0 -0.10778784831E+02 -0.25884091250E+01  0.15994739710E+00  0.11086372159E+02  0.51100000000E-03 0. -1.
        -11    1    3    3    0    0  0.10449512829E+02  0.26911296301E+02  0.17877619315E+02  0.33956140234E+02  0.51100000000E-03 0.  1.
        -12    1    3    3    0    0 -0.11484202133E+02 -0.63893847792E+01  0.55329173284E+01  0.14259183380E+02  0.00000000000E+00 0.  1.
</event>
<event>
 7    1  0.5979290E-013  0.5930195E+02  0.7816164E-02  0.1266605E+00
        -11   -1    0    0    0    0  0.00000000000E+00  0.00000000000E+00  0.45593999997E+02  0.45594000000E+02  0.51100000000E-03 0.  1.
         11   -1    0    0    0    0 -0.00000000000E+00 -0.00000000000E+00 -0.45593999997E+02  0.45594000000E+02  0.51100000000E-03 0. -1.
    9900012    2    1    2    0    0  0.43423016119E+01 -0.25013376825E+02 -0.19292370524E+02  0.59301950324E+02  0.50000011483E+02 0.  0.
        -12    1    1    2    0    0 -0.43423016119E+01  0.25013376825E+02  0.19292370524E+02  0.31886049676E+02  0.00000000000E+00 0.  1.
         11    1    3    3    0    0  0.17857708395E+02 -0.16709847040E+01 -0.84375717614E+01  0.19821265260E+02  0.51100000000E-03 0.  1.
        -11    1    3    3    0    0 -0.65052349673E+01 -0.22030167092E+02  0.37055077374E+01  0.23267512371E+02  0.51100000000E-03 0. -1.
         12    1    3    3    0    0 -0.70101718161E+01 -0.13122250294E+01 -0.14560306500E+02  0.16213172693E+02  0.00000000000E+00 0. -1.
</event>
<event>
 7    1  0.5979290E-013  0.5930194E+02  0.7816164E-02  0.1266605E+00
        -11   -1    0    0    0    0  0.00000000000E+00  0.00000000000E+00  0.45593999997E+02  0.45594000000E+02  0.51100000000E-03 0.  1.
         11   -1    0    0    0    0 -0.00000000000E+00 -0.00000000000E+00 -0.45593999997E+02  0.45594000000E+02  0.51100000000E-03 0. -1.
    9900012    2    1    2    0    0  0.29502760793E+02  0.45513162858E+01 -0.11206855648E+02  0.59301937404E+02  0.49999987921E+02 0.  0.
        -12    1    1    2    0    0 -0.29502760793E+02 -0.45513162858E+01  0.11206855648E+02  0.31886062596E+02  0.00000000000E+00 0.  1.
         11    1    3    3    0    0  0.71636710107E+01 -0.20386369343E+01 -0.92203861079E+00  0.75049569193E+01  0.51100000000E-03 0. -1.
        -11    1    3    3    0    0 -0.12846692415E+02 -0.34632145408E+01 -0.70573831714E+01  0.15061142667E+02  0.51100000000E-03 0.  1.
        -12    1    3    3    0    0  0.35185782197E+02  0.10053167761E+02 -0.32274338659E+01  0.36735837818E+02  0.00000000000E+00 0.  1.
</event>
<event>
 7    1  0.5979290E-013  0.5930194E+02  0.7816164E-02  0.1266605E+00
        -11   -1    0    0    0    0  0.00000000000E+00  0.00000000000E+00  0.45593999997E+02  0.45594000000E+02  0.51100000000E-03 0.  1.
         11   -1    0    0    0    0 -0.00000000000E+00 -0.00000000000E+00 -0.45593999997E+02  0.45594000000E+02  0.51100000000E-03 0. -1.
    9900012    2    1    2    0    0 -0.61246124516E+01  0.30864425158E+02 -0.51572599537E+01  0.59301938025E+02  0.49999989053E+02 0.  0.
        -12    1    1    2    0    0  0.61246124516E+01 -0.30864425158E+02  0.51572599537E+01  0.31886061975E+02  0.00000000000E+00 0.  1.
         11    1    3    3    0    0 -0.31387211446E+01 -0.29217519613E+01 -0.15472179132E+02  0.16055420652E+02  0.51100000000E-03 0. -1.
        -11    1    3    3    0    0  0.26556415164E+00  0.33957981659E+02  0.16601851543E+01  0.33999577316E+02  0.51100000000E-03 0.  1.
         12    1    3    3    0    0 -0.32514554587E+01 -0.17180453907E+00  0.86547340241E+01  0.92469400575E+01  0.00000000000E+00 0. -1.
</event>
<event>
 7    1  0.5979290E-013  0.5930190E+02  0.7816164E-02  0.1266605E+00
        -11   -1    0    0    0    0  0.00000000000E+00  0.00000000000E+00  0.45593999997E+02  0.45594000000E+02  0.51100000000E-03 0.  1.
         11   -1    0    0    0    0 -0.00000000000E+00 -0.00000000000E+00 -0.45593999997E+02  0.45594000000E+02  0.51100000000E-03 0. -1.
    9900012    2    1    2    0    0 -0.12040348756E+02 -0.28884243016E+02  0.61199601160E+01  0.59301899508E+02  0.49999918806E+02 0.  0.
        -12    1    1    2    0    0  0.12040348756E+02  0.28884243016E+02 -0.61199601160E+01  0.31886100492E+02  0.00000000000E+00 0.  1.
         11    1    3    3    0    0  0.58481191694E+01 -0.31315866802E+02  0.13511659008E+02  0.34604175193E+02  0.51100000000E-03 0. -1.
        -11    1    3    3    0    0 -0.47496935466E+01  0.19065204129E+01 -0.10053933555E+02  0.11281666058E+02  0.51100000000E-03 0.  1.
        -12    1    3    3    0    0 -0.13138774379E+02  0.52510337331E+00  0.26622346629E+01  0.13416058256E+02  0.00000000000E+00 0.  1.
</event>
<event>
 7    1  0.5979290E-013  0.5930191E+02  0.7816164E-02  0.1266605E+00
        -11   -1    0    0    0    0  0.00000000000E+00  0.00000000000E+00  0.45593999997E+02  0.45594000000E+02  0.51100000000E-03 0. -1.
         11   -1    0    0    0    0 -0.00000000000E+00 -0.00000000000E+00 -0.45593999997E+02  0.45594000000E+02  0.51100000000E-03 0.  1.
    9900012    2    1    2    0    0  0.37242110630E+01 -0.18370586759E+02  0.25794856900E+02  0.59301908229E+02  0.49999934712E+02 0.  0.
        -12    1    1    2    0    0 -0.37242110630E+01  0.18370586759E+02 -0.25794856900E+02  0.31886091771E+02  0.00000000000E+00 0.  1.
         11    1    3    3    0    0 -0.21552069513E+01  0.24709058489E+00  0.13146456965E+02  0.13324237380E+02  0.51100000000E-03 0. -1.
        -11    1    3    3    0    0  0.12488907885E+02  0.23649701808E+01 -0.86363537102E+01  0.15367254465E+02  0.51100000000E-03 0.  1.
        -12    1    3    3    0    0 -0.66094898706E+01 -0.20982647525E+02  0.21284753646E+02  0.30610416385E+02  0.00000000000E+00 0.  1.
</event>
<event>
 7    1  0.5979290E-013  0.5930183E+02  0.7816164E-02  0.1266605E+00
        -11   -1    0    0    0    0  0.00000000000E+00  0.00000000000E+00  0.45593999997E+02  0.45594000000E+02  0.51100000000E-03 0. -1.
         11   -1    0    0    0    0 -0.00000000000E+00 -0.00000000000E+00 -0.45593999997E+02  0.45594000000E+02  0.51100000000E-03 0.  1.
    9900012    2    1    2    0    0  0.18156899333E+02 -0.14313964708E+02  0.21958267724E+02  0.59301825872E+02  0.49999784512E+02 0.  0.
        -12    1    1    2    0    0 -0.18156899333E+02  0.14313964708E+02 -0.21958267724E+02  0.31886174128E+02  0.00000000000E+00 0.  1.
         11    1    3    3    0    0  0.21497974038E+02 -0.26714634109E+02  0.19738152949E+02  0.39565505752E+02  0.51100000000E-03 0. -1.
        -11    1    3    3    0    0  0.55714032922E+01  0.77611484418E+01  0.13883508752E+01  0.96541948496E+01  0.51100000000E-03 0.  1.
         12    1    3    3    0    0 -0.89124779970E+01  0.46395209594E+01  0.83176390020E+00  0.10082125270E+02  0.00000000000E+00 0. -1.
</event>
<event>
 7    1  0.5979290E-013  0.5930197E+02  0.7816164E-02  0.1266605E+00
        -11   -1    0    0    0    0  0.00000000000E+00  0.00000000000E+00  0.45593999997E+02  0.45594000000E+02  0.51100000000E-03 0.  1.
         11   -1    0    0    0    0 -0.00000000000E+00 -0.00000000000E+00 -0.45593999997E+02  0.45594000000E+02  0.51100000000E-03 0. -1.
    9900012    2    1    2    0    0 -0.31241811817E+02 -0.61834131242E+01 -0.15598861468E+01  0.59301974091E+02  0.50000054829E+02 0.  0.
        -12    1    1    2    0    0  0.31241811817E+02  0.61834131242E+01  0.15598861468E+01  0.31886025909E+02  0.00000000000E+00 0.  1.
         11    1    3    3    0    0 -0.39933427584E+02 -0.60181167909E+01  0.97649501947E+01  0.41548172293E+02  0.51100000000E-03 0. -1.
        -11    1    3    3    0    0  0.61654190135E+01 -0.14443154768E+00 -0.16928902852E-01  0.61671337697E+01  0.51100000000E-03 0.  1.
         12    1    3    3    0    0  0.25261967535E+01 -0.20864785623E-01 -0.11307907439E+02  0.11586668029E+02  0.00000000000E+00 0. -1.
</event>
<event>
 7    1  0.5979290E-013  0.5930192E+02  0.7816164E-02  0.1266605E+00
        -11   -1    0    0    0    0  0.00000000000E+00  0.00000000000E+00  0.45593999997E+02  0.45594000000E+02  0.51100000000E-03 0.  1.
         11   -1    0    0    0    0 -0.00000000000E+00 -0.00000000000E+00 -0.45593999997E+02  0.45594000000E+02  0.51100000000E-03 0. -1.
    9900012    2    1    2    0    0 -0.17873984236E+02 -0.24901436641E+01 -0.26287672479E+02  0.59301923849E+02  0.49999963199E+02 0.  0.
        -12    1    1    2    0    0  0.17873984236E+02  0.24901436641E+01  0.26287672479E+02  0.31886076151E+02  0.00000000000E+00 0.  1.
         11    1    3    3    0    0 -0.24633149677E+02 -0.15502718423E+02 -0.28576335905E+02  0.40788887157E+02  0.51100000000E-03 0. -1.
        -11    1    3    3    0    0  0.25318532179E+01  0.13754442087E+02  0.25377214689E+01  0.14213901236E+02  0.51100000000E-03 0.  1.
        -12    1    3    3    0    0  0.42273122232E+01 -0.74186732822E+00 -0.24905804306E+00  0.42991354565E+01  0.00000000000E+00 0.  1.
</event>
<event>
 7    1  0.5979290E-013  0.5930194E+02  0.7816164E-02  0.1266605E+00
        -11   -1    0    0    0    0  0.00000000000E+00  0.00000000000E+00  0.45593999997E+02  0.45594000000E+02  0.51100000000E-03 0.  1.
         11   -1    0    0    0    0 -0.00000000000E+00 -0.00000000000E+00 -0.45593999997E+02  0.45594000000E+02  0.51100000000E-03 0. -1.
    9900012    2    1    2    0    0  0.24779118936E+02 -0.23154287770E+01 -0.19933758604E+02  0.59301942267E+02  0.49999996789E+02 0.  0.
        -12    1    1    2    0    0 -0.24779118936E+02  0.23154287770E+01  0.19933758604E+02  0.31886057733E+02  0.00000000000E+00 0.  1.
         11    1    3    3    0    0  0.93527664588E+01 -0.85896218200E+01 -0.13018670221E+02  0.18186303033E+02  0.51100000000E-03 0. -1.
        -11    1    3    3    0    0  0.27674340698E+02  0.48438674162E+01 -0.34451010040E+01  0.28305492503E+02  0.51100000000E-03 0.  1.
        -12    1    3    3    0    0 -0.12247988221E+02  0.14303256268E+01 -0.34699873791E+01  0.12810146731E+02  0.00000000000E+00 0.  1.
</event>
<event>
 7    1  0.5979290E-013  0.5930195E+02  0.7816164E-02  0.1266605E+00
        -11   -1    0    0    0    0  0.00000000000E+00  0.00000000000E+00  0.45593999997E+02  0.45594000000E+02  0.51100000000E-03 0.  1.
         11   -1    0    0    0    0 -0.00000000000E+00 -0.00000000000E+00 -0.45593999997E+02  0.45594000000E+02  0.51100000000E-03 0. -1.
    9900012    2    1    2    0    0  0.25998129529E+02  0.29457271858E+01 -0.18224711882E+02  0.59301950216E+02  0.50000011286E+02 0.  0.
        -12    1    1    2    0    0 -0.25998129529E+02 -0.29457271858E+01  0.18224711882E+02  0.31886049784E+02  0.00000000000E+00 0.  1.
         11    1    3    3    0    0  0.92294857398E+01  0.15205803745E+02 -0.51384331398E+01  0.18514949904E+02  0.51100000000E-03 0. -1.
        -11    1    3    3    0    0 -0.16515996159E+01 -0.18074333826E+02 -0.13833442623E+01  0.18202279148E+02  0.51100000000E-03 0.  1.
        -12    1    3    3    0    0  0.18420243405E+02  0.58142572674E+01 -0.11702934480E+02  0.22584721165E+02  0.00000000000E+00 0.  1.
</event>
<event>
 7    1  0.5979290E-013  0.5930179E+02  0.7816164E-02  0.1266605E+00
        -11   -1    0    0    0    0  0.00000000000E+00  0.00000000000E+00  0.45593999997E+02  0.45594000000E+02  0.51100000000E-03 0.  1.
         11   -1    0    0    0    0 -0.00000000000E+00 -0.00000000000E+00 -0.45593999997E+02  0.45594000000E+02  0.51100000000E-03 0. -1.
    9900012    2    1    2    0    0 -0.22284703566E+01 -0.15050034825E+02 -0.28022510052E+02  0.59301785142E+02  0.49999710230E+02 0.  0.
        -12    1    1    2    0    0  0.22284703566E+01  0.15050034825E+02  0.28022510052E+02  0.31886214858E+02  0.00000000000E+00 0.  1.
         11    1    3    3    0    0 -0.24249688158E+01 -0.25426353461E+02 -0.20556191415E+02  0.32786230797E+02  0.51100000000E-03 0. -1.
        -11    1    3    3    0    0  0.78665867474E+01  0.13563998770E+02 -0.52169774194E+00  0.15688767271E+02  0.51100000000E-03 0.  1.
        -12    1    3    3    0    0 -0.76700882882E+01 -0.31876801339E+01 -0.69446208947E+01  0.10826787074E+02  0.00000000000E+00 0.  1.
</event>
<event>
 7    1  0.5979290E-013  0.5930196E+02  0.7816164E-02  0.1266605E+00
        -11   -1    0    0    0    0  0.00000000000E+00  0.00000000000E+00  0.45593999997E+02  0.45594000000E+02  0.51100000000E-03 0.  1.
         11   -1    0    0    0    0 -0.00000000000E+00 -0.00000000000E+00 -0.45593999997E+02  0.45594000000E+02  0.51100000000E-03 0. -1.
    9900012    2    1    2    0    0 -0.23915461405E+02 -0.54718709683E+01 -0.20367345942E+02  0.59301961569E+02  0.50000031991E+02 0.  0.
        -12    1    1    2    0    0  0.23915461405E+02  0.54718709683E+01  0.20367345942E+02  0.31886038431E+02  0.00000000000E+00 0.  1.
         11    1    3    3    0    0 -0.30528680854E+00 -0.84083984070E+01  0.12719323747E+02  0.15250428212E+02  0.51100000000E-03 0.  1.
        -11    1    3    3    0    0 -0.19679343564E+02  0.19307850687E+01 -0.34491619278E+02  0.39757719939E+02  0.51100000000E-03 0. -1.
        -12    1    3    3    0    0 -0.39308310325E+01  0.10057423701E+01  0.14049495886E+01  0.42938134179E+01  0.00000000000E+00 0.  1.
</event>
<event>
 7    1  0.5979290E-013  0.5930211E+02  0.7816164E-02  0.1266604E+00
        -11   -1    0    0    0    0  0.00000000000E+00  0.00000000000E+00  0.45593999997E+02  0.45594000000E+02  0.51100000000E-03 0. -1.
         11   -1    0    0    0    0 -0.00000000000E+00 -0.00000000000E+00 -0.45593999997E+02  0.45594000000E+02  0.51100000000E-03 0.  1.
    9900012    2    1    2    0    0 -0.27327818954E+00 -0.70458709906E+01  0.31096483988E+02  0.59302105072E+02  0.50000293705E+02 0.  0.
        -12    1    1    2    0    0  0.27327818954E+00  0.70458709906E+01 -0.31096483988E+02  0.31885894928E+02  0.00000000000E+00 0.  1.
         11    1    3    3    0    0  0.48687996744E+01 -0.34930485741E+01  0.22477673258E+02  0.23262682432E+02  0.51100000000E-03 0. -1.
        -11    1    3    3    0    0 -0.17853104512E+02  0.14586236539E+01 -0.29282207838E+01  0.18150355393E+02  0.51100000000E-03 0.  1.
        -12    1    3    3    0    0  0.12711026648E+02 -0.50114460704E+01  0.11547031514E+02  0.17889067246E+02  0.00000000000E+00 0.  1.
</event>
<event>
 7    1  0.5979290E-013  0.5930195E+02  0.7816164E-02  0.1266605E+00
        -11   -1    0    0    0    0  0.00000000000E+00  0.00000000000E+00  0.45593999997E+02  0.45594000000E+02  0.51100000000E-03 0.  1.
         11   -1    0    0    0    0 -0.00000000000E+00 -0.00000000000E+00 -0.45593999997E+02  0.45594000000E+02  0.51100000000E-03 0. -1.
    9900012    2    1    2    0    0 -0.18438048960E+02  0.26005086417E+02 -0.70304064521E+00  0.59301946072E+02  0.50000003727E+02 0.  0.
        -12    1    1    2    0    0  0.18438048960E+02 -0.26005086417E+02  0.70304064521E+00  0.31886053928E+02  0.00000000000E+00 0.  1.
         11    1    3    3    0    0 -0.10054855058E+02 -0.69854752125E+01 -0.94902143089E+01  0.15490679200E+02  0.51100000000E-03 0. -1.
        -11    1    3    3    0    0  0.78364451038E+01  0.18416669126E+02 -0.71056876570E+00  0.20027193557E+02  0.51100000000E-03 0.  1.
        -12    1    3    3    0    0 -0.16219639006E+02  0.14573892503E+02  0.94977424294E+01  0.23784073315E+02  0.00000000000E+00 0.  1.
</event>
<event>
 7    1  0.5979290E-013  0.5930192E+02  0.7816164E-02  0.1266605E+00
        -11   -1    0    0    0    0  0.00000000000E+00  0.00000000000E+00  0.45593999997E+02  0.45594000000E+02  0.51100000000E-03 0. -1.
         11   -1    0    0    0    0 -0.00000000000E+00 -0.00000000000E+00 -0.45593999997E+02  0.45594000000E+02  0.51100000000E-03 0.  1.
    9900012    2    1    2    0    0 -0.16903912271E+02  0.19911804082E+02 -0.18289342153E+02  0.59301917954E+02  0.49999952448E+02 0.  0.
        -12    1    1    2    0    0  0.16903912271E+02 -0.19911804082E+02  0.18289342153E+02  0.31886082046E+02  0.00000000000E+00 0.  1.
         11    1    3    3    0    0 -0.16193873156E+02 -0.71516816986E-01  0.80814759484E+01  0.18098532985E+02  0.51100000000E-03 0. -1.
        -11    1    3    3    0    0  0.11514623091E+02  0.89678878617E+01 -0.16439204215E+02  0.21983106994E+02  0.51100000000E-03 0.  1.
        -12    1    3    3    0    0 -0.12224662206E+02  0.11015433037E+02 -0.99316138861E+01  0.19220277975E+02  0.00000000000E+00 0.  1.
</event>
<event>
 7    1  0.5979290E-013  0.5930196E+02  0.7816164E-02  0.1266605E+00
        -11   -1    0    0    0    0  0.00000000000E+00  0.00000000000E+00  0.45593999997E+02  0.45594000000E+02  0.51100000000E-03 0.  1.
         11   -1    0    0    0    0 -0.00000000000E+00 -0.00000000000E+00 -0.45593999997E+02  0.45594000000E+02  0.51100000000E-03 0. -1.
    9900012    2    1    2    0    0  0.31288649418E+02 -0.52660363592E+01 -0.31636356626E+01  0.59301963684E+02  0.50000035848E+02 0.  0.
        -12    1    1    2    0    0 -0.31288649418E+02  0.52660363592E+01  0.31636356626E+01  0.31886036316E+02  0.00000000000E+00 0.  1.
         11    1    3    3    0    0  0.12013906811E+01  0.19063882186E+02  0.23119040314E+01  0.19241097788E+02  0.51100000000E-03 0.  1.
        -11    1    3    3    0    0  0.15221372509E+02 -0.11977866544E+02  0.17011071090E+01  0.19443591069E+02  0.51100000000E-03 0. -1.
         12    1    3    3    0    0  0.14865886228E+02 -0.12352052001E+02 -0.71766468030E+01  0.20617274827E+02  0.00000000000E+00 0. -1.
</event>
<event>
 7    1  0.5979290E-013  0.5930196E+02  0.7816164E-02  0.1266605E+00
        -11   -1    0    0    0    0  0.00000000000E+00  0.00000000000E+00  0.45593999997E+02  0.45594000000E+02  0.51100000000E-03 0. -1.
         11   -1    0    0    0    0 -0.00000000000E+00 -0.00000000000E+00 -0.45593999997E+02  0.45594000000E+02  0.51100000000E-03 0.  1.
    9900012    2    1    2    0    0  0.24095070801E+02  0.14439539143E+02  0.15087966230E+02  0.59301961480E+02  0.50000031829E+02 0.  0.
        -12    1    1    2    0    0 -0.24095070801E+02 -0.14439539143E+02 -0.15087966230E+02  0.31886038520E+02  0.00000000000E+00 0.  1.
         11    1    3    3    0    0  0.98001477988E+01  0.18378498430E+02  0.22487289709E+02  0.30651106018E+02  0.51100000000E-03 0. -1.
        -11    1    3    3    0    0 -0.18617319854E+01  0.20706757290E+01 -0.10737321236E+02  0.11092511508E+02  0.51100000000E-03 0.  1.
        -12    1    3    3    0    0  0.16156654987E+02 -0.60096350156E+01  0.33379977576E+01  0.17558343954E+02  0.00000000000E+00 0.  1.
</event>
<event>
 7    1  0.5979290E-013  0.5930202E+02  0.7816164E-02  0.1266604E+00
        -11   -1    0    0    0    0  0.00000000000E+00  0.00000000000E+00  0.45593999997E+02  0.45594000000E+02  0.51100000000E-03 0.  1.
         11   -1    0    0    0    0 -0.00000000000E+00 -0.00000000000E+00 -0.45593999997E+02  0.45594000000E+02  0.51100000000E-03 0. -1.
    9900012    2    1    2    0    0 -0.20971642398E+02 -0.18593387297E+02 -0.15204994437E+02  0.59302020450E+02  0.50000139375E+02 0.  0.
        -12    1    1    2    0    0  0.20971642398E+02  0.18593387297E+02  0.15204994437E+02  0.31885979550E+02  0.00000000000E+00 0.  1.
         11    1    3    3    0    0 -0.11846276100E+02 -0.17639155886E+02 -0.82226363570E+01  0.22783455109E+02  0.51100000000E-03 0. -1.
        -11    1    3    3    0    0  0.10058749344E+02 -0.39216190198E-01  0.74308506056E+01  0.12505899298E+02  0.51100000000E-03 0.  1.
        -12    1    3    3    0    0 -0.19184115642E+02 -0.91501522077E+00 -0.14413208686E+02  0.24012666042E+02  0.00000000000E+00 0.  1.
</event>
<event>
 7    1  0.5979290E-013  0.5930193E+02  0.7816164E-02  0.1266605E+00
        -11   -1    0    0    0    0  0.00000000000E+00  0.00000000000E+00  0.45593999997E+02  0.45594000000E+02  0.51100000000E-03 0.  1.
         11   -1    0    0    0    0 -0.00000000000E+00 -0.00000000000E+00 -0.45593999997E+02  0.45594000000E+02  0.51100000000E-03 0. -1.
    9900012    2    1    2    0    0  0.24529372585E+01 -0.34448698551E+01 -0.31604385569E+02  0.59301933816E+02  0.49999981376E+02 0.  0.
        -12    1    1    2    0    0 -0.24529372585E+01  0.34448698551E+01  0.31604385569E+02  0.31886066184E+02  0.00000000000E+00 0.  1.
         11    1    3    3    0    0 -0.83556423186E+01 -0.49390353432E+01 -0.93974610844E+00  0.97516127736E+01  0.51100000000E-03 0.  1.
        -11    1    3    3    0    0  0.14750226378E+02  0.12001112353E+00 -0.38192787275E+02  0.40942307959E+02  0.51100000000E-03 0. -1.
        -12    1    3    3    0    0 -0.39416468013E+01  0.13741543646E+01  0.75281478146E+01  0.86080130833E+01  0.00000000000E+00 0.  1.
</event>
<event>
 7    1  0.5979290E-013  0.5930191E+02  0.7816164E-02  0.1266605E+00
        -11   -1    0    0    0    0  0.00000000000E+00  0.00000000000E+00  0.45593999997E+02  0.45594000000E+02  0.51100000000E-03 0.  1.
         11   -1    0    0    0    0 -0.00000000000E+00 -0.00000000000E+00 -0.45593999997E+02  0.45594000000E+02  0.51100000000E-03 0. -1.
    9900012    2    1    2    0    0  0.28877035971E+02  0.15250713116E+01 -0.13435547108E+02  0.59301906243E+02  0.49999931089E+02 0.  0.
        -12    1    1    2    0    0 -0.28877035971E+02 -0.15250713116E+01  0.13435547108E+02  0.31886093757E+02  0.00000000000E+00 0.  1.
         11    1    3    3    0    0 -0.14822514050E+01  0.15847630739E+02 -0.63285270808E+01  0.17128768915E+02  0.51100000000E-03 0. -1.
        -11    1    3    3    0    0  0.31626323904E+02 -0.50210358813E+01 -0.39299679483E+01  0.32262669036E+02  0.51100000000E-03 0.  1.
        -12    1    3    3    0    0 -0.12670365276E+01 -0.93015235463E+01 -0.31770520790E+01  0.99104682915E+01  0.00000000000E+00 0.  1.
</event>
<event>
 7    1  0.5979290E-013  0.5930195E+02  0.7816164E-02  0.1266605E+00
        -11   -1    0    0    0    0  0.00000000000E+00  0.00000000000E+00  0.45593999997E+02  0.45594000000E+02  0.51100000000E-03 0.  1.
         11   -1    0    0    0    0 -0.00000000000E+00 -0.00000000000E+00 -0.45593999997E+02  0.45594000000E+02  0.51100000000E-03 0. -1.
    9900012    2    1    2    0    0 -0.14596531327E+02 -0.27279646179E+02  0.77124830632E+01  0.59301949485E+02  0.50000009953E+02 0.  0.
        -12    1    1    2    0    0  0.14596531327E+02  0.27279646179E+02 -0.77124830632E+01  0.31886050515E+02  0.00000000000E+00 0.  1.
         11    1    3    3    0    0  0.75944903935E+01 -0.96022963650E+01 -0.12113610497E+02  0.17222657732E+02  0.51100000000E-03 0. -1.
        -11    1    3    3    0    0 -0.23954161648E+02 -0.12429504344E+02  0.66599384799E+01  0.27796568481E+02  0.51100000000E-03 0.  1.
        -12    1    3    3    0    0  0.17631399273E+01 -0.52478454707E+01  0.13166155080E+02  0.14282723272E+02  0.00000000000E+00 0.  1.
</event>
<event>
 7    1  0.5979290E-013  0.5930195E+02  0.7816164E-02  0.1266605E+00
        -11   -1    0    0    0    0  0.00000000000E+00  0.00000000000E+00  0.45593999997E+02  0.45594000000E+02  0.51100000000E-03 0. -1.
         11   -1    0    0    0    0 -0.00000000000E+00 -0.00000000000E+00 -0.45593999997E+02  0.45594000000E+02  0.51100000000E-03 0.  1.
    9900012    2    1    2    0    0 -0.17422116110E+02  0.14094407572E+02  0.22683427147E+02  0.59301947850E+02  0.50000006972E+02 0.  0.
        -12    1    1    2    0    0  0.17422116110E+02 -0.14094407572E+02 -0.22683427147E+02  0.31886052150E+02  0.00000000000E+00 0.  1.
         11    1    3    3    0    0 -0.24976076727E+02  0.61365083270E+01  0.35096130937E+01  0.25957244219E+02  0.51100000000E-03 0.  1.
        -11    1    3    3    0    0  0.16210981575E+02  0.50293562964E+01  0.75982267575E+01  0.18596327554E+02  0.51100000000E-03 0. -1.
         12    1    3    3    0    0 -0.86570209579E+01  0.29285429484E+01  0.11575587296E+02  0.14748376077E+02  0.00000000000E+00 0. -1.
</event>
<event>
 7    1  0.5979290E-013  0.5930193E+02  0.7816164E-02  0.1266605E+00
        -11   -1    0    0    0    0  0.00000000000E+00  0.00000000000E+00  0.45593999997E+02  0.45594000000E+02  0.51100000000E-03 0.  1.
         11   -1    0    0    0    0 -0.00000000000E+00 -0.00000000000E+00 -0.45593999997E+02  0.45594000000E+02  0.51100000000E-03 0. -1.
    9900012    2    1    2    0    0 -0.16316835812E+02 -0.27300260063E+02  0.22755167200E+01  0.59301932403E+02  0.49999978799E+02 0.  0.
        -12    1    1    2    0    0  0.16316835812E+02  0.27300260063E+02 -0.22755167200E+01  0.31886067597E+02  0.00000000000E+00 0.  1.
         11    1    3    3    0    0  0.10301010343E+02 -0.67691490551E+01 -0.14940346856E+02  0.19368690133E+02  0.51100000000E-03 0. -1.
        -11    1    3    3    0    0 -0.39212079198E+01 -0.34060262857E+01  0.89084178758E+01  0.10311973425E+02  0.51100000000E-03 0.  1.
         12    1    3    3    0    0 -0.22696638235E+02 -0.17125084723E+02  0.83074457004E+01  0.29621268845E+02  0.00000000000E+00 0. -1.
</event>
<event>
 7    1  0.5979290E-013  0.5930192E+02  0.7816164E-02  0.1266605E+00
        -11   -1    0    0    0    0  0.00000000000E+00  0.00000000000E+00  0.45593999997E+02  0.45594000000E+02  0.51100000000E-03 0. -1.
         11   -1    0    0    0    0 -0.00000000000E+00 -0.00000000000E+00 -0.45593999997E+02  0.45594000000E+02  0.51100000000E-03 0.  1.
    9900012    2    1    2    0    0  0.13605503468E+02 -0.43796545957E+00  0.28834359200E+02  0.59301924531E+02  0.49999964443E+02 0.  0.
        -12    1    1    2    0    0 -0.13605503468E+02  0.43796545957E+00 -0.28834359200E+02  0.31886075469E+02  0.00000000000E+00 0.  1.
         11    1    3    3    0    0  0.14885723608E+02 -0.57661364394E+01  0.39630795007E+02  0.42725086424E+02  0.51100000000E-03 0. -1.
        -11    1    3    3    0    0 -0.17763529910E+01 -0.31227209247E+01 -0.55696852288E+01  0.66278359765E+01  0.51100000000E-03 0.  1.
         12    1    3    3    0    0  0.49613285075E+00  0.84508919046E+01 -0.52267505786E+01  0.99490021308E+01  0.00000000000E+00 0. -1.
</event>
<event>
 7    1  0.5979290E-013  0.5930194E+02  0.7816164E-02  0.1266605E+00
        -11   -1    0    0    0    0  0.00000000000E+00  0.00000000000E+00  0.45593999997E+02  0.45594000000E+02  0.51100000000E-03 0. -1.
         11   -1    0    0    0    0 -0.00000000000E+00 -0.00000000000E+00 -0.45593999997E+02  0.45594000000E+02  0.51100000000E-03 0.  1.
    9900012    2    1    2    0    0  0.28924550323E+02  0.85126858953E+01  0.10374281004E+02  0.59301935036E+02  0.49999983601E+02 0.  0.
        -12    1    1    2    0    0 -0.28924550323E+02 -0.85126858953E+01 -0.10374281004E+02  0.31886064964E+02  0.00000000000E+00 0.  1.
         11    1    3    3    0    0 -0.11552969448E+01 -0.20624450900E+01 -0.10207992188E+02  0.10478143707E+02  0.51100000000E-03 0.  1.
        -11    1    3    3    0    0  0.27103300108E+02  0.18316114115E+02  0.78698779496E+01  0.33645265524E+02  0.51100000000E-03 0. -1.
         12    1    3    3    0    0  0.29765471605E+01 -0.77409831297E+01  0.12712395242E+02  0.15178525804E+02  0.00000000000E+00 0. -1.
</event>
<event>
 7    1  0.5979290E-013  0.5930187E+02  0.7816164E-02  0.1266605E+00
        -11   -1    0    0    0    0  0.00000000000E+00  0.00000000000E+00  0.45593999997E+02  0.45594000000E+02  0.51100000000E-03 0.  1.
         11   -1    0    0    0    0 -0.00000000000E+00 -0.00000000000E+00 -0.45593999997E+02  0.45594000000E+02  0.51100000000E-03 0. -1.
    9900012    2    1    2    0    0  0.15972874722E+00  0.13162273159E+02 -0.29042285202E+02  0.59301870136E+02  0.49999865239E+02 0.  0.
        -12    1    1    2    0    0 -0.15972874722E+00 -0.13162273159E+02  0.29042285202E+02  0.31886129864E+02  0.00000000000E+00 0.  1.
         11    1    3    3    0    0 -0.10439435486E+02  0.66088561163E+01 -0.25549807472E+01  0.12616921943E+02  0.51100000000E-03 0. -1.
        -11    1    3    3    0    0  0.21928742848E+02 -0.38688880138E+01 -0.10954972805E+02  0.24816314931E+02  0.51100000000E-03 0.  1.
        -12    1    3    3    0    0 -0.11329578614E+02  0.10422305056E+02 -0.15532331649E+02  0.21868633262E+02  0.00000000000E+00 0.  1.
</event>
<event>
 7    1  0.5979290E-013  0.5930194E+02  0.7816164E-02  0.1266605E+00
        -11   -1    0    0    0    0  0.00000000000E+00  0.00000000000E+00  0.45593999997E+02  0.45594000000E+02  0.51100000000E-03 0. -1.
         11   -1    0    0    0    0 -0.00000000000E+00 -0.00000000000E+00 -0.45593999997E+02  0.45594000000E+02  0.51100000000E-03 0.  1.
    9900012    2    1    2    0    0  0.20748398055E+01  0.31777365822E+02  0.16171220824E+01  0.59301936859E+02  0.49999986926E+02 0.  0.
        -12    1    1    2    0    0 -0.20748398055E+01 -0.31777365822E+02 -0.16171220824E+01  0.31886063141E+02  0.00000000000E+00 0.  1.
         11    1    3    3    0    0 -0.12432386736E+02  0.92400632621E+01  0.78847309252E+01  0.17381369079E+02  0.51100000000E-03 0. -1.
        -11    1    3    3    0    0  0.90749523469E+01  0.28560655078E+02 -0.11686517776E+02  0.32165827777E+02  0.51100000000E-03 0.  1.
         12    1    3    3    0    0  0.54322741949E+01 -0.60233525182E+01  0.54189089336E+01  0.97547400025E+01  0.00000000000E+00 0. -1.
</event>
<event>
 7    1  0.5979290E-013  0.5930195E+02  0.7816164E-02  0.1266605E+00
        -11   -1    0    0    0    0  0.00000000000E+00  0.00000000000E+00  0.45593999997E+02  0.45594000000E+02  0.51100000000E-03 0.  1.
         11   -1    0    0    0    0 -0.00000000000E+00 -0.00000000000E+00 -0.45593999997E+02  0.45594000000E+02  0.51100000000E-03 0. -1.
    9900012    2    1    2    0    0 -0.64550391267E+01  0.30831734960E+02  0.49453628321E+01  0.59301952514E+02  0.50000015477E+02 0.  0.
        -12    1    1    2    0    0  0.64550391267E+01 -0.30831734960E+02 -0.49453628321E+01  0.31886047486E+02  0.00000000000E+00 0.  1.
         11    1    3    3    0    0  0.76218470664E+01 -0.75056535966E+01  0.98774153466E+01  0.14559901195E+02  0.51100000000E-03 0. -1.
        -11    1    3    3    0    0 -0.12756824277E+02  0.18695308348E+02  0.42353000405E+01  0.23025830855E+02  0.51100000000E-03 0.  1.
         12    1    3    3    0    0 -0.13200619156E+01  0.19642080208E+02 -0.91673525551E+01  0.21716220464E+02  0.00000000000E+00 0. -1.
</event>
<event>
 7    1  0.5979290E-013  0.5930214E+02  0.7816164E-02  0.1266604E+00
        -11   -1    0    0    0    0  0.00000000000E+00  0.00000000000E+00  0.45593999997E+02  0.45594000000E+02  0.51100000000E-03 0.  1.
         11   -1    0    0    0    0 -0.00000000000E+00 -0.00000000000E+00 -0.45593999997E+02  0.45594000000E+02  0.51100000000E-03 0. -1.
    9900012    2    1    2    0    0  0.25176677207E+01 -0.13427764969E+02 -0.28810845691E+02  0.59302135542E+02  0.50000349274E+02 0.  0.
        -12    1    1    2    0    0 -0.25176677207E+01  0.13427764969E+02  0.28810845691E+02  0.31885864458E+02  0.00000000000E+00 0.  1.
         11    1    3    3    0    0  0.72285422218E+00 -0.44214616032E+00 -0.23793737877E+02  0.23808821346E+02  0.51100000000E-03 0. -1.
        -11    1    3    3    0    0  0.14952517643E+02 -0.12082340259E+00  0.32782481058E+01  0.15308144664E+02  0.51100000000E-03 0.  1.
        -12    1    3    3    0    0 -0.13157704144E+02 -0.12864795406E+02 -0.82953559202E+01  0.20185169532E+02  0.00000000000E+00 0.  1.
</event>
<event>
 7    1  0.5979290E-013  0.5930207E+02  0.7816164E-02  0.1266604E+00
        -11   -1    0    0    0    0  0.00000000000E+00  0.00000000000E+00  0.45593999997E+02  0.45594000000E+02  0.51100000000E-03 0.  1.
         11   -1    0    0    0    0 -0.00000000000E+00 -0.00000000000E+00 -0.45593999997E+02  0.45594000000E+02  0.51100000000E-03 0. -1.
    9900012    2    1    2    0    0  0.57867985779E+01  0.22970804034E+02 -0.21344033163E+02  0.59302068503E+02  0.50000227012E+02 0.  0.
        -12    1    1    2    0    0 -0.57867985779E+01 -0.22970804034E+02  0.21344033163E+02  0.31885931497E+02  0.00000000000E+00 0.  1.
         11    1    3    3    0    0  0.70897531147E+01  0.28772652389E+02 -0.31294193893E+02  0.43098221499E+02  0.51100000000E-03 0. -1.
        -11    1    3    3    0    0  0.39692792227E+01 -0.54737976342E+01  0.82236878966E+01  0.10646439826E+02  0.51100000000E-03 0.  1.
         12    1    3    3    0    0 -0.52722337596E+01 -0.32805072066E+00  0.17264728331E+01  0.55574071773E+01  0.00000000000E+00 0. -1.
</event>
<event>
 7    1  0.5979290E-013  0.5930196E+02  0.7816164E-02  0.1266605E+00
        -11   -1    0    0    0    0  0.00000000000E+00  0.00000000000E+00  0.45593999997E+02  0.45594000000E+02  0.51100000000E-03 0.  1.
         11   -1    0    0    0    0 -0.00000000000E+00 -0.00000000000E+00 -0.45593999997E+02  0.45594000000E+02  0.51100000000E-03 0. -1.
    9900012    2    1    2    0    0 -0.16729082238E+02 -0.42405397574E+01 -0.26811847708E+02  0.59301959991E+02  0.50000029113E+02 0.  0.
        -12    1    1    2    0    0  0.16729082238E+02  0.42405397574E+01  0.26811847708E+02  0.31886040009E+02  0.00000000000E+00 0.  1.
         11    1    3    3    0    0 -0.27639012470E+02 -0.16141847572E+02 -0.21033977300E+02  0.38300162593E+02  0.51100000000E-03 0. -1.
        -11    1    3    3    0    0  0.45769630727E+01  0.12652057486E+02 -0.20357047416E+01  0.13607617119E+02  0.51100000000E-03 0.  1.
         12    1    3    3    0    0  0.63329671596E+01 -0.75074967197E+00 -0.37421656669E+01  0.73941802786E+01  0.00000000000E+00 0. -1.
</event>
<event>
 7    1  0.5979290E-013  0.5930196E+02  0.7816164E-02  0.1266605E+00
        -11   -1    0    0    0    0  0.00000000000E+00  0.00000000000E+00  0.45593999997E+02  0.45594000000E+02  0.51100000000E-03 0.  1.
         11   -1    0    0    0    0 -0.00000000000E+00 -0.00000000000E+00 -0.45593999997E+02  0.45594000000E+02  0.51100000000E-03 0. -1.
    9900012    2    1    2    0    0  0.22882151724E+02  0.92777800225E+01 -0.20175460560E+02  0.59301964209E+02  0.50000036806E+02 0.  0.
        -12    1    1    2    0    0 -0.22882151724E+02 -0.92777800225E+01  0.20175460560E+02  0.31886035791E+02  0.00000000000E+00 0.  1.
         11    1    3    3    0    0 -0.69864983304E+00 -0.12001382629E+02 -0.99697705003E+01  0.15617862232E+02  0.51100000000E-03 0.  1.
        -11    1    3    3    0    0  0.20612533314E+02  0.20526774968E+02  0.38094704808E+01  0.29338321115E+02  0.51100000000E-03 0. -1.
         12    1    3    3    0    0  0.29682682430E+01  0.75238768396E+00 -0.14015160540E+02  0.14345780862E+02  0.00000000000E+00 0. -1.
</event>
<event>
 7    1  0.5979290E-013  0.5930195E+02  0.7816164E-02  0.1266605E+00
        -11   -1    0    0    0    0  0.00000000000E+00  0.00000000000E+00  0.45593999997E+02  0.45594000000E+02  0.51100000000E-03 0.  1.
         11   -1    0    0    0    0 -0.00000000000E+00 -0.00000000000E+00 -0.45593999997E+02  0.45594000000E+02  0.51100000000E-03 0. -1.
    9900012    2    1    2    0    0  0.16299933904E+02 -0.26504144097E+02 -0.69686708907E+01  0.59301954877E+02  0.50000019787E+02 0.  0.
        -12    1    1    2    0    0 -0.16299933904E+02  0.26504144097E+02  0.69686708907E+01  0.31886045123E+02  0.00000000000E+00 0.  1.
         11    1    3    3    0    0 -0.39674887182E+01  0.96105839449E+01  0.56931762454E+01  0.11853967543E+02  0.51100000000E-03 0.  1.
        -11    1    3    3    0    0  0.22015468700E+02 -0.33067636261E+02 -0.63581194034E+01  0.40231518895E+02  0.51100000000E-03 0. -1.
        -12    1    3    3    0    0 -0.17480460771E+01 -0.30470917806E+01 -0.63037277326E+01  0.72164684392E+01  0.00000000000E+00 0.  1.
</event>
<event>
 7    1  0.5979290E-013  0.5930194E+02  0.7816164E-02  0.1266605E+00
        -11   -1    0    0    0    0  0.00000000000E+00  0.00000000000E+00  0.45593999997E+02  0.45594000000E+02  0.51100000000E-03 0.  1.
         11   -1    0    0    0    0 -0.00000000000E+00 -0.00000000000E+00 -0.45593999997E+02  0.45594000000E+02  0.51100000000E-03 0. -1.
    9900012    2    1    2    0    0  0.16071277077E+02 -0.25348918038E+02 -0.10764176938E+02  0.59301935682E+02  0.49999984779E+02 0.  0.
        -12    1    1    2    0    0 -0.16071277077E+02  0.25348918038E+02  0.10764176938E+02  0.31886064318E+02  0.00000000000E+00 0.  1.
         11    1    3    3    0    0  0.95919072709E+01  0.51910034529E+01  0.97757899246E+01  0.14646408121E+02  0.51100000000E-03 0.  1.
        -11    1    3    3    0    0  0.12603307315E+02 -0.18301952402E+02 -0.21522284053E+02  0.30935635246E+02  0.51100000000E-03 0. -1.
        -12    1    3    3    0    0 -0.61239375090E+01 -0.12237969089E+02  0.98231719065E+00  0.13719892314E+02  0.00000000000E+00 0.  1.
</event>
<event>
 7    1  0.5979290E-013  0.5930195E+02  0.7816164E-02  0.1266605E+00
        -11   -1    0    0    0    0  0.00000000000E+00  0.00000000000E+00  0.45593999997E+02  0.45594000000E+02  0.51100000000E-03 0. -1.
         11   -1    0    0    0    0 -0.00000000000E+00 -0.00000000000E+00 -0.45593999997E+02  0.45594000000E+02  0.51100000000E-03 0.  1.
    9900012    2    1    2    0    0  0.57865539084E+01 -0.75702621222E+01  0.30429048928E+02  0.59301951430E+02  0.50000013500E+02 0.  0.
        -12    1    1    2    0    0 -0.57865539084E+01  0.75702621222E+01 -0.30429048928E+02  0.31886048570E+02  0.00000000000E+00 0.  1.
         11    1    3    3    0    0 -0.14140661719E+01  0.16154369441E+01  0.46094306423E+01  0.50848865048E+01  0.51100000000E-03 0. -1.
        -11    1    3    3    0    0 -0.12983531804E+02 -0.20390456701E+02  0.96316045992E+01  0.26021349504E+02  0.51100000000E-03 0.  1.
        -12    1    3    3    0    0  0.20184151885E+02  0.11204757635E+02  0.16188013687E+02  0.28195715421E+02  0.00000000000E+00 0.  1.
</event>
<event>
 7    1  0.5979290E-013  0.5930185E+02  0.7816164E-02  0.1266605E+00
        -11   -1    0    0    0    0  0.00000000000E+00  0.00000000000E+00  0.45593999997E+02  0.45594000000E+02  0.51100000000E-03 0. -1.
         11   -1    0    0    0    0 -0.00000000000E+00 -0.00000000000E+00 -0.45593999997E+02  0.45594000000E+02  0.51100000000E-03 0.  1.
    9900012    2    1    2    0    0 -0.19909362911E+02 -0.18116994316E+02  0.17091461042E+02  0.59301854810E+02  0.49999837288E+02 0.  0.
        -12    1    1    2    0    0  0.19909362911E+02  0.18116994316E+02 -0.17091461042E+02  0.31886145190E+02  0.00000000000E+00 0.  1.
         11    1    3    3    0    0 -0.72089014758E+01 -0.33484497386E+00  0.31297352052E+02  0.32118602513E+02  0.51100000000E-03 0. -1.
        -11    1    3    3    0    0 -0.45743327386E+01 -0.66987602306E+01 -0.98631026416E+01  0.12770227195E+02  0.51100000000E-03 0.  1.
         12    1    3    3    0    0 -0.81261286961E+01 -0.11083389111E+02 -0.43427883689E+01  0.14413025102E+02  0.00000000000E+00 0. -1.
</event>
<event>
 7    1  0.5979290E-013  0.5930190E+02  0.7816164E-02  0.1266605E+00
        -11   -1    0    0    0    0  0.00000000000E+00  0.00000000000E+00  0.45593999997E+02  0.45594000000E+02  0.51100000000E-03 0. -1.
         11   -1    0    0    0    0 -0.00000000000E+00 -0.00000000000E+00 -0.45593999997E+02  0.45594000000E+02  0.51100000000E-03 0.  1.
    9900012    2    1    2    0    0  0.16082189909E+02 -0.25883705307E+02 -0.93872491304E+01  0.59301898342E+02  0.49999916681E+02 0.  0.
        -12    1    1    2    0    0 -0.16082189909E+02  0.25883705307E+02  0.93872491304E+01  0.31886101658E+02  0.00000000000E+00 0.  1.
         11    1    3    3    0    0  0.15741004309E+01 -0.15929470016E+02 -0.40281106005E+01  0.16506104399E+02  0.51100000000E-03 0. -1.
        -11    1    3    3    0    0 -0.96106563678E+01  0.79069385343E+01 -0.17295046169E+01  0.12564854925E+02  0.51100000000E-03 0.  1.
        -12    1    3    3    0    0  0.24118745846E+02 -0.17861173825E+02 -0.36296339130E+01  0.30230939019E+02  0.00000000000E+00 0.  1.
</event>
<event>
 7    1  0.5979290E-013  0.5930193E+02  0.7816164E-02  0.1266605E+00
        -11   -1    0    0    0    0  0.00000000000E+00  0.00000000000E+00  0.45593999997E+02  0.45594000000E+02  0.51100000000E-03 0.  1.
         11   -1    0    0    0    0 -0.00000000000E+00 -0.00000000000E+00 -0.45593999997E+02  0.45594000000E+02  0.51100000000E-03 0. -1.
    9900012    2    1    2    0    0  0.28704625769E+02 -0.13057100414E+02 -0.47199310203E+01  0.59301934695E+02  0.49999982980E+02 0.  0.
        -12    1    1    2    0    0 -0.28704625769E+02  0.13057100414E+02  0.47199310203E+01  0.31886065305E+02  0.00000000000E+00 0.  1.
         11    1    3    3    0    0  0.16798584085E+02  0.11189814614E+02 -0.20890207816E+01  0.20292076938E+02  0.51100000000E-03 0. -1.
        -11    1    3    3    0    0  0.40954465906E+01 -0.24245401419E+02 -0.11539652092E+02  0.27162027601E+02  0.51100000000E-03 0.  1.
        -12    1    3    3    0    0  0.78105950934E+01 -0.15136084080E-02  0.89087418533E+01  0.11847830156E+02  0.00000000000E+00 0.  1.
</event>
<event>
 7    1  0.5979290E-013  0.5930227E+02  0.7816164E-02  0.1266604E+00
        -11   -1    0    0    0    0  0.00000000000E+00  0.00000000000E+00  0.45593999997E+02  0.45594000000E+02  0.51100000000E-03 0.  1.
         11   -1    0    0    0    0 -0.00000000000E+00 -0.00000000000E+00 -0.45593999997E+02  0.45594000000E+02  0.51100000000E-03 0. -1.
    9900012    2    1    2    0    0 -0.11472807817E+02  0.28562080234E+02 -0.83235728220E+01  0.59302272613E+02  0.50000599257E+02 0.  0.
        -12    1    1    2    0    0  0.11472807817E+02 -0.28562080234E+02  0.83235728220E+01  0.31885727387E+02  0.00000000000E+00 0.  1.
         11    1    3    3    0    0  0.14171751725E+02  0.19147601843E+02 -0.10219041412E+02  0.25920995562E+02  0.51100000000E-03 0. -1.
        -11    1    3    3    0    0 -0.22253752326E+02  0.14827049611E+02  0.78665985177E-01  0.26740925215E+02  0.51100000000E-03 0.  1.
        -12    1    3    3    0    0 -0.33908072166E+01 -0.54125712203E+01  0.18168026043E+01  0.66403518354E+01  0.00000000000E+00 0.  1.
</event>
<event>
 7    1  0.5979290E-013  0.5930194E+02  0.7816164E-02  0.1266605E+00
        -11   -1    0    0    0    0  0.00000000000E+00  0.00000000000E+00  0.45593999997E+02  0.45594000000E+02  0.51100000000E-03 0.  1.
         11   -1    0    0    0    0 -0.00000000000E+00 -0.00000000000E+00 -0.45593999997E+02  0.45594000000E+02  0.51100000000E-03 0. -1.
    9900012    2    1    2    0    0  0.21687331153E+01 -0.88552444590E+01 -0.30554897662E+02  0.59301944601E+02  0.50000001046E+02 0.  0.
        -12    1    1    2    0    0 -0.21687331153E+01  0.88552444590E+01  0.30554897662E+02  0.31886055399E+02  0.00000000000E+00 0.  1.
         11    1    3    3    0    0  0.13394629600E+02 -0.79911423632E+01 -0.15268861493E+02  0.21826877696E+02  0.51100000000E-03 0. -1.
        -11    1    3    3    0    0 -0.12319344081E+02  0.12158747665E+02 -0.17040076172E+02  0.24289207060E+02  0.51100000000E-03 0.  1.
         12    1    3    3    0    0  0.10934475964E+01 -0.13022849761E+02  0.17540400039E+01  0.13185859846E+02  0.00000000000E+00 0. -1.
</event>
<event>
 7    1  0.5979290E-013  0.5930192E+02  0.7816164E-02  0.1266605E+00
        -11   -1    0    0    0    0  0.00000000000E+00  0.00000000000E+00  0.45593999997E+02  0.45594000000E+02  0.51100000000E-03 0.  1.
         11   -1    0    0    0    0 -0.00000000000E+00 -0.00000000000E+00 -0.45593999997E+02  0.45594000000E+02  0.51100000000E-03 0. -1.
    9900012    2    1    2    0    0 -0.15523577874E+02 -0.45465455123E+01 -0.27478533226E+02  0.59301916290E+02  0.49999949412E+02 0.  0.
        -12    1    1    2    0    0  0.15523577874E+02  0.45465455123E+01  0.27478533226E+02  0.31886083710E+02  0.00000000000E+00 0.  1.
         11    1    3    3    0    0 -0.60290945186E+01 -0.10141399354E+02 -0.65622138088E+01  0.13500393028E+02  0.51100000000E-03 0. -1.
        -11    1    3    3    0    0 -0.32416408597E+01  0.21724379620E+02 -0.55310829767E+01  0.22650602299E+02  0.51100000000E-03 0.  1.
        -12    1    3    3    0    0 -0.62528424956E+01 -0.16129525778E+02 -0.15385236441E+02  0.23150920963E+02  0.00000000000E+00 0.  1.
</event>
<event>
 7    1  0.7627618E-013  0.5930195E+02  0.7816164E-02  0.1266605E+00
        -11   -1    0    0    0    0  0.00000000000E+00  0.00000000000E+00  0.45593999997E+02  0.45594000000E+02  0.51100000000E-03 0.  1.
         11   -1    0    0    0    0 -0.00000000000E+00 -0.00000000000E+00 -0.45593999997E+02  0.45594000000E+02  0.51100000000E-03 0. -1.
    9900012    2    1    2    0    0 -0.68344782418E+01 -0.29346309103E+02  0.10430934607E+02  0.59301947444E+02  0.50000006230E+02 0.  0.
        -12    1    1    2    0    0  0.68344782418E+01  0.29346309103E+02 -0.10430934607E+02  0.31886052556E+02  0.00000000000E+00 0.  1.
         11    1    3    3    0    0 -0.21926878376E+02 -0.15314231522E+02  0.10942100362E+02  0.28897114787E+02  0.51100000000E-03 0. -1.
        -11    1    3    3    0    0  0.18887597450E+01  0.98031742133E-01 -0.90638279175E+01  0.92590496476E+01  0.51100000000E-03 0.  1.
         12    1    3    3    0    0  0.13203640389E+02 -0.14130109324E+02  0.85526621624E+01  0.21145783009E+02  0.00000000000E+00 0. -1.
</event>
<event>
 7    1  0.5979290E-013  0.5930197E+02  0.7816164E-02  0.1266605E+00
        -11   -1    0    0    0    0  0.00000000000E+00  0.00000000000E+00  0.45593999997E+02  0.45594000000E+02  0.51100000000E-03 0.  1.
         11   -1    0    0    0    0 -0.00000000000E+00 -0.00000000000E+00 -0.45593999997E+02  0.45594000000E+02  0.51100000000E-03 0. -1.
    9900012    2    1    2    0    0 -0.38618882795E+01  0.29539800769E+02  0.11366837729E+02  0.59301968410E+02  0.50000044468E+02 0.  0.
        -12    1    1    2    0    0  0.38618882795E+01 -0.29539800769E+02 -0.11366837729E+02  0.31886031590E+02  0.00000000000E+00 0.  1.
         11    1    3    3    0    0  0.14258573116E+02  0.12254948300E+02  0.24455947370E+01  0.18959736259E+02  0.51100000000E-03 0. -1.
        -11    1    3    3    0    0 -0.23811807564E+02  0.37551232891E+01  0.88047524913E+01  0.25663725315E+02  0.51100000000E-03 0.  1.
        -12    1    3    3    0    0  0.56913461688E+01  0.13529729180E+02  0.11649050102E+00  0.14678506836E+02  0.00000000000E+00 0.  1.
</event>
<event>
 7    1  0.5979290E-013  0.5930168E+02  0.7816164E-02  0.1266606E+00
        -11   -1    0    0    0    0  0.00000000000E+00  0.00000000000E+00  0.45593999997E+02  0.45594000000E+02  0.51100000000E-03 0. -1.
         11   -1    0    0    0    0 -0.00000000000E+00 -0.00000000000E+00 -0.45593999997E+02  0.45594000000E+02  0.51100000000E-03 0.  1.
    9900012    2    1    2    0    0 -0.54796529441E+00 -0.19745122162E+02  0.25031320637E+02  0.59301684315E+02  0.49999526344E+02 0.  0.
        -12    1    1    2    0    0  0.54796529441E+00  0.19745122162E+02 -0.25031320637E+02  0.31886315685E+02  0.00000000000E+00 0.  1.
         11    1    3    3    0    0 -0.89892190553E+01 -0.21660697217E+02  0.25430427347E+02  0.34593330260E+02  0.51100000000E-03 0. -1.
        -11    1    3    3    0    0  0.14177589287E+02  0.61578788304E+01  0.44462918622E+01  0.16083936746E+02  0.51100000000E-03 0.  1.
         12    1    3    3    0    0 -0.57363355258E+01 -0.42423037752E+01 -0.48453985727E+01  0.86244173087E+01  0.00000000000E+00 0. -1.
</event>
<event>
 7    1  0.5979290E-013  0.5930192E+02  0.7816164E-02  0.1266605E+00
        -11   -1    0    0    0    0  0.00000000000E+00  0.00000000000E+00  0.45593999997E+02  0.45594000000E+02  0.51100000000E-03 0.  1.
         11   -1    0    0    0    0 -0.00000000000E+00 -0.00000000000E+00 -0.45593999997E+02  0.45594000000E+02  0.51100000000E-03 0. -1.
    9900012    2    1    2    0    0  0.12359096909E+02  0.64417548656E+01 -0.28678889498E+02  0.59301918632E+02  0.49999953684E+02 0.  0.
        -12    1    1    2    0    0 -0.12359096909E+02 -0.64417548656E+01  0.28678889498E+02  0.31886081368E+02  0.00000000000E+00 0.  1.
         11    1    3    3    0    0  0.99682172119E+01  0.10692463570E+02  0.68800409466E+01  0.16156394872E+02  0.51100000000E-03 0. -1.
        -11    1    3    3    0    0  0.60971445943E+01 -0.13305409245E+02 -0.20545999245E+02  0.25225922632E+02  0.51100000000E-03 0.  1.
         12    1    3    3    0    0 -0.37062648968E+01  0.90547005407E+01 -0.15012931200E+02  0.17919601128E+02  0.00000000000E+00 0. -1.
</event>
<event>
 7    1  0.5979290E-013  0.5930195E+02  0.7816164E-02  0.1266605E+00
        -11   -1    0    0    0    0  0.00000000000E+00  0.00000000000E+00  0.45593999997E+02  0.45594000000E+02  0.51100000000E-03 0. -1.
         11   -1    0    0    0    0 -0.00000000000E+00 -0.00000000000E+00 -0.45593999997E+02  0.45594000000E+02  0.51100000000E-03 0.  1.
    9900012    2    1    2    0    0 -0.29730660990E+02  0.11516728692E+02  0.41568311410E+00  0.59301952344E+02  0.50000015167E+02 0.  0.
        -12    1    1    2    0    0  0.29730660990E+02 -0.11516728692E+02 -0.41568311410E+00  0.31886047656E+02  0.00000000000E+00 0.  1.
         11    1    3    3    0    0 -0.10693743908E+02  0.68893389094E+01  0.19100560439E+02  0.22948868354E+02  0.51100000000E-03 0. -1.
        -11    1    3    3    0    0 -0.11035214698E+02  0.14660364584E+02 -0.11149295600E+02  0.21471121205E+02  0.51100000000E-03 0.  1.
        -12    1    3    3    0    0 -0.80017023835E+01 -0.10032974802E+02 -0.75355817250E+01  0.14881962785E+02  0.00000000000E+00 0.  1.
</event>
<event>
 7    1  0.5979290E-013  0.5930192E+02  0.7816164E-02  0.1266605E+00
        -11   -1    0    0    0    0  0.00000000000E+00  0.00000000000E+00  0.45593999997E+02  0.45594000000E+02  0.51100000000E-03 0. -1.
         11   -1    0    0    0    0 -0.00000000000E+00 -0.00000000000E+00 -0.45593999997E+02  0.45594000000E+02  0.51100000000E-03 0.  1.
    9900012    2    1    2    0    0  0.14634225506E+02 -0.26504370174E+02  0.10003988779E+02  0.59301921753E+02  0.49999959377E+02 0.  0.
        -12    1    1    2    0    0 -0.14634225506E+02  0.26504370174E+02 -0.10003988779E+02  0.31886078247E+02  0.00000000000E+00 0.  1.
         11    1    3    3    0    0  0.57529599113E+01 -0.29555463777E+02 -0.68437431076E+01  0.30878128292E+02  0.51100000000E-03 0. -1.
        -11    1    3    3    0    0  0.99346035940E+01  0.10846057855E+02  0.86526111999E+01  0.17064612519E+02  0.51100000000E-03 0.  1.
         12    1    3    3    0    0 -0.10533379996E+01 -0.77949642521E+01  0.81951206863E+01  0.11359180943E+02  0.00000000000E+00 0. -1.
</event>
<event>
 7    1  0.5979290E-013  0.5930199E+02  0.7816164E-02  0.1266605E+00
        -11   -1    0    0    0    0  0.00000000000E+00  0.00000000000E+00  0.45593999997E+02  0.45594000000E+02  0.51100000000E-03 0.  1.
         11   -1    0    0    0    0 -0.00000000000E+00 -0.00000000000E+00 -0.45593999997E+02  0.45594000000E+02  0.51100000000E-03 0. -1.
    9900012    2    1    2    0    0 -0.10866309733E+02 -0.18705640770E+02 -0.23425197549E+02  0.59301991093E+02  0.50000085835E+02 0.  0.
        -12    1    1    2    0    0  0.10866309733E+02  0.18705640770E+02  0.23425197549E+02  0.31886008907E+02  0.00000000000E+00 0.  1.
         11    1    3    3    0    0  0.84908859040E+00 -0.72862767970E+01 -0.17108664724E+02  0.18614972197E+02  0.51100000000E-03 0. -1.
        -11    1    3    3    0    0 -0.18360706527E+01  0.14905977179E+01  0.14265042229E+02  0.14459753354E+02  0.51100000000E-03 0.  1.
        -12    1    3    3    0    0 -0.98793276711E+01 -0.12909961691E+02 -0.20581575054E+02  0.26227265542E+02  0.00000000000E+00 0.  1.
</event>
<event>
 7    1  0.5979290E-013  0.5930193E+02  0.7816164E-02  0.1266605E+00
        -11   -1    0    0    0    0  0.00000000000E+00  0.00000000000E+00  0.45593999997E+02  0.45594000000E+02  0.51100000000E-03 0.  1.
         11   -1    0    0    0    0 -0.00000000000E+00 -0.00000000000E+00 -0.45593999997E+02  0.45594000000E+02  0.51100000000E-03 0. -1.
    9900012    2    1    2    0    0 -0.11731979212E+02  0.33656120596E+01 -0.29457674435E+02  0.59301933077E+02  0.49999980028E+02 0.  0.
        -12    1    1    2    0    0  0.11731979212E+02 -0.33656120596E+01  0.29457674435E+02  0.31886066923E+02  0.00000000000E+00 0.  1.
         11    1    3    3    0    0  0.41548913813E+01  0.54384454194E+01 -0.18929927114E+02  0.20129131918E+02  0.51100000000E-03 0. -1.
        -11    1    3    3    0    0 -0.23847514407E+02 -0.91169699908E+00  0.23588294641E+01  0.23981226230E+02  0.51100000000E-03 0.  1.
        -12    1    3    3    0    0  0.79606438138E+01 -0.11611363606E+01 -0.12886576785E+02  0.15191574928E+02  0.00000000000E+00 0.  1.
</event>
<event>
 7    1  0.5979290E-013  0.5930195E+02  0.7816164E-02  0.1266605E+00
        -11   -1    0    0    0    0  0.00000000000E+00  0.00000000000E+00  0.45593999997E+02  0.45594000000E+02  0.51100000000E-03 0.  1.
         11   -1    0    0    0    0 -0.00000000000E+00 -0.00000000000E+00 -0.45593999997E+02  0.45594000000E+02  0.51100000000E-03 0. -1.
    9900012    2    1    2    0    0 -0.12390063773E+02 -0.17249537177E+02 -0.23783612116E+02  0.59301946334E+02  0.50000004206E+02 0.  0.
        -12    1    1    2    0    0  0.12390063773E+02  0.17249537177E+02  0.23783612116E+02  0.31886053666E+02  0.00000000000E+00 0.  1.
         11    1    3    3    0    0  0.15657883199E+01  0.62939720457E+01 -0.75091696593E+01  0.99223689917E+01  0.51100000000E-03 0. -1.
        -11    1    3    3    0    0 -0.92455905931E+01 -0.33948430099E+02 -0.11756985832E+02  0.37097217789E+02  0.51100000000E-03 0.  1.
        -12    1    3    3    0    0 -0.47102615002E+01  0.10404920876E+02 -0.45174566243E+01  0.12282359553E+02  0.00000000000E+00 0.  1.
</event>
<event>
 7    1  0.5979290E-013  0.5930194E+02  0.7816164E-02  0.1266605E+00
        -11   -1    0    0    0    0  0.00000000000E+00  0.00000000000E+00  0.45593999997E+02  0.45594000000E+02  0.51100000000E-03 0.  1.
         11   -1    0    0    0    0 -0.00000000000E+00 -0.00000000000E+00 -0.45593999997E+02  0.45594000000E+02  0.51100000000E-03 0. -1.
    9900012    2    1    2    0    0 -0.14056706806E+02  0.78136331665E+01 -0.27533202818E+02  0.59301935224E+02  0.49999983944E+02 0.  0.
        -12    1    1    2    0    0  0.14056706806E+02 -0.78136331665E+01  0.27533202818E+02  0.31886064776E+02  0.00000000000E+00 0.  1.
         11    1    3    3    0    0  0.14010968257E+01 -0.10654119828E+02 -0.88571928851E+01  0.13925631321E+02  0.51100000000E-03 0. -1.
        -11    1    3    3    0    0  0.20373692035E+01  0.11940046233E+02  0.67217365160E+01  0.13852700797E+02  0.51100000000E-03 0.  1.
        -12    1    3    3    0    0 -0.17495172835E+02  0.65277067618E+01 -0.25397746449E+02  0.31523603106E+02  0.00000000000E+00 0.  1.
</event>
<event>
 7    1  0.5979290E-013  0.5930193E+02  0.7816164E-02  0.1266605E+00
        -11   -1    0    0    0    0  0.00000000000E+00  0.00000000000E+00  0.45593999997E+02  0.45594000000E+02  0.51100000000E-03 0. -1.
         11   -1    0    0    0    0 -0.00000000000E+00 -0.00000000000E+00 -0.45593999997E+02  0.45594000000E+02  0.51100000000E-03 0.  1.
    9900012    2    1    2    0    0  0.20115097292E+02 -0.20959998355E+02  0.13144684792E+02  0.59301930810E+02  0.49999975895E+02 0.  0.
        -12    1    1    2    0    0 -0.20115097292E+02  0.20959998355E+02 -0.13144684792E+02  0.31886069190E+02  0.00000000000E+00 0.  1.
         11    1    3    3    0    0  0.10452900124E+02 -0.52569003281E+01 -0.41029853342E+01  0.12398895555E+02  0.51100000000E-03 0. -1.
        -11    1    3    3    0    0 -0.99515703326E+01 -0.18684667280E+02  0.88717546174E+00  0.21188148197E+02  0.51100000000E-03 0.  1.
        -12    1    3    3    0    0  0.19613767501E+02  0.29815692538E+01  0.16360494664E+02  0.25714887059E+02  0.00000000000E+00 0.  1.
</event>
<event>
 7    1  0.5979290E-013  0.5930196E+02  0.7816164E-02  0.1266605E+00
        -11   -1    0    0    0    0  0.00000000000E+00  0.00000000000E+00  0.45593999997E+02  0.45594000000E+02  0.51100000000E-03 0.  1.
         11   -1    0    0    0    0 -0.00000000000E+00 -0.00000000000E+00 -0.45593999997E+02  0.45594000000E+02  0.51100000000E-03 0. -1.
    9900012    2    1    2    0    0 -0.56970386953E+01 -0.18803890788E+02 -0.25113287846E+02  0.59301956265E+02  0.50000022317E+02 0.  0.
        -12    1    1    2    0    0  0.56970386953E+01  0.18803890788E+02  0.25113287846E+02  0.31886043735E+02  0.00000000000E+00 0.  1.
         11    1    3    3    0    0 -0.12337420503E+02 -0.31442362853E+02 -0.18562570694E+02  0.38540928342E+02  0.51100000000E-03 0. -1.
        -11    1    3    3    0    0  0.94918011319E+01  0.40070497597E+01 -0.16509790559E+01  0.10434388751E+02  0.51100000000E-03 0.  1.
        -12    1    3    3    0    0 -0.28514193244E+01  0.86314223050E+01 -0.48997380958E+01  0.10326639171E+02  0.00000000000E+00 0.  1.
</event>
<event>
 7    1  0.5979290E-013  0.5930183E+02  0.7816164E-02  0.1266605E+00
        -11   -1    0    0    0    0  0.00000000000E+00  0.00000000000E+00  0.45593999997E+02  0.45594000000E+02  0.51100000000E-03 0.  1.
         11   -1    0    0    0    0 -0.00000000000E+00 -0.00000000000E+00 -0.45593999997E+02  0.45594000000E+02  0.51100000000E-03 0. -1.
    9900012    2    1    2    0    0 -0.43820001286E+01 -0.85204637338E+00 -0.31572141627E+02  0.59301826899E+02  0.49999786384E+02 0.  0.
        -12    1    1    2    0    0  0.43820001286E+01  0.85204637338E+00  0.31572141627E+02  0.31886173101E+02  0.00000000000E+00 0.  1.
         11    1    3    3    0    0  0.89444988153E+01 -0.42896566628E+01 -0.16876571298E+02  0.19576104627E+02  0.51100000000E-03 0. -1.
        -11    1    3    3    0    0 -0.18254341765E+02  0.14161572306E+02 -0.33324701485E+01  0.23342589424E+02  0.51100000000E-03 0.  1.
        -12    1    3    3    0    0  0.49278428214E+01 -0.10723962016E+02 -0.11363100180E+02  0.16383132848E+02  0.00000000000E+00 0.  1.
</event>
<event>
 7    1  0.5979290E-013  0.5930195E+02  0.7816164E-02  0.1266605E+00
        -11   -1    0    0    0    0  0.00000000000E+00  0.00000000000E+00  0.45593999997E+02  0.45594000000E+02  0.51100000000E-03 0. -1.
         11   -1    0    0    0    0 -0.00000000000E+00 -0.00000000000E+00 -0.45593999997E+02  0.45594000000E+02  0.51100000000E-03 0.  1.
    9900012    2    1    2    0    0 -0.27020326985E+02  0.16308405832E+02  0.45451211999E+01  0.59301948224E+02  0.50000007653E+02 0.  0.
        -12    1    1    2    0    0  0.27020326985E+02 -0.16308405832E+02 -0.45451211999E+01  0.31886051776E+02  0.00000000000E+00 0.  1.
         11    1    3    3    0    0 -0.16310633432E+02 -0.87837353335E+01 -0.13471221724E+02  0.22905557936E+02  0.51100000000E-03 0. -1.
        -11    1    3    3    0    0 -0.89469196875E+00  0.84915406571E+00  0.84619883863E+01  0.85514200024E+01  0.51100000000E-03 0.  1.
         12    1    3    3    0    0 -0.98150015837E+01  0.24242987100E+02  0.95543545371E+01  0.27844970286E+02  0.00000000000E+00 0. -1.
</event>
<event>
 7    1  0.5979290E-013  0.5930194E+02  0.7816164E-02  0.1266605E+00
        -11   -1    0    0    0    0  0.00000000000E+00  0.00000000000E+00  0.45593999997E+02  0.45594000000E+02  0.51100000000E-03 0.  1.
         11   -1    0    0    0    0 -0.00000000000E+00 -0.00000000000E+00 -0.45593999997E+02  0.45594000000E+02  0.51100000000E-03 0. -1.
    9900012    2    1    2    0    0  0.17821867565E+02 -0.22960091760E+02 -0.13112437626E+02  0.59301940387E+02  0.49999993360E+02 0.  0.
        -12    1    1    2    0    0 -0.17821867565E+02  0.22960091760E+02  0.13112437626E+02  0.31886059613E+02  0.00000000000E+00 0.  1.
         11    1    3    3    0    0  0.32176416763E+02 -0.51156721478E+01 -0.14000227827E+02  0.35461222155E+02  0.51100000000E-03 0. -1.
        -11    1    3    3    0    0 -0.59879492498E+00 -0.27731751097E+01  0.18935761497E+01  0.34109656180E+01  0.51100000000E-03 0.  1.
         12    1    3    3    0    0 -0.13755754273E+02 -0.15071244503E+02 -0.10057859487E+01  0.20429752614E+02  0.00000000000E+00 0. -1.
</event>
<event>
 7    1  0.5979290E-013  0.5930189E+02  0.7816164E-02  0.1266605E+00
        -11   -1    0    0    0    0  0.00000000000E+00  0.00000000000E+00  0.45593999997E+02  0.45594000000E+02  0.51100000000E-03 0. -1.
         11   -1    0    0    0    0 -0.00000000000E+00 -0.00000000000E+00 -0.45593999997E+02  0.45594000000E+02  0.51100000000E-03 0.  1.
    9900012    2    1    2    0    0 -0.17687385366E+02  0.16244976210E+02  0.20975729402E+02  0.59301888963E+02  0.49999899574E+02 0.  0.
        -12    1    1    2    0    0  0.17687385366E+02 -0.16244976210E+02 -0.20975729402E+02  0.31886111037E+02  0.00000000000E+00 0.  1.
         11    1    3    3    0    0 -0.22025342704E+02  0.10484801648E+02  0.10298670071E+02  0.26478470354E+02  0.51100000000E-03 0. -1.
        -11    1    3    3    0    0  0.43566688722E+00 -0.11492506435E+02  0.98055804127E+01  0.15113468076E+02  0.51100000000E-03 0.  1.
         12    1    3    3    0    0  0.39022904505E+01  0.17252680997E+02  0.87147891865E+00  0.17709950532E+02  0.00000000000E+00 0. -1.
</event>
<event>
 7    1  0.5979290E-013  0.5930187E+02  0.7816164E-02  0.1266605E+00
        -11   -1    0    0    0    0  0.00000000000E+00  0.00000000000E+00  0.45593999997E+02  0.45594000000E+02  0.51100000000E-03 0. -1.
         11   -1    0    0    0    0 -0.00000000000E+00 -0.00000000000E+00 -0.45593999997E+02  0.45594000000E+02  0.51100000000E-03 0.  1.
    9900012    2    1    2    0    0 -0.21489503699E+02  0.19163010310E+02  0.13700563181E+02  0.59301871905E+02  0.49999868466E+02 0.  0.
        -12    1    1    2    0    0  0.21489503699E+02 -0.19163010310E+02 -0.13700563181E+02  0.31886128095E+02  0.00000000000E+00 0.  1.
         11    1    3    3    0    0 -0.89660961416E+01 -0.10580307115E+02  0.28782159747E+01  0.14163965057E+02  0.51100000000E-03 0. -1.
        -11    1    3    3    0    0 -0.87816251422E+01  0.21152782268E+02  0.21162738082E+02  0.31183627454E+02  0.51100000000E-03 0.  1.
        -12    1    3    3    0    0 -0.37417824158E+01  0.85905351578E+01 -0.10340390876E+02  0.13954279394E+02  0.00000000000E+00 0.  1.
</event>
<event>
 7    1  0.6108550E-013  0.5930193E+02  0.7816164E-02  0.1266605E+00
        -11   -1    0    0    0    0  0.00000000000E+00  0.00000000000E+00  0.45593999997E+02  0.45594000000E+02  0.51100000000E-03 0.  1.
         11   -1    0    0    0    0 -0.00000000000E+00 -0.00000000000E+00 -0.45593999997E+02  0.45594000000E+02  0.51100000000E-03 0. -1.
    9900012    2    1    2    0    0  0.26827416899E+02  0.31956777190E+01 -0.16935140788E+02  0.59301927067E+02  0.49999969068E+02 0.  0.
        -12    1    1    2    0    0 -0.26827416899E+02 -0.31956777190E+01  0.16935140788E+02  0.31886072933E+02  0.00000000000E+00 0.  1.
         11    1    3    3    0    0  0.28684463466E+01  0.14387096152E+02 -0.21536346170E+02  0.26058218027E+02  0.51100000000E-03 0. -1.
        -11    1    3    3    0    0  0.59031354168E+01 -0.58400431992E+01  0.10612776087E+02  0.13475315538E+02  0.51100000000E-03 0.  1.
         12    1    3    3    0    0  0.18055835136E+02 -0.53513752337E+01 -0.60115707051E+01  0.19768393503E+02  0.00000000000E+00 0. -1.
</event>
<event>
 7    1  0.5979290E-013  0.5930195E+02  0.7816164E-02  0.1266605E+00
        -11   -1    0    0    0    0  0.00000000000E+00  0.00000000000E+00  0.45593999997E+02  0.45594000000E+02  0.51100000000E-03 0. -1.
         11   -1    0    0    0    0 -0.00000000000E+00 -0.00000000000E+00 -0.45593999997E+02  0.45594000000E+02  0.51100000000E-03 0.  1.
    9900012    2    1    2    0    0 -0.22619706914E+02 -0.16096236078E+01  0.22416023161E+02  0.59301950960E+02  0.50000012643E+02 0.  0.
        -12    1    1    2    0    0  0.22619706914E+02  0.16096236078E+01 -0.22416023161E+02  0.31886049040E+02  0.00000000000E+00 0.  1.
         11    1    3    3    0    0 -0.13272759407E+02  0.13634935874E+02  0.29117119140E+02  0.34783390373E+02  0.51100000000E-03 0. -1.
        -11    1    3    3    0    0 -0.10161066091E+02 -0.24799520790E+01 -0.50734932423E+01  0.11624876789E+02  0.51100000000E-03 0.  1.
         12    1    3    3    0    0  0.81411858492E+00 -0.12764607403E+02 -0.16276027369E+01  0.12893683798E+02  0.00000000000E+00 0. -1.
</event>
<event>
 7    1  0.5979290E-013  0.5930182E+02  0.7816164E-02  0.1266605E+00
        -11   -1    0    0    0    0  0.00000000000E+00  0.00000000000E+00  0.45593999997E+02  0.45594000000E+02  0.51100000000E-03 0.  1.
         11   -1    0    0    0    0 -0.00000000000E+00 -0.00000000000E+00 -0.45593999997E+02  0.45594000000E+02  0.51100000000E-03 0. -1.
    9900012    2    1    2    0    0 -0.13402734890E+01 -0.52538449604E+01 -0.31421795961E+02  0.59301819901E+02  0.49999773623E+02 0.  0.
        -12    1    1    2    0    0  0.13402734890E+01  0.52538449604E+01  0.31421795961E+02  0.31886180099E+02  0.00000000000E+00 0.  1.
         11    1    3    3    0    0  0.51802196035E+01  0.63605655610E+01 -0.21682716411E+01  0.84848613169E+01  0.51100000000E-03 0. -1.
        -11    1    3    3    0    0 -0.58004215388E-01 -0.25869885275E+02 -0.17278278390E+02  0.31109375323E+02  0.51100000000E-03 0.  1.
        -12    1    3    3    0    0 -0.64624888771E+01  0.14255474753E+02 -0.11975245929E+02  0.19707583261E+02  0.00000000000E+00 0.  1.
</event>
<event>
 7    1  0.5979290E-013  0.5930193E+02  0.7816164E-02  0.1266605E+00
        -11   -1    0    0    0    0  0.00000000000E+00  0.00000000000E+00  0.45593999997E+02  0.45594000000E+02  0.51100000000E-03 0.  1.
         11   -1    0    0    0    0 -0.00000000000E+00 -0.00000000000E+00 -0.45593999997E+02  0.45594000000E+02  0.51100000000E-03 0. -1.
    9900012    2    1    2    0    0  0.10759097034E+02  0.15188360703E+02 -0.25889704675E+02  0.59301932855E+02  0.49999979623E+02 0.  0.
        -12    1    1    2    0    0 -0.10759097034E+02 -0.15188360703E+02  0.25889704675E+02  0.31886067145E+02  0.00000000000E+00 0.  1.
         11    1    3    3    0    0 -0.28051650394E+01 -0.69254767368E+01 -0.37528173131E+00  0.74814447515E+01  0.51100000000E-03 0.  1.
        -11    1    3    3    0    0  0.20282967329E+02  0.11037481267E+02 -0.30224428853E+02  0.38036046800E+02  0.51100000000E-03 0. -1.
        -12    1    3    3    0    0 -0.67187052560E+01  0.11076356173E+02  0.47100059094E+01  0.13784441304E+02  0.00000000000E+00 0.  1.
</event>
<event>
 7    1  0.5979290E-013  0.5930193E+02  0.7816164E-02  0.1266605E+00
        -11   -1    0    0    0    0  0.00000000000E+00  0.00000000000E+00  0.45593999997E+02  0.45594000000E+02  0.51100000000E-03 0. -1.
         11   -1    0    0    0    0 -0.00000000000E+00 -0.00000000000E+00 -0.45593999997E+02  0.45594000000E+02  0.51100000000E-03 0.  1.
    9900012    2    1    2    0    0 -0.25754613025E+02 -0.11227563457E+02  0.15078568120E+02  0.59301929534E+02  0.49999973566E+02 0.  0.
        -12    1    1    2    0    0  0.25754613025E+02  0.11227563457E+02 -0.15078568120E+02  0.31886070466E+02  0.00000000000E+00 0.  1.
         11    1    3    3    0    0 -0.29473064483E+02 -0.20169864660E+01 -0.51929648138E+01  0.29994943711E+02  0.51100000000E-03 0.  1.
        -11    1    3    3    0    0  0.30471864502E+00 -0.11192455538E+02  0.22237484244E+02  0.24897180969E+02  0.51100000000E-03 0. -1.
        -12    1    3    3    0    0  0.34137328128E+01  0.19818785465E+01 -0.19659513111E+01  0.44098048537E+01  0.00000000000E+00 0.  1.
</event>
<event>
 7    1  0.5979290E-013  0.5930194E+02  0.7816164E-02  0.1266605E+00
        -11   -1    0    0    0    0  0.00000000000E+00  0.00000000000E+00  0.45593999997E+02  0.45594000000E+02  0.51100000000E-03 0.  1.
         11   -1    0    0    0    0 -0.00000000000E+00 -0.00000000000E+00 -0.45593999997E+02  0.45594000000E+02  0.51100000000E-03 0. -1.
    9900012    2    1    2    0    0 -0.26701758777E+02  0.99944441482E+01  0.14277524370E+02  0.59301944463E+02  0.50000000793E+02 0.  0.
        -12    1    1    2    0    0  0.26701758777E+02 -0.99944441482E+01 -0.14277524370E+02  0.31886055537E+02  0.00000000000E+00 0.  1.
         11    1    3    3    0    0 -0.85664777940E+00 -0.16142798507E+02  0.10569467794E+02  0.19314177144E+02  0.51100000000E-03 0.  1.
        -11    1    3    3    0    0 -0.22343656922E+02  0.25369977868E+02  0.76485104396E+01  0.34660849584E+02  0.51100000000E-03 0. -1.
        -12    1    3    3    0    0 -0.35014540753E+01  0.76726478664E+00 -0.39404538639E+01  0.53269177343E+01  0.00000000000E+00 0.  1.
</event>
<event>
 7    1  0.5979290E-013  0.5930193E+02  0.7816164E-02  0.1266605E+00
        -11   -1    0    0    0    0  0.00000000000E+00  0.00000000000E+00  0.45593999997E+02  0.45594000000E+02  0.51100000000E-03 0. -1.
         11   -1    0    0    0    0 -0.00000000000E+00 -0.00000000000E+00 -0.45593999997E+02  0.45594000000E+02  0.51100000000E-03 0.  1.
    9900012    2    1    2    0    0  0.20023414634E+02 -0.18868840178E+02  0.16116790381E+02  0.59301934149E+02  0.49999981983E+02 0.  0.
        -12    1    1    2    0    0 -0.20023414634E+02  0.18868840178E+02 -0.16116790381E+02  0.31886065851E+02  0.00000000000E+00 0.  1.
         11    1    3    3    0    0  0.22657819588E+02 -0.59509405320E+01 -0.90132977622E+01  0.25100398772E+02  0.51100000000E-03 0. -1.
        -11    1    3    3    0    0 -0.54015248327E+01 -0.16747514032E+02  0.23149640204E+02  0.29078540861E+02  0.51100000000E-03 0.  1.
        -12    1    3    3    0    0  0.27671198791E+01  0.38296143860E+01  0.19804479396E+01  0.51229945161E+01  0.00000000000E+00 0.  1.
</event>
<event>
 7    1  0.5979290E-013  0.5930194E+02  0.7816164E-02  0.1266605E+00
        -11   -1    0    0    0    0  0.00000000000E+00  0.00000000000E+00  0.45593999997E+02  0.45594000000E+02  0.51100000000E-03 0. -1.
         11   -1    0    0    0    0 -0.00000000000E+00 -0.00000000000E+00 -0.45593999997E+02  0.45594000000E+02  0.51100000000E-03 0.  1.
    9900012    2    1    2    0    0 -0.16724260593E+02  0.20640652085E+02  0.17634721341E+02  0.59301940230E+02  0.49999993074E+02 0.  0.
        -12    1    1    2    0    0  0.16724260593E+02 -0.20640652085E+02 -0.17634721341E+02  0.31886059770E+02  0.00000000000E+00 0.  1.
         11    1    3    3    0    0  0.55075954699E+01  0.46996718717E+01  0.70975255817E+01  0.10138806301E+02  0.51100000000E-03 0. -1.
        -11    1    3    3    0    0 -0.10432869631E+02 -0.12319067134E+02 -0.15979943266E+01  0.16222138266E+02  0.51100000000E-03 0.  1.
        -12    1    3    3    0    0 -0.11798986432E+02  0.28260047347E+02  0.12135190086E+02  0.32940995664E+02  0.00000000000E+00 0.  1.
</event>
<event>
 7    1  0.5979290E-013  0.5930178E+02  0.7816164E-02  0.1266605E+00
        -11   -1    0    0    0    0  0.00000000000E+00  0.00000000000E+00  0.45593999997E+02  0.45594000000E+02  0.51100000000E-03 0.  1.
         11   -1    0    0    0    0 -0.00000000000E+00 -0.00000000000E+00 -0.45593999997E+02  0.45594000000E+02  0.51100000000E-03 0. -1.
    9900012    2    1    2    0    0  0.26050097276E+02 -0.18016871234E+02 -0.36763861540E+01  0.59301779899E+02  0.49999700668E+02 0.  0.
        -12    1    1    2    0    0 -0.26050097276E+02  0.18016871234E+02  0.36763861540E+01  0.31886220101E+02  0.00000000000E+00 0.  1.
         11    1    3    3    0    0  0.16757502498E+02 -0.13111897040E+02 -0.23645727897E+02  0.31809686921E+02  0.51100000000E-03 0. -1.
        -11    1    3    3    0    0  0.11383692478E+01  0.36883179427E+01  0.13402695564E+02  0.13947466524E+02  0.51100000000E-03 0.  1.
        -12    1    3    3    0    0  0.81542255302E+01 -0.85932921363E+01  0.65666461792E+01  0.13544626454E+02  0.00000000000E+00 0.  1.
</event>
<event>
 7    1  0.5979290E-013  0.5930195E+02  0.7816164E-02  0.1266605E+00
        -11   -1    0    0    0    0  0.00000000000E+00  0.00000000000E+00  0.45593999997E+02  0.45594000000E+02  0.51100000000E-03 0. -1.
         11   -1    0    0    0    0 -0.00000000000E+00 -0.00000000000E+00 -0.45593999997E+02  0.45594000000E+02  0.51100000000E-03 0.  1.
    9900012    2    1    2    0    0  0.20435584607E+02 -0.32274136064E+01  0.24262953998E+02  0.59301948919E+02  0.50000008921E+02 0.  0.
        -12    1    1    2    0    0 -0.20435584607E+02  0.32274136064E+01 -0.24262953998E+02  0.31886051081E+02  0.00000000000E+00 0.  1.
         11    1    3    3    0    0  0.12848331354E+01  0.59013267261E+00  0.22268383085E+01  0.26377759325E+01  0.51100000000E-03 0. -1.
        -11    1    3    3    0    0 -0.37334896251E+01  0.15255200304E+02  0.21805977111E+02  0.26873048192E+02  0.51100000000E-03 0.  1.
        -12    1    3    3    0    0  0.22884241097E+02 -0.19072746583E+02  0.23013857869E+00  0.29791124795E+02  0.00000000000E+00 0.  1.
</event>
<event>
 7    1  0.9182742E-013  0.5930196E+02  0.7816164E-02  0.1266605E+00
        -11   -1    0    0    0    0  0.00000000000E+00  0.00000000000E+00  0.45593999997E+02  0.45594000000E+02  0.51100000000E-03 0. -1.
         11   -1    0    0    0    0 -0.00000000000E+00 -0.00000000000E+00 -0.45593999997E+02  0.45594000000E+02  0.51100000000E-03 0.  1.
    9900012    2    1    2    0    0 -0.31877341414E+02 -0.47458094600E+00  0.57415091833E+00  0.59301956470E+02  0.50000022692E+02 0.  0.
        -12    1    1    2    0    0  0.31877341414E+02  0.47458094600E+00 -0.57415091833E+00  0.31886043530E+02  0.00000000000E+00 0.  1.
         11    1    3    3    0    0 -0.13696268504E+02 -0.26269120022E+01 -0.19289128535E+02  0.23802498136E+02  0.51100000000E-03 0. -1.
        -11    1    3    3    0    0  0.47010372947E+01  0.22018436060E+01  0.84786986197E+01  0.99416395758E+01  0.51100000000E-03 0.  1.
         12    1    3    3    0    0 -0.22882110205E+02 -0.49512549807E-01  0.11384580834E+02  0.25557818759E+02  0.00000000000E+00 0. -1.
</event>
<event>
 7    1  0.5979290E-013  0.5930189E+02  0.7816164E-02  0.1266605E+00
        -11   -1    0    0    0    0  0.00000000000E+00  0.00000000000E+00  0.45593999997E+02  0.45594000000E+02  0.51100000000E-03 0. -1.
         11   -1    0    0    0    0 -0.00000000000E+00 -0.00000000000E+00 -0.45593999997E+02  0.45594000000E+02  0.51100000000E-03 0.  1.
    9900012    2    1    2    0    0  0.21935975573E+02  0.21949127343E+02  0.73330031117E+01  0.59301887818E+02  0.49999897487E+02 0.  0.
        -12    1    1    2    0    0 -0.21935975573E+02 -0.21949127343E+02 -0.73330031117E+01  0.31886112182E+02  0.00000000000E+00 0.  1.
         11    1    3    3    0    0 -0.15619184234E+02  0.13749473167E+01 -0.78885728359E+00  0.15699416942E+02  0.51100000000E-03 0. -1.
        -11    1    3    3    0    0  0.98899559016E+01  0.49727647972E+01  0.24800782951E+01  0.11344179392E+02  0.51100000000E-03 0.  1.
         12    1    3    3    0    0  0.27665203905E+02  0.15601415229E+02  0.56417821002E+01  0.32258291484E+02  0.00000000000E+00 0. -1.
</event>
<event>
 7    1  0.5979290E-013  0.5930195E+02  0.7816164E-02  0.1266605E+00
        -11   -1    0    0    0    0  0.00000000000E+00  0.00000000000E+00  0.45593999997E+02  0.45594000000E+02  0.51100000000E-03 0.  1.
         11   -1    0    0    0    0 -0.00000000000E+00 -0.00000000000E+00 -0.45593999997E+02  0.45594000000E+02  0.51100000000E-03 0. -1.
    9900012    2    1    2    0    0  0.11028803173E+02 -0.22177296996E+02 -0.20081161987E+02  0.59301951825E+02  0.50000014220E+02 0.  0.
        -12    1    1    2    0    0 -0.11028803173E+02  0.22177296996E+02  0.20081161987E+02  0.31886048175E+02  0.00000000000E+00 0.  1.
         11    1    3    3    0    0  0.20587387017E+02 -0.17798638406E+02 -0.32333448361E+02  0.42262086040E+02  0.51100000000E-03 0. -1.
        -11    1    3    3    0    0 -0.48230527677E+01 -0.51182214584E+01  0.77267687327E+01  0.10448013410E+02  0.51100000000E-03 0.  1.
         12    1    3    3    0    0 -0.47355310761E+01  0.73956286818E+00  0.45255176412E+01  0.65918523747E+01  0.00000000000E+00 0. -1.
</event>
<event>
 7    1  0.5979290E-013  0.5930196E+02  0.7816164E-02  0.1266605E+00
        -11   -1    0    0    0    0  0.00000000000E+00  0.00000000000E+00  0.45593999997E+02  0.45594000000E+02  0.51100000000E-03 0.  1.
         11   -1    0    0    0    0 -0.00000000000E+00 -0.00000000000E+00 -0.45593999997E+02  0.45594000000E+02  0.51100000000E-03 0. -1.
    9900012    2    1    2    0    0  0.87290665171E+01  0.30069986359E+02 -0.60265078062E+01  0.59301961076E+02  0.50000031093E+02 0.  0.
        -12    1    1    2    0    0 -0.87290665171E+01 -0.30069986359E+02  0.60265078062E+01  0.31886038924E+02  0.00000000000E+00 0.  1.
         11    1    3    3    0    0 -0.51904482806E+01  0.13160326917E+02 -0.25366008013E+02  0.29044264850E+02  0.51100000000E-03 0. -1.
        -11    1    3    3    0    0  0.10015518538E+02  0.68857281860E+01  0.12883271467E+02  0.17711650070E+02  0.51100000000E-03 0.  1.
        -12    1    3    3    0    0  0.39039962594E+01  0.10023931256E+02  0.64562287400E+01  0.12546046157E+02  0.00000000000E+00 0.  1.
</event>
<event>
 7    1  0.5979290E-013  0.5930194E+02  0.7816164E-02  0.1266605E+00
        -11   -1    0    0    0    0  0.00000000000E+00  0.00000000000E+00  0.45593999997E+02  0.45594000000E+02  0.51100000000E-03 0. -1.
         11   -1    0    0    0    0 -0.00000000000E+00 -0.00000000000E+00 -0.45593999997E+02  0.45594000000E+02  0.51100000000E-03 0.  1.
    9900012    2    1    2    0    0  0.16097889319E+02  0.25186302289E+02  0.11100853316E+02  0.59301940227E+02  0.49999993068E+02 0.  0.
        -12    1    1    2    0    0 -0.16097889319E+02 -0.25186302289E+02 -0.11100853316E+02  0.31886059773E+02  0.00000000000E+00 0.  1.
         11    1    3    3    0    0  0.92484420965E+01  0.56464356608E+01  0.18128575779E+02  0.21120160438E+02  0.51100000000E-03 0. -1.
        -11    1    3    3    0    0  0.12758722021E+02  0.24105053474E+02 -0.11364596698E+02  0.29546449007E+02  0.51100000000E-03 0.  1.
        -12    1    3    3    0    0 -0.59092747984E+01 -0.45651868455E+01  0.43368742347E+01  0.86353307814E+01  0.00000000000E+00 0.  1.
</event>
<event>
 7    1  0.5979290E-013  0.5930196E+02  0.7816164E-02  0.1266605E+00
        -11   -1    0    0    0    0  0.00000000000E+00  0.00000000000E+00  0.45593999997E+02  0.45594000000E+02  0.51100000000E-03 0. -1.
         11   -1    0    0    0    0 -0.00000000000E+00 -0.00000000000E+00 -0.45593999997E+02  0.45594000000E+02  0.51100000000E-03 0.  1.
    9900012    2    1    2    0    0  0.30426930100E+02  0.74694952494E+01  0.59268980138E+01  0.59301959878E+02  0.50000028908E+02 0.  0.
        -12    1    1    2    0    0 -0.30426930100E+02 -0.74694952494E+01 -0.59268980138E+01  0.31886040122E+02  0.00000000000E+00 0.  1.
         11    1    3    3    0    0  0.14414978084E+02 -0.12138918968E+02  0.67125955307E+00  0.18857240957E+02  0.51100000000E-03 0. -1.
        -11    1    3    3    0    0  0.19616246266E+02  0.25186079816E+02  0.85251746917E+01  0.33042613968E+02  0.51100000000E-03 0.  1.
        -12    1    3    3    0    0 -0.36042942498E+01 -0.55776655987E+01 -0.32695362309E+01  0.74021049530E+01  0.00000000000E+00 0.  1.
</event>
<event>
 7    1  0.5979290E-013  0.5930195E+02  0.7816164E-02  0.1266605E+00
        -11   -1    0    0    0    0  0.00000000000E+00  0.00000000000E+00  0.45593999997E+02  0.45594000000E+02  0.51100000000E-03 0.  1.
         11   -1    0    0    0    0 -0.00000000000E+00 -0.00000000000E+00 -0.45593999997E+02  0.45594000000E+02  0.51100000000E-03 0. -1.
    9900012    2    1    2    0    0  0.89113092439E+01 -0.11454916764E+02 -0.28391785606E+02  0.59301952261E+02  0.50000015016E+02 0.  0.
        -12    1    1    2    0    0 -0.89113092439E+01  0.11454916764E+02  0.28391785606E+02  0.31886047739E+02  0.00000000000E+00 0.  1.
         11    1    3    3    0    0  0.17346089225E+02 -0.26039281134E+02 -0.23703163315E+02  0.39252655002E+02  0.51100000000E-03 0. -1.
        -11    1    3    3    0    0 -0.90417594379E+01  0.13174913386E+02 -0.94924030017E+00  0.16007273780E+02  0.51100000000E-03 0.  1.
         12    1    3    3    0    0  0.60697945719E+00  0.14094509834E+01 -0.37393819905E+01  0.40420234792E+01  0.00000000000E+00 0. -1.
</event>
<event>
 7    1  0.5979290E-013  0.5930194E+02  0.7816164E-02  0.1266605E+00
        -11   -1    0    0    0    0  0.00000000000E+00  0.00000000000E+00  0.45593999997E+02  0.45594000000E+02  0.51100000000E-03 0.  1.
         11   -1    0    0    0    0 -0.00000000000E+00 -0.00000000000E+00 -0.45593999997E+02  0.45594000000E+02  0.51100000000E-03 0. -1.
    9900012    2    1    2    0    0  0.32060433919E+01 -0.27676618137E+02 -0.15506355923E+02  0.59301937532E+02  0.49999988153E+02 0.  0.
        -12    1    1    2    0    0 -0.32060433919E+01  0.27676618137E+02  0.15506355923E+02  0.31886062468E+02  0.00000000000E+00 0.  1.
         11    1    3    3    0    0 -0.31206476618E+01  0.97494782319E+00  0.11932223860E+02  0.12372022130E+02  0.51100000000E-03 0. -1.
        -11    1    3    3    0    0  0.61220947115E+01 -0.18761194319E+02 -0.22429764878E+01  0.19861857912E+02  0.51100000000E-03 0.  1.
         12    1    3    3    0    0  0.20459634212E+00 -0.98903716409E+01 -0.25195603295E+02  0.27068057489E+02  0.00000000000E+00 0. -1.
</event>
<event>
 7    1  0.5979290E-013  0.5930196E+02  0.7816164E-02  0.1266605E+00
        -11   -1    0    0    0    0  0.00000000000E+00  0.00000000000E+00  0.45593999997E+02  0.45594000000E+02  0.51100000000E-03 0.  1.
         11   -1    0    0    0    0 -0.00000000000E+00 -0.00000000000E+00 -0.45593999997E+02  0.45594000000E+02  0.51100000000E-03 0. -1.
    9900012    2    1    2    0    0  0.94257831612E+01 -0.25070632281E+02 -0.17301368757E+02  0.59301963055E+02  0.50000034701E+02 0.  0.
        -12    1    1    2    0    0 -0.94257831612E+01  0.25070632281E+02  0.17301368757E+02  0.31886036945E+02  0.00000000000E+00 0.  1.
         11    1    3    3    0    0 -0.28820502580E+01  0.55679048487E+00 -0.34592911117E+01  0.45368408160E+01  0.51100000000E-03 0. -1.
        -11    1    3    3    0    0  0.25074028688E+02 -0.92273747164E+01 -0.19673073021E+02  0.33179529249E+02  0.51100000000E-03 0.  1.
        -12    1    3    3    0    0 -0.12766195269E+02 -0.16400048050E+02  0.58309953750E+01  0.21585592990E+02  0.00000000000E+00 0.  1.
</event>
<event>
 7    1  0.5979290E-013  0.5930192E+02  0.7816164E-02  0.1266605E+00
        -11   -1    0    0    0    0  0.00000000000E+00  0.00000000000E+00  0.45593999997E+02  0.45594000000E+02  0.51100000000E-03 0. -1.
         11   -1    0    0    0    0 -0.00000000000E+00 -0.00000000000E+00 -0.45593999997E+02  0.45594000000E+02  0.51100000000E-03 0.  1.
    9900012    2    1    2    0    0  0.12978486227E+01 -0.18930959264E+02  0.25625311711E+02  0.59301917927E+02  0.49999952399E+02 0.  0.
        -12    1    1    2    0    0 -0.12978486227E+01  0.18930959264E+02 -0.25625311711E+02  0.31886082073E+02  0.00000000000E+00 0.  1.
         11    1    3    3    0    0  0.18282470483E+02 -0.28153010160E+02  0.15522653882E+02  0.36983692242E+02  0.51100000000E-03 0. -1.
        -11    1    3    3    0    0 -0.12671560355E+02  0.46325020822E+01  0.57706274530E+01  0.14674081192E+02  0.51100000000E-03 0.  1.
         12    1    3    3    0    0 -0.43130615052E+01  0.45895488140E+01  0.43320303754E+01  0.76441444935E+01  0.00000000000E+00 0. -1.
</event>
<event>
 7    1  0.5979290E-013  0.5930193E+02  0.7816164E-02  0.1266605E+00
        -11   -1    0    0    0    0  0.00000000000E+00  0.00000000000E+00  0.45593999997E+02  0.45594000000E+02  0.51100000000E-03 0. -1.
         11   -1    0    0    0    0 -0.00000000000E+00 -0.00000000000E+00 -0.45593999997E+02  0.45594000000E+02  0.51100000000E-03 0.  1.
    9900012    2    1    2    0    0 -0.29218920006E+02  0.11675924091E+02  0.51622864512E+01  0.59301926377E+02  0.49999967810E+02 0.  0.
        -12    1    1    2    0    0  0.29218920006E+02 -0.11675924091E+02 -0.51622864512E+01  0.31886073623E+02  0.00000000000E+00 0.  1.
         11    1    3    3    0    0  0.59573456348E+01  0.65530891448E+01  0.16291397171E+02  0.18542992380E+02  0.51100000000E-03 0. -1.
        -11    1    3    3    0    0 -0.15924705708E+02 -0.21722975453E+01 -0.12147443622E+02  0.20146352407E+02  0.51100000000E-03 0.  1.
         12    1    3    3    0    0 -0.19251559933E+02  0.72951324916E+01  0.10183329021E+01  0.20612581590E+02  0.00000000000E+00 0. -1.
</event>
<event>
 7    1  0.5979290E-013  0.5930196E+02  0.7816164E-02  0.1266605E+00
        -11   -1    0    0    0    0  0.00000000000E+00  0.00000000000E+00  0.45593999997E+02  0.45594000000E+02  0.51100000000E-03 0. -1.
         11   -1    0    0    0    0 -0.00000000000E+00 -0.00000000000E+00 -0.45593999997E+02  0.45594000000E+02  0.51100000000E-03 0.  1.
    9900012    2    1    2    0    0  0.92400070591E+01 -0.27841255624E+02  0.12498261589E+02  0.59301956220E+02  0.50000022236E+02 0.  0.
        -12    1    1    2    0    0 -0.92400070591E+01  0.27841255624E+02 -0.12498261589E+02  0.31886043780E+02  0.00000000000E+00 0.  1.
         11    1    3    3    0    0 -0.17992764662E+01  0.63286507911E+01  0.61907880591E+01  0.90341061368E+01  0.51100000000E-03 0.  1.
        -11    1    3    3    0    0  0.22505621832E+02 -0.27996541502E+02  0.88601416591E+01  0.36997452083E+02  0.51100000000E-03 0. -1.
        -12    1    3    3    0    0 -0.11466338307E+02 -0.61733649129E+01 -0.25526681291E+01  0.13270398000E+02  0.00000000000E+00 0.  1.
</event>
<event>
 7    1  0.5979290E-013  0.5930193E+02  0.7816164E-02  0.1266605E+00
        -11   -1    0    0    0    0  0.00000000000E+00  0.00000000000E+00  0.45593999997E+02  0.45594000000E+02  0.51100000000E-03 0.  1.
         11   -1    0    0    0    0 -0.00000000000E+00 -0.00000000000E+00 -0.45593999997E+02  0.45594000000E+02  0.51100000000E-03 0. -1.
    9900012    2    1    2    0    0 -0.14072783134E+02 -0.14005142563E+02 -0.24950633205E+02  0.59301931872E+02  0.49999977831E+02 0.  0.
        -12    1    1    2    0    0  0.14072783134E+02  0.14005142563E+02  0.24950633205E+02  0.31886068128E+02  0.00000000000E+00 0.  1.
         11    1    3    3    0    0 -0.92598234978E+01 -0.19002836282E+02 -0.68084412788E+01  0.22208264022E+02  0.51100000000E-03 0. -1.
        -11    1    3    3    0    0  0.83201672474E+01  0.64734377370E+01 -0.21067677542E+02  0.23557962909E+02  0.51100000000E-03 0.  1.
        -12    1    3    3    0    0 -0.13133126884E+02 -0.14757440184E+01  0.29254856159E+01  0.13535704941E+02  0.00000000000E+00 0.  1.
</event>
<event>
 7    1  0.5979290E-013  0.5930182E+02  0.7816164E-02  0.1266605E+00
        -11   -1    0    0    0    0  0.00000000000E+00  0.00000000000E+00  0.45593999997E+02  0.45594000000E+02  0.51100000000E-03 0.  1.
         11   -1    0    0    0    0 -0.00000000000E+00 -0.00000000000E+00 -0.45593999997E+02  0.45594000000E+02  0.51100000000E-03 0. -1.
    9900012    2    1    2    0    0 -0.41020138132E+01 -0.30557054030E+02 -0.81344155034E+01  0.59301815157E+02  0.49999764969E+02 0.  0.
        -12    1    1    2    0    0  0.41020138132E+01  0.30557054030E+02  0.81344155034E+01  0.31886184843E+02  0.00000000000E+00 0.  1.
         11    1    3    3    0    0  0.67868986163E+01  0.48071860395E+01 -0.18607259964E+02  0.20381392349E+02  0.51100000000E-03 0. -1.
        -11    1    3    3    0    0 -0.93025437730E+00 -0.12639750967E+02  0.34892224476E+01  0.13145468849E+02  0.51100000000E-03 0.  1.
         12    1    3    3    0    0 -0.99586580522E+01 -0.22724489102E+02  0.69836220129E+01  0.25774953959E+02  0.00000000000E+00 0. -1.
</event>
<event>
 7    1  0.5979290E-013  0.5930202E+02  0.7816164E-02  0.1266604E+00
        -11   -1    0    0    0    0  0.00000000000E+00  0.00000000000E+00  0.45593999997E+02  0.45594000000E+02  0.51100000000E-03 0.  1.
         11   -1    0    0    0    0 -0.00000000000E+00 -0.00000000000E+00 -0.45593999997E+02  0.45594000000E+02  0.51100000000E-03 0. -1.
    9900012    2    1    2    0    0 -0.17241096490E+02 -0.25715322387E+02 -0.76277352598E+01  0.59302022536E+02  0.50000143179E+02 0.  0.
        -12    1    1    2    0    0  0.17241096490E+02  0.25715322387E+02  0.76277352598E+01  0.31885977464E+02  0.00000000000E+00 0.  1.
         11    1    3    3    0    0  0.20474349763E+01 -0.64789465150E+01  0.10381628980E+02  0.12407536358E+02  0.51100000000E-03 0.  1.
        -11    1    3    3    0    0 -0.18675491262E+02 -0.28414409867E+02 -0.15441885996E+02  0.37344403936E+02  0.51100000000E-03 0. -1.
        -12    1    3    3    0    0 -0.61304020412E+00  0.91780339945E+01 -0.25674782436E+01  0.95500822419E+01  0.00000000000E+00 0.  1.
</event>
<event>
 7    1  0.5979290E-013  0.5930193E+02  0.7816164E-02  0.1266605E+00
        -11   -1    0    0    0    0  0.00000000000E+00  0.00000000000E+00  0.45593999997E+02  0.45594000000E+02  0.51100000000E-03 0.  1.
         11   -1    0    0    0    0 -0.00000000000E+00 -0.00000000000E+00 -0.45593999997E+02  0.45594000000E+02  0.51100000000E-03 0. -1.
    9900012    2    1    2    0    0 -0.22104804793E+02  0.27653396337E+00 -0.22978747287E+02  0.59301926350E+02  0.49999967760E+02 0.  0.
        -12    1    1    2    0    0  0.22104804793E+02 -0.27653396337E+00  0.22978747287E+02  0.31886073650E+02  0.00000000000E+00 0.  1.
         11    1    3    3    0    0 -0.10164473465E+02 -0.72280400001E+00 -0.33778623860E+02  0.35282210766E+02  0.51100000000E-03 0. -1.
        -11    1    3    3    0    0 -0.15177614852E+02  0.47383943755E+01  0.10521651214E+02  0.19066135381E+02  0.51100000000E-03 0.  1.
         12    1    3    3    0    0  0.32372835239E+01 -0.37390564122E+01  0.27822535864E+00  0.49535802020E+01  0.00000000000E+00 0. -1.
</event>
<event>
 7    1  0.5979290E-013  0.5930189E+02  0.7816164E-02  0.1266605E+00
        -11   -1    0    0    0    0  0.00000000000E+00  0.00000000000E+00  0.45593999997E+02  0.45594000000E+02  0.51100000000E-03 0.  1.
         11   -1    0    0    0    0 -0.00000000000E+00 -0.00000000000E+00 -0.45593999997E+02  0.45594000000E+02  0.51100000000E-03 0. -1.
    9900012    2    1    2    0    0 -0.36268501019E+01  0.15341916602E+02 -0.27716338430E+02  0.59301892325E+02  0.49999905707E+02 0.  0.
        -12    1    1    2    0    0  0.36268501019E+01 -0.15341916602E+02  0.27716338430E+02  0.31886107675E+02  0.00000000000E+00 0.  1.
         11    1    3    3    0    0  0.60757609035E+01 -0.36641975961E+01  0.77995925182E+01  0.10543948895E+02  0.51100000000E-03 0.  1.
        -11    1    3    3    0    0 -0.16705349133E+02  0.65969402893E+01 -0.26086619732E+02  0.31671754611E+02  0.51100000000E-03 0. -1.
         12    1    3    3    0    0  0.70027381275E+01  0.12409173909E+02 -0.94293112160E+01  0.17086188820E+02  0.00000000000E+00 0. -1.
</event>
<event>
 7    1  0.5979290E-013  0.5930199E+02  0.7816164E-02  0.1266605E+00
        -11   -1    0    0    0    0  0.00000000000E+00  0.00000000000E+00  0.45593999997E+02  0.45594000000E+02  0.51100000000E-03 0.  1.
         11   -1    0    0    0    0 -0.00000000000E+00 -0.00000000000E+00 -0.45593999997E+02  0.45594000000E+02  0.51100000000E-03 0. -1.
    9900012    2    1    2    0    0  0.10013186198E+02 -0.30252352640E+02  0.11174081242E+01  0.59301994621E+02  0.50000092270E+02 0.  0.
        -12    1    1    2    0    0 -0.10013186198E+02  0.30252352640E+02 -0.11174081242E+01  0.31886005379E+02  0.00000000000E+00 0.  1.
         11    1    3    3    0    0 -0.15044189005E+02 -0.74336873754E+01 -0.62418810820E+01  0.17903865798E+02  0.51100000000E-03 0. -1.
        -11    1    3    3    0    0  0.26485881917E+02 -0.11302596570E+02  0.76308894111E+01  0.29790621068E+02  0.51100000000E-03 0.  1.
        -12    1    3    3    0    0 -0.14285067142E+01 -0.11516068695E+02 -0.27160020492E+00  0.11607507755E+02  0.00000000000E+00 0.  1.
</event>
<event>
 7    1  0.5979290E-013  0.5930193E+02  0.7816164E-02  0.1266605E+00
        -11   -1    0    0    0    0  0.00000000000E+00  0.00000000000E+00  0.45593999997E+02  0.45594000000E+02  0.51100000000E-03 0. -1.
         11   -1    0    0    0    0 -0.00000000000E+00 -0.00000000000E+00 -0.45593999997E+02  0.45594000000E+02  0.51100000000E-03 0.  1.
    9900012    2    1    2    0    0  0.20267685944E+02  0.21772427860E+02 -0.11484931440E+02  0.59301931590E+02  0.49999977317E+02 0.  0.
        -12    1    1    2    0    0 -0.20267685944E+02 -0.21772427860E+02  0.11484931440E+02  0.31886068410E+02  0.00000000000E+00 0.  1.
         11    1    3    3    0    0 -0.42381810505E+01 -0.10844447970E+02  0.46802859644E+00  0.11652608352E+02  0.51100000000E-03 0. -1.
        -11    1    3    3    0    0  0.14249496911E+02  0.30865111599E+02 -0.14465634719E+02  0.36945336165E+02  0.51100000000E-03 0.  1.
        -12    1    3    3    0    0  0.10256370084E+02  0.17517642300E+01  0.25126746824E+01  0.10703987074E+02  0.00000000000E+00 0.  1.
</event>
<event>
 7    1  0.5979290E-013  0.5930192E+02  0.7816164E-02  0.1266605E+00
        -11   -1    0    0    0    0  0.00000000000E+00  0.00000000000E+00  0.45593999997E+02  0.45594000000E+02  0.51100000000E-03 0.  1.
         11   -1    0    0    0    0 -0.00000000000E+00 -0.00000000000E+00 -0.45593999997E+02  0.45594000000E+02  0.51100000000E-03 0. -1.
    9900012    2    1    2    0    0 -0.46605426432E+01  0.18733400137E+02 -0.25378361022E+02  0.59301919234E+02  0.49999954783E+02 0.  0.
        -12    1    1    2    0    0  0.46605426432E+01 -0.18733400137E+02  0.25378361022E+02  0.31886080766E+02  0.00000000000E+00 0.  1.
         11    1    3    3    0    0  0.83069048147E+01  0.13055759175E+02 -0.25621454556E+02  0.29931863441E+02  0.51100000000E-03 0. -1.
        -11    1    3    3    0    0 -0.79102757059E+01  0.80801716330E+01  0.11913953403E+02  0.16425709157E+02  0.51100000000E-03 0.  1.
         12    1    3    3    0    0 -0.50571717520E+01 -0.24025306714E+01 -0.11670859869E+02  0.12944346636E+02  0.00000000000E+00 0. -1.
</event>
<event>
 7    1  0.5979290E-013  0.5930203E+02  0.7816164E-02  0.1266604E+00
        -11   -1    0    0    0    0  0.00000000000E+00  0.00000000000E+00  0.45593999997E+02  0.45594000000E+02  0.51100000000E-03 0.  1.
         11   -1    0    0    0    0 -0.00000000000E+00 -0.00000000000E+00 -0.45593999997E+02  0.45594000000E+02  0.51100000000E-03 0. -1.
    9900012    2    1    2    0    0 -0.79207944169E+01 -0.28329518530E+02 -0.12305060915E+02  0.59302029285E+02  0.50000155488E+02 0.  0.
        -12    1    1    2    0    0  0.79207944169E+01  0.28329518530E+02  0.12305060915E+02  0.31885970715E+02  0.00000000000E+00 0.  1.
         11    1    3    3    0    0 -0.85192580965E+01 -0.10726274388E+02 -0.19695720076E+02  0.23990667151E+02  0.51100000000E-03 0. -1.
        -11    1    3    3    0    0  0.97758546713E+01 -0.20478540147E+02  0.10769096003E+02  0.25117949161E+02  0.51100000000E-03 0.  1.
        -12    1    3    3    0    0 -0.91773909917E+01  0.28752960049E+01 -0.33784368420E+01  0.10193412972E+02  0.00000000000E+00 0.  1.
</event>
<event>
 7    1  0.5979290E-013  0.5930195E+02  0.7816164E-02  0.1266605E+00
        -11   -1    0    0    0    0  0.00000000000E+00  0.00000000000E+00  0.45593999997E+02  0.45594000000E+02  0.51100000000E-03 0. -1.
         11   -1    0    0    0    0 -0.00000000000E+00 -0.00000000000E+00 -0.45593999997E+02  0.45594000000E+02  0.51100000000E-03 0.  1.
    9900012    2    1    2    0    0 -0.16393098971E+02 -0.21411639577E+02  0.17015523998E+02  0.59301951951E+02  0.50000014450E+02 0.  0.
        -12    1    1    2    0    0  0.16393098971E+02  0.21411639577E+02 -0.17015523998E+02  0.31886048049E+02  0.00000000000E+00 0.  1.
         11    1    3    3    0    0 -0.90083417746E-01  0.74103459388E+01  0.63468273594E+01  0.97572311516E+01  0.51100000000E-03 0. -1.
        -11    1    3    3    0    0 -0.27481259032E+02 -0.19270829678E+02  0.58384025835E+01  0.34068628083E+02  0.51100000000E-03 0.  1.
        -12    1    3    3    0    0  0.11178243479E+02 -0.95511558371E+01  0.48302940555E+01  0.15476092716E+02  0.00000000000E+00 0.  1.
</event>
<event>
 7    1  0.5979290E-013  0.5930189E+02  0.7816164E-02  0.1266605E+00
        -11   -1    0    0    0    0  0.00000000000E+00  0.00000000000E+00  0.45593999997E+02  0.45594000000E+02  0.51100000000E-03 0. -1.
         11   -1    0    0    0    0 -0.00000000000E+00 -0.00000000000E+00 -0.45593999997E+02  0.45594000000E+02  0.51100000000E-03 0.  1.
    9900012    2    1    2    0    0 -0.77827628644E+01  0.94688321643E+01  0.29436269026E+02  0.59301888376E+02  0.49999898504E+02 0.  0.
        -12    1    1    2    0    0  0.77827628644E+01 -0.94688321643E+01 -0.29436269026E+02  0.31886111624E+02  0.00000000000E+00 0.  1.
         11    1    3    3    0    0 -0.84425257651E+01 -0.96887895952E+01  0.48677462984E+00  0.12860242413E+02  0.51100000000E-03 0.  1.
        -11    1    3    3    0    0 -0.33156956802E+01  0.26867004909E+02  0.25225126328E+02  0.37001848456E+02  0.51100000000E-03 0. -1.
         12    1    3    3    0    0  0.39754585809E+01 -0.77093831493E+01  0.37243680676E+01  0.94397975071E+01  0.00000000000E+00 0. -1.
</event>
<event>
 7    1  0.5979290E-013  0.5930193E+02  0.7816164E-02  0.1266605E+00
        -11   -1    0    0    0    0  0.00000000000E+00  0.00000000000E+00  0.45593999997E+02  0.45594000000E+02  0.51100000000E-03 0.  1.
         11   -1    0    0    0    0 -0.00000000000E+00 -0.00000000000E+00 -0.45593999997E+02  0.45594000000E+02  0.51100000000E-03 0. -1.
    9900012    2    1    2    0    0 -0.14866866716E+02  0.27925356895E+02  0.39839963629E+01  0.59301929206E+02  0.49999972969E+02 0.  0.
        -12    1    1    2    0    0  0.14866866716E+02 -0.27925356895E+02 -0.39839963629E+01  0.31886070794E+02  0.00000000000E+00 0.  1.
         11    1    3    3    0    0 -0.13477806548E+02  0.59404724043E+00  0.20235900318E+02  0.24320687149E+02  0.51100000000E-03 0. -1.
        -11    1    3    3    0    0  0.85414082666E+00  0.12174640220E-01 -0.54532908426E+01  0.55197903990E+01  0.51100000000E-03 0.  1.
         12    1    3    3    0    0 -0.22432009941E+01  0.27319135014E+02 -0.10798613112E+02  0.29461451658E+02  0.00000000000E+00 0. -1.
</event>
<event>
 7    1  0.5979290E-013  0.5930195E+02  0.7816164E-02  0.1266605E+00
        -11   -1    0    0    0    0  0.00000000000E+00  0.00000000000E+00  0.45593999997E+02  0.45594000000E+02  0.51100000000E-03 0.  1.
         11   -1    0    0    0    0 -0.00000000000E+00 -0.00000000000E+00 -0.45593999997E+02  0.45594000000E+02  0.51100000000E-03 0. -1.
    9900012    2    1    2    0    0 -0.61415209044E+01  0.78465886931E+01 -0.30289158743E+02  0.59301947085E+02  0.50000005575E+02 0.  0.
        -12    1    1    2    0    0  0.61415209044E+01 -0.78465886931E+01  0.30289158743E+02  0.31886052915E+02  0.00000000000E+00 0.  1.
         11    1    3    3    0    0 -0.26199006950E+01  0.12356679827E+02  0.76445829125E+01  0.14764520451E+02  0.51100000000E-03 0.  1.
        -11    1    3    3    0    0  0.48341263257E-01 -0.11486140566E+02 -0.33756429087E+02  0.35657120845E+02  0.51100000000E-03 0. -1.
        -12    1    3    3    0    0 -0.35699614726E+01  0.69760494326E+01 -0.41773125691E+01  0.88803057888E+01  0.00000000000E+00 0.  1.
</event>
<event>
 7    1  0.5979290E-013  0.5930193E+02  0.7816164E-02  0.1266605E+00
        -11   -1    0    0    0    0  0.00000000000E+00  0.00000000000E+00  0.45593999997E+02  0.45594000000E+02  0.51100000000E-03 0.  1.
         11   -1    0    0    0    0 -0.00000000000E+00 -0.00000000000E+00 -0.45593999997E+02  0.45594000000E+02  0.51100000000E-03 0. -1.
    9900012    2    1    2    0    0  0.19430942991E+02  0.16748782244E+02 -0.18937748459E+02  0.59301928294E+02  0.49999971305E+02 0.  0.
        -12    1    1    2    0    0 -0.19430942991E+02 -0.16748782244E+02  0.18937748459E+02  0.31886071706E+02  0.00000000000E+00 0.  1.
         11    1    3    3    0    0  0.13563296527E+02 -0.98717353710E+01  0.24865578609E+01  0.16958689282E+02  0.51100000000E-03 0. -1.
        -11    1    3    3    0    0 -0.83185479135E+01  0.11110216453E+02 -0.14834607478E+02  0.20315037000E+02  0.51100000000E-03 0.  1.
         12    1    3    3    0    0  0.14186194377E+02  0.15510301162E+02 -0.65896988421E+01  0.22028202011E+02  0.00000000000E+00 0. -1.
</event>
<event>
 7    1  0.5979290E-013  0.5930196E+02  0.7816164E-02  0.1266605E+00
        -11   -1    0    0    0    0  0.00000000000E+00  0.00000000000E+00  0.45593999997E+02  0.45594000000E+02  0.51100000000E-03 0. -1.
         11   -1    0    0    0    0 -0.00000000000E+00 -0.00000000000E+00 -0.45593999997E+02  0.45594000000E+02  0.51100000000E-03 0.  1.
    9900012    2    1    2    0    0  0.96744129402E+01  0.25654907922E+02  0.16277321518E+02  0.59301956627E+02  0.50000022977E+02 0.  0.
        -12    1    1    2    0    0 -0.96744129402E+01 -0.25654907922E+02 -0.16277321518E+02  0.31886043373E+02  0.00000000000E+00 0.  1.
         11    1    3    3    0    0 -0.86495272444E+01  0.27416171932E+02  0.18201023712E+02  0.34025550244E+02  0.51100000000E-03 0. -1.
        -11    1    3    3    0    0  0.34452504822E+01 -0.81334076295E+01  0.77594825931E+00  0.88670269265E+01  0.51100000000E-03 0.  1.
        -12    1    3    3    0    0  0.14878689702E+02  0.63721436188E+01 -0.26996504535E+01  0.16409379456E+02  0.00000000000E+00 0.  1.
</event>
<event>
 7    1  0.5979290E-013  0.5930190E+02  0.7816164E-02  0.1266605E+00
        -11   -1    0    0    0    0  0.00000000000E+00  0.00000000000E+00  0.45593999997E+02  0.45594000000E+02  0.51100000000E-03 0. -1.
         11   -1    0    0    0    0 -0.00000000000E+00 -0.00000000000E+00 -0.45593999997E+02  0.45594000000E+02  0.51100000000E-03 0.  1.
    9900012    2    1    2    0    0 -0.30581209343E+02 -0.63237850077E+01  0.64438235622E+01  0.59301898266E+02  0.49999916541E+02 0.  0.
        -12    1    1    2    0    0  0.30581209343E+02  0.63237850077E+01 -0.64438235622E+01  0.31886101734E+02  0.00000000000E+00 0.  1.
         11    1    3    3    0    0 -0.40353407703E+01  0.96322872273E+01  0.20387058979E+02  0.22906267842E+02  0.51100000000E-03 0. -1.
        -11    1    3    3    0    0 -0.17607376857E+02 -0.15977341839E+02 -0.62035148548E+01  0.24571910158E+02  0.51100000000E-03 0.  1.
         12    1    3    3    0    0 -0.89384917160E+01  0.21269604118E-01 -0.77397205618E+01  0.11823720266E+02  0.00000000000E+00 0. -1.
</event>
<event>
 7    1  0.5979290E-013  0.5930195E+02  0.7816164E-02  0.1266605E+00
        -11   -1    0    0    0    0  0.00000000000E+00  0.00000000000E+00  0.45593999997E+02  0.45594000000E+02  0.51100000000E-03 0.  1.
         11   -1    0    0    0    0 -0.00000000000E+00 -0.00000000000E+00 -0.45593999997E+02  0.45594000000E+02  0.51100000000E-03 0. -1.
    9900012    2    1    2    0    0 -0.60584424509E+01 -0.21491411518E+02 -0.22762573191E+02  0.59301949253E+02  0.50000009530E+02 0.  0.
        -12    1    1    2    0    0  0.60584424509E+01  0.21491411518E+02  0.22762573191E+02  0.31886050747E+02  0.00000000000E+00 0.  1.
         11    1    3    3    0    0 -0.24585936194E+01 -0.24051644329E+02 -0.30399293753E+02  0.38841258199E+02  0.51100000000E-03 0. -1.
        -11    1    3    3    0    0 -0.19812403489E+01  0.91424313006E+01 -0.10820781217E+01  0.94170195247E+01  0.51100000000E-03 0.  1.
         12    1    3    3    0    0 -0.16186084826E+01 -0.65821984891E+01  0.87187986839E+01  0.11043671530E+02  0.00000000000E+00 0. -1.
</event>
<event>
 7    1  0.5979290E-013  0.5930191E+02  0.7816164E-02  0.1266605E+00
        -11   -1    0    0    0    0  0.00000000000E+00  0.00000000000E+00  0.45593999997E+02  0.45594000000E+02  0.51100000000E-03 0. -1.
         11   -1    0    0    0    0 -0.00000000000E+00 -0.00000000000E+00 -0.45593999997E+02  0.45594000000E+02  0.51100000000E-03 0.  1.
    9900012    2    1    2    0    0 -0.15826335057E+02 -0.12558738126E+02  0.24668360825E+02  0.59301908825E+02  0.49999935798E+02 0.  0.
        -12    1    1    2    0    0  0.15826335057E+02  0.12558738126E+02 -0.24668360825E+02  0.31886091175E+02  0.00000000000E+00 0.  1.
         11    1    3    3    0    0 -0.66278629658E+01 -0.26644675443E+02  0.78935219528E+01  0.28568776418E+02  0.51100000000E-03 0. -1.
        -11    1    3    3    0    0 -0.91998210856E+01  0.18625483235E+02  0.11394127384E+02  0.23693279065E+02  0.51100000000E-03 0.  1.
        -12    1    3    3    0    0  0.13489943955E-02 -0.45395459176E+01  0.53807114881E+01  0.70398533419E+01  0.00000000000E+00 0.  1.
</event>
<event>
 7    1  0.5979290E-013  0.5930196E+02  0.7816164E-02  0.1266605E+00
        -11   -1    0    0    0    0  0.00000000000E+00  0.00000000000E+00  0.45593999997E+02  0.45594000000E+02  0.51100000000E-03 0.  1.
         11   -1    0    0    0    0 -0.00000000000E+00 -0.00000000000E+00 -0.45593999997E+02  0.45594000000E+02  0.51100000000E-03 0. -1.
    9900012    2    1    2    0    0 -0.38061769318E+01 -0.13773127885E+02 -0.28504968513E+02  0.59301964428E+02  0.50000037205E+02 0.  0.
        -12    1    1    2    0    0  0.38061769318E+01  0.13773127885E+02  0.28504968513E+02  0.31886035572E+02  0.00000000000E+00 0.  1.
         11    1    3    3    0    0  0.10905088524E+02 -0.26297208040E+01 -0.61071184727E+01  0.12772364053E+02  0.51100000000E-03 0. -1.
        -11    1    3    3    0    0 -0.26128689193E+02 -0.10965978288E+02 -0.11002740577E+02  0.30397719967E+02  0.51100000000E-03 0.  1.
        -12    1    3    3    0    0  0.11417423737E+02 -0.17742879258E+00 -0.11395109464E+02  0.16131880407E+02  0.00000000000E+00 0.  1.
</event>
<event>
 7    1  0.5979290E-013  0.5930195E+02  0.7816164E-02  0.1266605E+00
        -11   -1    0    0    0    0  0.00000000000E+00  0.00000000000E+00  0.45593999997E+02  0.45594000000E+02  0.51100000000E-03 0. -1.
         11   -1    0    0    0    0 -0.00000000000E+00 -0.00000000000E+00 -0.45593999997E+02  0.45594000000E+02  0.51100000000E-03 0.  1.
    9900012    2    1    2    0    0 -0.73672995224E+01  0.29382426967E+01  0.30883812663E+02  0.59301948865E+02  0.50000008822E+02 0.  0.
        -12    1    1    2    0    0  0.73672995224E+01 -0.29382426967E+01 -0.30883812663E+02  0.31886051135E+02  0.00000000000E+00 0.  1.
         11    1    3    3    0    0 -0.12228928630E+02 -0.42996549221E+01  0.10831766778E+02  0.16892628561E+02  0.51100000000E-03 0. -1.
        -11    1    3    3    0    0 -0.20290273228E+00  0.20507264382E+02  0.38557081078E+01  0.20867571666E+02  0.51100000000E-03 0.  1.
        -12    1    3    3    0    0  0.50645318399E+01 -0.13269366763E+02  0.16196337777E+02  0.21541748639E+02  0.00000000000E+00 0.  1.
</event>
<event>
 7    1  0.5979290E-013  0.5930192E+02  0.7816164E-02  0.1266605E+00
        -11   -1    0    0    0    0  0.00000000000E+00  0.00000000000E+00  0.45593999997E+02  0.45594000000E+02  0.51100000000E-03 0.  1.
         11   -1    0    0    0    0 -0.00000000000E+00 -0.00000000000E+00 -0.45593999997E+02  0.45594000000E+02  0.51100000000E-03 0. -1.
    9900012    2    1    2    0    0 -0.27101847681E+02  0.11358390997E+02 -0.12377366474E+02  0.59301915345E+02  0.49999947690E+02 0.  0.
        -12    1    1    2    0    0  0.27101847681E+02 -0.11358390997E+02  0.12377366474E+02  0.31886084655E+02  0.00000000000E+00 0.  1.
         11    1    3    3    0    0 -0.13525497669E+01 -0.98318306264E+01 -0.14002694968E+02  0.17163034433E+02  0.51100000000E-03 0. -1.
        -11    1    3    3    0    0 -0.30726872517E+01  0.17988690383E+02  0.51635611911E+01  0.18965673019E+02  0.51100000000E-03 0.  1.
        -12    1    3    3    0    0 -0.22676610662E+02  0.32015312406E+01 -0.35382326976E+01  0.23173207893E+02  0.00000000000E+00 0.  1.
</event>
<event>
 7    1  0.5979290E-013  0.5930209E+02  0.7816164E-02  0.1266604E+00
        -11   -1    0    0    0    0  0.00000000000E+00  0.00000000000E+00  0.45593999997E+02  0.45594000000E+02  0.51100000000E-03 0.  1.
         11   -1    0    0    0    0 -0.00000000000E+00 -0.00000000000E+00 -0.45593999997E+02  0.45594000000E+02  0.51100000000E-03 0. -1.
    9900012    2    1    2    0    0  0.66974131213E+01  0.12322227674E+02 -0.28635964033E+02  0.59302092871E+02  0.50000271453E+02 0.  0.
        -12    1    1    2    0    0 -0.66974131213E+01 -0.12322227674E+02  0.28635964033E+02  0.31885907129E+02  0.00000000000E+00 0.  1.
         11    1    3    3    0    0 -0.70508089960E+01  0.92092805760E+01 -0.13319748538E+02  0.17661836190E+02  0.51100000000E-03 0. -1.
        -11    1    3    3    0    0  0.14999131215E+02 -0.27043357706E+01 -0.25580106191E+02  0.29776319487E+02  0.51100000000E-03 0.  1.
        -12    1    3    3    0    0 -0.12509090979E+01  0.58172828684E+01  0.10263890695E+02  0.11863937194E+02  0.00000000000E+00 0.  1.
</event>
<event>
 7    1  0.5979290E-013  0.5930194E+02  0.7816164E-02  0.1266605E+00
        -11   -1    0    0    0    0  0.00000000000E+00  0.00000000000E+00  0.45593999997E+02  0.45594000000E+02  0.51100000000E-03 0. -1.
         11   -1    0    0    0    0 -0.00000000000E+00 -0.00000000000E+00 -0.45593999997E+02  0.45594000000E+02  0.51100000000E-03 0.  1.
    9900012    2    1    2    0    0  0.64482061488E+00 -0.17571628792E+02  0.26599676152E+02  0.59301941865E+02  0.49999996055E+02 0.  0.
        -12    1    1    2    0    0 -0.64482061488E+00  0.17571628792E+02 -0.26599676152E+02  0.31886058135E+02  0.00000000000E+00 0.  1.
         11    1    3    3    0    0 -0.17911869357E+02  0.69836138187E+01  0.12349036059E+02  0.22849608699E+02  0.51100000000E-03 0. -1.
        -11    1    3    3    0    0  0.12056747755E+02 -0.23969653525E+02  0.12970361301E+02  0.29801673260E+02  0.51100000000E-03 0.  1.
         12    1    3    3    0    0  0.64999422166E+01 -0.58558908494E+00  0.12802787915E+01  0.66506599055E+01  0.00000000000E+00 0. -1.
</event>
<event>
 7    1  0.1048972E-012  0.5930183E+02  0.7816164E-02  0.1266605E+00
        -11   -1    0    0    0    0  0.00000000000E+00  0.00000000000E+00  0.45593999997E+02  0.45594000000E+02  0.51100000000E-03 0. -1.
         11   -1    0    0    0    0 -0.00000000000E+00 -0.00000000000E+00 -0.45593999997E+02  0.45594000000E+02  0.51100000000E-03 0.  1.
    9900012    2    1    2    0    0  0.17948721015E+02  0.28011569616E+01  0.26205429408E+02  0.59301833770E+02  0.49999798915E+02 0.  0.
        -12    1    1    2    0    0 -0.17948721015E+02 -0.28011569616E+01 -0.26205429408E+02  0.31886166230E+02  0.00000000000E+00 0.  1.
         11    1    3    3    0    0  0.21587462402E+02  0.98900999356E+01  0.25894266657E+02  0.35133255694E+02  0.51100000000E-03 0. -1.
        -11    1    3    3    0    0  0.93422363568E-01  0.51586240074E+01 -0.75497993563E+01  0.91443753187E+01  0.51100000000E-03 0.  1.
         12    1    3    3    0    0 -0.37321637505E+01 -0.12247566981E+02  0.78609621073E+01  0.15024202757E+02  0.00000000000E+00 0. -1.
</event>
<event>
 7    1  0.5979290E-013  0.5930193E+02  0.7816164E-02  0.1266605E+00
        -11   -1    0    0    0    0  0.00000000000E+00  0.00000000000E+00  0.45593999997E+02  0.45594000000E+02  0.51100000000E-03 0.  1.
         11   -1    0    0    0    0 -0.00000000000E+00 -0.00000000000E+00 -0.45593999997E+02  0.45594000000E+02  0.51100000000E-03 0. -1.
    9900012    2    1    2    0    0  0.14531923168E+02  0.51545349301E+01 -0.27910133279E+02  0.59301928418E+02  0.49999971531E+02 0.  0.
        -12    1    1    2    0    0 -0.14531923168E+02 -0.51545349301E+01  0.27910133279E+02  0.31886071582E+02  0.00000000000E+00 0.  1.
         11    1    3    3    0    0  0.92659525651E+01  0.12524093624E+02 -0.31521499416E+02  0.35161281600E+02  0.51100000000E-03 0. -1.
        -11    1    3    3    0    0  0.15356517915E+01 -0.14739926782E+02  0.52441825737E+01  0.15720213711E+02  0.51100000000E-03 0.  1.
         12    1    3    3    0    0  0.37303188112E+01  0.73703680886E+01 -0.16328164366E+01  0.84204331070E+01  0.00000000000E+00 0. -1.
</event>
<event>
 7    1  0.5979290E-013  0.5930197E+02  0.7816164E-02  0.1266605E+00
        -11   -1    0    0    0    0  0.00000000000E+00  0.00000000000E+00  0.45593999997E+02  0.45594000000E+02  0.51100000000E-03 0.  1.
         11   -1    0    0    0    0 -0.00000000000E+00 -0.00000000000E+00 -0.45593999997E+02  0.45594000000E+02  0.51100000000E-03 0. -1.
    9900012    2    1    2    0    0 -0.21243194131E+02 -0.33478913787E+01 -0.23542248352E+02  0.59301966521E+02  0.50000041022E+02 0.  0.
        -12    1    1    2    0    0  0.21243194131E+02  0.33478913787E+01  0.23542248352E+02  0.31886033479E+02  0.00000000000E+00 0.  1.
         11    1    3    3    0    0  0.52742728589E+01  0.69448572479E+00 -0.90489436443E+01  0.10496839808E+02  0.51100000000E-03 0. -1.
        -11    1    3    3    0    0 -0.26031158750E+02 -0.17667510831E+02 -0.15620213795E+02  0.35124823759E+02  0.51100000000E-03 0.  1.
        -12    1    3    3    0    0 -0.48630823999E+00  0.13625133728E+02  0.11269090876E+01  0.13680302953E+02  0.00000000000E+00 0.  1.
</event>
<event>
 7    1  0.5979290E-013  0.5930201E+02  0.7816164E-02  0.1266605E+00
        -11   -1    0    0    0    0  0.00000000000E+00  0.00000000000E+00  0.45593999997E+02  0.45594000000E+02  0.51100000000E-03 0.  1.
         11   -1    0    0    0    0 -0.00000000000E+00 -0.00000000000E+00 -0.45593999997E+02  0.45594000000E+02  0.51100000000E-03 0. -1.
    9900012    2    1    2    0    0 -0.12767422768E+01 -0.98017149270E+01 -0.30315223259E+02  0.59302008600E+02  0.50000117764E+02 0.  0.
        -12    1    1    2    0    0  0.12767422768E+01  0.98017149270E+01  0.30315223259E+02  0.31885991400E+02  0.00000000000E+00 0.  1.
         11    1    3    3    0    0  0.61101681051E+01 -0.11162417633E+02  0.35799053004E+01  0.13219283033E+02  0.51100000000E-03 0. -1.
        -11    1    3    3    0    0  0.15059842655E+00  0.15098721001E+02 -0.12739161921E+02  0.19755513217E+02  0.51100000000E-03 0.  1.
        -12    1    3    3    0    0 -0.75375088084E+01 -0.13738018296E+02 -0.21155966638E+02  0.26327212350E+02  0.00000000000E+00 0.  1.
</event>
<event>
 7    1  0.5979290E-013  0.5930194E+02  0.7816164E-02  0.1266605E+00
        -11   -1    0    0    0    0  0.00000000000E+00  0.00000000000E+00  0.45593999997E+02  0.45594000000E+02  0.51100000000E-03 0.  1.
         11   -1    0    0    0    0 -0.00000000000E+00 -0.00000000000E+00 -0.45593999997E+02  0.45594000000E+02  0.51100000000E-03 0. -1.
    9900012    2    1    2    0    0 -0.31195019822E+02 -0.56438680902E+01 -0.34260793441E+01  0.59301944609E+02  0.50000001061E+02 0.  0.
        -12    1    1    2    0    0  0.31195019822E+02  0.56438680902E+01  0.34260793441E+01  0.31886055391E+02  0.00000000000E+00 0.  1.
         11    1    3    3    0    0 -0.38025862199E+02 -0.88429360597E+00 -0.75921513919E+01  0.38786452972E+02  0.51100000000E-03 0. -1.
        -11    1    3    3    0    0  0.22057251267E+01 -0.82529649274E+01  0.94028916063E+01  0.12703976710E+02  0.51100000000E-03 0.  1.
        -12    1    3    3    0    0  0.46251172504E+01  0.34933904432E+01 -0.52368195585E+01  0.78115149271E+01  0.00000000000E+00 0.  1.
</event>
<event>
 7    1  0.5979290E-013  0.5930160E+02  0.7816164E-02  0.1266606E+00
        -11   -1    0    0    0    0  0.00000000000E+00  0.00000000000E+00  0.45593999997E+02  0.45594000000E+02  0.51100000000E-03 0. -1.
         11   -1    0    0    0    0 -0.00000000000E+00 -0.00000000000E+00 -0.45593999997E+02  0.45594000000E+02  0.51100000000E-03 0.  1.
    9900012    2    1    2    0    0 -0.12218506096E+02  0.27963297892E+02 -0.92468625438E+01  0.59301601847E+02  0.49999375941E+02 0.  0.
        -12    1    1    2    0    0  0.12218506096E+02 -0.27963297892E+02  0.92468625438E+01  0.31886398153E+02  0.00000000000E+00 0.  1.
         11    1    3    3    0    0  0.36329308850E+00  0.14189338512E+02  0.12231492692E+02  0.18737094840E+02  0.51100000000E-03 0. -1.
        -11    1    3    3    0    0 -0.21167636840E+02  0.76149106012E+01 -0.90406384236E+01  0.24244357204E+02  0.51100000000E-03 0.  1.
        -12    1    3    3    0    0  0.85858376554E+01  0.61590487789E+01 -0.12437716813E+02  0.16320149804E+02  0.00000000000E+00 0.  1.
</event>
<event>
 7    1  0.5979290E-013  0.5930196E+02  0.7816164E-02  0.1266605E+00
        -11   -1    0    0    0    0  0.00000000000E+00  0.00000000000E+00  0.45593999997E+02  0.45594000000E+02  0.51100000000E-03 0. -1.
         11   -1    0    0    0    0 -0.00000000000E+00 -0.00000000000E+00 -0.45593999997E+02  0.45594000000E+02  0.51100000000E-03 0.  1.
    9900012    2    1    2    0    0 -0.68270487329E+01 -0.30920013665E+02  0.37501711682E+01  0.59301958803E+02  0.50000026947E+02 0.  0.
        -12    1    1    2    0    0  0.68270487329E+01  0.30920013665E+02 -0.37501711682E+01  0.31886041197E+02  0.00000000000E+00 0.  1.
         11    1    3    3    0    0 -0.22833065940E+02 -0.20435304216E+02 -0.12201043621E+02  0.32982056096E+02  0.51100000000E-03 0. -1.
        -11    1    3    3    0    0  0.27369537557E+01 -0.34859217932E+01  0.12938005133E-01  0.44320124393E+01  0.51100000000E-03 0.  1.
         12    1    3    3    0    0  0.13269063452E+02 -0.69987876558E+01  0.15938276784E+02  0.21887890268E+02  0.00000000000E+00 0. -1.
</event>
<event>
 7    1  0.5979290E-013  0.5930195E+02  0.7816164E-02  0.1266605E+00
        -11   -1    0    0    0    0  0.00000000000E+00  0.00000000000E+00  0.45593999997E+02  0.45594000000E+02  0.51100000000E-03 0.  1.
         11   -1    0    0    0    0 -0.00000000000E+00 -0.00000000000E+00 -0.45593999997E+02  0.45594000000E+02  0.51100000000E-03 0. -1.
    9900012    2    1    2    0    0  0.91104952263E+01  0.17074430096E+02 -0.25341327114E+02  0.59301950602E+02  0.50000011989E+02 0.  0.
        -12    1    1    2    0    0 -0.91104952263E+01 -0.17074430096E+02  0.25341327114E+02  0.31886049398E+02  0.00000000000E+00 0.  1.
         11    1    3    3    0    0 -0.17416631617E+02  0.48523650229E+01 -0.17666276201E+02  0.25278089688E+02  0.51100000000E-03 0. -1.
        -11    1    3    3    0    0  0.11932832963E+02  0.12475995673E+02  0.54387073792E+00  0.17272485814E+02  0.51100000000E-03 0.  1.
         12    1    3    3    0    0  0.14594293880E+02 -0.25393060011E+00 -0.82189216501E+01  0.16751375099E+02  0.00000000000E+00 0. -1.
</event>
<event>
 7    1  0.5979290E-013  0.5930194E+02  0.7816164E-02  0.1266605E+00
        -11   -1    0    0    0    0  0.00000000000E+00  0.00000000000E+00  0.45593999997E+02  0.45594000000E+02  0.51100000000E-03 0.  1.
         11   -1    0    0    0    0 -0.00000000000E+00 -0.00000000000E+00 -0.45593999997E+02  0.45594000000E+02  0.51100000000E-03 0. -1.
    9900012    2    1    2    0    0  0.22232709844E+02  0.48910759247E+01 -0.22327218511E+02  0.59301941962E+02  0.49999996233E+02 0.  0.
        -12    1    1    2    0    0 -0.22232709844E+02 -0.48910759247E+01  0.22327218511E+02  0.31886058038E+02  0.00000000000E+00 0.  1.
         11    1    3    3    0    0  0.17038507036E+02  0.72602086243E+01 -0.10521450318E+02  0.21300757459E+02  0.51100000000E-03 0. -1.
        -11    1    3    3    0    0 -0.12083749677E+02 -0.54783983572E+01  0.45312706592E+01  0.14020066650E+02  0.51100000000E-03 0.  1.
        -12    1    3    3    0    0  0.17277952486E+02  0.31092656576E+01 -0.16337038852E+02  0.23981117853E+02  0.00000000000E+00 0.  1.
</event>
<event>
 7    1  0.5979290E-013  0.5930194E+02  0.7816164E-02  0.1266605E+00
        -11   -1    0    0    0    0  0.00000000000E+00  0.00000000000E+00  0.45593999997E+02  0.45594000000E+02  0.51100000000E-03 0. -1.
         11   -1    0    0    0    0 -0.00000000000E+00 -0.00000000000E+00 -0.45593999997E+02  0.45594000000E+02  0.51100000000E-03 0.  1.
    9900012    2    1    2    0    0  0.26241991039E+02  0.31738486464E+00 -0.18110165162E+02  0.59301938640E+02  0.49999990174E+02 0.  0.
        -12    1    1    2    0    0 -0.26241991039E+02 -0.31738486464E+00  0.18110165162E+02  0.31886061360E+02  0.00000000000E+00 0.  1.
         11    1    3    3    0    0  0.37379534988E+00 -0.25971493662E+01 -0.17192971670E+02  0.17392043666E+02  0.51100000000E-03 0.  1.
        -11    1    3    3    0    0  0.15980754707E+02  0.39428934817E+01  0.15570229726E+02  0.22657514957E+02  0.51100000000E-03 0. -1.
         12    1    3    3    0    0  0.98874409821E+01 -0.10283592509E+01 -0.16487423219E+02  0.19252380017E+02  0.00000000000E+00 0. -1.
</event>
<event>
 7    1  0.5979290E-013  0.5930196E+02  0.7816164E-02  0.1266605E+00
        -11   -1    0    0    0    0  0.00000000000E+00  0.00000000000E+00  0.45593999997E+02  0.45594000000E+02  0.51100000000E-03 0.  1.
         11   -1    0    0    0    0 -0.00000000000E+00 -0.00000000000E+00 -0.45593999997E+02  0.45594000000E+02  0.51100000000E-03 0. -1.
    9900012    2    1    2    0    0  0.24647261274E+02  0.12608095333E+02  0.15819857697E+02  0.59301961460E+02  0.50000031792E+02 0.  0.
        -12    1    1    2    0    0 -0.24647261274E+02 -0.12608095333E+02 -0.15819857697E+02  0.31886038540E+02  0.00000000000E+00 0.  1.
         11    1    3    3    0    0 -0.80588562976E+01  0.95583547934E+01  0.21816685142E+01  0.12691217000E+02  0.51100000000E-03 0. -1.
        -11    1    3    3    0    0  0.22390480560E+02  0.11823678615E+02  0.19395483453E+02  0.31895419332E+02  0.51100000000E-03 0.  1.
        -12    1    3    3    0    0  0.10315637011E+02 -0.87739380753E+01 -0.57572942708E+01  0.14715325128E+02  0.00000000000E+00 0.  1.
</event>
<event>
 7    1  0.5979290E-013  0.5930193E+02  0.7816164E-02  0.1266605E+00
        -11   -1    0    0    0    0  0.00000000000E+00  0.00000000000E+00  0.45593999997E+02  0.45594000000E+02  0.51100000000E-03 0.  1.
         11   -1    0    0    0    0 -0.00000000000E+00 -0.00000000000E+00 -0.45593999997E+02  0.45594000000E+02  0.51100000000E-03 0. -1.
    9900012    2    1    2    0    0 -0.21938498239E+02 -0.13267305594E+02 -0.18957902653E+02  0.59301934459E+02  0.49999982549E+02 0.  0.
        -12    1    1    2    0    0  0.21938498239E+02  0.13267305594E+02  0.18957902653E+02  0.31886065541E+02  0.00000000000E+00 0.  1.
         11    1    3    3    0    0 -0.12188072065E+02  0.18682299475E+02 -0.98080326550E+01  0.24367497187E+02  0.51100000000E-03 0. -1.
        -11    1    3    3    0    0 -0.73744784638E+00 -0.92375045113E+01 -0.20855279618E+01  0.94986707524E+01  0.51100000000E-03 0.  1.
         12    1    3    3    0    0 -0.90129783274E+01 -0.22712100557E+02 -0.70643420358E+01  0.25435766520E+02  0.00000000000E+00 0. -1.
</event>
<event>
 7    1  0.5979290E-013  0.5930199E+02  0.7816164E-02  0.1266605E+00
        -11   -1    0    0    0    0  0.00000000000E+00  0.00000000000E+00  0.45593999997E+02  0.45594000000E+02  0.51100000000E-03 0.  1.
         11   -1    0    0    0    0 -0.00000000000E+00 -0.00000000000E+00 -0.45593999997E+02  0.45594000000E+02  0.51100000000E-03 0. -1.
    9900012    2    1    2    0    0 -0.29721093413E+02  0.11452330779E+02 -0.14894586164E+01  0.59301988005E+02  0.50000080205E+02 0.  0.
        -12    1    1    2    0    0  0.29721093413E+02 -0.11452330779E+02  0.14894586164E+01  0.31886011995E+02  0.00000000000E+00 0.  1.
         11    1    3    3    0    0  0.71752441022E+01  0.67980846201E+01  0.10275703055E+02  0.14257915555E+02  0.51100000000E-03 0.  1.
        -11    1    3    3    0    0 -0.57473006751E+01  0.69693139716E+01 -0.10405429165E+02  0.13779541308E+02  0.51100000000E-03 0. -1.
         12    1    3    3    0    0 -0.31149036841E+02 -0.23150678128E+01 -0.13597325064E+01  0.31264531142E+02  0.00000000000E+00 0. -1.
</event>
<event>
 7    1  0.5979290E-013  0.5930198E+02  0.7816164E-02  0.1266605E+00
        -11   -1    0    0    0    0  0.00000000000E+00  0.00000000000E+00  0.45593999997E+02  0.45594000000E+02  0.51100000000E-03 0.  1.
         11   -1    0    0    0    0 -0.00000000000E+00 -0.00000000000E+00 -0.45593999997E+02  0.45594000000E+02  0.51100000000E-03 0. -1.
    9900012    2    1    2    0    0 -0.50721278513E+01  0.11072644482E+02 -0.29468426732E+02  0.59301982519E+02  0.50000070198E+02 0.  0.
        -12    1    1    2    0    0  0.50721278513E+01 -0.11072644482E+02  0.29468426732E+02  0.31886017481E+02  0.00000000000E+00 0.  1.
         11    1    3    3    0    0  0.48529340636E+01  0.60068528434E+01 -0.61058757944E+01  0.98445400901E+01  0.51100000000E-03 0. -1.
        -11    1    3    3    0    0 -0.18059911788E+02  0.22480290569E+01  0.57600131306E+01  0.19089049216E+02  0.51100000000E-03 0.  1.
        -12    1    3    3    0    0  0.81348498735E+01  0.28177625818E+01 -0.29122564068E+02  0.30368393213E+02  0.00000000000E+00 0.  1.
</event>
<event>
 7    1  0.5979290E-013  0.5930195E+02  0.7816164E-02  0.1266605E+00
        -11   -1    0    0    0    0  0.00000000000E+00  0.00000000000E+00  0.45593999997E+02  0.45594000000E+02  0.51100000000E-03 0. -1.
         11   -1    0    0    0    0 -0.00000000000E+00 -0.00000000000E+00 -0.45593999997E+02  0.45594000000E+02  0.51100000000E-03 0.  1.
    9900012    2    1    2    0    0  0.30600720248E+02  0.28110272282E+01 -0.85096532304E+01  0.59301950513E+02  0.50000011827E+02 0.  0.
        -12    1    1    2    0    0 -0.30600720248E+02 -0.28110272282E+01  0.85096532304E+01  0.31886049487E+02  0.00000000000E+00 0.  1.
         11    1    3    3    0    0  0.12364064885E+02 -0.16694610566E+02  0.62672142228E+01  0.21699264891E+02  0.51100000000E-03 0. -1.
        -11    1    3    3    0    0  0.65816985572E+01  0.48569777068E+01 -0.16887790096E+02  0.18764499539E+02  0.51100000000E-03 0.  1.
         12    1    3    3    0    0  0.11654956806E+02  0.14648660087E+02  0.21109226429E+01  0.18838186083E+02  0.00000000000E+00 0. -1.
</event>
<event>
 7    1  0.5979290E-013  0.5930195E+02  0.7816164E-02  0.1266605E+00
        -11   -1    0    0    0    0  0.00000000000E+00  0.00000000000E+00  0.45593999997E+02  0.45594000000E+02  0.51100000000E-03 0.  1.
         11   -1    0    0    0    0 -0.00000000000E+00 -0.00000000000E+00 -0.45593999997E+02  0.45594000000E+02  0.51100000000E-03 0. -1.
    9900012    2    1    2    0    0  0.10409892174E+01  0.31795157762E+02 -0.21690153047E+01  0.59301947515E+02  0.50000006360E+02 0.  0.
        -12    1    1    2    0    0 -0.10409892174E+01 -0.31795157762E+02  0.21690153047E+01  0.31886052485E+02  0.00000000000E+00 0.  1.
         11    1    3    3    0    0  0.20654675326E+01  0.30727060168E+01 -0.10850804837E+02  0.11465061896E+02  0.51100000000E-03 0. -1.
        -11    1    3    3    0    0  0.73494510562E+01  0.16203294267E+02  0.21606955535E+02  0.27989671375E+02  0.51100000000E-03 0.  1.
        -12    1    3    3    0    0 -0.83739293714E+01  0.12519157478E+02 -0.12925166002E+02  0.19847214244E+02  0.00000000000E+00 0.  1.
</event>
<event>
 7    1  0.5979290E-013  0.5930197E+02  0.7816164E-02  0.1266605E+00
        -11   -1    0    0    0    0  0.00000000000E+00  0.00000000000E+00  0.45593999997E+02  0.45594000000E+02  0.51100000000E-03 0. -1.
         11   -1    0    0    0    0 -0.00000000000E+00 -0.00000000000E+00 -0.45593999997E+02  0.45594000000E+02  0.51100000000E-03 0.  1.
    9900012    2    1    2    0    0 -0.25037311596E+02 -0.97014921247E+01  0.17196890745E+02  0.59301969003E+02  0.50000045549E+02 0.  0.
        -12    1    1    2    0    0  0.25037311596E+02  0.97014921247E+01 -0.17196890745E+02  0.31886030997E+02  0.00000000000E+00 0.  1.
         11    1    3    3    0    0  0.29620561307E+01 -0.95479779226E+01  0.13886459552E+01  0.10092868610E+02  0.51100000000E-03 0. -1.
        -11    1    3    3    0    0 -0.22379558425E+02  0.28335138511E-01  0.27963572045E+02  0.35816292381E+02  0.51100000000E-03 0.  1.
        -12    1    3    3    0    0 -0.56198093017E+01 -0.18184934062E+00 -0.12155327255E+02  0.13392808012E+02  0.00000000000E+00 0.  1.
</event>
<event>
 7    1  0.5979290E-013  0.5930181E+02  0.7816164E-02  0.1266605E+00
        -11   -1    0    0    0    0  0.00000000000E+00  0.00000000000E+00  0.45593999997E+02  0.45594000000E+02  0.51100000000E-03 0. -1.
         11   -1    0    0    0    0 -0.00000000000E+00 -0.00000000000E+00 -0.45593999997E+02  0.45594000000E+02  0.51100000000E-03 0.  1.
    9900012    2    1    2    0    0  0.25412156189E+02 -0.31766767712E+01  0.18996312498E+02  0.59301814183E+02  0.49999763193E+02 0.  0.
        -12    1    1    2    0    0 -0.25412156189E+02  0.31766767712E+01 -0.18996312498E+02  0.31886185817E+02  0.00000000000E+00 0.  1.
         11    1    3    3    0    0  0.18166877114E+02  0.44504993219E+01 -0.46833864472E+00  0.18709936120E+02  0.51100000000E-03 0. -1.
        -11    1    3    3    0    0 -0.49976325184E+01 -0.10648574967E+02 -0.52227260529E+01  0.12870328174E+02  0.51100000000E-03 0.  1.
        -12    1    3    3    0    0  0.12242911593E+02  0.30213988738E+01  0.24687377195E+02  0.27721549888E+02  0.00000000000E+00 0.  1.
</event>
<event>
 7    1  0.5979290E-013  0.5930192E+02  0.7816164E-02  0.1266605E+00
        -11   -1    0    0    0    0  0.00000000000E+00  0.00000000000E+00  0.45593999997E+02  0.45594000000E+02  0.51100000000E-03 0. -1.
         11   -1    0    0    0    0 -0.00000000000E+00 -0.00000000000E+00 -0.45593999997E+02  0.45594000000E+02  0.51100000000E-03 0.  1.
    9900012    2    1    2    0    0  0.16773624966E+02  0.20154232300E+02  0.18143168038E+02  0.59301919643E+02  0.49999955527E+02 0.  0.
        -12    1    1    2    0    0 -0.16773624966E+02 -0.20154232300E+02 -0.18143168038E+02  0.31886080357E+02  0.00000000000E+00 0.  1.
         11    1    3    3    0    0  0.42748850099E+01  0.24725381860E+02  0.28365424362E+02  0.37871050282E+02  0.51100000000E-03 0. -1.
        -11    1    3    3    0    0  0.47828545652E+01 -0.36517540791E+01 -0.12031605212E+02  0.13452528755E+02  0.51100000000E-03 0.  1.
        -12    1    3    3    0    0  0.77158853912E+01 -0.91939548087E+00  0.18093488879E+01  0.79783406056E+01  0.00000000000E+00 0.  1.
</event>
<event>
 7    1  0.5979290E-013  0.5930194E+02  0.7816164E-02  0.1266605E+00
        -11   -1    0    0    0    0  0.00000000000E+00  0.00000000000E+00  0.45593999997E+02  0.45594000000E+02  0.51100000000E-03 0.  1.
         11   -1    0    0    0    0 -0.00000000000E+00 -0.00000000000E+00 -0.45593999997E+02  0.45594000000E+02  0.51100000000E-03 0. -1.
    9900012    2    1    2    0    0  0.13638330770E+02  0.24926867713E+02 -0.14469552677E+02  0.59301941058E+02  0.49999994584E+02 0.  0.
        -12    1    1    2    0    0 -0.13638330770E+02 -0.24926867713E+02  0.14469552677E+02  0.31886058942E+02  0.00000000000E+00 0.  1.
         11    1    3    3    0    0 -0.47999716397E+01  0.11667758278E+02 -0.63296000553E+01  0.14115245237E+02  0.51100000000E-03 0. -1.
        -11    1    3    3    0    0 -0.29354102168E+01 -0.11342100610E+02 -0.56879364212E+00  0.11729595298E+02  0.51100000000E-03 0.  1.
        -12    1    3    3    0    0  0.21373712627E+02  0.24601210045E+02 -0.75711589791E+01  0.33457100523E+02  0.00000000000E+00 0.  1.
</event>
<event>
 7    1  0.5979290E-013  0.5930195E+02  0.7816164E-02  0.1266605E+00
        -11   -1    0    0    0    0  0.00000000000E+00  0.00000000000E+00  0.45593999997E+02  0.45594000000E+02  0.51100000000E-03 0. -1.
         11   -1    0    0    0    0 -0.00000000000E+00 -0.00000000000E+00 -0.45593999997E+02  0.45594000000E+02  0.51100000000E-03 0.  1.
    9900012    2    1    2    0    0 -0.15680416778E+02  0.11057530509E+02  0.25467149564E+02  0.59301950414E+02  0.50000011647E+02 0.  0.
        -12    1    1    2    0    0  0.15680416778E+02 -0.11057530509E+02 -0.25467149564E+02  0.31886049586E+02  0.00000000000E+00 0.  1.
         11    1    3    3    0    0 -0.97536738506E+01  0.14131728155E+02 -0.69833703305E+01  0.18536648987E+02  0.51100000000E-03 0. -1.
        -11    1    3    3    0    0 -0.56907740966E+01 -0.10704537135E+02  0.30594548615E+02  0.32908941494E+02  0.51100000000E-03 0.  1.
        -12    1    3    3    0    0 -0.23596883041E+00  0.76303394891E+01  0.18559712796E+01  0.78563599331E+01  0.00000000000E+00 0.  1.
</event>
<event>
 7    1  0.5979290E-013  0.5930196E+02  0.7816164E-02  0.1266605E+00
        -11   -1    0    0    0    0  0.00000000000E+00  0.00000000000E+00  0.45593999997E+02  0.45594000000E+02  0.51100000000E-03 0. -1.
         11   -1    0    0    0    0 -0.00000000000E+00 -0.00000000000E+00 -0.45593999997E+02  0.45594000000E+02  0.51100000000E-03 0.  1.
    9900012    2    1    2    0    0  0.58440208214E+01  0.28840085065E+02 -0.12280746639E+02  0.59301955656E+02  0.50000021206E+02 0.  0.
        -12    1    1    2    0    0 -0.58440208214E+01 -0.28840085065E+02  0.12280746639E+02  0.31886044344E+02  0.00000000000E+00 0.  1.
         11    1    3    3    0    0 -0.39823860828E+01  0.11494784321E+02 -0.63895290177E+01  0.13741016950E+02  0.51100000000E-03 0. -1.
        -11    1    3    3    0    0  0.25389718734E+02  0.10708931788E+02  0.26374083216E+00  0.27557006313E+02  0.51100000000E-03 0.  1.
        -12    1    3    3    0    0 -0.15563311830E+02  0.66363689559E+01 -0.61549584535E+01  0.18003932392E+02  0.00000000000E+00 0.  1.
</event>
<event>
 7    1  0.5979290E-013  0.5930197E+02  0.7816164E-02  0.1266605E+00
        -11   -1    0    0    0    0  0.00000000000E+00  0.00000000000E+00  0.45593999997E+02  0.45594000000E+02  0.51100000000E-03 0.  1.
         11   -1    0    0    0    0 -0.00000000000E+00 -0.00000000000E+00 -0.45593999997E+02  0.45594000000E+02  0.51100000000E-03 0. -1.
    9900012    2    1    2    0    0 -0.14544894959E+02  0.26442369774E+02 -0.10293993490E+02  0.59301965587E+02  0.50000039319E+02 0.  0.
        -12    1    1    2    0    0  0.14544894959E+02 -0.26442369774E+02  0.10293993490E+02  0.31886034413E+02  0.00000000000E+00 0.  1.
         11    1    3    3    0    0  0.42659473070E+01  0.13416809750E+02 -0.36944472439E+01  0.14555343726E+02  0.51100000000E-03 0. -1.
        -11    1    3    3    0    0 -0.27785471889E+02  0.11843845710E+02 -0.13773312489E+02  0.33196585164E+02  0.51100000000E-03 0.  1.
        -12    1    3    3    0    0  0.89746296237E+01  0.11817143135E+01  0.71737662431E+01  0.11550036697E+02  0.00000000000E+00 0.  1.
</event>
<event>
 7    1  0.5979290E-013  0.5930196E+02  0.7816164E-02  0.1266605E+00
        -11   -1    0    0    0    0  0.00000000000E+00  0.00000000000E+00  0.45593999997E+02  0.45594000000E+02  0.51100000000E-03 0.  1.
         11   -1    0    0    0    0 -0.00000000000E+00 -0.00000000000E+00 -0.45593999997E+02  0.45594000000E+02  0.51100000000E-03 0. -1.
    9900012    2    1    2    0    0 -0.21634300927E+02 -0.18055500878E+02 -0.14922324445E+02  0.59301955163E+02  0.50000020307E+02 0.  0.
        -12    1    1    2    0    0  0.21634300927E+02  0.18055500878E+02  0.14922324445E+02  0.31886044837E+02  0.00000000000E+00 0.  1.
         11    1    3    3    0    0 -0.72885542268E+01 -0.11226470898E+02 -0.22374258059E+02  0.26072285966E+02  0.51100000000E-03 0. -1.
        -11    1    3    3    0    0 -0.68651879531E+01 -0.15351013464E+02  0.12363722460E+02  0.20872135812E+02  0.51100000000E-03 0.  1.
        -12    1    3    3    0    0 -0.74805587467E+01  0.85219834849E+01 -0.49117888469E+01  0.12357533385E+02  0.00000000000E+00 0.  1.
</event>
<event>
 7    1  0.5979290E-013  0.5930193E+02  0.7816164E-02  0.1266605E+00
        -11   -1    0    0    0    0  0.00000000000E+00  0.00000000000E+00  0.45593999997E+02  0.45594000000E+02  0.51100000000E-03 0.  1.
         11   -1    0    0    0    0 -0.00000000000E+00 -0.00000000000E+00 -0.45593999997E+02  0.45594000000E+02  0.51100000000E-03 0. -1.
    9900012    2    1    2    0    0 -0.91374876722E+01  0.26197390079E+02 -0.15713836933E+02  0.59301927820E+02  0.49999970441E+02 0.  0.
        -12    1    1    2    0    0  0.91374876722E+01 -0.26197390079E+02  0.15713836933E+02  0.31886072180E+02  0.00000000000E+00 0.  1.
         11    1    3    3    0    0 -0.11554690077E+02  0.35976803145E+02 -0.33838064384E+01  0.37937993800E+02  0.51100000000E-03 0. -1.
        -11    1    3    3    0    0 -0.44661492436E+01 -0.10670319350E+01  0.23258862876E+00  0.45977324789E+01  0.51100000000E-03 0.  1.
         12    1    3    3    0    0  0.68833516483E+01 -0.87123811307E+01 -0.12562619124E+02  0.16766201541E+02  0.00000000000E+00 0. -1.
</event>
<event>
 7    1  0.5979290E-013  0.5930194E+02  0.7816164E-02  0.1266605E+00
        -11   -1    0    0    0    0  0.00000000000E+00  0.00000000000E+00  0.45593999997E+02  0.45594000000E+02  0.51100000000E-03 0. -1.
         11   -1    0    0    0    0 -0.00000000000E+00 -0.00000000000E+00 -0.45593999997E+02  0.45594000000E+02  0.51100000000E-03 0.  1.
    9900012    2    1    2    0    0 -0.95309410386E+01  0.29148140571E+02  0.87331516979E+01  0.59301939184E+02  0.49999991166E+02 0.  0.
        -12    1    1    2    0    0  0.95309410386E+01 -0.29148140571E+02 -0.87331516979E+01  0.31886060816E+02  0.00000000000E+00 0.  1.
         11    1    3    3    0    0  0.53161665512E+01  0.37893357004E+02  0.62172273007E+01  0.38766248817E+02  0.51100000000E-03 0. -1.
        -11    1    3    3    0    0 -0.81082627560E+01 -0.10641151546E+02  0.17964840005E+01  0.13498347535E+02  0.51100000000E-03 0.  1.
        -12    1    3    3    0    0 -0.67388448338E+01  0.18959351129E+01  0.71944039671E+00  0.70373428317E+01  0.00000000000E+00 0.  1.
</event>
<event>
 7    1  0.5979290E-013  0.5930196E+02  0.7816164E-02  0.1266605E+00
        -11   -1    0    0    0    0  0.00000000000E+00  0.00000000000E+00  0.45593999997E+02  0.45594000000E+02  0.51100000000E-03 0.  1.
         11   -1    0    0    0    0 -0.00000000000E+00 -0.00000000000E+00 -0.45593999997E+02  0.45594000000E+02  0.51100000000E-03 0. -1.
    9900012    2    1    2    0    0 -0.50646838501E+01 -0.11990750687E+02 -0.29108254898E+02  0.59301958732E+02  0.50000026817E+02 0.  0.
        -12    1    1    2    0    0  0.50646838501E+01  0.11990750687E+02  0.29108254898E+02  0.31886041268E+02  0.00000000000E+00 0.  1.
         11    1    3    3    0    0  0.23543383620E+01 -0.18488498991E+02 -0.15087307891E+02  0.23979040091E+02  0.51100000000E-03 0. -1.
        -11    1    3    3    0    0 -0.15104492533E+02  0.22921487729E+01  0.35540312664E+01  0.15685368315E+02  0.51100000000E-03 0.  1.
        -12    1    3    3    0    0  0.76854703208E+01  0.42055995309E+01 -0.17574978274E+02  0.19637550326E+02  0.00000000000E+00 0.  1.
</event>
<event>
 7    1  0.5979290E-013  0.5930195E+02  0.7816164E-02  0.1266605E+00
        -11   -1    0    0    0    0  0.00000000000E+00  0.00000000000E+00  0.45593999997E+02  0.45594000000E+02  0.51100000000E-03 0. -1.
         11   -1    0    0    0    0 -0.00000000000E+00 -0.00000000000E+00 -0.45593999997E+02  0.45594000000E+02  0.51100000000E-03 0.  1.
    9900012    2    1    2    0    0 -0.21529851487E+02  0.23056076274E+02 -0.46479153899E+01  0.59301948572E+02  0.50000008287E+02 0.  0.
        -12    1    1    2    0    0  0.21529851487E+02 -0.23056076274E+02  0.46479153899E+01  0.31886051428E+02  0.00000000000E+00 0.  1.
         11    1    3    3    0    0  0.17753306732E+01 -0.27467147030E+01  0.23762186138E+01  0.40426050785E+01  0.51100000000E-03 0. -1.
        -11    1    3    3    0    0 -0.35220386759E+02  0.23489622551E+02 -0.28759439247E+01  0.42432405833E+02  0.51100000000E-03 0.  1.
        -12    1    3    3    0    0  0.11915204599E+02  0.23131684268E+01 -0.41481900791E+01  0.12826937660E+02  0.00000000000E+00 0.  1.
</event>
<event>
 7    1  0.9127386E-013  0.5930195E+02  0.7816164E-02  0.1266605E+00
        -11   -1    0    0    0    0  0.00000000000E+00  0.00000000000E+00  0.45593999997E+02  0.45594000000E+02  0.51100000000E-03 0. -1.
         11   -1    0    0    0    0 -0.00000000000E+00 -0.00000000000E+00 -0.45593999997E+02  0.45594000000E+02  0.51100000000E-03 0.  1.
    9900012    2    1    2    0    0 -0.29421333752E+02  0.16454785626E+01  0.12181865314E+02  0.59301947846E+02  0.50000006963E+02 0.  0.
        -12    1    1    2    0    0  0.29421333752E+02 -0.16454785626E+01 -0.12181865314E+02  0.31886052154E+02  0.00000000000E+00 0.  1.
         11    1    3    3    0    0 -0.29822043961E+02 -0.11194161659E+02  0.17951235747E+02  0.36563785723E+02  0.51100000000E-03 0. -1.
        -11    1    3    3    0    0  0.86870932425E+01  0.61125107740E+01 -0.35275249501E-01  0.10622128862E+02  0.51100000000E-03 0.  1.
         12    1    3    3    0    0 -0.82863830335E+01  0.67271294478E+01 -0.57340951840E+01  0.12116033260E+02  0.00000000000E+00 0. -1.
</event>
<event>
 7    1  0.5979290E-013  0.5930194E+02  0.7816164E-02  0.1266605E+00
        -11   -1    0    0    0    0  0.00000000000E+00  0.00000000000E+00  0.45593999997E+02  0.45594000000E+02  0.51100000000E-03 0.  1.
         11   -1    0    0    0    0 -0.00000000000E+00 -0.00000000000E+00 -0.45593999997E+02  0.45594000000E+02  0.51100000000E-03 0. -1.
    9900012    2    1    2    0    0  0.20352028245E+02  0.15570779890E+02 -0.18975421156E+02  0.59301939596E+02  0.49999991917E+02 0.  0.
        -12    1    1    2    0    0 -0.20352028245E+02 -0.15570779890E+02  0.18975421156E+02  0.31886060404E+02  0.00000000000E+00 0.  1.
         11    1    3    3    0    0 -0.94923848561E+01  0.12950980735E+01 -0.18714469504E+02  0.21024129432E+02  0.51100000000E-03 0. -1.
        -11    1    3    3    0    0  0.20122158511E+02  0.10326943751E+02  0.89415162101E+01  0.24320726609E+02  0.51100000000E-03 0.  1.
        -12    1    3    3    0    0  0.97222545897E+01  0.39487380647E+01 -0.92024678618E+01  0.13957083555E+02  0.00000000000E+00 0.  1.
</event>
<event>
 7    1  0.5979290E-013  0.5930196E+02  0.7816164E-02  0.1266605E+00
        -11   -1    0    0    0    0  0.00000000000E+00  0.00000000000E+00  0.45593999997E+02  0.45594000000E+02  0.51100000000E-03 0.  1.
         11   -1    0    0    0    0 -0.00000000000E+00 -0.00000000000E+00 -0.45593999997E+02  0.45594000000E+02  0.51100000000E-03 0. -1.
    9900012    2    1    2    0    0  0.42938045567E+01 -0.31520447398E+02  0.21780615288E+01  0.59301963655E+02  0.50000035796E+02 0.  0.
        -12    1    1    2    0    0 -0.42938045567E+01  0.31520447398E+02 -0.21780615288E+01  0.31886036345E+02  0.00000000000E+00 0.  1.
         11    1    3    3    0    0 -0.14410950648E+02 -0.30626467237E+02  0.76027348411E+01  0.34690885998E+02  0.51100000000E-03 0. -1.
        -11    1    3    3    0    0  0.55835055629E+01  0.45461467586E+01 -0.73355989498E+01  0.10278813012E+02  0.51100000000E-03 0.  1.
        -12    1    3    3    0    0  0.13121249642E+02 -0.54401269195E+01  0.19109256375E+01  0.14332264645E+02  0.00000000000E+00 0.  1.
</event>
<event>
 7    1  0.5979290E-013  0.5930196E+02  0.7816164E-02  0.1266605E+00
        -11   -1    0    0    0    0  0.00000000000E+00  0.00000000000E+00  0.45593999997E+02  0.45594000000E+02  0.51100000000E-03 0.  1.
         11   -1    0    0    0    0 -0.00000000000E+00 -0.00000000000E+00 -0.45593999997E+02  0.45594000000E+02  0.51100000000E-03 0. -1.
    9900012    2    1    2    0    0 -0.21819159579E+02  0.32430785563E+00 -0.23249485773E+02  0.59301960907E+02  0.50000030784E+02 0.  0.
        -12    1    1    2    0    0  0.21819159579E+02 -0.32430785563E+00  0.23249485773E+02  0.31886039093E+02  0.00000000000E+00 0.  1.
         11    1    3    3    0    0 -0.54711257872E+01 -0.92187273598E+01  0.87858006490E+01  0.13860319073E+02  0.51100000000E-03 0.  1.
        -11    1    3    3    0    0  0.57042160613E+00  0.10804422894E+02 -0.24685783129E+02  0.26952714591E+02  0.51100000000E-03 0. -1.
        -12    1    3    3    0    0 -0.16918455398E+02 -0.12613876783E+01 -0.73495032935E+01  0.18488927243E+02  0.00000000000E+00 0.  1.
</event>
<event>
 7    1  0.5979290E-013  0.5930195E+02  0.7816164E-02  0.1266605E+00
        -11   -1    0    0    0    0  0.00000000000E+00  0.00000000000E+00  0.45593999997E+02  0.45594000000E+02  0.51100000000E-03 0.  1.
         11   -1    0    0    0    0 -0.00000000000E+00 -0.00000000000E+00 -0.45593999997E+02  0.45594000000E+02  0.51100000000E-03 0. -1.
    9900012    2    1    2    0    0  0.11671650561E+01 -0.17092292003E+02 -0.26892597011E+02  0.59301945145E+02  0.50000002038E+02 0.  0.
        -12    1    1    2    0    0 -0.11671650561E+01  0.17092292003E+02  0.26892597011E+02  0.31886054855E+02  0.00000000000E+00 0.  1.
         11    1    3    3    0    0 -0.15913270506E+02 -0.10815420180E+02 -0.30545740275E+02  0.36100522726E+02  0.51100000000E-03 0. -1.
        -11    1    3    3    0    0  0.26696857745E+01 -0.30192975040E+01  0.69773494852E+01  0.80577159079E+01  0.51100000000E-03 0.  1.
         12    1    3    3    0    0  0.14410749788E+02 -0.32575743192E+01 -0.33242062214E+01  0.15143706511E+02  0.00000000000E+00 0. -1.
</event>
<event>
 7    1  0.5979290E-013  0.5930193E+02  0.7816164E-02  0.1266605E+00
        -11   -1    0    0    0    0  0.00000000000E+00  0.00000000000E+00  0.45593999997E+02  0.45594000000E+02  0.51100000000E-03 0.  1.
         11   -1    0    0    0    0 -0.00000000000E+00 -0.00000000000E+00 -0.45593999997E+02  0.45594000000E+02  0.51100000000E-03 0. -1.
    9900012    2    1    2    0    0  0.12603687853E+02  0.12353055889E+02 -0.26556926410E+02  0.59301932860E+02  0.49999979633E+02 0.  0.
        -12    1    1    2    0    0 -0.12603687853E+02 -0.12353055889E+02  0.26556926410E+02  0.31886067140E+02  0.00000000000E+00 0.  1.
         11    1    3    3    0    0  0.13191447982E+02  0.14087752965E+01  0.67439810910E+01  0.14882211829E+02  0.51100000000E-03 0. -1.
        -11    1    3    3    0    0  0.85839038943E+01  0.14976409970E+02 -0.28476147428E+02  0.33299658170E+02  0.51100000000E-03 0.  1.
        -12    1    3    3    0    0 -0.91716640238E+01 -0.40321293770E+01 -0.48247600729E+01  0.11120062861E+02  0.00000000000E+00 0.  1.
</event>
<event>
 7    1  0.5979290E-013  0.5930194E+02  0.7816164E-02  0.1266605E+00
        -11   -1    0    0    0    0  0.00000000000E+00  0.00000000000E+00  0.45593999997E+02  0.45594000000E+02  0.51100000000E-03 0.  1.
         11   -1    0    0    0    0 -0.00000000000E+00 -0.00000000000E+00 -0.45593999997E+02  0.45594000000E+02  0.51100000000E-03 0. -1.
    9900012    2    1    2    0    0 -0.29285400475E+02 -0.41044900306E+01 -0.11926424320E+02  0.59301935387E+02  0.49999984242E+02 0.  0.
        -12    1    1    2    0    0  0.29285400475E+02  0.41044900306E+01  0.11926424320E+02  0.31886064613E+02  0.00000000000E+00 0.  1.
         11    1    3    3    0    0  0.22454084681E+01 -0.17309486235E+02  0.19676417174E+01  0.17565072932E+02  0.51100000000E-03 0. -1.
        -11    1    3    3    0    0 -0.33349183693E+02  0.13071882543E+02 -0.96180940499E+01  0.37088406539E+02  0.51100000000E-03 0.  1.
         12    1    3    3    0    0  0.18183747490E+01  0.13311366148E+00 -0.42759719873E+01  0.46484559169E+01  0.00000000000E+00 0. -1.
</event>
<event>
 7    1  0.6400022E-013  0.5930190E+02  0.7816164E-02  0.1266605E+00
        -11   -1    0    0    0    0  0.00000000000E+00  0.00000000000E+00  0.45593999997E+02  0.45594000000E+02  0.51100000000E-03 0. -1.
         11   -1    0    0    0    0 -0.00000000000E+00 -0.00000000000E+00 -0.45593999997E+02  0.45594000000E+02  0.51100000000E-03 0.  1.
    9900012    2    1    2    0    0  0.16594390658E+02 -0.12644724961E+01  0.27198362231E+02  0.59301896443E+02  0.49999913216E+02 0.  0.
        -12    1    1    2    0    0 -0.16594390658E+02  0.12644724961E+01 -0.27198362231E+02  0.31886103557E+02  0.00000000000E+00 0.  1.
         11    1    3    3    0    0  0.70509197101E+01  0.15591868500E+02  0.28817351065E+02  0.33515094431E+02  0.51100000000E-03 0. -1.
        -11    1    3    3    0    0  0.13507846905E+02 -0.73322888753E+01 -0.17933538231E+00  0.15370639206E+02  0.51100000000E-03 0.  1.
         12    1    3    3    0    0 -0.39643759572E+01 -0.95240521209E+01 -0.14396534512E+01  0.10416162806E+02  0.00000000000E+00 0. -1.
</event>
<event>
 7    1  0.5979290E-013  0.5930195E+02  0.7816164E-02  0.1266605E+00
        -11   -1    0    0    0    0  0.00000000000E+00  0.00000000000E+00  0.45593999997E+02  0.45594000000E+02  0.51100000000E-03 0.  1.
         11   -1    0    0    0    0 -0.00000000000E+00 -0.00000000000E+00 -0.45593999997E+02  0.45594000000E+02  0.51100000000E-03 0. -1.
    9900012    2    1    2    0    0 -0.59924992382E+01  0.27415474799E+02 -0.15139417397E+02  0.59301948745E+02  0.50000008602E+02 0.  0.
        -12    1    1    2    0    0  0.59924992382E+01 -0.27415474799E+02  0.15139417397E+02  0.31886051255E+02  0.00000000000E+00 0.  1.
         11    1    3    3    0    0 -0.13309745734E+02  0.19260850773E+02  0.12304248053E+02  0.26448520269E+02  0.51100000000E-03 0. -1.
        -11    1    3    3    0    0  0.34135506791E+01 -0.32436508592E+01 -0.29491886418E+01  0.55561959146E+01  0.51100000000E-03 0.  1.
         12    1    3    3    0    0  0.39036958171E+01  0.11398274885E+02 -0.24494476808E+02  0.27297232561E+02  0.00000000000E+00 0. -1.
</event>
<event>
 7    1  0.5979290E-013  0.5930197E+02  0.7816164E-02  0.1266605E+00
        -11   -1    0    0    0    0  0.00000000000E+00  0.00000000000E+00  0.45593999997E+02  0.45594000000E+02  0.51100000000E-03 0. -1.
         11   -1    0    0    0    0 -0.00000000000E+00 -0.00000000000E+00 -0.45593999997E+02  0.45594000000E+02  0.51100000000E-03 0.  1.
    9900012    2    1    2    0    0 -0.97485248085E+01 -0.27713817488E+02  0.12394724714E+02  0.59301974590E+02  0.50000055739E+02 0.  0.
        -12    1    1    2    0    0  0.97485248085E+01  0.27713817488E+02 -0.12394724714E+02  0.31886025410E+02  0.00000000000E+00 0.  1.
         11    1    3    3    0    0 -0.27473901315E+02 -0.98497220968E+01  0.95322119645E+01  0.30703344184E+02  0.51100000000E-03 0. -1.
        -11    1    3    3    0    0  0.97957517791E+01 -0.56520736540E+01 -0.46334437163E+01  0.12221762984E+02  0.51100000000E-03 0.  1.
         12    1    3    3    0    0  0.79296247277E+01 -0.12212021737E+02  0.74959564654E+01  0.16376867422E+02  0.00000000000E+00 0. -1.
</event>
<event>
 7    1  0.5979290E-013  0.5930194E+02  0.7816164E-02  0.1266605E+00
        -11   -1    0    0    0    0  0.00000000000E+00  0.00000000000E+00  0.45593999997E+02  0.45594000000E+02  0.51100000000E-03 0.  1.
         11   -1    0    0    0    0 -0.00000000000E+00 -0.00000000000E+00 -0.45593999997E+02  0.45594000000E+02  0.51100000000E-03 0. -1.
    9900012    2    1    2    0    0 -0.29202855435E+02  0.12154244647E+02 -0.40234891222E+01  0.59301938889E+02  0.49999990628E+02 0.  0.
        -12    1    1    2    0    0  0.29202855435E+02 -0.12154244647E+02  0.40234891222E+01  0.31886061111E+02  0.00000000000E+00 0.  1.
         11    1    3    3    0    0 -0.82081336802E+01  0.11562747440E+02 -0.41663574146E+01  0.14779347795E+02  0.51100000000E-03 0. -1.
        -11    1    3    3    0    0  0.94460949630E+01 -0.40725429141E+01 -0.75742762909E+01  0.12774348415E+02  0.51100000000E-03 0.  1.
        -12    1    3    3    0    0 -0.30440816718E+02  0.46640401212E+01  0.77171445833E+01  0.31748242679E+02  0.00000000000E+00 0.  1.
</event>
<event>
 7    1  0.5979290E-013  0.5930195E+02  0.7816164E-02  0.1266605E+00
        -11   -1    0    0    0    0  0.00000000000E+00  0.00000000000E+00  0.45593999997E+02  0.45594000000E+02  0.51100000000E-03 0.  1.
         11   -1    0    0    0    0 -0.00000000000E+00 -0.00000000000E+00 -0.45593999997E+02  0.45594000000E+02  0.51100000000E-03 0. -1.
    9900012    2    1    2    0    0  0.14710266051E+02  0.66594616829E+01 -0.27495082125E+02  0.59301954490E+02  0.50000019080E+02 0.  0.
        -12    1    1    2    0    0 -0.14710266051E+02 -0.66594616829E+01  0.27495082125E+02  0.31886045510E+02  0.00000000000E+00 0.  1.
         11    1    3    3    0    0 -0.74859605388E+01 -0.29276593002E+01 -0.30362340676E+02  0.31408319372E+02  0.51100000000E-03 0. -1.
        -11    1    3    3    0    0  0.68068386503E+01 -0.33383367301E+01 -0.77293822465E-01  0.75817886498E+01  0.51100000000E-03 0.  1.
         12    1    3    3    0    0  0.15389387940E+02  0.12925457713E+02  0.29445523730E+01  0.20311846468E+02  0.00000000000E+00 0. -1.
</event>
<event>
 7    1  0.5979290E-013  0.5930195E+02  0.7816164E-02  0.1266605E+00
        -11   -1    0    0    0    0  0.00000000000E+00  0.00000000000E+00  0.45593999997E+02  0.45594000000E+02  0.51100000000E-03 0.  1.
         11   -1    0    0    0    0 -0.00000000000E+00 -0.00000000000E+00 -0.45593999997E+02  0.45594000000E+02  0.51100000000E-03 0. -1.
    9900012    2    1    2    0    0  0.15614430539E+02  0.98687179197E+01 -0.25990736070E+02  0.59301946687E+02  0.50000004850E+02 0.  0.
        -12    1    1    2    0    0 -0.15614430539E+02 -0.98687179197E+01  0.25990736070E+02  0.31886053313E+02  0.00000000000E+00 0.  1.
         11    1    3    3    0    0  0.19254710425E+02 -0.63107753004E+01 -0.18805957492E+02  0.27644778818E+02  0.51100000000E-03 0. -1.
        -11    1    3    3    0    0 -0.23997539045E+01 -0.43024156932E+00  0.84609669689E+01  0.88052194135E+01  0.51100000000E-03 0.  1.
        -12    1    3    3    0    0 -0.12405259820E+01  0.16609734789E+02 -0.15645745547E+02  0.22851948455E+02  0.00000000000E+00 0.  1.
</event>
<event>
 7    1  0.5979290E-013  0.5930195E+02  0.7816164E-02  0.1266605E+00
        -11   -1    0    0    0    0  0.00000000000E+00  0.00000000000E+00  0.45593999997E+02  0.45594000000E+02  0.51100000000E-03 0. -1.
         11   -1    0    0    0    0 -0.00000000000E+00 -0.00000000000E+00 -0.45593999997E+02  0.45594000000E+02  0.51100000000E-03 0.  1.
    9900012    2    1    2    0    0  0.47810576852E+01 -0.31501365492E+02  0.12350661774E+01  0.59301954009E+02  0.50000018204E+02 0.  0.
        -12    1    1    2    0    0 -0.47810576852E+01  0.31501365492E+02 -0.12350661774E+01  0.31886045991E+02  0.00000000000E+00 0.  1.
         11    1    3    3    0    0  0.11626352397E+02 -0.24053561756E+02  0.15595283403E+02  0.30934750167E+02  0.51100000000E-03 0. -1.
        -11    1    3    3    0    0 -0.14720349811E+02 -0.51809702297E+01 -0.12423112740E+02  0.19946550616E+02  0.51100000000E-03 0.  1.
        -12    1    3    3    0    0  0.78750550998E+01 -0.22668335065E+01 -0.19371044864E+01  0.84206532266E+01  0.00000000000E+00 0.  1.
</event>
<event>
 7    1  0.5979290E-013  0.5930195E+02  0.7816164E-02  0.1266605E+00
        -11   -1    0    0    0    0  0.00000000000E+00  0.00000000000E+00  0.45593999997E+02  0.45594000000E+02  0.51100000000E-03 0.  1.
         11   -1    0    0    0    0 -0.00000000000E+00 -0.00000000000E+00 -0.45593999997E+02  0.45594000000E+02  0.51100000000E-03 0. -1.
    9900012    2    1    2    0    0  0.13485131215E+02  0.28869527358E+02  0.11922974930E+01  0.59301953725E+02  0.50000017685E+02 0.  0.
        -12    1    1    2    0    0 -0.13485131215E+02 -0.28869527358E+02 -0.11922974930E+01  0.31886046275E+02  0.00000000000E+00 0.  1.
         11    1    3    3    0    0 -0.85986741875E+01  0.33432959751E+02  0.17336099181E+00  0.34521443333E+02  0.51100000000E-03 0. -1.
        -11    1    3    3    0    0  0.10596292352E+02 -0.64961702874E+01 -0.23605389068E+01  0.12651236469E+02  0.51100000000E-03 0.  1.
         12    1    3    3    0    0  0.11487513051E+02  0.19327378947E+01  0.33794754079E+01  0.12129273923E+02  0.00000000000E+00 0. -1.
</event>
<event>
 7    1  0.5979290E-013  0.5930189E+02  0.7816164E-02  0.1266605E+00
        -11   -1    0    0    0    0  0.00000000000E+00  0.00000000000E+00  0.45593999997E+02  0.45594000000E+02  0.51100000000E-03 0. -1.
         11   -1    0    0    0    0 -0.00000000000E+00 -0.00000000000E+00 -0.45593999997E+02  0.45594000000E+02  0.51100000000E-03 0.  1.
    9900012    2    1    2    0    0 -0.84660538326E+01  0.95676944902E+01  0.29214875178E+02  0.59301893668E+02  0.49999908155E+02 0.  0.
        -12    1    1    2    0    0  0.84660538326E+01 -0.95676944902E+01 -0.29214875178E+02  0.31886106332E+02  0.00000000000E+00 0.  1.
         11    1    3    3    0    0 -0.11863696719E+02  0.15456025199E+02  0.40666300995E+02  0.45093059906E+02  0.51100000000E-03 0. -1.
        -11    1    3    3    0    0  0.10804213394E+01 -0.49410036401E+01 -0.43226480795E+01  0.66532784342E+01  0.51100000000E-03 0.  1.
         12    1    3    3    0    0  0.23172215468E+01 -0.94732706912E+00 -0.71287777374E+01  0.75555553272E+01  0.00000000000E+00 0. -1.
</event>
<event>
 7    1  0.5979290E-013  0.5930193E+02  0.7816164E-02  0.1266605E+00
        -11   -1    0    0    0    0  0.00000000000E+00  0.00000000000E+00  0.45593999997E+02  0.45594000000E+02  0.51100000000E-03 0. -1.
         11   -1    0    0    0    0 -0.00000000000E+00 -0.00000000000E+00 -0.45593999997E+02  0.45594000000E+02  0.51100000000E-03 0.  1.
    9900012    2    1    2    0    0 -0.10040590457E+02  0.27582944979E+02  0.12453480449E+02  0.59301929598E+02  0.49999973683E+02 0.  0.
        -12    1    1    2    0    0  0.10040590457E+02 -0.27582944979E+02 -0.12453480449E+02  0.31886070402E+02  0.00000000000E+00 0.  1.
         11    1    3    3    0    0  0.58919178641E+01 -0.30317916605E+01 -0.81001288844E+01  0.10465110845E+02  0.51100000000E-03 0.  1.
        -11    1    3    3    0    0 -0.13317062674E+01  0.70772530728E+01  0.19864883326E+02  0.21129944213E+02  0.51100000000E-03 0. -1.
         12    1    3    3    0    0 -0.14600802054E+02  0.23537483566E+02  0.68872600754E+00  0.27706874540E+02  0.00000000000E+00 0. -1.
</event>
<event>
 7    1  0.5979290E-013  0.5930192E+02  0.7816164E-02  0.1266605E+00
        -11   -1    0    0    0    0  0.00000000000E+00  0.00000000000E+00  0.45593999997E+02  0.45594000000E+02  0.51100000000E-03 0. -1.
         11   -1    0    0    0    0 -0.00000000000E+00 -0.00000000000E+00 -0.45593999997E+02  0.45594000000E+02  0.51100000000E-03 0.  1.
    9900012    2    1    2    0    0  0.10603171261E+02  0.14584081580E+02  0.26298276777E+02  0.59301920941E+02  0.49999957895E+02 0.  0.
        -12    1    1    2    0    0 -0.10603171261E+02 -0.14584081580E+02 -0.26298276777E+02  0.31886079059E+02  0.00000000000E+00 0.  1.
         11    1    3    3    0    0 -0.12984715774E+02  0.52954364261E+01  0.10420639242E+02  0.17470953413E+02  0.51100000000E-03 0. -1.
        -11    1    3    3    0    0  0.21163899553E+02  0.60557247384E+01 -0.32760714808E+01  0.22255675478E+02  0.51100000000E-03 0.  1.
        -12    1    3    3    0    0  0.24239874825E+01  0.32329204155E+01  0.19153709016E+02  0.19575292049E+02  0.00000000000E+00 0.  1.
</event>
<event>
 7    1  0.5979290E-013  0.5930195E+02  0.7816164E-02  0.1266605E+00
        -11   -1    0    0    0    0  0.00000000000E+00  0.00000000000E+00  0.45593999997E+02  0.45594000000E+02  0.51100000000E-03 0.  1.
         11   -1    0    0    0    0 -0.00000000000E+00 -0.00000000000E+00 -0.45593999997E+02  0.45594000000E+02  0.51100000000E-03 0. -1.
    9900012    2    1    2    0    0 -0.52972867134E+01  0.22448849005E+02 -0.22016091058E+02  0.59301947663E+02  0.50000006629E+02 0.  0.
        -12    1    1    2    0    0  0.52972867134E+01 -0.22448849005E+02  0.22016091058E+02  0.31886052337E+02  0.00000000000E+00 0.  1.
         11    1    3    3    0    0 -0.19098926647E+02 -0.26253804095E+01 -0.18157904867E+02  0.26483412370E+02  0.51100000000E-03 0. -1.
        -11    1    3    3    0    0  0.15627384429E+02  0.24737734024E+02 -0.83679376559E+00  0.29272356461E+02  0.51100000000E-03 0.  1.
        -12    1    3    3    0    0 -0.18257444951E+01  0.33649539028E+00 -0.30213924260E+01  0.35461788309E+01  0.00000000000E+00 0.  1.
</event>
<event>
 7    1  0.8206647E-013  0.5930197E+02  0.7816164E-02  0.1266605E+00
        -11   -1    0    0    0    0  0.00000000000E+00  0.00000000000E+00  0.45593999997E+02  0.45594000000E+02  0.51100000000E-03 0.  1.
         11   -1    0    0    0    0 -0.00000000000E+00 -0.00000000000E+00 -0.45593999997E+02  0.45594000000E+02  0.51100000000E-03 0. -1.
    9900012    2    1    2    0    0  0.18749536774E+02 -0.25343215485E+02  0.47849247564E+01  0.59301965356E+02  0.50000038898E+02 0.  0.
        -12    1    1    2    0    0 -0.18749536774E+02  0.25343215485E+02 -0.47849247564E+01  0.31886034644E+02  0.00000000000E+00 0.  1.
         11    1    3    3    0    0  0.17297938822E+02 -0.30971097126E+02 -0.84175121066E+01  0.36459320551E+02  0.51100000000E-03 0. -1.
        -11    1    3    3    0    0 -0.23264892826E+01  0.20296133933E+01 -0.38930770607E+01  0.49686952180E+01  0.51100000000E-03 0.  1.
         12    1    3    3    0    0  0.37780872345E+01  0.35982682480E+01  0.17095513924E+02  0.17873949587E+02  0.00000000000E+00 0. -1.
</event>
<event>
 7    1  0.5979290E-013  0.5930188E+02  0.7816164E-02  0.1266605E+00
        -11   -1    0    0    0    0  0.00000000000E+00  0.00000000000E+00  0.45593999997E+02  0.45594000000E+02  0.51100000000E-03 0. -1.
         11   -1    0    0    0    0 -0.00000000000E+00 -0.00000000000E+00 -0.45593999997E+02  0.45594000000E+02  0.51100000000E-03 0.  1.
    9900012    2    1    2    0    0 -0.41199165910E+01  0.11895887348E+02  0.29295713597E+02  0.59301879451E+02  0.49999882227E+02 0.  0.
        -12    1    1    2    0    0  0.41199165910E+01 -0.11895887348E+02 -0.29295713597E+02  0.31886120549E+02  0.00000000000E+00 0.  1.
         11    1    3    3    0    0  0.87814939237E+01  0.24147499975E+01  0.37091701278E+02  0.38193454374E+02  0.51100000000E-03 0. -1.
        -11    1    3    3    0    0 -0.33790409316E+01  0.95070368607E+01 -0.42219336059E+01  0.10937385022E+02  0.51100000000E-03 0.  1.
         12    1    3    3    0    0 -0.95223695831E+01 -0.25899510650E-01 -0.35740540749E+01  0.10171040055E+02  0.00000000000E+00 0. -1.
</event>
<event>
 7    1  0.5979290E-013  0.5930196E+02  0.7816164E-02  0.1266605E+00
        -11   -1    0    0    0    0  0.00000000000E+00  0.00000000000E+00  0.45593999997E+02  0.45594000000E+02  0.51100000000E-03 0. -1.
         11   -1    0    0    0    0 -0.00000000000E+00 -0.00000000000E+00 -0.45593999997E+02  0.45594000000E+02  0.51100000000E-03 0.  1.
    9900012    2    1    2    0    0 -0.28837328469E+01 -0.13182702350E+02  0.28889793978E+02  0.59301956776E+02  0.50000023249E+02 0.  0.
        -12    1    1    2    0    0  0.28837328469E+01  0.13182702350E+02 -0.28889793978E+02  0.31886043224E+02  0.00000000000E+00 0.  1.
         11    1    3    3    0    0 -0.15385534579E+02  0.26275707063E+01  0.56863901015E+01  0.16611858256E+02  0.51100000000E-03 0. -1.
        -11    1    3    3    0    0  0.35465650070E+01 -0.12975044734E+02  0.28778537092E+02  0.31766871212E+02  0.51100000000E-03 0.  1.
        -12    1    3    3    0    0  0.89552367246E+01 -0.28352283228E+01 -0.55751332152E+01  0.10923227307E+02  0.00000000000E+00 0.  1.
</event>
<event>
 7    1  0.5979290E-013  0.5930196E+02  0.7816164E-02  0.1266605E+00
        -11   -1    0    0    0    0  0.00000000000E+00  0.00000000000E+00  0.45593999997E+02  0.45594000000E+02  0.51100000000E-03 0.  1.
         11   -1    0    0    0    0 -0.00000000000E+00 -0.00000000000E+00 -0.45593999997E+02  0.45594000000E+02  0.51100000000E-03 0. -1.
    9900012    2    1    2    0    0 -0.41253463689E+01 -0.31584100118E+02 -0.14648866137E+01  0.59301956725E+02  0.50000023157E+02 0.  0.
        -12    1    1    2    0    0  0.41253463689E+01  0.31584100118E+02  0.14648866137E+01  0.31886043275E+02  0.00000000000E+00 0.  1.
         11    1    3    3    0    0  0.11267769932E+02 -0.22732264241E+02 -0.76038340881E+01  0.26486539409E+02  0.51100000000E-03 0. -1.
        -11    1    3    3    0    0 -0.82342100728E+01  0.94750433076E+01  0.27382001230E+01  0.12848206154E+02  0.51100000000E-03 0.  1.
        -12    1    3    3    0    0 -0.71589062279E+01 -0.18326879185E+02  0.34007473514E+01  0.19967211162E+02  0.00000000000E+00 0.  1.
</event>
<event>
 7    1  0.5979290E-013  0.5930194E+02  0.7816164E-02  0.1266605E+00
        -11   -1    0    0    0    0  0.00000000000E+00  0.00000000000E+00  0.45593999997E+02  0.45594000000E+02  0.51100000000E-03 0. -1.
         11   -1    0    0    0    0 -0.00000000000E+00 -0.00000000000E+00 -0.45593999997E+02  0.45594000000E+02  0.51100000000E-03 0.  1.
    9900012    2    1    2    0    0 -0.11279875117E+02 -0.25779859270E+02  0.14996140884E+02  0.59301937715E+02  0.49999988487E+02 0.  0.
        -12    1    1    2    0    0  0.11279875117E+02  0.25779859270E+02 -0.14996140884E+02  0.31886062285E+02  0.00000000000E+00 0.  1.
         11    1    3    3    0    0 -0.10771579782E+02 -0.24850781388E+02  0.28074627929E+02  0.39009909000E+02  0.51100000000E-03 0. -1.
        -11    1    3    3    0    0  0.46801645927E+01  0.53055483979E+01 -0.81860248901E+01  0.10819602034E+02  0.51100000000E-03 0.  1.
        -12    1    3    3    0    0 -0.51884599280E+01 -0.62346262801E+01 -0.48924621551E+01  0.94724266804E+01  0.00000000000E+00 0.  1.
</event>
<event>
 7    1  0.5979290E-013  0.5930196E+02  0.7816164E-02  0.1266605E+00
        -11   -1    0    0    0    0  0.00000000000E+00  0.00000000000E+00  0.45593999997E+02  0.45594000000E+02  0.51100000000E-03 0.  1.
         11   -1    0    0    0    0 -0.00000000000E+00 -0.00000000000E+00 -0.45593999997E+02  0.45594000000E+02  0.51100000000E-03 0. -1.
    9900012    2    1    2    0    0 -0.85493279275E+01 -0.10243241449E+01 -0.30701452960E+02  0.59301961333E+02  0.50000031562E+02 0.  0.
        -12    1    1    2    0    0  0.85493279275E+01  0.10243241449E+01  0.30701452960E+02  0.31886038667E+02  0.00000000000E+00 0.  1.
         11    1    3    3    0    0  0.13609435709E+02  0.37081151196E+01 -0.28443235281E+02  0.31748771497E+02  0.51100000000E-03 0. -1.
        -11    1    3    3    0    0 -0.13313530425E+02  0.50023562294E+01 -0.22557775666E+01  0.14400076143E+02  0.51100000000E-03 0.  1.
         12    1    3    3    0    0 -0.88452332118E+01 -0.97347954939E+01 -0.24401127248E-02  0.13153113693E+02  0.00000000000E+00 0. -1.
</event>
<event>
 7    1  0.5979290E-013  0.5930195E+02  0.7816164E-02  0.1266605E+00
        -11   -1    0    0    0    0  0.00000000000E+00  0.00000000000E+00  0.45593999997E+02  0.45594000000E+02  0.51100000000E-03 0.  1.
         11   -1    0    0    0    0 -0.00000000000E+00 -0.00000000000E+00 -0.45593999997E+02  0.45594000000E+02  0.51100000000E-03 0. -1.
    9900012    2    1    2    0    0 -0.29155171592E+01  0.13703729869E+02 -0.28643110074E+02  0.59301949643E+02  0.50000010242E+02 0.  0.
        -12    1    1    2    0    0  0.29155171592E+01 -0.13703729869E+02  0.28643110074E+02  0.31886050357E+02  0.00000000000E+00 0.  1.
         11    1    3    3    0    0 -0.76569201008E+01  0.10501221265E+02 -0.18318153275E+02  0.22460160577E+02  0.51100000000E-03 0. -1.
        -11    1    3    3    0    0  0.77601683777E+01 -0.11220999128E+02  0.59523876315E+01  0.14884957287E+02  0.51100000000E-03 0.  1.
        -12    1    3    3    0    0 -0.30187654361E+01  0.14423507732E+02 -0.16277344430E+02  0.21956831779E+02  0.00000000000E+00 0.  1.
</event>
<event>
 7    1  0.5979290E-013  0.5930194E+02  0.7816164E-02  0.1266605E+00
        -11   -1    0    0    0    0  0.00000000000E+00  0.00000000000E+00  0.45593999997E+02  0.45594000000E+02  0.51100000000E-03 0.  1.
         11   -1    0    0    0    0 -0.00000000000E+00 -0.00000000000E+00 -0.45593999997E+02  0.45594000000E+02  0.51100000000E-03 0. -1.
    9900012    2    1    2    0    0 -0.82913331097E+01 -0.26456904601E-01 -0.30789187444E+02  0.59301937713E+02  0.49999988484E+02 0.  0.
        -12    1    1    2    0    0  0.82913331097E+01  0.26456904601E-01  0.30789187444E+02  0.31886062287E+02  0.00000000000E+00 0.  1.
         11    1    3    3    0    0  0.40814042128E+01  0.19033911696E+02 -0.52464334381E+01  0.20161168589E+02  0.51100000000E-03 0. -1.
        -11    1    3    3    0    0 -0.39836856446E+01 -0.11980468181E+02 -0.15046050357E+01  0.12714763298E+02  0.51100000000E-03 0.  1.
         12    1    3    3    0    0 -0.83890516779E+01 -0.70799004192E+01 -0.24038148970E+02  0.26426005826E+02  0.00000000000E+00 0. -1.
</event>
<event>
 7    1  0.5979290E-013  0.5930193E+02  0.7816164E-02  0.1266605E+00
        -11   -1    0    0    0    0  0.00000000000E+00  0.00000000000E+00  0.45593999997E+02  0.45594000000E+02  0.51100000000E-03 0.  1.
         11   -1    0    0    0    0 -0.00000000000E+00 -0.00000000000E+00 -0.45593999997E+02  0.45594000000E+02  0.51100000000E-03 0. -1.
    9900012    2    1    2    0    0  0.10175167981E+01 -0.23136358161E+02 -0.21917915474E+02  0.59301930500E+02  0.49999975329E+02 0.  0.
        -12    1    1    2    0    0 -0.10175167981E+01  0.23136358161E+02  0.21917915474E+02  0.31886069500E+02  0.00000000000E+00 0.  1.
         11    1    3    3    0    0 -0.83789035762E+01 -0.32001062448E+02 -0.18787832058E+02  0.38042826612E+02  0.51100000000E-03 0. -1.
        -11    1    3    3    0    0  0.38868993375E+01  0.81190249116E+01 -0.93074853282E+01  0.12948198151E+02  0.51100000000E-03 0.  1.
        -12    1    3    3    0    0  0.55095210368E+01  0.74567937517E+00  0.61774019119E+01  0.83109057369E+01  0.00000000000E+00 0.  1.
</event>
<event>
 7    1  0.5979290E-013  0.5930195E+02  0.7816164E-02  0.1266605E+00
        -11   -1    0    0    0    0  0.00000000000E+00  0.00000000000E+00  0.45593999997E+02  0.45594000000E+02  0.51100000000E-03 0.  1.
         11   -1    0    0    0    0 -0.00000000000E+00 -0.00000000000E+00 -0.45593999997E+02  0.45594000000E+02  0.51100000000E-03 0. -1.
    9900012    2    1    2    0    0  0.19364864612E+01  0.31010630508E+02 -0.71631711684E+01  0.59301949672E+02  0.50000010294E+02 0.  0.
        -12    1    1    2    0    0 -0.19364864612E+01 -0.31010630508E+02  0.71631711684E+01  0.31886050328E+02  0.00000000000E+00 0.  1.
         11    1    3    3    0    0 -0.22854687884E+01 -0.10799973342E+01 -0.13757500816E+02  0.13987801499E+02  0.51100000000E-03 0. -1.
        -11    1    3    3    0    0  0.36041949887E+00  0.33740228148E+02 -0.39422375213E+01  0.33971666644E+02  0.51100000000E-03 0.  1.
        -12    1    3    3    0    0  0.38615357506E+01 -0.16496003054E+01  0.10536567169E+02  0.11342481528E+02  0.00000000000E+00 0.  1.
</event>
<event>
 7    1  0.5979290E-013  0.5930193E+02  0.7816164E-02  0.1266605E+00
        -11   -1    0    0    0    0  0.00000000000E+00  0.00000000000E+00  0.45593999997E+02  0.45594000000E+02  0.51100000000E-03 0.  1.
         11   -1    0    0    0    0 -0.00000000000E+00 -0.00000000000E+00 -0.45593999997E+02  0.45594000000E+02  0.51100000000E-03 0. -1.
    9900012    2    1    2    0    0 -0.16558555953E+02 -0.50105034515E+00 -0.27244895821E+02  0.59301934470E+02  0.49999982568E+02 0.  0.
        -12    1    1    2    0    0  0.16558555953E+02  0.50105034515E+00  0.27244895821E+02  0.31886065530E+02  0.00000000000E+00 0.  1.
         11    1    3    3    0    0 -0.46515148701E+00 -0.13194624864E+02 -0.27784963244E+02  0.30762293055E+02  0.51100000000E-03 0. -1.
        -11    1    3    3    0    0 -0.11663049174E+02  0.10639422926E+02  0.94356940731E+01  0.18391747039E+02  0.51100000000E-03 0.  1.
        -12    1    3    3    0    0 -0.44303552923E+01  0.20541515929E+01 -0.88956266499E+01  0.10147894377E+02  0.00000000000E+00 0.  1.
</event>
<event>
 7    1  0.5979290E-013  0.5930191E+02  0.7816164E-02  0.1266605E+00
        -11   -1    0    0    0    0  0.00000000000E+00  0.00000000000E+00  0.45593999997E+02  0.45594000000E+02  0.51100000000E-03 0.  1.
         11   -1    0    0    0    0 -0.00000000000E+00 -0.00000000000E+00 -0.45593999997E+02  0.45594000000E+02  0.51100000000E-03 0. -1.
    9900012    2    1    2    0    0 -0.26499153326E+02  0.31037845017E+01 -0.17460932889E+02  0.59301909262E+02  0.49999936595E+02 0.  0.
        -12    1    1    2    0    0  0.26499153326E+02 -0.31037845017E+01  0.17460932889E+02  0.31886090738E+02  0.00000000000E+00 0.  1.
         11    1    3    3    0    0 -0.19606565608E+02 -0.27440671229E+01 -0.52376274660E+01  0.20478770985E+02  0.51100000000E-03 0. -1.
        -11    1    3    3    0    0  0.46468694139E+01  0.13151137217E+02  0.67104514188E+01  0.15478241630E+02  0.51100000000E-03 0.  1.
        -12    1    3    3    0    0 -0.11539457132E+02 -0.73032855919E+01 -0.18933756841E+02  0.23344896647E+02  0.00000000000E+00 0.  1.
</event>
<event>
 7    1  0.5979290E-013  0.5930193E+02  0.7816164E-02  0.1266605E+00
        -11   -1    0    0    0    0  0.00000000000E+00  0.00000000000E+00  0.45593999997E+02  0.45594000000E+02  0.51100000000E-03 0. -1.
         11   -1    0    0    0    0 -0.00000000000E+00 -0.00000000000E+00 -0.45593999997E+02  0.45594000000E+02  0.51100000000E-03 0.  1.
    9900012    2    1    2    0    0  0.13273698247E+02  0.89028109456E+01  0.27591126394E+02  0.59301931513E+02  0.49999977176E+02 0.  0.
        -12    1    1    2    0    0 -0.13273698247E+02 -0.89028109456E+01 -0.27591126394E+02  0.31886068487E+02  0.00000000000E+00 0.  1.
         11    1    3    3    0    0  0.22221300412E+02  0.19380610560E+02  0.20490479113E+02  0.35906183203E+02  0.51100000000E-03 0. -1.
        -11    1    3    3    0    0 -0.55772412778E+01 -0.14553616906E+02  0.14450399316E+01  0.15652524588E+02  0.51100000000E-03 0.  1.
         12    1    3    3    0    0 -0.33703608875E+01  0.40758172920E+01  0.56556073498E+01  0.77432237217E+01  0.00000000000E+00 0. -1.
</event>
<event>
 7    1  0.5979290E-013  0.5930194E+02  0.7816164E-02  0.1266605E+00
        -11   -1    0    0    0    0  0.00000000000E+00  0.00000000000E+00  0.45593999997E+02  0.45594000000E+02  0.51100000000E-03 0.  1.
         11   -1    0    0    0    0 -0.00000000000E+00 -0.00000000000E+00 -0.45593999997E+02  0.45594000000E+02  0.51100000000E-03 0. -1.
    9900012    2    1    2    0    0 -0.15407104652E+02  0.14612088076E+01 -0.27878431258E+02  0.59301938243E+02  0.49999989450E+02 0.  0.
        -12    1    1    2    0    0  0.15407104652E+02 -0.14612088076E+01  0.27878431258E+02  0.31886061757E+02  0.00000000000E+00 0.  1.
         11    1    3    3    0    0  0.76825018834E+01 -0.17707277837E+02 -0.17606548617E+02  0.26125831624E+02  0.51100000000E-03 0. -1.
        -11    1    3    3    0    0 -0.34998839297E+01  0.77660392394E+01 -0.62207689071E+00  0.85409327891E+01  0.51100000000E-03 0.  1.
         12    1    3    3    0    0 -0.19589722605E+02  0.11402447405E+02 -0.96498057505E+01  0.24635173830E+02  0.00000000000E+00 0. -1.
</event>
<event>
 7    1  0.5979290E-013  0.5930189E+02  0.7816164E-02  0.1266605E+00
        -11   -1    0    0    0    0  0.00000000000E+00  0.00000000000E+00  0.45593999997E+02  0.45594000000E+02  0.51100000000E-03 0.  1.
         11   -1    0    0    0    0 -0.00000000000E+00 -0.00000000000E+00 -0.45593999997E+02  0.45594000000E+02  0.51100000000E-03 0. -1.
    9900012    2    1    2    0    0  0.11222883250E+02  0.26074015287E+02 -0.14522959911E+02  0.59301894151E+02  0.49999909037E+02 0.  0.
        -12    1    1    2    0    0 -0.11222883250E+02 -0.26074015287E+02  0.14522959911E+02  0.31886105849E+02  0.00000000000E+00 0.  1.
         11    1    3    3    0    0  0.63846629003E+01 -0.51903733977E+01 -0.17964625469E+02  0.19759343735E+02  0.51100000000E-03 0.  1.
        -11    1    3    3    0    0  0.87746437710E+01  0.29510468377E+02 -0.38960674860E+01  0.31032909294E+02  0.51100000000E-03 0. -1.
        -12    1    3    3    0    0 -0.39364234212E+01  0.17539203081E+01  0.73377330440E+01  0.85096411219E+01  0.00000000000E+00 0.  1.
</event>
<event>
 7    1  0.5979290E-013  0.5930198E+02  0.7816164E-02  0.1266605E+00
        -11   -1    0    0    0    0  0.00000000000E+00  0.00000000000E+00  0.45593999997E+02  0.45594000000E+02  0.51100000000E-03 0. -1.
         11   -1    0    0    0    0 -0.00000000000E+00 -0.00000000000E+00 -0.45593999997E+02  0.45594000000E+02  0.51100000000E-03 0.  1.
    9900012    2    1    2    0    0  0.21539002117E+02  0.21135474161E+02  0.10299573130E+02  0.59301982894E+02  0.50000070883E+02 0.  0.
        -12    1    1    2    0    0 -0.21539002117E+02 -0.21135474161E+02 -0.10299573130E+02  0.31886017106E+02  0.00000000000E+00 0.  1.
         11    1    3    3    0    0  0.74965552232E+01 -0.38547318475E+01  0.20843929525E+02  0.22483920835E+02  0.51100000000E-03 0. -1.
        -11    1    3    3    0    0 -0.48657575474E+01  0.42967537672E+01 -0.51187739100E+01  0.82667730130E+01  0.51100000000E-03 0.  1.
         12    1    3    3    0    0  0.18908204442E+02  0.20693452241E+02 -0.54255824851E+01  0.28551289046E+02  0.00000000000E+00 0. -1.
</event>
<event>
 7    1  0.5979290E-013  0.5930196E+02  0.7816164E-02  0.1266605E+00
        -11   -1    0    0    0    0  0.00000000000E+00  0.00000000000E+00  0.45593999997E+02  0.45594000000E+02  0.51100000000E-03 0.  1.
         11   -1    0    0    0    0 -0.00000000000E+00 -0.00000000000E+00 -0.45593999997E+02  0.45594000000E+02  0.51100000000E-03 0. -1.
    9900012    2    1    2    0    0  0.10879327068E+02  0.29935227169E+02 -0.14973749794E+01  0.59301957364E+02  0.50000024323E+02 0.  0.
        -12    1    1    2    0    0 -0.10879327068E+02 -0.29935227169E+02  0.14973749794E+01  0.31886042636E+02  0.00000000000E+00 0.  1.
         11    1    3    3    0    0 -0.49812507593E+01  0.64232180369E+01 -0.66192402453E+01  0.10482601336E+02  0.51100000000E-03 0. -1.
        -11    1    3    3    0    0  0.27767674655E+02  0.18518341965E+02 -0.30874868985E+01  0.33518730891E+02  0.51100000000E-03 0.  1.
        -12    1    3    3    0    0 -0.11907096828E+02  0.49936671668E+01  0.82093521644E+01  0.15300625138E+02  0.00000000000E+00 0.  1.
</event>
<event>
 7    1  0.5979290E-013  0.5930196E+02  0.7816164E-02  0.1266605E+00
        -11   -1    0    0    0    0  0.00000000000E+00  0.00000000000E+00  0.45593999997E+02  0.45594000000E+02  0.51100000000E-03 0.  1.
         11   -1    0    0    0    0 -0.00000000000E+00 -0.00000000000E+00 -0.45593999997E+02  0.45594000000E+02  0.51100000000E-03 0. -1.
    9900012    2    1    2    0    0 -0.18922680556E+02  0.20409741583E+02 -0.15559381450E+02  0.59301956940E+02  0.50000023549E+02 0.  0.
        -12    1    1    2    0    0  0.18922680556E+02 -0.20409741583E+02  0.15559381450E+02  0.31886043060E+02  0.00000000000E+00 0.  1.
         11    1    3    3    0    0 -0.30524326447E+02  0.15268454486E+02 -0.13632388582E+02  0.36751900987E+02  0.51100000000E-03 0. -1.
        -11    1    3    3    0    0  0.13647164721E+02 -0.30843549726E+01 -0.11792034682E+01  0.14040971177E+02  0.51100000000E-03 0.  1.
        -12    1    3    3    0    0 -0.20455188300E+01  0.82256420701E+01 -0.74778939932E+00  0.85090847766E+01  0.00000000000E+00 0.  1.
</event>
<event>
 7    1  0.5979290E-013  0.5930196E+02  0.7816164E-02  0.1266605E+00
        -11   -1    0    0    0    0  0.00000000000E+00  0.00000000000E+00  0.45593999997E+02  0.45594000000E+02  0.51100000000E-03 0.  1.
         11   -1    0    0    0    0 -0.00000000000E+00 -0.00000000000E+00 -0.45593999997E+02  0.45594000000E+02  0.51100000000E-03 0. -1.
    9900012    2    1    2    0    0  0.30078496398E+02  0.45442768688E+01  0.95578705238E+01  0.59301964078E+02  0.50000036568E+02 0.  0.
        -12    1    1    2    0    0 -0.30078496398E+02 -0.45442768688E+01 -0.95578705238E+01  0.31886035922E+02  0.00000000000E+00 0.  1.
         11    1    3    3    0    0  0.16322091123E+02 -0.71467101907E+01 -0.51329071469E+01  0.18542730684E+02  0.51100000000E-03 0. -1.
        -11    1    3    3    0    0  0.33281914361E+01  0.20365249298E+02 -0.17355334195E+00  0.20636142039E+02  0.51100000000E-03 0.  1.
         12    1    3    3    0    0  0.10428213840E+02 -0.86742622387E+01  0.14864331013E+02  0.20123091356E+02  0.00000000000E+00 0. -1.
</event>
<event>
 7    1  0.5979290E-013  0.5930191E+02  0.7816164E-02  0.1266605E+00
        -11   -1    0    0    0    0  0.00000000000E+00  0.00000000000E+00  0.45593999997E+02  0.45594000000E+02  0.51100000000E-03 0.  1.
         11   -1    0    0    0    0 -0.00000000000E+00 -0.00000000000E+00 -0.45593999997E+02  0.45594000000E+02  0.51100000000E-03 0. -1.
    9900012    2    1    2    0    0  0.10363487390E+02  0.18295145358E+02 -0.23970997793E+02  0.59301906640E+02  0.49999931814E+02 0.  0.
        -12    1    1    2    0    0 -0.10363487390E+02 -0.18295145358E+02  0.23970997793E+02  0.31886093360E+02  0.00000000000E+00 0.  1.
         11    1    3    3    0    0 -0.15689455176E+02  0.17486571294E+01  0.47372298336E+01  0.16482055461E+02  0.51100000000E-03 0. -1.
        -11    1    3    3    0    0  0.13138084299E+01 -0.56961519860E+00 -0.26852573130E+01  0.30432155959E+01  0.51100000000E-03 0.  1.
         12    1    3    3    0    0  0.24739134136E+02  0.17116103427E+02 -0.26022970314E+02  0.39776635583E+02  0.00000000000E+00 0. -1.
</event>
<event>
 7    1  0.5979290E-013  0.5930192E+02  0.7816164E-02  0.1266605E+00
        -11   -1    0    0    0    0  0.00000000000E+00  0.00000000000E+00  0.45593999997E+02  0.45594000000E+02  0.51100000000E-03 0. -1.
         11   -1    0    0    0    0 -0.00000000000E+00 -0.00000000000E+00 -0.45593999997E+02  0.45594000000E+02  0.51100000000E-03 0.  1.
    9900012    2    1    2    0    0  0.28725132373E+02  0.12180943671E+02  0.65736866791E+01  0.59301921923E+02  0.49999959687E+02 0.  0.
        -12    1    1    2    0    0 -0.28725132373E+02 -0.12180943671E+02 -0.65736866791E+01  0.31886078077E+02  0.00000000000E+00 0.  1.
         11    1    3    3    0    0  0.17654396024E+02  0.25230455427E+02  0.12524189552E+02  0.33243178311E+02  0.51100000000E-03 0. -1.
        -11    1    3    3    0    0 -0.27241495647E+01 -0.11057579468E+02 -0.19127806533E+01  0.11547717724E+02  0.51100000000E-03 0.  1.
        -12    1    3    3    0    0  0.13794885914E+02 -0.19919322877E+01 -0.40377222199E+01  0.14511025888E+02  0.00000000000E+00 0.  1.
</event>
<event>
 7    1  0.5979290E-013  0.5930199E+02  0.7816164E-02  0.1266605E+00
        -11   -1    0    0    0    0  0.00000000000E+00  0.00000000000E+00  0.45593999997E+02  0.45594000000E+02  0.51100000000E-03 0.  1.
         11   -1    0    0    0    0 -0.00000000000E+00 -0.00000000000E+00 -0.45593999997E+02  0.45594000000E+02  0.51100000000E-03 0. -1.
    9900012    2    1    2    0    0  0.30676532572E+02  0.42511375976E+01 -0.75891869543E+01  0.59301990841E+02  0.50000085375E+02 0.  0.
        -12    1    1    2    0    0 -0.30676532572E+02 -0.42511375976E+01  0.75891869543E+01  0.31886009159E+02  0.00000000000E+00 0.  1.
         11    1    3    3    0    0 -0.83773588519E+01 -0.10775853278E+02  0.35447302230E+01  0.14101924259E+02  0.51100000000E-03 0.  1.
        -11    1    3    3    0    0  0.77068783555E+01 -0.35582306966E+00 -0.62767689897E+01  0.99458741825E+01  0.51100000000E-03 0. -1.
         12    1    3    3    0    0  0.31347013068E+02  0.15382813945E+02 -0.48571481875E+01  0.35254192399E+02  0.00000000000E+00 0. -1.
</event>
<event>
 7    1  0.5979290E-013  0.5930195E+02  0.7816164E-02  0.1266605E+00
        -11   -1    0    0    0    0  0.00000000000E+00  0.00000000000E+00  0.45593999997E+02  0.45594000000E+02  0.51100000000E-03 0. -1.
         11   -1    0    0    0    0 -0.00000000000E+00 -0.00000000000E+00 -0.45593999997E+02  0.45594000000E+02  0.51100000000E-03 0.  1.
    9900012    2    1    2    0    0  0.13508967331E+02  0.28188125383E+02  0.62974454556E+01  0.59301946148E+02  0.50000003868E+02 0.  0.
        -12    1    1    2    0    0 -0.13508967331E+02 -0.28188125383E+02 -0.62974454556E+01  0.31886053852E+02  0.00000000000E+00 0.  1.
         11    1    3    3    0    0 -0.31891532469E+01  0.22067902823E+02  0.23315256663E+02  0.32260877653E+02  0.51100000000E-03 0. -1.
        -11    1    3    3    0    0  0.16532456761E+02  0.25700753432E+01 -0.10908012950E+02  0.19972785500E+02  0.51100000000E-03 0.  1.
         12    1    3    3    0    0  0.16566381647E+00  0.35501472169E+01 -0.61097982574E+01  0.70682829957E+01  0.00000000000E+00 0. -1.
</event>
<event>
 7    1  0.5979290E-013  0.5930197E+02  0.7816164E-02  0.1266605E+00
        -11   -1    0    0    0    0  0.00000000000E+00  0.00000000000E+00  0.45593999997E+02  0.45594000000E+02  0.51100000000E-03 0. -1.
         11   -1    0    0    0    0 -0.00000000000E+00 -0.00000000000E+00 -0.45593999997E+02  0.45594000000E+02  0.51100000000E-03 0.  1.
    9900012    2    1    2    0    0  0.72120845730E+01 -0.16786334490E+02  0.26132810375E+02  0.59301969084E+02  0.50000045696E+02 0.  0.
        -12    1    1    2    0    0 -0.72120845730E+01  0.16786334490E+02 -0.26132810375E+02  0.31886030916E+02  0.00000000000E+00 0.  1.
         11    1    3    3    0    0  0.24876282872E+02 -0.14255676979E+02  0.81517641767E+01  0.29807801581E+02  0.51100000000E-03 0.  1.
        -11    1    3    3    0    0 -0.75904608121E+01 -0.20596547943E+01  0.17741420961E+02  0.19406578555E+02  0.51100000000E-03 0. -1.
        -12    1    3    3    0    0 -0.10073737487E+02 -0.47100271607E+00  0.23962523713E+00  0.10087588947E+02  0.00000000000E+00 0.  1.
</event>
<event>
 7    1  0.5979290E-013  0.5930194E+02  0.7816164E-02  0.1266605E+00
        -11   -1    0    0    0    0  0.00000000000E+00  0.00000000000E+00  0.45593999997E+02  0.45594000000E+02  0.51100000000E-03 0.  1.
         11   -1    0    0    0    0 -0.00000000000E+00 -0.00000000000E+00 -0.45593999997E+02  0.45594000000E+02  0.51100000000E-03 0. -1.
    9900012    2    1    2    0    0 -0.12220968798E+02  0.20632721335E+02 -0.21015695767E+02  0.59301941343E+02  0.49999995104E+02 0.  0.
        -12    1    1    2    0    0  0.12220968798E+02 -0.20632721335E+02  0.21015695767E+02  0.31886058657E+02  0.00000000000E+00 0.  1.
         11    1    3    3    0    0 -0.13686355009E+02  0.25332460566E+01 -0.14185056991E+02  0.19873336185E+02  0.51100000000E-03 0. -1.
        -11    1    3    3    0    0 -0.43188701436E+01  0.25853357530E+02  0.20567279099E+01  0.26292182581E+02  0.51100000000E-03 0.  1.
        -12    1    3    3    0    0  0.57842563540E+01 -0.77538822511E+01 -0.88873666858E+01  0.13136422578E+02  0.00000000000E+00 0.  1.
</event>
<event>
 7    1  0.5979290E-013  0.5930195E+02  0.7816164E-02  0.1266605E+00
        -11   -1    0    0    0    0  0.00000000000E+00  0.00000000000E+00  0.45593999997E+02  0.45594000000E+02  0.51100000000E-03 0.  1.
         11   -1    0    0    0    0 -0.00000000000E+00 -0.00000000000E+00 -0.45593999997E+02  0.45594000000E+02  0.51100000000E-03 0. -1.
    9900012    2    1    2    0    0 -0.30392076888E+02 -0.16976179443E+00 -0.96443113418E+01  0.59301954496E+02  0.50000019091E+02 0.  0.
        -12    1    1    2    0    0  0.30392076888E+02  0.16976179443E+00  0.96443113418E+01  0.31886045504E+02  0.00000000000E+00 0.  1.
         11    1    3    3    0    0 -0.26751891464E+01  0.17027753235E+02 -0.18112035815E+02  0.25002937004E+02  0.51100000000E-03 0. -1.
        -11    1    3    3    0    0 -0.63494337773E+01 -0.59066399294E+01  0.46250260497E+01  0.98282536989E+01  0.51100000000E-03 0.  1.
         12    1    3    3    0    0 -0.21367453964E+02 -0.11290875100E+02  0.38426984236E+01  0.24470763793E+02  0.00000000000E+00 0. -1.
</event>
<event>
 7    1  0.5979290E-013  0.5930195E+02  0.7816164E-02  0.1266605E+00
        -11   -1    0    0    0    0  0.00000000000E+00  0.00000000000E+00  0.45593999997E+02  0.45594000000E+02  0.51100000000E-03 0. -1.
         11   -1    0    0    0    0 -0.00000000000E+00 -0.00000000000E+00 -0.45593999997E+02  0.45594000000E+02  0.51100000000E-03 0.  1.
    9900012    2    1    2    0    0 -0.26947605475E+02  0.16974187132E+02 -0.15568525309E+01  0.59301948827E+02  0.50000008753E+02 0.  0.
        -12    1    1    2    0    0  0.26947605475E+02 -0.16974187132E+02  0.15568525309E+01  0.31886051173E+02  0.00000000000E+00 0.  1.
         11    1    3    3    0    0  0.11687322608E+02  0.48017681040E+01 -0.48763002860E+01  0.13543588572E+02  0.51100000000E-03 0. -1.
        -11    1    3    3    0    0 -0.24174199855E+02  0.71066172548E+01  0.12256655640E+02  0.28020020613E+02  0.51100000000E-03 0.  1.
        -12    1    3    3    0    0 -0.14460728228E+02  0.50658017728E+01 -0.89372078845E+01  0.17738339642E+02  0.00000000000E+00 0.  1.
</event>
<event>
 7    1  0.5979290E-013  0.5930194E+02  0.7816164E-02  0.1266605E+00
        -11   -1    0    0    0    0  0.00000000000E+00  0.00000000000E+00  0.45593999997E+02  0.45594000000E+02  0.51100000000E-03 0.  1.
         11   -1    0    0    0    0 -0.00000000000E+00 -0.00000000000E+00 -0.45593999997E+02  0.45594000000E+02  0.51100000000E-03 0. -1.
    9900012    2    1    2    0    0  0.12298522410E+02  0.21339989631E+02 -0.20250233269E+02  0.59301941003E+02  0.49999994483E+02 0.  0.
        -12    1    1    2    0    0 -0.12298522410E+02 -0.21339989631E+02  0.20250233269E+02  0.31886058997E+02  0.00000000000E+00 0.  1.
         11    1    3    3    0    0  0.24969122027E+02  0.12193080374E+02  0.43331551556E+01  0.28123024333E+02  0.51100000000E-03 0. -1.
        -11    1    3    3    0    0 -0.68044097689E+01  0.91358154295E+01 -0.89675502791E+01  0.14497588563E+02  0.51100000000E-03 0.  1.
         12    1    3    3    0    0 -0.58661898479E+01  0.11093827847E-01 -0.15615838146E+02  0.16681328106E+02  0.00000000000E+00 0. -1.
</event>
<event>
 7    1  0.5979290E-013  0.5930195E+02  0.7816164E-02  0.1266605E+00
        -11   -1    0    0    0    0  0.00000000000E+00  0.00000000000E+00  0.45593999997E+02  0.45594000000E+02  0.51100000000E-03 0.  1.
         11   -1    0    0    0    0 -0.00000000000E+00 -0.00000000000E+00 -0.45593999997E+02  0.45594000000E+02  0.51100000000E-03 0. -1.
    9900012    2    1    2    0    0  0.87570927781E+01  0.14254416397E+02 -0.27144892286E+02  0.59301949163E+02  0.50000009365E+02 0.  0.
        -12    1    1    2    0    0 -0.87570927781E+01 -0.14254416397E+02  0.27144892286E+02  0.31886050837E+02  0.00000000000E+00 0.  1.
         11    1    3    3    0    0 -0.40368203184E+01  0.13929564656E+02 -0.24147865934E+02  0.28168211147E+02  0.51100000000E-03 0. -1.
        -11    1    3    3    0    0 -0.15451409077E+01  0.22877297724E+01  0.10794578374E+02  0.11141996700E+02  0.51100000000E-03 0.  1.
         12    1    3    3    0    0  0.14339054004E+02 -0.19628780315E+01 -0.13791604726E+02  0.19991741316E+02  0.00000000000E+00 0. -1.
</event>
<event>
 7    1  0.5979290E-013  0.5930194E+02  0.7816164E-02  0.1266605E+00
        -11   -1    0    0    0    0  0.00000000000E+00  0.00000000000E+00  0.45593999997E+02  0.45594000000E+02  0.51100000000E-03 0.  1.
         11   -1    0    0    0    0 -0.00000000000E+00 -0.00000000000E+00 -0.45593999997E+02  0.45594000000E+02  0.51100000000E-03 0. -1.
    9900012    2    1    2    0    0 -0.90665259012E+01  0.20783671606E+02 -0.22417801060E+02  0.59301941891E+02  0.49999996104E+02 0.  0.
        -12    1    1    2    0    0  0.90665259012E+01 -0.20783671606E+02  0.22417801060E+02  0.31886058109E+02  0.00000000000E+00 0.  1.
         11    1    3    3    0    0  0.14808173619E+02  0.18375750082E+02 -0.61922313304E+01  0.24398645989E+02  0.51100000000E-03 0. -1.
        -11    1    3    3    0    0 -0.96337288805E+01 -0.31308732438E+01 -0.16794084832E+02  0.19612556820E+02  0.51100000000E-03 0.  1.
         12    1    3    3    0    0 -0.14240970639E+02  0.55387947680E+01  0.56851510329E+00  0.15290739081E+02  0.00000000000E+00 0. -1.
</event>
<event>
 7    1  0.5979290E-013  0.5930180E+02  0.7816164E-02  0.1266605E+00
        -11   -1    0    0    0    0  0.00000000000E+00  0.00000000000E+00  0.45593999997E+02  0.45594000000E+02  0.51100000000E-03 0.  1.
         11   -1    0    0    0    0 -0.00000000000E+00 -0.00000000000E+00 -0.45593999997E+02  0.45594000000E+02  0.51100000000E-03 0. -1.
    9900012    2    1    2    0    0 -0.96835759121E+01 -0.13282799488E+02 -0.27322618707E+02  0.59301797691E+02  0.49999733117E+02 0.  0.
        -12    1    1    2    0    0  0.96835759121E+01  0.13282799488E+02  0.27322618707E+02  0.31886202309E+02  0.00000000000E+00 0.  1.
         11    1    3    3    0    0 -0.81802705154E+01 -0.79746748904E+01 -0.73396543800E+01  0.13578762535E+02  0.51100000000E-03 0. -1.
        -11    1    3    3    0    0  0.19310945944E+02 -0.20335454107E+01 -0.55907804886E+01  0.20206552574E+02  0.51100000000E-03 0.  1.
        -12    1    3    3    0    0 -0.20814251341E+02 -0.32745791872E+01 -0.14392183838E+02  0.25516482582E+02  0.00000000000E+00 0.  1.
</event>
<event>
 7    1  0.5979290E-013  0.5930192E+02  0.7816164E-02  0.1266605E+00
        -11   -1    0    0    0    0  0.00000000000E+00  0.00000000000E+00  0.45593999997E+02  0.45594000000E+02  0.51100000000E-03 0.  1.
         11   -1    0    0    0    0 -0.00000000000E+00 -0.00000000000E+00 -0.45593999997E+02  0.45594000000E+02  0.51100000000E-03 0. -1.
    9900012    2    1    2    0    0  0.18248789476E+02  0.22582939170E+02 -0.13180093901E+02  0.59301916294E+02  0.49999949420E+02 0.  0.
        -12    1    1    2    0    0 -0.18248789476E+02 -0.22582939170E+02  0.13180093901E+02  0.31886083706E+02  0.00000000000E+00 0.  1.
         11    1    3    3    0    0  0.79449820344E+01  0.21178440956E+02 -0.10400905541E+02  0.24896343851E+02  0.51100000000E-03 0. -1.
        -11    1    3    3    0    0  0.17556654186E+02 -0.84641310800E+01  0.47080887303E+01  0.20051027926E+02  0.51100000000E-03 0.  1.
        -12    1    3    3    0    0 -0.72528467441E+01  0.98686292946E+01 -0.74872770906E+01  0.14354544517E+02  0.00000000000E+00 0.  1.
</event>
<event>
 7    1  0.5979290E-013  0.5930193E+02  0.7816164E-02  0.1266605E+00
        -11   -1    0    0    0    0  0.00000000000E+00  0.00000000000E+00  0.45593999997E+02  0.45594000000E+02  0.51100000000E-03 0. -1.
         11   -1    0    0    0    0 -0.00000000000E+00 -0.00000000000E+00 -0.45593999997E+02  0.45594000000E+02  0.51100000000E-03 0.  1.
    9900012    2    1    2    0    0 -0.43428332258E+01 -0.39964632866E+00  0.31586411525E+02  0.59301932342E+02  0.49999978689E+02 0.  0.
        -12    1    1    2    0    0  0.43428332258E+01  0.39964632866E+00 -0.31586411525E+02  0.31886067658E+02  0.00000000000E+00 0.  1.
         11    1    3    3    0    0 -0.72361539650E+01 -0.16137593717E+02  0.18816331060E+02  0.25823209909E+02  0.51100000000E-03 0. -1.
        -11    1    3    3    0    0  0.35438826216E+01  0.90681355538E+01 -0.73970614595E+01  0.12227293444E+02  0.51100000000E-03 0.  1.
        -12    1    3    3    0    0 -0.65056188246E+00  0.66698118350E+01  0.20167141925E+02  0.21251428990E+02  0.00000000000E+00 0.  1.
</event>
<event>
 7    1  0.5979290E-013  0.5930196E+02  0.7816164E-02  0.1266605E+00
        -11   -1    0    0    0    0  0.00000000000E+00  0.00000000000E+00  0.45593999997E+02  0.45594000000E+02  0.51100000000E-03 0.  1.
         11   -1    0    0    0    0 -0.00000000000E+00 -0.00000000000E+00 -0.45593999997E+02  0.45594000000E+02  0.51100000000E-03 0. -1.
    9900012    2    1    2    0    0 -0.72722272127E+00 -0.84686088276E+01 -0.30732290350E+02  0.59301955114E+02  0.50000020218E+02 0.  0.
        -12    1    1    2    0    0  0.72722272127E+00  0.84686088276E+01  0.30732290350E+02  0.31886044886E+02  0.00000000000E+00 0.  1.
         11    1    3    3    0    0 -0.97977053257E+00  0.52833063515E+01  0.11627510035E+02  0.12809069684E+02  0.51100000000E-03 0.  1.
        -11    1    3    3    0    0  0.41070267147E+01 -0.12391416168E+02 -0.20860319259E+02  0.24608286875E+02  0.51100000000E-03 0. -1.
        -12    1    3    3    0    0 -0.38544789034E+01 -0.13604990109E+01 -0.21499481126E+02  0.21884598554E+02  0.00000000000E+00 0.  1.
</event>
<event>
 7    1  0.5979290E-013  0.5930195E+02  0.7816164E-02  0.1266605E+00
        -11   -1    0    0    0    0  0.00000000000E+00  0.00000000000E+00  0.45593999997E+02  0.45594000000E+02  0.51100000000E-03 0.  1.
         11   -1    0    0    0    0 -0.00000000000E+00 -0.00000000000E+00 -0.45593999997E+02  0.45594000000E+02  0.51100000000E-03 0. -1.
    9900012    2    1    2    0    0 -0.41510639196E+01 -0.29193607320E+02 -0.12133516129E+02  0.59301948917E+02  0.50000008917E+02 0.  0.
        -12    1    1    2    0    0  0.41510639196E+01  0.29193607320E+02  0.12133516129E+02  0.31886051083E+02  0.00000000000E+00 0.  1.
         11    1    3    3    0    0 -0.58803420816E+00 -0.24816957454E+02 -0.17404572110E+02  0.30317425552E+02  0.51100000000E-03 0. -1.
        -11    1    3    3    0    0 -0.97321011395E+01  0.92452924072E+01  0.11462478304E+01  0.13472308957E+02  0.51100000000E-03 0.  1.
        -12    1    3    3    0    0  0.61690714280E+01 -0.13621942273E+02  0.41248081499E+01  0.15512214408E+02  0.00000000000E+00 0.  1.
</event>
<event>
 7    1  0.5979290E-013  0.5930195E+02  0.7816164E-02  0.1266605E+00
        -11   -1    0    0    0    0  0.00000000000E+00  0.00000000000E+00  0.45593999997E+02  0.45594000000E+02  0.51100000000E-03 0. -1.
         11   -1    0    0    0    0 -0.00000000000E+00 -0.00000000000E+00 -0.45593999997E+02  0.45594000000E+02  0.51100000000E-03 0.  1.
    9900012    2    1    2    0    0 -0.14731034823E+02 -0.58065257581E+01  0.27676718857E+02  0.59301954541E+02  0.50000019173E+02 0.  0.
        -12    1    1    2    0    0  0.14731034823E+02  0.58065257581E+01 -0.27676718857E+02  0.31886045459E+02  0.00000000000E+00 0.  1.
         11    1    3    3    0    0 -0.25647953899E+01 -0.22295475660E+02  0.19693686015E+02  0.29858125852E+02  0.51100000000E-03 0. -1.
        -11    1    3    3    0    0 -0.15143791081E+02  0.19043076408E+02  0.60545457209E+01  0.25072508681E+02  0.51100000000E-03 0.  1.
        -12    1    3    3    0    0  0.29775516488E+01 -0.25541265061E+01  0.19284871215E+01  0.43713200075E+01  0.00000000000E+00 0.  1.
</event>
<event>
 7    1  0.5979290E-013  0.5930193E+02  0.7816164E-02  0.1266605E+00
        -11   -1    0    0    0    0  0.00000000000E+00  0.00000000000E+00  0.45593999997E+02  0.45594000000E+02  0.51100000000E-03 0.  1.
         11   -1    0    0    0    0 -0.00000000000E+00 -0.00000000000E+00 -0.45593999997E+02  0.45594000000E+02  0.51100000000E-03 0. -1.
    9900012    2    1    2    0    0  0.25061040971E+02  0.19620093161E+02 -0.19281164440E+01  0.59301929951E+02  0.49999974327E+02 0.  0.
        -12    1    1    2    0    0 -0.25061040971E+02 -0.19620093161E+02  0.19281164440E+01  0.31886070049E+02  0.00000000000E+00 0.  1.
         11    1    3    3    0    0  0.20030173332E+02  0.18989390592E+02 -0.30069140611E+01  0.27764119493E+02  0.51100000000E-03 0. -1.
        -11    1    3    3    0    0  0.97995659242E+01 -0.41824227916E+01  0.13614572751E+02  0.17288167751E+02  0.51100000000E-03 0.  1.
        -12    1    3    3    0    0 -0.47686982852E+01  0.48131253601E+01 -0.12535775134E+02  0.14249642707E+02  0.00000000000E+00 0.  1.
</event>
<event>
 7    1  0.5979290E-013  0.5930195E+02  0.7816164E-02  0.1266605E+00
        -11   -1    0    0    0    0  0.00000000000E+00  0.00000000000E+00  0.45593999997E+02  0.45594000000E+02  0.51100000000E-03 0.  1.
         11   -1    0    0    0    0 -0.00000000000E+00 -0.00000000000E+00 -0.45593999997E+02  0.45594000000E+02  0.51100000000E-03 0. -1.
    9900012    2    1    2    0    0 -0.21624265435E+02 -0.19834645104E+02 -0.12477909316E+02  0.59301949400E+02  0.50000009797E+02 0.  0.
        -12    1    1    2    0    0  0.21624265435E+02  0.19834645104E+02  0.12477909316E+02  0.31886050600E+02  0.00000000000E+00 0.  1.
         11    1    3    3    0    0 -0.78501910810E+00  0.11170891716E+02  0.91471276803E+01  0.14459426745E+02  0.51100000000E-03 0. -1.
        -11    1    3    3    0    0 -0.12946525561E+02 -0.20590713423E+02 -0.71723802279E+01  0.25358096178E+02  0.51100000000E-03 0.  1.
         12    1    3    3    0    0 -0.78927207659E+01 -0.10414823397E+02 -0.14452656768E+02  0.19484426477E+02  0.00000000000E+00 0. -1.
</event>
<event>
 7    1  0.6261004E-013  0.5930196E+02  0.7816164E-02  0.1266605E+00
        -11   -1    0    0    0    0  0.00000000000E+00  0.00000000000E+00  0.45593999997E+02  0.45594000000E+02  0.51100000000E-03 0.  1.
         11   -1    0    0    0    0 -0.00000000000E+00 -0.00000000000E+00 -0.45593999997E+02  0.45594000000E+02  0.51100000000E-03 0. -1.
    9900012    2    1    2    0    0  0.19835679632E+02  0.21365417419E+02 -0.12914488060E+02  0.59301964659E+02  0.50000037626E+02 0.  0.
        -12    1    1    2    0    0 -0.19835679632E+02 -0.21365417419E+02  0.12914488060E+02  0.31886035341E+02  0.00000000000E+00 0.  1.
         11    1    3    3    0    0  0.13975851947E+02  0.12017591041E+02 -0.27921272215E+02  0.33456604347E+02  0.51100000000E-03 0. -1.
        -11    1    3    3    0    0 -0.23009234348E+01  0.11891775618E+02  0.11166760358E+02  0.16474377474E+02  0.51100000000E-03 0.  1.
         12    1    3    3    0    0  0.81607511199E+01 -0.25439492399E+01  0.38400237979E+01  0.93709828377E+01  0.00000000000E+00 0. -1.
</event>
<event>
 7    1  0.5979290E-013  0.5930204E+02  0.7816164E-02  0.1266604E+00
        -11   -1    0    0    0    0  0.00000000000E+00  0.00000000000E+00  0.45593999997E+02  0.45594000000E+02  0.51100000000E-03 0. -1.
         11   -1    0    0    0    0 -0.00000000000E+00 -0.00000000000E+00 -0.45593999997E+02  0.45594000000E+02  0.51100000000E-03 0.  1.
    9900012    2    1    2    0    0  0.22498715392E+02  0.57480213368E+01  0.21851370116E+02  0.59302041970E+02  0.50000178622E+02 0.  0.
        -12    1    1    2    0    0 -0.22498715392E+02 -0.57480213368E+01 -0.21851370116E+02  0.31885958030E+02  0.00000000000E+00 0.  1.
         11    1    3    3    0    0  0.94326835183E+01 -0.16298664946E+02  0.96773521968E+01  0.21172461906E+02  0.51100000000E-03 0. -1.
        -11    1    3    3    0    0  0.20023934716E+01  0.24390427163E+02  0.10755889680E+02  0.26731847670E+02  0.51100000000E-03 0.  1.
        -12    1    3    3    0    0  0.11063638402E+02 -0.23437408799E+01  0.14181282394E+01  0.11397732393E+02  0.00000000000E+00 0.  1.
</event>
<event>
 7    1  0.5979290E-013  0.5930194E+02  0.7816164E-02  0.1266605E+00
        -11   -1    0    0    0    0  0.00000000000E+00  0.00000000000E+00  0.45593999997E+02  0.45594000000E+02  0.51100000000E-03 0.  1.
         11   -1    0    0    0    0 -0.00000000000E+00 -0.00000000000E+00 -0.45593999997E+02  0.45594000000E+02  0.51100000000E-03 0. -1.
    9900012    2    1    2    0    0 -0.18708161862E+02 -0.25795032329E+02 -0.11582385263E+01  0.59301944590E+02  0.50000001026E+02 0.  0.
        -12    1    1    2    0    0  0.18708161862E+02  0.25795032329E+02  0.11582385263E+01  0.31886055410E+02  0.00000000000E+00 0.  1.
         11    1    3    3    0    0 -0.24124486131E+02 -0.22277864775E+02 -0.77041339185E+01  0.33729034521E+02  0.51100000000E-03 0. -1.
        -11    1    3    3    0    0  0.29699873759E+01  0.10241710051E+02  0.18009147682E+01  0.10814654134E+02  0.51100000000E-03 0.  1.
         12    1    3    3    0    0  0.24463368926E+01 -0.13758877605E+02  0.47449806240E+01  0.14758255935E+02  0.00000000000E+00 0. -1.
</event>
<event>
 7    1  0.5979290E-013  0.5930193E+02  0.7816164E-02  0.1266605E+00
        -11   -1    0    0    0    0  0.00000000000E+00  0.00000000000E+00  0.45593999997E+02  0.45594000000E+02  0.51100000000E-03 0.  1.
         11   -1    0    0    0    0 -0.00000000000E+00 -0.00000000000E+00 -0.45593999997E+02  0.45594000000E+02  0.51100000000E-03 0. -1.
    9900012    2    1    2    0    0  0.50536973422E+01  0.29784742079E+02 -0.10200511432E+02  0.59301934846E+02  0.49999983255E+02 0.  0.
        -12    1    1    2    0    0 -0.50536973422E+01 -0.29784742079E+02  0.10200511432E+02  0.31886065154E+02  0.00000000000E+00 0.  1.
         11    1    3    3    0    0  0.19069465135E+02  0.55561778416E+01  0.11708860047E+02  0.23056734734E+02  0.51100000000E-03 0. -1.
        -11    1    3    3    0    0 -0.68986102499E+01  0.56313141149E+01 -0.57439692552E+01  0.10596966788E+02  0.51100000000E-03 0.  1.
         12    1    3    3    0    0 -0.71171575427E+01  0.18597250122E+02 -0.16165402223E+02  0.25648233324E+02  0.00000000000E+00 0. -1.
</event>
<event>
 7    1  0.5979290E-013  0.5930198E+02  0.7816164E-02  0.1266605E+00
        -11   -1    0    0    0    0  0.00000000000E+00  0.00000000000E+00  0.45593999997E+02  0.45594000000E+02  0.51100000000E-03 0.  1.
         11   -1    0    0    0    0 -0.00000000000E+00 -0.00000000000E+00 -0.45593999997E+02  0.45594000000E+02  0.51100000000E-03 0. -1.
    9900012    2    1    2    0    0  0.12982049004E+02  0.29061668198E+02  0.18985297217E+01  0.59301975320E+02  0.50000057070E+02 0.  0.
        -12    1    1    2    0    0 -0.12982049004E+02 -0.29061668198E+02 -0.18985297217E+01  0.31886024680E+02  0.00000000000E+00 0.  1.
         11    1    3    3    0    0 -0.22600089274E+01 -0.34471542058E+01  0.12371553372E+02  0.13040162789E+02  0.51100000000E-03 0.  1.
        -11    1    3    3    0    0  0.16186958223E+02  0.36423280954E+02 -0.61087377166E+01  0.40323562451E+02  0.51100000000E-03 0. -1.
         12    1    3    3    0    0 -0.94490029174E+00 -0.39144585503E+01 -0.43642859336E+01  0.59382500801E+01  0.00000000000E+00 0. -1.
</event>
<event>
 7    1  0.5979290E-013  0.5930189E+02  0.7816164E-02  0.1266605E+00
        -11   -1    0    0    0    0  0.00000000000E+00  0.00000000000E+00  0.45593999997E+02  0.45594000000E+02  0.51100000000E-03 0.  1.
         11   -1    0    0    0    0 -0.00000000000E+00 -0.00000000000E+00 -0.45593999997E+02  0.45594000000E+02  0.51100000000E-03 0. -1.
    9900012    2    1    2    0    0  0.89785561692E+00  0.10930246351E+02 -0.29940737831E+02  0.59301886849E+02  0.49999895720E+02 0.  0.
        -12    1    1    2    0    0 -0.89785561692E+00 -0.10930246351E+02  0.29940737831E+02  0.31886113151E+02  0.00000000000E+00 0.  1.
         11    1    3    3    0    0  0.27979346943E+01  0.45896054410E+01 -0.28063652164E+02  0.28573790258E+02  0.51100000000E-03 0. -1.
        -11    1    3    3    0    0 -0.36319972194E+01  0.37245780565E+01  0.13795898276E+02  0.14744174951E+02  0.51100000000E-03 0.  1.
        -12    1    3    3    0    0  0.17319181420E+01  0.26160628540E+01 -0.15672983943E+02  0.15983921640E+02  0.00000000000E+00 0.  1.
</event>
<event>
 7    1  0.5979290E-013  0.5930189E+02  0.7816164E-02  0.1266605E+00
        -11   -1    0    0    0    0  0.00000000000E+00  0.00000000000E+00  0.45593999997E+02  0.45594000000E+02  0.51100000000E-03 0.  1.
         11   -1    0    0    0    0 -0.00000000000E+00 -0.00000000000E+00 -0.45593999997E+02  0.45594000000E+02  0.51100000000E-03 0. -1.
    9900012    2    1    2    0    0  0.16472167587E+02  0.24154845500E+02  0.12725373201E+02  0.59301890340E+02  0.49999902086E+02 0.  0.
        -12    1    1    2    0    0 -0.16472167587E+02 -0.24154845500E+02 -0.12725373201E+02  0.31886109660E+02  0.00000000000E+00 0.  1.
         11    1    3    3    0    0  0.17695888859E+01 -0.41097502669E+01 -0.47563251570E+01  0.65302466524E+01  0.51100000000E-03 0. -1.
        -11    1    3    3    0    0  0.12792285201E+02  0.35089702121E+02  0.22935428386E+02  0.43828799106E+02  0.51100000000E-03 0.  1.
        -12    1    3    3    0    0  0.19102934998E+01 -0.68251063536E+01 -0.54537300277E+01  0.89428445815E+01  0.00000000000E+00 0.  1.
</event>
<event>
 7    1  0.5979290E-013  0.5930193E+02  0.7816164E-02  0.1266605E+00
        -11   -1    0    0    0    0  0.00000000000E+00  0.00000000000E+00  0.45593999997E+02  0.45594000000E+02  0.51100000000E-03 0.  1.
         11   -1    0    0    0    0 -0.00000000000E+00 -0.00000000000E+00 -0.45593999997E+02  0.45594000000E+02  0.51100000000E-03 0. -1.
    9900012    2    1    2    0    0 -0.43023323221E+01 -0.99540478652E+01 -0.29985464208E+02  0.59301934139E+02  0.49999981966E+02 0.  0.
        -12    1    1    2    0    0  0.43023323221E+01  0.99540478652E+01  0.29985464208E+02  0.31886065861E+02  0.00000000000E+00 0.  1.
         11    1    3    3    0    0  0.18918544572E+01 -0.23693331282E+02 -0.76840457108E+01  0.24979944341E+02  0.51100000000E-03 0. -1.
        -11    1    3    3    0    0  0.58573538849E+01  0.10786489582E+02 -0.16655969165E+02  0.20690052227E+02  0.51100000000E-03 0.  1.
         12    1    3    3    0    0 -0.12051540664E+02  0.29527938342E+01 -0.56454493318E+01  0.13631937572E+02  0.00000000000E+00 0. -1.
</event>
<event>
 7    1  0.5979290E-013  0.5930196E+02  0.7816164E-02  0.1266605E+00
        -11   -1    0    0    0    0  0.00000000000E+00  0.00000000000E+00  0.45593999997E+02  0.45594000000E+02  0.51100000000E-03 0.  1.
         11   -1    0    0    0    0 -0.00000000000E+00 -0.00000000000E+00 -0.45593999997E+02  0.45594000000E+02  0.51100000000E-03 0. -1.
    9900012    2    1    2    0    0  0.31772962912E+02 -0.66651277234E+00  0.25988109937E+01  0.59301964968E+02  0.50000038189E+02 0.  0.
        -12    1    1    2    0    0 -0.31772962912E+02  0.66651277234E+00 -0.25988109937E+01  0.31886035032E+02  0.00000000000E+00 0.  1.
         11    1    3    3    0    0  0.27821414684E+02  0.13775153735E+02  0.11471729674E+02  0.33096624562E+02  0.51100000000E-03 0. -1.
        -11    1    3    3    0    0  0.14254202489E+01  0.47613147047E+01 -0.35846798685E+01  0.61279581121E+01  0.51100000000E-03 0.  1.
         12    1    3    3    0    0  0.25261279794E+01 -0.19202981212E+02 -0.52882388117E+01  0.20077382293E+02  0.00000000000E+00 0. -1.
</event>
<event>
 7    1  0.5979290E-013  0.5930200E+02  0.7816164E-02  0.1266605E+00
        -11   -1    0    0    0    0  0.00000000000E+00  0.00000000000E+00  0.45593999997E+02  0.45594000000E+02  0.51100000000E-03 0.  1.
         11   -1    0    0    0    0 -0.00000000000E+00 -0.00000000000E+00 -0.45593999997E+02  0.45594000000E+02  0.51100000000E-03 0. -1.
    9900012    2    1    2    0    0  0.26085945743E+02  0.18330835523E+02 -0.46980728779E+00  0.59302002836E+02  0.50000107251E+02 0.  0.
        -12    1    1    2    0    0 -0.26085945743E+02 -0.18330835523E+02  0.46980728779E+00  0.31885997164E+02  0.00000000000E+00 0.  1.
         11    1    3    3    0    0 -0.45864267181E+01 -0.39566645937E+01 -0.15707159543E+01  0.62576076593E+01  0.51100000000E-03 0. -1.
        -11    1    3    3    0    0  0.19954397321E+02  0.28730549361E+02  0.11455674041E+02  0.36808353767E+02  0.51100000000E-03 0.  1.
        -12    1    3    3    0    0  0.10717975141E+02 -0.64430492449E+01 -0.10354765375E+02  0.16236041409E+02  0.00000000000E+00 0.  1.
</event>
<event>
 7    1  0.5979290E-013  0.5930192E+02  0.7816164E-02  0.1266605E+00
        -11   -1    0    0    0    0  0.00000000000E+00  0.00000000000E+00  0.45593999997E+02  0.45594000000E+02  0.51100000000E-03 0.  1.
         11   -1    0    0    0    0 -0.00000000000E+00 -0.00000000000E+00 -0.45593999997E+02  0.45594000000E+02  0.51100000000E-03 0. -1.
    9900012    2    1    2    0    0  0.87009198252E+01  0.44093160488E+01 -0.30357437881E+02  0.59301919831E+02  0.49999955871E+02 0.  0.
        -12    1    1    2    0    0 -0.87009198252E+01 -0.44093160488E+01  0.30357437881E+02  0.31886080169E+02  0.00000000000E+00 0.  1.
         11    1    3    3    0    0 -0.22721811536E+01  0.19963703114E+02 -0.12774247559E+02  0.23809528558E+02  0.51100000000E-03 0. -1.
        -11    1    3    3    0    0  0.14247714278E+02 -0.17123383047E+02 -0.20921412108E+02  0.30559991721E+02  0.51100000000E-03 0.  1.
        -12    1    3    3    0    0 -0.32746132994E+01  0.15689959823E+01  0.33382217850E+01  0.49323995518E+01  0.00000000000E+00 0.  1.
</event>
<event>
 7    1  0.5979290E-013  0.5930194E+02  0.7816164E-02  0.1266605E+00
        -11   -1    0    0    0    0  0.00000000000E+00  0.00000000000E+00  0.45593999997E+02  0.45594000000E+02  0.51100000000E-03 0.  1.
         11   -1    0    0    0    0 -0.00000000000E+00 -0.00000000000E+00 -0.45593999997E+02  0.45594000000E+02  0.51100000000E-03 0. -1.
    9900012    2    1    2    0    0 -0.18746357425E+02 -0.42190775143E+00 -0.25789863142E+02  0.59301937782E+02  0.49999988610E+02 0.  0.
        -12    1    1    2    0    0  0.18746357425E+02  0.42190775143E+00  0.25789863142E+02  0.31886062218E+02  0.00000000000E+00 0.  1.
         11    1    3    3    0    0 -0.16234013407E+02  0.25917646899E+01  0.81138244946E+01  0.18332882580E+02  0.51100000000E-03 0. -1.
        -11    1    3    3    0    0  0.48618363769E+01 -0.89314158021E+01 -0.67220376882E+01  0.12189890571E+02  0.51100000000E-03 0.  1.
         12    1    3    3    0    0 -0.73741803955E+01  0.59177433607E+01 -0.27181649948E+02  0.28779164632E+02  0.00000000000E+00 0. -1.
</event>
<event>
 7    1  0.5979290E-013  0.5930197E+02  0.7816164E-02  0.1266605E+00
        -11   -1    0    0    0    0  0.00000000000E+00  0.00000000000E+00  0.45593999997E+02  0.45594000000E+02  0.51100000000E-03 0. -1.
         11   -1    0    0    0    0 -0.00000000000E+00 -0.00000000000E+00 -0.45593999997E+02  0.45594000000E+02  0.51100000000E-03 0.  1.
    9900012    2    1    2    0    0 -0.30349288262E+02 -0.86614212663E+01  0.45408420641E+01  0.59301972292E+02  0.50000051546E+02 0.  0.
        -12    1    1    2    0    0  0.30349288262E+02  0.86614212663E+01 -0.45408420641E+01  0.31886027708E+02  0.00000000000E+00 0.  1.
         11    1    3    3    0    0 -0.16850624736E+02 -0.56468453304E+01  0.26280597056E+02  0.31725387280E+02  0.51100000000E-03 0. -1.
        -11    1    3    3    0    0 -0.96897414406E+01 -0.13013576023E+01 -0.21225042432E+02  0.23368505458E+02  0.51100000000E-03 0.  1.
        -12    1    3    3    0    0 -0.38089220860E+01 -0.17132183336E+01 -0.51471255952E+00  0.42080795542E+01  0.00000000000E+00 0.  1.
</event>
<event>
 7    1  0.5979290E-013  0.5930186E+02  0.7816164E-02  0.1266605E+00
        -11   -1    0    0    0    0  0.00000000000E+00  0.00000000000E+00  0.45593999997E+02  0.45594000000E+02  0.51100000000E-03 0. -1.
         11   -1    0    0    0    0 -0.00000000000E+00 -0.00000000000E+00 -0.45593999997E+02  0.45594000000E+02  0.51100000000E-03 0.  1.
    9900012    2    1    2    0    0  0.11142376978E+02  0.27553536077E+02 -0.11548851295E+02  0.59301860672E+02  0.49999847978E+02 0.  0.
        -12    1    1    2    0    0 -0.11142376978E+02 -0.27553536077E+02  0.11548851295E+02  0.31886139328E+02  0.00000000000E+00 0.  1.
         11    1    3    3    0    0  0.17300498702E+02  0.31952893588E+01  0.13777374563E+02  0.22345764242E+02  0.51100000000E-03 0. -1.
        -11    1    3    3    0    0  0.10626738005E+01  0.12287434798E+02 -0.82753844810E+01  0.14852350592E+02  0.51100000000E-03 0.  1.
         12    1    3    3    0    0 -0.72207955253E+01  0.12070811919E+02 -0.17050841377E+02  0.22103745838E+02  0.00000000000E+00 0. -1.
</event>
<event>
 7    1  0.5979290E-013  0.5930194E+02  0.7816164E-02  0.1266605E+00
        -11   -1    0    0    0    0  0.00000000000E+00  0.00000000000E+00  0.45593999997E+02  0.45594000000E+02  0.51100000000E-03 0.  1.
         11   -1    0    0    0    0 -0.00000000000E+00 -0.00000000000E+00 -0.45593999997E+02  0.45594000000E+02  0.51100000000E-03 0. -1.
    9900012    2    1    2    0    0 -0.18323616274E+02 -0.12430715488E+01 -0.26065698372E+02  0.59301940791E+02  0.49999994098E+02 0.  0.
        -12    1    1    2    0    0  0.18323616274E+02  0.12430715488E+01  0.26065698372E+02  0.31886059209E+02  0.00000000000E+00 0.  1.
         11    1    3    3    0    0 -0.25699677659E+02 -0.22380757331E+01 -0.23528966490E+02  0.34915536358E+02  0.51100000000E-03 0. -1.
        -11    1    3    3    0    0  0.35717713065E+01  0.10033148503E+02  0.52415329956E+01  0.11869932078E+02  0.51100000000E-03 0.  1.
        -12    1    3    3    0    0  0.38042900785E+01 -0.90381443184E+01 -0.77782648768E+01  0.12516472355E+02  0.00000000000E+00 0.  1.
</event>
<event>
 7    1  0.5979290E-013  0.5930193E+02  0.7816164E-02  0.1266605E+00
        -11   -1    0    0    0    0  0.00000000000E+00  0.00000000000E+00  0.45593999997E+02  0.45594000000E+02  0.51100000000E-03 0.  1.
         11   -1    0    0    0    0 -0.00000000000E+00 -0.00000000000E+00 -0.45593999997E+02  0.45594000000E+02  0.51100000000E-03 0. -1.
    9900012    2    1    2    0    0 -0.26421224525E+02  0.17614558529E+02 -0.28926576942E+01  0.59301933355E+02  0.49999980535E+02 0.  0.
        -12    1    1    2    0    0  0.26421224525E+02 -0.17614558529E+02  0.28926576942E+01  0.31886066645E+02  0.00000000000E+00 0.  1.
         11    1    3    3    0    0 -0.19721697373E+02 -0.40678621801E+01  0.15275173604E+02  0.25274963479E+02  0.51100000000E-03 0.  1.
        -11    1    3    3    0    0  0.18874507782E+01  0.70585709964E+01 -0.15125290300E+02  0.16797627865E+02  0.51100000000E-03 0. -1.
         12    1    3    3    0    0 -0.85869779311E+01  0.14623849712E+02 -0.30425409984E+01  0.17229342011E+02  0.00000000000E+00 0. -1.
</event>
<event>
 7    1  0.5979290E-013  0.5930195E+02  0.7816164E-02  0.1266605E+00
        -11   -1    0    0    0    0  0.00000000000E+00  0.00000000000E+00  0.45593999997E+02  0.45594000000E+02  0.51100000000E-03 0.  1.
         11   -1    0    0    0    0 -0.00000000000E+00 -0.00000000000E+00 -0.45593999997E+02  0.45594000000E+02  0.51100000000E-03 0. -1.
    9900012    2    1    2    0    0  0.43459711779E+01  0.13510223952E+02 -0.28553577749E+02  0.59301946325E+02  0.50000004189E+02 0.  0.
        -12    1    1    2    0    0 -0.43459711779E+01 -0.13510223952E+02  0.28553577749E+02  0.31886053675E+02  0.00000000000E+00 0.  1.
         11    1    3    3    0    0  0.28260535259E+00  0.23741351090E+02 -0.20030926671E+02  0.31063960484E+02  0.51100000000E-03 0. -1.
        -11    1    3    3    0    0  0.56682328938E+01 -0.15077429046E+02 -0.13567858188E+02  0.21060496358E+02  0.51100000000E-03 0.  1.
        -12    1    3    3    0    0 -0.16048670684E+01  0.48463019081E+01  0.50452071099E+01  0.71774894827E+01  0.00000000000E+00 0.  1.
</event>
<event>
 7    1  0.5979290E-013  0.5930195E+02  0.7816164E-02  0.1266605E+00
        -11   -1    0    0    0    0  0.00000000000E+00  0.00000000000E+00  0.45593999997E+02  0.45594000000E+02  0.51100000000E-03 0.  1.
         11   -1    0    0    0    0 -0.00000000000E+00 -0.00000000000E+00 -0.45593999997E+02  0.45594000000E+02  0.51100000000E-03 0. -1.
    9900012    2    1    2    0    0  0.22574243500E+02  0.20759328574E+02 -0.87277670952E+01  0.59301951156E+02  0.50000013000E+02 0.  0.
        -12    1    1    2    0    0 -0.22574243500E+02 -0.20759328574E+02  0.87277670952E+01  0.31886048844E+02  0.00000000000E+00 0.  1.
         11    1    3    3    0    0  0.26463057954E+02  0.10385107861E+02 -0.29805963517E+01  0.28583699138E+02  0.51100000000E-03 0. -1.
        -11    1    3    3    0    0 -0.34844516910E+01 -0.35278190787E+01  0.91069902045E+01  0.10369386765E+02  0.51100000000E-03 0.  1.
         12    1    3    3    0    0 -0.40436276252E+00  0.13902039791E+02 -0.14854160948E+02  0.20348865253E+02  0.00000000000E+00 0. -1.
</event>
<event>
 7    1  0.5979290E-013  0.5930194E+02  0.7816164E-02  0.1266605E+00
        -11   -1    0    0    0    0  0.00000000000E+00  0.00000000000E+00  0.45593999997E+02  0.45594000000E+02  0.51100000000E-03 0.  1.
         11   -1    0    0    0    0 -0.00000000000E+00 -0.00000000000E+00 -0.45593999997E+02  0.45594000000E+02  0.51100000000E-03 0. -1.
    9900012    2    1    2    0    0  0.15969930496E+02 -0.25239825675E+02  0.11163926528E+02  0.59301941359E+02  0.49999995132E+02 0.  0.
        -12    1    1    2    0    0 -0.15969930496E+02  0.25239825675E+02 -0.11163926528E+02  0.31886058641E+02  0.00000000000E+00 0.  1.
         11    1    3    3    0    0  0.49228173687E+01 -0.31621750966E+02  0.62336335048E+01  0.32604101766E+02  0.51100000000E-03 0. -1.
        -11    1    3    3    0    0  0.10444575002E+01  0.13626063098E+02  0.43194388215E+01  0.14332412184E+02  0.51100000000E-03 0.  1.
        -12    1    3    3    0    0  0.10002655627E+02 -0.72441378070E+01  0.61085420175E+00  0.12365427409E+02  0.00000000000E+00 0.  1.
</event>
<event>
 7    1  0.5979290E-013  0.5930193E+02  0.7816164E-02  0.1266605E+00
        -11   -1    0    0    0    0  0.00000000000E+00  0.00000000000E+00  0.45593999997E+02  0.45594000000E+02  0.51100000000E-03 0.  1.
         11   -1    0    0    0    0 -0.00000000000E+00 -0.00000000000E+00 -0.45593999997E+02  0.45594000000E+02  0.51100000000E-03 0. -1.
    9900012    2    1    2    0    0  0.29659121521E+01  0.12824443512E+02 -0.29042354629E+02  0.59301931747E+02  0.49999977603E+02 0.  0.
        -12    1    1    2    0    0 -0.29659121521E+01 -0.12824443512E+02  0.29042354629E+02  0.31886068253E+02  0.00000000000E+00 0.  1.
         11    1    3    3    0    0  0.64316374194E+01  0.46360657331E+01 -0.23048959540E+02  0.24374445666E+02  0.51100000000E-03 0. -1.
        -11    1    3    3    0    0 -0.36885949688E+00  0.20850872183E+02 -0.72296684108E+00  0.20866662633E+02  0.51100000000E-03 0.  1.
        -12    1    3    3    0    0 -0.30968657704E+01 -0.12662494404E+02 -0.52704282474E+01  0.14060823448E+02  0.00000000000E+00 0.  1.
</event>
<event>
 7    1  0.5979290E-013  0.5930177E+02  0.7816164E-02  0.1266605E+00
        -11   -1    0    0    0    0  0.00000000000E+00  0.00000000000E+00  0.45593999997E+02  0.45594000000E+02  0.51100000000E-03 0. -1.
         11   -1    0    0    0    0 -0.00000000000E+00 -0.00000000000E+00 -0.45593999997E+02  0.45594000000E+02  0.51100000000E-03 0.  1.
    9900012    2    1    2    0    0  0.23217351386E+02  0.21630437171E+02 -0.31321681087E+01  0.59301769513E+02  0.49999681726E+02 0.  0.
        -12    1    1    2    0    0 -0.23217351386E+02 -0.21630437171E+02  0.31321681087E+01  0.31886230487E+02  0.00000000000E+00 0.  1.
         11    1    3    3    0    0  0.60236512174E+01  0.19747091486E+02  0.58460974763E+01  0.21457139887E+02  0.51100000000E-03 0. -1.
        -11    1    3    3    0    0  0.89946099045E+01 -0.13339819813E+02  0.35702276563E+01  0.16480301143E+02  0.51100000000E-03 0.  1.
        -12    1    3    3    0    0  0.81990902644E+01  0.15223165498E+02 -0.12548493241E+02  0.21364328484E+02  0.00000000000E+00 0.  1.
</event>
<event>
 7    1  0.5979290E-013  0.5930194E+02  0.7816164E-02  0.1266605E+00
        -11   -1    0    0    0    0  0.00000000000E+00  0.00000000000E+00  0.45593999997E+02  0.45594000000E+02  0.51100000000E-03 0. -1.
         11   -1    0    0    0    0 -0.00000000000E+00 -0.00000000000E+00 -0.45593999997E+02  0.45594000000E+02  0.51100000000E-03 0.  1.
    9900012    2    1    2    0    0 -0.32866187590E+01 -0.28103581621E+02  0.14700594652E+02  0.59301942766E+02  0.49999997700E+02 0.  0.
        -12    1    1    2    0    0  0.32866187590E+01  0.28103581621E+02 -0.14700594652E+02  0.31886057234E+02  0.00000000000E+00 0.  1.
         11    1    3    3    0    0  0.99618432680E+01 -0.31958873569E+02  0.19043835650E+02  0.38513317146E+02  0.51100000000E-03 0. -1.
        -11    1    3    3    0    0 -0.12250514999E+02  0.67510872512E+01  0.16236698522E+01  0.14081498530E+02  0.51100000000E-03 0.  1.
         12    1    3    3    0    0 -0.99794702827E+00 -0.28957953027E+01 -0.59669108500E+01  0.67071270898E+01  0.00000000000E+00 0. -1.
</event>
<event>
 7    1  0.6643726E-013  0.5930193E+02  0.7816164E-02  0.1266605E+00
        -11   -1    0    0    0    0  0.00000000000E+00  0.00000000000E+00  0.45593999997E+02  0.45594000000E+02  0.51100000000E-03 0.  1.
         11   -1    0    0    0    0 -0.00000000000E+00 -0.00000000000E+00 -0.45593999997E+02  0.45594000000E+02  0.51100000000E-03 0. -1.
    9900012    2    1    2    0    0  0.31077354639E+02  0.67965127417E+01 -0.21740914468E+01  0.59301933600E+02  0.49999980983E+02 0.  0.
        -12    1    1    2    0    0 -0.31077354639E+02 -0.67965127417E+01  0.21740914468E+01  0.31886066400E+02  0.00000000000E+00 0.  1.
         11    1    3    3    0    0  0.85649816300E+01  0.19568075821E+02  0.74309064843E+01  0.22616075546E+02  0.51100000000E-03 0. -1.
        -11    1    3    3    0    0  0.29453845739E+00 -0.12986685454E+02 -0.16909515344E+01  0.13099620962E+02  0.51100000000E-03 0.  1.
         12    1    3    3    0    0  0.22217834552E+02  0.21512237549E+00 -0.79140463968E+01  0.23586237093E+02  0.00000000000E+00 0. -1.
</event>
<event>
 7    1  0.5979290E-013  0.5930198E+02  0.7816164E-02  0.1266605E+00
        -11   -1    0    0    0    0  0.00000000000E+00  0.00000000000E+00  0.45593999997E+02  0.45594000000E+02  0.51100000000E-03 0. -1.
         11   -1    0    0    0    0 -0.00000000000E+00 -0.00000000000E+00 -0.45593999997E+02  0.45594000000E+02  0.51100000000E-03 0.  1.
    9900012    2    1    2    0    0  0.59841812727E+01 -0.22643803458E+02  0.21637145645E+02  0.59301979048E+02  0.50000063868E+02 0.  0.
        -12    1    1    2    0    0 -0.59841812727E+01  0.22643803458E+02 -0.21637145645E+02  0.31886020952E+02  0.00000000000E+00 0.  1.
         11    1    3    3    0    0 -0.36954110800E+01  0.11477550133E+02 -0.19071993418E+01  0.12207687320E+02  0.51100000000E-03 0. -1.
        -11    1    3    3    0    0  0.52592984416E+01 -0.13574309050E+01  0.99734282123E+01  0.11356588807E+02  0.51100000000E-03 0.  1.
         12    1    3    3    0    0  0.44202939111E+01 -0.32763922685E+02  0.13570916774E+02  0.35737702921E+02  0.00000000000E+00 0. -1.
</event>
<event>
 7    1  0.5979290E-013  0.5930194E+02  0.7816164E-02  0.1266605E+00
        -11   -1    0    0    0    0  0.00000000000E+00  0.00000000000E+00  0.45593999997E+02  0.45594000000E+02  0.51100000000E-03 0. -1.
         11   -1    0    0    0    0 -0.00000000000E+00 -0.00000000000E+00 -0.45593999997E+02  0.45594000000E+02  0.51100000000E-03 0.  1.
    9900012    2    1    2    0    0 -0.40736818857E+01 -0.14249575084E+02  0.28232522545E+02  0.59301943432E+02  0.49999998914E+02 0.  0.
        -12    1    1    2    0    0  0.40736818857E+01  0.14249575084E+02 -0.28232522545E+02  0.31886056568E+02  0.00000000000E+00 0.  1.
         11    1    3    3    0    0 -0.17691468297E+02 -0.52035575399E+01  0.24270994487E+02  0.30481900125E+02  0.51100000000E-03 0. -1.
        -11    1    3    3    0    0 -0.14442415618E+01 -0.49554573745E+01 -0.77468548029E+01  0.93089285677E+01  0.51100000000E-03 0.  1.
         12    1    3    3    0    0  0.15062027973E+02 -0.40905601692E+01  0.11708382861E+02  0.19511114740E+02  0.00000000000E+00 0. -1.
</event>
<event>
 7    1  0.5979290E-013  0.5930193E+02  0.7816164E-02  0.1266605E+00
        -11   -1    0    0    0    0  0.00000000000E+00  0.00000000000E+00  0.45593999997E+02  0.45594000000E+02  0.51100000000E-03 0.  1.
         11   -1    0    0    0    0 -0.00000000000E+00 -0.00000000000E+00 -0.45593999997E+02  0.45594000000E+02  0.51100000000E-03 0. -1.
    9900012    2    1    2    0    0  0.28281746318E+01 -0.94891256927E+01 -0.30309720779E+02  0.59301933264E+02  0.49999980370E+02 0.  0.
        -12    1    1    2    0    0 -0.28281746318E+01  0.94891256927E+01  0.30309720779E+02  0.31886066736E+02  0.00000000000E+00 0.  1.
         11    1    3    3    0    0  0.24550473205E+01  0.37313729258E+01  0.12132614562E+02  0.12928678882E+02  0.51100000000E-03 0. -1.
        -11    1    3    3    0    0 -0.46910554607E+01 -0.21870377936E+01 -0.21974917286E+02  0.22576229217E+02  0.51100000000E-03 0.  1.
         12    1    3    3    0    0  0.50641827720E+01 -0.11033460825E+02 -0.20467418055E+02  0.23797025166E+02  0.00000000000E+00 0. -1.
</event>
<event>
 7    1  0.5979290E-013  0.5930195E+02  0.7816164E-02  0.1266605E+00
        -11   -1    0    0    0    0  0.00000000000E+00  0.00000000000E+00  0.45593999997E+02  0.45594000000E+02  0.51100000000E-03 0. -1.
         11   -1    0    0    0    0 -0.00000000000E+00 -0.00000000000E+00 -0.45593999997E+02  0.45594000000E+02  0.51100000000E-03 0.  1.
    9900012    2    1    2    0    0 -0.12090024109E+02 -0.10476422085E+02  0.27582537208E+02  0.59301945658E+02  0.50000002974E+02 0.  0.
        -12    1    1    2    0    0  0.12090024109E+02  0.10476422085E+02 -0.27582537208E+02  0.31886054342E+02  0.00000000000E+00 0.  1.
         11    1    3    3    0    0 -0.16776547757E+02 -0.17139844806E+02  0.29318164788E+02  0.37878511341E+02  0.51100000000E-03 0. -1.
        -11    1    3    3    0    0  0.21468608867E+01  0.13697651481E+02 -0.82258600827E+00  0.13889251807E+02  0.51100000000E-03 0.  1.
         12    1    3    3    0    0  0.25396627607E+01 -0.70342287595E+01 -0.91304157160E+00  0.75341825097E+01  0.00000000000E+00 0. -1.
</event>
<event>
 7    1  0.5979290E-013  0.5930196E+02  0.7816164E-02  0.1266605E+00
        -11   -1    0    0    0    0  0.00000000000E+00  0.00000000000E+00  0.45593999997E+02  0.45594000000E+02  0.51100000000E-03 0.  1.
         11   -1    0    0    0    0 -0.00000000000E+00 -0.00000000000E+00 -0.45593999997E+02  0.45594000000E+02  0.51100000000E-03 0. -1.
    9900012    2    1    2    0    0  0.11373193936E+01 -0.25185710610E+01 -0.31766059647E+02  0.59301964795E+02  0.50000037875E+02 0.  0.
        -12    1    1    2    0    0 -0.11373193936E+01  0.25185710610E+01  0.31766059647E+02  0.31886035205E+02  0.00000000000E+00 0.  1.
         11    1    3    3    0    0  0.12952943802E+02 -0.10476327155E+02 -0.31901653234E+02  0.35989549360E+02  0.51100000000E-03 0.  1.
        -11    1    3    3    0    0 -0.63743655789E+01  0.11825128755E+02 -0.55583867358E+01  0.14538289789E+02  0.51100000000E-03 0. -1.
         12    1    3    3    0    0 -0.54412588292E+01 -0.38673726616E+01  0.56939803231E+01  0.87741256470E+01  0.00000000000E+00 0. -1.
</event>
<event>
 7    1  0.5979290E-013  0.5930195E+02  0.7816164E-02  0.1266605E+00
        -11   -1    0    0    0    0  0.00000000000E+00  0.00000000000E+00  0.45593999997E+02  0.45594000000E+02  0.51100000000E-03 0. -1.
         11   -1    0    0    0    0 -0.00000000000E+00 -0.00000000000E+00 -0.45593999997E+02  0.45594000000E+02  0.51100000000E-03 0.  1.
    9900012    2    1    2    0    0 -0.53134938000E+01  0.26249701960E+02  0.17304340900E+02  0.59301948452E+02  0.50000008068E+02 0.  0.
        -12    1    1    2    0    0  0.53134938000E+01 -0.26249701960E+02 -0.17304340900E+02  0.31886051548E+02  0.00000000000E+00 0.  1.
         11    1    3    3    0    0  0.17937335109E+02  0.14248745753E+02  0.15214850265E+02  0.27500298457E+02  0.51100000000E-03 0. -1.
        -11    1    3    3    0    0 -0.19269013269E+02  0.28672322576E+01 -0.43197696817E+01  0.19954355503E+02  0.51100000000E-03 0.  1.
        -12    1    3    3    0    0 -0.39818156402E+01  0.91337239500E+01  0.64092603160E+01  0.11847294492E+02  0.00000000000E+00 0.  1.
</event>
<event>
 7    1  0.5979290E-013  0.5930193E+02  0.7816164E-02  0.1266605E+00
        -11   -1    0    0    0    0  0.00000000000E+00  0.00000000000E+00  0.45593999997E+02  0.45594000000E+02  0.51100000000E-03 0.  1.
         11   -1    0    0    0    0 -0.00000000000E+00 -0.00000000000E+00 -0.45593999997E+02  0.45594000000E+02  0.51100000000E-03 0. -1.
    9900012    2    1    2    0    0 -0.18338157687E+02 -0.25960631749E+02 -0.25453788666E+01  0.59301931228E+02  0.49999976656E+02 0.  0.
        -12    1    1    2    0    0  0.18338157687E+02  0.25960631749E+02  0.25453788666E+01  0.31886068772E+02  0.00000000000E+00 0.  1.
         11    1    3    3    0    0  0.75139286912E+01  0.26686420339E+01  0.48465638132E+01  0.93311283207E+01  0.51100000000E-03 0. -1.
        -11    1    3    3    0    0 -0.27606159917E+02 -0.10250231371E+02  0.14848464667E+01  0.29485116208E+02  0.51100000000E-03 0.  1.
        -12    1    3    3    0    0  0.17540735389E+01 -0.18379042413E+02 -0.88767891464E+01  0.20485686699E+02  0.00000000000E+00 0.  1.
</event>
<event>
 7    1  0.5979290E-013  0.5930194E+02  0.7816164E-02  0.1266605E+00
        -11   -1    0    0    0    0  0.00000000000E+00  0.00000000000E+00  0.45593999997E+02  0.45594000000E+02  0.51100000000E-03 0. -1.
         11   -1    0    0    0    0 -0.00000000000E+00 -0.00000000000E+00 -0.45593999997E+02  0.45594000000E+02  0.51100000000E-03 0.  1.
    9900012    2    1    2    0    0  0.67263344926E+01  0.30211775360E+02 -0.76632997751E+01  0.59301935496E+02  0.49999984440E+02 0.  0.
        -12    1    1    2    0    0 -0.67263344926E+01 -0.30211775360E+02  0.76632997751E+01  0.31886064504E+02  0.00000000000E+00 0.  1.
         11    1    3    3    0    0  0.13640524050E+02  0.23424661210E+02  0.70532577111E+01  0.28009410807E+02  0.51100000000E-03 0. -1.
        -11    1    3    3    0    0  0.18503361463E+01  0.10961012095E+02 -0.17904699184E+02  0.21074766502E+02  0.51100000000E-03 0.  1.
        -12    1    3    3    0    0 -0.87645257035E+01 -0.41738979456E+01  0.31881416976E+01  0.10217758186E+02  0.00000000000E+00 0.  1.
</event>
<event>
 7    1  0.5979290E-013  0.5930194E+02  0.7816164E-02  0.1266605E+00
        -11   -1    0    0    0    0  0.00000000000E+00  0.00000000000E+00  0.45593999997E+02  0.45594000000E+02  0.51100000000E-03 0. -1.
         11   -1    0    0    0    0 -0.00000000000E+00 -0.00000000000E+00 -0.45593999997E+02  0.45594000000E+02  0.51100000000E-03 0.  1.
    9900012    2    1    2    0    0  0.26528866341E+02  0.42891067312E+01 -0.17162268274E+02  0.59301942887E+02  0.49999997920E+02 0.  0.
        -12    1    1    2    0    0 -0.26528866341E+02 -0.42891067312E+01  0.17162268274E+02  0.31886057113E+02  0.00000000000E+00 0.  1.
         11    1    3    3    0    0  0.23664142521E+01 -0.15864388540E+02 -0.15908375078E+01  0.16118607396E+02  0.51100000000E-03 0. -1.
        -11    1    3    3    0    0  0.65497577191E+01  0.21631253979E+02 -0.89754531122E+01  0.24318084500E+02  0.51100000000E-03 0.  1.
        -12    1    3    3    0    0  0.17612694369E+02 -0.14777587084E+01 -0.65959776545E+01  0.18865250991E+02  0.00000000000E+00 0.  1.
</event>
<event>
 7    1  0.5979290E-013  0.5930195E+02  0.7816164E-02  0.1266605E+00
        -11   -1    0    0    0    0  0.00000000000E+00  0.00000000000E+00  0.45593999997E+02  0.45594000000E+02  0.51100000000E-03 0.  1.
         11   -1    0    0    0    0 -0.00000000000E+00 -0.00000000000E+00 -0.45593999997E+02  0.45594000000E+02  0.51100000000E-03 0. -1.
    9900012    2    1    2    0    0  0.28364548543E+02  0.51403463388E+01  0.13628995360E+02  0.59301948362E+02  0.50000007905E+02 0.  0.
        -12    1    1    2    0    0 -0.28364548543E+02 -0.51403463388E+01 -0.13628995360E+02  0.31886051638E+02  0.00000000000E+00 0.  1.
         11    1    3    3    0    0  0.44903127342E+01 -0.94833283098E+01 -0.15026517951E+02  0.18327374778E+02  0.51100000000E-03 0. -1.
        -11    1    3    3    0    0  0.60250439495E+01  0.73148241394E+01  0.59805398169E+01  0.11206010153E+02  0.51100000000E-03 0.  1.
         12    1    3    3    0    0  0.17849191859E+02  0.73088505092E+01  0.22674973494E+02  0.29768563431E+02  0.00000000000E+00 0. -1.
</event>
<event>
 7    1  0.5979290E-013  0.5930195E+02  0.7816164E-02  0.1266605E+00
        -11   -1    0    0    0    0  0.00000000000E+00  0.00000000000E+00  0.45593999997E+02  0.45594000000E+02  0.51100000000E-03 0.  1.
         11   -1    0    0    0    0 -0.00000000000E+00 -0.00000000000E+00 -0.45593999997E+02  0.45594000000E+02  0.51100000000E-03 0. -1.
    9900012    2    1    2    0    0  0.44707043010E+01  0.92120177067E+01 -0.30197215553E+02  0.59301948280E+02  0.50000007754E+02 0.  0.
        -12    1    1    2    0    0 -0.44707043010E+01 -0.92120177067E+01  0.30197215553E+02  0.31886051720E+02  0.00000000000E+00 0.  1.
         11    1    3    3    0    0  0.14413214497E+02  0.23459028687E+02 -0.84030006436E+01  0.28786753883E+02  0.51100000000E-03 0. -1.
        -11    1    3    3    0    0 -0.85472964147E+01 -0.35756497145E+01 -0.48914086507E+01  0.10476995072E+02  0.51100000000E-03 0.  1.
         12    1    3    3    0    0 -0.13952137811E+01 -0.10671361266E+02 -0.16902806258E+02  0.20038199325E+02  0.00000000000E+00 0. -1.
</event>
<event>
 7    1  0.5979290E-013  0.5930191E+02  0.7816164E-02  0.1266605E+00
        -11   -1    0    0    0    0  0.00000000000E+00  0.00000000000E+00  0.45593999997E+02  0.45594000000E+02  0.51100000000E-03 0. -1.
         11   -1    0    0    0    0 -0.00000000000E+00 -0.00000000000E+00 -0.45593999997E+02  0.45594000000E+02  0.51100000000E-03 0.  1.
    9900012    2    1    2    0    0 -0.96185427600E+00  0.31871142842E+02 -0.16771939708E+00  0.59301905233E+02  0.49999929247E+02 0.  0.
        -12    1    1    2    0    0  0.96185427600E+00 -0.31871142842E+02  0.16771939708E+00  0.31886094767E+02  0.00000000000E+00 0.  1.
         11    1    3    3    0    0 -0.94574833951E+01  0.29626702389E+02 -0.82686102894E+01  0.32180046659E+02  0.51100000000E-03 0. -1.
        -11    1    3    3    0    0  0.48519891513E+01  0.17015751059E+01  0.16856280342E+02  0.17623034466E+02  0.51100000000E-03 0.  1.
        -12    1    3    3    0    0  0.36436399678E+01  0.54286534717E+00 -0.87553894499E+01  0.94988241072E+01  0.00000000000E+00 0.  1.
</event>
<event>
 7    1  0.5979290E-013  0.5930193E+02  0.7816164E-02  0.1266605E+00
        -11   -1    0    0    0    0  0.00000000000E+00  0.00000000000E+00  0.45593999997E+02  0.45594000000E+02  0.51100000000E-03 0.  1.
         11   -1    0    0    0    0 -0.00000000000E+00 -0.00000000000E+00 -0.45593999997E+02  0.45594000000E+02  0.51100000000E-03 0. -1.
    9900012    2    1    2    0    0  0.24330670702E+02 -0.20600068040E+02 -0.61410283543E+00  0.59301929964E+02  0.49999974351E+02 0.  0.
        -12    1    1    2    0    0 -0.24330670702E+02  0.20600068040E+02  0.61410283543E+00  0.31886070036E+02  0.00000000000E+00 0.  1.
         11    1    3    3    0    0  0.10502720121E+02 -0.22840671320E+02 -0.46447889435E+01  0.25565161077E+02  0.51100000000E-03 0. -1.
        -11    1    3    3    0    0  0.10105427890E+01 -0.53415470646E+01  0.14531278390E+02  0.15514875884E+02  0.51100000000E-03 0.  1.
        -12    1    3    3    0    0  0.12817407792E+02  0.75821503447E+01 -0.10500592282E+02  0.18221893004E+02  0.00000000000E+00 0.  1.
</event>
<event>
 7    1  0.5979290E-013  0.5930194E+02  0.7816164E-02  0.1266605E+00
        -11   -1    0    0    0    0  0.00000000000E+00  0.00000000000E+00  0.45593999997E+02  0.45594000000E+02  0.51100000000E-03 0.  1.
         11   -1    0    0    0    0 -0.00000000000E+00 -0.00000000000E+00 -0.45593999997E+02  0.45594000000E+02  0.51100000000E-03 0. -1.
    9900012    2    1    2    0    0  0.31315451264E+01  0.17421163699E+02 -0.26522012377E+02  0.59301942545E+02  0.49999997295E+02 0.  0.
        -12    1    1    2    0    0 -0.31315451264E+01 -0.17421163699E+02  0.26522012377E+02  0.31886057455E+02  0.00000000000E+00 0.  1.
         11    1    3    3    0    0 -0.12157436184E+02  0.13794473202E+02  0.43998874595E+01  0.18906341672E+02  0.51100000000E-03 0. -1.
        -11    1    3    3    0    0  0.13637887724E+02 -0.27565257125E+01 -0.69875673404E+01  0.15569730671E+02  0.51100000000E-03 0.  1.
         12    1    3    3    0    0  0.16510935866E+01  0.63832162091E+01 -0.23934332496E+02  0.24825870201E+02  0.00000000000E+00 0. -1.
</event>
<event>
 7    1  0.5979290E-013  0.5930193E+02  0.7816164E-02  0.1266605E+00
        -11   -1    0    0    0    0  0.00000000000E+00  0.00000000000E+00  0.45593999997E+02  0.45594000000E+02  0.51100000000E-03 0.  1.
         11   -1    0    0    0    0 -0.00000000000E+00 -0.00000000000E+00 -0.45593999997E+02  0.45594000000E+02  0.51100000000E-03 0. -1.
    9900012    2    1    2    0    0 -0.22057380159E+02  0.13586400374E+02 -0.18590402851E+02  0.59301931369E+02  0.49999976913E+02 0.  0.
        -12    1    1    2    0    0  0.22057380159E+02 -0.13586400374E+02  0.18590402851E+02  0.31886068631E+02  0.00000000000E+00 0.  1.
         11    1    3    3    0    0 -0.16889194646E+02 -0.63172427015E+01 -0.19325565618E+02  0.26431608688E+02  0.51100000000E-03 0. -1.
        -11    1    3    3    0    0 -0.79810261584E+01  0.21752487116E+02  0.82826155920E+01  0.24606283660E+02  0.51100000000E-03 0.  1.
        -12    1    3    3    0    0  0.28128406454E+01 -0.18488440401E+01 -0.75474528255E+01  0.82640390206E+01  0.00000000000E+00 0.  1.
</event>
<event>
 7    1  0.5979290E-013  0.5930195E+02  0.7816164E-02  0.1266605E+00
        -11   -1    0    0    0    0  0.00000000000E+00  0.00000000000E+00  0.45593999997E+02  0.45594000000E+02  0.51100000000E-03 0.  1.
         11   -1    0    0    0    0 -0.00000000000E+00 -0.00000000000E+00 -0.45593999997E+02  0.45594000000E+02  0.51100000000E-03 0. -1.
    9900012    2    1    2    0    0 -0.99405948419E+01  0.46260131349E+01 -0.29941687251E+02  0.59301951973E+02  0.50000014490E+02 0.  0.
        -12    1    1    2    0    0  0.99405948419E+01 -0.46260131349E+01  0.29941687251E+02  0.31886048027E+02  0.00000000000E+00 0.  1.
         11    1    3    3    0    0 -0.16204797970E+02  0.24189679876E+02 -0.23362154029E+02  0.37329965589E+02  0.51100000000E-03 0. -1.
        -11    1    3    3    0    0  0.29420397971E+01 -0.13295947083E+02 -0.26858436505E+01  0.13879897816E+02  0.51100000000E-03 0.  1.
         12    1    3    3    0    0  0.33221633308E+01 -0.62677196578E+01 -0.38936895715E+01  0.80920885675E+01  0.00000000000E+00 0. -1.
</event>
<event>
 7    1  0.5979290E-013  0.5930195E+02  0.7816164E-02  0.1266605E+00
        -11   -1    0    0    0    0  0.00000000000E+00  0.00000000000E+00  0.45593999997E+02  0.45594000000E+02  0.51100000000E-03 0. -1.
         11   -1    0    0    0    0 -0.00000000000E+00 -0.00000000000E+00 -0.45593999997E+02  0.45594000000E+02  0.51100000000E-03 0.  1.
    9900012    2    1    2    0    0  0.25240710194E+02  0.18567582630E+02  0.59052073492E+01  0.59301952116E+02  0.50000014752E+02 0.  0.
        -12    1    1    2    0    0 -0.25240710194E+02 -0.18567582630E+02 -0.59052073492E+01  0.31886047884E+02  0.00000000000E+00 0.  1.
         11    1    3    3    0    0  0.26507999648E+02  0.15997576107E+01  0.11800187968E+02  0.29059898590E+02  0.51100000000E-03 0. -1.
        -11    1    3    3    0    0 -0.15486493106E+01  0.17877801345E+02 -0.13576379990E+02  0.22501826360E+02  0.51100000000E-03 0.  1.
        -12    1    3    3    0    0  0.28135985657E+00 -0.90997632617E+00  0.76813993710E+01  0.77402271659E+01  0.00000000000E+00 0.  1.
</event>
