<event>
 7    1  0.9865694E-013  0.5052885E+02  0.7816164E-02  0.1300439E+00
        -11   -1    0    0    0    0  0.00000000000E+00  0.00000000000E+00  0.45593999997E+02  0.45594000000E+02  0.51100000000E-03 0.  1.
         11   -1    0    0    0    0 -0.00000000000E+00 -0.00000000000E+00 -0.45593999997E+02  0.45594000000E+02  0.51100000000E-03 0. -1.
    9900012    2    1    2    0    0 -0.48083006225E+01 -0.35378514281E+02 -0.19452697938E+02  0.50528849927E+02  0.29999969839E+02 0.  0.
        -12    1    1    2    0    0  0.48083006225E+01  0.35378514281E+02  0.19452697938E+02  0.40659150073E+02  0.00000000000E+00 0.  1.
         11    1    3    3    0    0  0.37279153001E+01 -0.13932122556E+01  0.17706509900E+01  0.43558693809E+01  0.51100000000E-03 0. -1.
        -11    1    3    3    0    0 -0.31528047322E+01 -0.32702065572E+02 -0.11176525361E+02  0.34702737497E+02  0.51100000000E-03 0.  1.
        -12    1    3    3    0    0 -0.53834111905E+01 -0.12832364529E+01 -0.10046823566E+02  0.11470243050E+02  0.00000000000E+00 0.  1.
</event>
<event>
 7    1  0.9865694E-013  0.5052891E+02  0.7816164E-02  0.1300439E+00
        -11   -1    0    0    0    0  0.00000000000E+00  0.00000000000E+00  0.45593999997E+02  0.45594000000E+02  0.51100000000E-03 0.  1.
         11   -1    0    0    0    0 -0.00000000000E+00 -0.00000000000E+00 -0.45593999997E+02  0.45594000000E+02  0.51100000000E-03 0. -1.
    9900012    2    1    2    0    0  0.38876020250E+02  0.68119233807E+01 -0.97680263899E+01  0.50528910116E+02  0.30000152790E+02 0.  0.
        -12    1    1    2    0    0 -0.38876020250E+02 -0.68119233807E+01  0.97680263899E+01  0.40659089884E+02  0.00000000000E+00 0.  1.
         11    1    3    3    0    0  0.29027387020E+01  0.85507677867E-01 -0.25743263673E+01  0.38807679706E+01  0.51100000000E-03 0. -1.
        -11    1    3    3    0    0  0.52115976319E+01  0.12572914514E+02 -0.70668210699E+01  0.15335543340E+02  0.51100000000E-03 0.  1.
        -12    1    3    3    0    0  0.30761683916E+02 -0.58464988110E+01 -0.12687895263E+00  0.31312598806E+02  0.00000000000E+00 0.  1.
</event>
<event>
 7    1  0.9865694E-013  0.5052886E+02  0.7816164E-02  0.1300439E+00
        -11   -1    0    0    0    0  0.00000000000E+00  0.00000000000E+00  0.45593999997E+02  0.45594000000E+02  0.51100000000E-03 0.  1.
         11   -1    0    0    0    0 -0.00000000000E+00 -0.00000000000E+00 -0.45593999997E+02  0.45594000000E+02  0.51100000000E-03 0. -1.
    9900012    2    1    2    0    0 -0.33938103270E+02  0.11129139919E+02 -0.19429696474E+02  0.50528859404E+02  0.29999998645E+02 0.  0.
        -12    1    1    2    0    0  0.33938103270E+02 -0.11129139919E+02  0.19429696474E+02  0.40659140596E+02  0.00000000000E+00 0.  1.
         11    1    3    3    0    0 -0.26620808899E+02  0.11260419387E+02 -0.92403792637E+01  0.30345495883E+02  0.51100000000E-03 0. -1.
        -11    1    3    3    0    0 -0.62181463926E+01 -0.54252248285E+01 -0.11927564539E+02  0.14503972045E+02  0.51100000000E-03 0.  1.
         12    1    3    3    0    0 -0.10991479787E+01  0.52939453608E+01  0.17382473284E+01  0.56793914760E+01  0.00000000000E+00 0. -1.
</event>
<event>
 7    1  0.9865694E-013  0.5052886E+02  0.7816164E-02  0.1300439E+00
        -11   -1    0    0    0    0  0.00000000000E+00  0.00000000000E+00  0.45593999997E+02  0.45594000000E+02  0.51100000000E-03 0.  1.
         11   -1    0    0    0    0 -0.00000000000E+00 -0.00000000000E+00 -0.45593999997E+02  0.45594000000E+02  0.51100000000E-03 0. -1.
    9900012    2    1    2    0    0 -0.10085286625E+01 -0.34408622872E+02 -0.21637824717E+02  0.50528856914E+02  0.29999991074E+02 0.  0.
        -12    1    1    2    0    0  0.10085286625E+01  0.34408622872E+02  0.21637824717E+02  0.40659143086E+02  0.00000000000E+00 0.  1.
         11    1    3    3    0    0  0.36392378366E+01 -0.39742242124E+01 -0.16291410988E+02  0.17159504141E+02  0.51100000000E-03 0. -1.
        -11    1    3    3    0    0 -0.81869009509E+01 -0.18431426226E+02 -0.53109747232E+01  0.20855437485E+02  0.51100000000E-03 0.  1.
         12    1    3    3    0    0  0.35391344518E+01 -0.12002972434E+02 -0.35439006229E-01  0.12513915288E+02  0.00000000000E+00 0. -1.
</event>
<event>
 7    1  0.9865694E-013  0.5052886E+02  0.7816164E-02  0.1300439E+00
        -11   -1    0    0    0    0  0.00000000000E+00  0.00000000000E+00  0.45593999997E+02  0.45594000000E+02  0.51100000000E-03 0. -1.
         11   -1    0    0    0    0 -0.00000000000E+00 -0.00000000000E+00 -0.45593999997E+02  0.45594000000E+02  0.51100000000E-03 0.  1.
    9900012    2    1    2    0    0  0.39573917843E+02  0.64977369758E+01  0.66969962871E+01  0.50528864267E+02  0.30000013426E+02 0.  0.
        -12    1    1    2    0    0 -0.39573917843E+02 -0.64977369758E+01 -0.66969962871E+01  0.40659135733E+02  0.00000000000E+00 0.  1.
         11    1    3    3    0    0  0.28055975190E+01  0.33159199716E+01  0.35261417461E+01  0.55946741256E+01  0.51100000000E-03 0. -1.
        -11    1    3    3    0    0  0.81978533068E+01 -0.23925605828E+01 -0.98576964722E+01  0.13042366541E+02  0.51100000000E-03 0.  1.
        -12    1    3    3    0    0  0.28570467018E+02  0.55743775869E+01  0.13028551013E+02  0.31891823601E+02  0.00000000000E+00 0.  1.
</event>
<event>
 7    1  0.9865694E-013  0.5052885E+02  0.7816164E-02  0.1300439E+00
        -11   -1    0    0    0    0  0.00000000000E+00  0.00000000000E+00  0.45593999997E+02  0.45594000000E+02  0.51100000000E-03 0.  1.
         11   -1    0    0    0    0 -0.00000000000E+00 -0.00000000000E+00 -0.45593999997E+02  0.45594000000E+02  0.51100000000E-03 0. -1.
    9900012    2    1    2    0    0 -0.33624422027E+02 -0.22839848825E+02  0.95174965662E+00  0.50528852463E+02  0.29999977547E+02 0.  0.
        -12    1    1    2    0    0  0.33624422027E+02  0.22839848825E+02 -0.95174965662E+00  0.40659147537E+02  0.00000000000E+00 0.  1.
         11    1    3    3    0    0 -0.17242069294E+02 -0.80288847527E+01 -0.39954726331E+01  0.19434910490E+02  0.51100000000E-03 0. -1.
        -11    1    3    3    0    0  0.14559440223E+01  0.48836095121E+00  0.73149914094E+01  0.74744477385E+01  0.51100000000E-03 0.  1.
        -12    1    3    3    0    0 -0.17838296755E+02 -0.15299325023E+02 -0.23677691197E+01  0.23619494235E+02  0.00000000000E+00 0.  1.
</event>
<event>
 7    1  0.9865694E-013  0.5052886E+02  0.7816164E-02  0.1300439E+00
        -11   -1    0    0    0    0  0.00000000000E+00  0.00000000000E+00  0.45593999997E+02  0.45594000000E+02  0.51100000000E-03 0. -1.
         11   -1    0    0    0    0 -0.00000000000E+00 -0.00000000000E+00 -0.45593999997E+02  0.45594000000E+02  0.51100000000E-03 0.  1.
    9900012    2    1    2    0    0  0.17120241193E+02 -0.25606665664E+02  0.26539815818E+02  0.50528858241E+02  0.29999995109E+02 0.  0.
        -12    1    1    2    0    0 -0.17120241193E+02  0.25606665664E+02 -0.26539815818E+02  0.40659141759E+02  0.00000000000E+00 0.  1.
         11    1    3    3    0    0  0.89955020147E+01 -0.30256451894E+02  0.24248060390E+02  0.39803773322E+02  0.51100000000E-03 0. -1.
        -11    1    3    3    0    0  0.76045328344E+01  0.30494869889E+01  0.41395611765E+00  0.82036364164E+01  0.51100000000E-03 0.  1.
         12    1    3    3    0    0  0.52020634376E+00  0.16002992412E+01  0.18777993108E+01  0.25214485030E+01  0.00000000000E+00 0. -1.
</event>
<event>
 7    1  0.9865694E-013  0.5052886E+02  0.7816164E-02  0.1300439E+00
        -11   -1    0    0    0    0  0.00000000000E+00  0.00000000000E+00  0.45593999997E+02  0.45594000000E+02  0.51100000000E-03 0. -1.
         11   -1    0    0    0    0 -0.00000000000E+00 -0.00000000000E+00 -0.45593999997E+02  0.45594000000E+02  0.51100000000E-03 0.  1.
    9900012    2    1    2    0    0 -0.78309193196E+00 -0.28096945532E+02  0.29378797262E+02  0.50528864375E+02  0.30000013754E+02 0.  0.
        -12    1    1    2    0    0  0.78309193196E+00  0.28096945532E+02 -0.29378797262E+02  0.40659135625E+02  0.00000000000E+00 0.  1.
         11    1    3    3    0    0  0.76328610715E+00 -0.17604337196E+02  0.64493182043E+01  0.18764034730E+02  0.51100000000E-03 0. -1.
        -11    1    3    3    0    0  0.32086252259E+01 -0.55654886243E+01  0.23990496105E+02  0.24835737217E+02  0.51100000000E-03 0.  1.
        -12    1    3    3    0    0 -0.47550032650E+01 -0.49271197116E+01 -0.10610170471E+01  0.69290924281E+01  0.00000000000E+00 0.  1.
</event>
<event>
 7    1  0.9865694E-013  0.5052887E+02  0.7816164E-02  0.1300439E+00
        -11   -1    0    0    0    0  0.00000000000E+00  0.00000000000E+00  0.45593999997E+02  0.45594000000E+02  0.51100000000E-03 0. -1.
         11   -1    0    0    0    0 -0.00000000000E+00 -0.00000000000E+00 -0.45593999997E+02  0.45594000000E+02  0.51100000000E-03 0.  1.
    9900012    2    1    2    0    0 -0.18861456997E+02  0.76736824341E+01  0.35192687603E+02  0.50528865443E+02  0.30000017002E+02 0.  0.
        -12    1    1    2    0    0  0.18861456997E+02 -0.76736824341E+01 -0.35192687603E+02  0.40659134557E+02  0.00000000000E+00 0.  1.
         11    1    3    3    0    0 -0.18442155910E+02 -0.56496609689E+01  0.19311442326E+02  0.27294021115E+02  0.51100000000E-03 0. -1.
        -11    1    3    3    0    0  0.21953351469E+01  0.11727831308E+02  0.69843203069E+01  0.13825420573E+02  0.51100000000E-03 0.  1.
        -12    1    3    3    0    0 -0.26146362338E+01  0.15955120949E+01  0.88969249703E+01  0.94094237553E+01  0.00000000000E+00 0.  1.
</event>
<event>
 7    1  0.9865694E-013  0.5052886E+02  0.7816164E-02  0.1300439E+00
        -11   -1    0    0    0    0  0.00000000000E+00  0.00000000000E+00  0.45593999997E+02  0.45594000000E+02  0.51100000000E-03 0.  1.
         11   -1    0    0    0    0 -0.00000000000E+00 -0.00000000000E+00 -0.45593999997E+02  0.45594000000E+02  0.51100000000E-03 0. -1.
    9900012    2    1    2    0    0 -0.67092716415E+01 -0.21888000694E+02 -0.33601593299E+02  0.50528856224E+02  0.29999988979E+02 0.  0.
        -12    1    1    2    0    0  0.67092716415E+01  0.21888000694E+02  0.33601593299E+02  0.40659143776E+02  0.00000000000E+00 0.  1.
         11    1    3    3    0    0  0.26252930334E+01 -0.17968596120E+02 -0.12024306993E+02  0.21779498822E+02  0.51100000000E-03 0. -1.
        -11    1    3    3    0    0 -0.11602178084E+02 -0.55088911834E+01 -0.85458170221E+01  0.15426905302E+02  0.51100000000E-03 0.  1.
         12    1    3    3    0    0  0.22676134093E+01  0.15894866089E+01 -0.13031469284E+02  0.13322452100E+02  0.00000000000E+00 0. -1.
</event>
<event>
 7    1  0.9865694E-013  0.5052887E+02  0.7816164E-02  0.1300439E+00
        -11   -1    0    0    0    0  0.00000000000E+00  0.00000000000E+00  0.45593999997E+02  0.45594000000E+02  0.51100000000E-03 0.  1.
         11   -1    0    0    0    0 -0.00000000000E+00 -0.00000000000E+00 -0.45593999997E+02  0.45594000000E+02  0.51100000000E-03 0. -1.
    9900012    2    1    2    0    0  0.51324889502E+01  0.15317721226E+02 -0.37312061058E+02  0.50528869085E+02  0.30000028071E+02 0.  0.
        -12    1    1    2    0    0 -0.51324889502E+01 -0.15317721226E+02  0.37312061058E+02  0.40659130915E+02  0.00000000000E+00 0.  1.
         11    1    3    3    0    0  0.39581676127E+01  0.72847136574E+01 -0.21886515243E+02  0.23404138388E+02  0.51100000000E-03 0. -1.
        -11    1    3    3    0    0  0.59876596621E+01  0.45249303357E+01  0.27539210428E+01  0.79944445801E+01  0.51100000000E-03 0.  1.
        -12    1    3    3    0    0 -0.48133383247E+01  0.35080772327E+01 -0.18179466857E+02  0.19130286117E+02  0.00000000000E+00 0.  1.
</event>
<event>
 7    1  0.9865694E-013  0.5052886E+02  0.7816164E-02  0.1300439E+00
        -11   -1    0    0    0    0  0.00000000000E+00  0.00000000000E+00  0.45593999997E+02  0.45594000000E+02  0.51100000000E-03 0.  1.
         11   -1    0    0    0    0 -0.00000000000E+00 -0.00000000000E+00 -0.45593999997E+02  0.45594000000E+02  0.51100000000E-03 0. -1.
    9900012    2    1    2    0    0 -0.37265259222E+02 -0.58718209824E+01 -0.15165341168E+02  0.50528863274E+02  0.30000010409E+02 0.  0.
        -12    1    1    2    0    0  0.37265259222E+02  0.58718209824E+01  0.15165341168E+02  0.40659136726E+02  0.00000000000E+00 0.  1.
         11    1    3    3    0    0 -0.16708259769E+02 -0.13322846878E+02 -0.72912596501E+01  0.22579341465E+02  0.51100000000E-03 0. -1.
        -11    1    3    3    0    0 -0.32975847115E+01  0.76436288113E+01 -0.66337624626E+01  0.10644525870E+02  0.51100000000E-03 0.  1.
        -12    1    3    3    0    0 -0.17259414741E+02 -0.19260291595E+00 -0.12403190556E+01  0.17304995939E+02  0.00000000000E+00 0.  1.
</event>
<event>
 7    1  0.9865694E-013  0.5052886E+02  0.7816164E-02  0.1300439E+00
        -11   -1    0    0    0    0  0.00000000000E+00  0.00000000000E+00  0.45593999997E+02  0.45594000000E+02  0.51100000000E-03 0. -1.
         11   -1    0    0    0    0 -0.00000000000E+00 -0.00000000000E+00 -0.45593999997E+02  0.45594000000E+02  0.51100000000E-03 0.  1.
    9900012    2    1    2    0    0  0.12924509094E+02 -0.84655431783E+01  0.37609273586E+02  0.50528858146E+02  0.29999994822E+02 0.  0.
        -12    1    1    2    0    0 -0.12924509094E+02  0.84655431783E+01 -0.37609273586E+02  0.40659141854E+02  0.00000000000E+00 0.  1.
         11    1    3    3    0    0  0.21579195019E+01 -0.62440556861E+01  0.25966094220E+02  0.26793336808E+02  0.51100000000E-03 0. -1.
        -11    1    3    3    0    0  0.10945914247E+02  0.25161964436E+01  0.72985627127E-01  0.11231634361E+02  0.51100000000E-03 0.  1.
        -12    1    3    3    0    0 -0.17932465536E+00 -0.47376839357E+01  0.11570193739E+02  0.12503886978E+02  0.00000000000E+00 0.  1.
</event>
<event>
 7    1  0.9865694E-013  0.5052889E+02  0.7816164E-02  0.1300439E+00
        -11   -1    0    0    0    0  0.00000000000E+00  0.00000000000E+00  0.45593999997E+02  0.45594000000E+02  0.51100000000E-03 0.  1.
         11   -1    0    0    0    0 -0.00000000000E+00 -0.00000000000E+00 -0.45593999997E+02  0.45594000000E+02  0.51100000000E-03 0. -1.
    9900012    2    1    2    0    0  0.30638302378E+02  0.79020294733E+01 -0.25534592717E+02  0.50528891948E+02  0.30000097565E+02 0.  0.
        -12    1    1    2    0    0 -0.30638302378E+02 -0.79020294733E+01  0.25534592717E+02  0.40659108052E+02  0.00000000000E+00 0.  1.
         11    1    3    3    0    0  0.92918697001E+01  0.11406532028E+01 -0.20792443424E+01  0.95897439772E+01  0.51100000000E-03 0. -1.
        -11    1    3    3    0    0  0.17366418185E+02  0.33185511314E+00 -0.27376047320E+02  0.32421452396E+02  0.51100000000E-03 0.  1.
        -12    1    3    3    0    0  0.39800144928E+01  0.64295211574E+01  0.39206989453E+01  0.85176955743E+01  0.00000000000E+00 0.  1.
</event>
<event>
 7    1  0.9865694E-013  0.5052886E+02  0.7816164E-02  0.1300439E+00
        -11   -1    0    0    0    0  0.00000000000E+00  0.00000000000E+00  0.45593999997E+02  0.45594000000E+02  0.51100000000E-03 0.  1.
         11   -1    0    0    0    0 -0.00000000000E+00 -0.00000000000E+00 -0.45593999997E+02  0.45594000000E+02  0.51100000000E-03 0. -1.
    9900012    2    1    2    0    0 -0.12362159058E+02  0.38646017073E+02 -0.26130622741E+01  0.50528859495E+02  0.29999998922E+02 0.  0.
        -12    1    1    2    0    0  0.12362159058E+02 -0.38646017073E+02  0.26130622741E+01  0.40659140505E+02  0.00000000000E+00 0.  1.
         11    1    3    3    0    0 -0.91686845577E+01  0.11260720266E+02 -0.48816039613E+01  0.15319877771E+02  0.51100000000E-03 0. -1.
        -11    1    3    3    0    0 -0.16350644285E+01  0.27336651768E+02 -0.49454118087E+01  0.27828457804E+02  0.51100000000E-03 0.  1.
        -12    1    3    3    0    0 -0.15584100715E+01  0.48645039207E-01  0.72139534959E+01  0.73805239199E+01  0.00000000000E+00 0.  1.
</event>
<event>
 7    1  0.9865694E-013  0.5052885E+02  0.7816164E-02  0.1300439E+00
        -11   -1    0    0    0    0  0.00000000000E+00  0.00000000000E+00  0.45593999997E+02  0.45594000000E+02  0.51100000000E-03 0. -1.
         11   -1    0    0    0    0 -0.00000000000E+00 -0.00000000000E+00 -0.45593999997E+02  0.45594000000E+02  0.51100000000E-03 0.  1.
    9900012    2    1    2    0    0  0.68462681705E+01 -0.32031589191E+02  0.24088835764E+02  0.50528854628E+02  0.29999984127E+02 0.  0.
        -12    1    1    2    0    0 -0.68462681705E+01  0.32031589191E+02 -0.24088835764E+02  0.40659145372E+02  0.00000000000E+00 0.  1.
         11    1    3    3    0    0 -0.51153208394E+01 -0.21273863202E+02  0.24766470541E+02  0.33047266546E+02  0.51100000000E-03 0. -1.
        -11    1    3    3    0    0  0.52537402671E+01 -0.56218507197E+01 -0.36622160383E+01  0.85216676115E+01  0.51100000000E-03 0.  1.
         12    1    3    3    0    0  0.67078487429E+01 -0.51358752692E+01  0.29845812610E+01  0.89599204707E+01  0.00000000000E+00 0. -1.
</event>
<event>
 7    1  0.9865694E-013  0.5052886E+02  0.7816164E-02  0.1300439E+00
        -11   -1    0    0    0    0  0.00000000000E+00  0.00000000000E+00  0.45593999997E+02  0.45594000000E+02  0.51100000000E-03 0.  1.
         11   -1    0    0    0    0 -0.00000000000E+00 -0.00000000000E+00 -0.45593999997E+02  0.45594000000E+02  0.51100000000E-03 0. -1.
    9900012    2    1    2    0    0 -0.39123923831E+02  0.41991318776E+01  0.10239695051E+02  0.50528862291E+02  0.30000007420E+02 0.  0.
        -12    1    1    2    0    0  0.39123923831E+02 -0.41991318776E+01 -0.10239695051E+02  0.40659137709E+02  0.00000000000E+00 0.  1.
         11    1    3    3    0    0 -0.10340070244E+02 -0.69260736819E+01  0.13704055632E+02  0.18511852698E+02  0.51100000000E-03 0.  1.
        -11    1    3    3    0    0 -0.25981007389E+02  0.10015346696E+02 -0.54959156644E+01  0.28381772384E+02  0.51100000000E-03 0. -1.
        -12    1    3    3    0    0 -0.28028461985E+01  0.11098588630E+01  0.20315550831E+01  0.36352372088E+01  0.00000000000E+00 0.  1.
</event>
<event>
 7    1  0.9865694E-013  0.5052887E+02  0.7816164E-02  0.1300439E+00
        -11   -1    0    0    0    0  0.00000000000E+00  0.00000000000E+00  0.45593999997E+02  0.45594000000E+02  0.51100000000E-03 0.  1.
         11   -1    0    0    0    0 -0.00000000000E+00 -0.00000000000E+00 -0.45593999997E+02  0.45594000000E+02  0.51100000000E-03 0. -1.
    9900012    2    1    2    0    0  0.34689671681E+02 -0.84657728708E+01 -0.19445365031E+02  0.50528869994E+02  0.30000030834E+02 0.  0.
        -12    1    1    2    0    0 -0.34689671681E+02  0.84657728708E+01  0.19445365031E+02  0.40659130006E+02  0.00000000000E+00 0.  1.
         11    1    3    3    0    0  0.13905765090E+02 -0.13891103385E+02 -0.11470284692E+02  0.22757427077E+02  0.51100000000E-03 0. -1.
        -11    1    3    3    0    0 -0.17836107281E+01  0.30744574758E+01 -0.27343323272E+01  0.44844319079E+01  0.51100000000E-03 0.  1.
         12    1    3    3    0    0  0.22567517320E+02  0.23508730385E+01 -0.52407480120E+01  0.23287011009E+02  0.00000000000E+00 0. -1.
</event>
<event>
 7    1  0.9865694E-013  0.5052887E+02  0.7816164E-02  0.1300439E+00
        -11   -1    0    0    0    0  0.00000000000E+00  0.00000000000E+00  0.45593999997E+02  0.45594000000E+02  0.51100000000E-03 0.  1.
         11   -1    0    0    0    0 -0.00000000000E+00 -0.00000000000E+00 -0.45593999997E+02  0.45594000000E+02  0.51100000000E-03 0. -1.
    9900012    2    1    2    0    0 -0.40501390490E+02 -0.35150848303E+01 -0.66836771059E+00  0.50528866113E+02  0.30000019038E+02 0.  0.
        -12    1    1    2    0    0  0.40501390490E+02  0.35150848303E+01  0.66836771059E+00  0.40659133887E+02  0.00000000000E+00 0.  1.
         11    1    3    3    0    0  0.49442635536E-01 -0.54999575011E+01 -0.49111768571E+01  0.73737124619E+01  0.51100000000E-03 0. -1.
        -11    1    3    3    0    0 -0.12430732134E+02  0.71065178269E+01  0.23453985930E+01  0.14509534514E+02  0.51100000000E-03 0.  1.
         12    1    3    3    0    0 -0.28120100993E+02 -0.51216451561E+01  0.18974105535E+01  0.28645619137E+02  0.00000000000E+00 0. -1.
</event>
<event>
 7    1  0.9865694E-013  0.5052886E+02  0.7816164E-02  0.1300439E+00
        -11   -1    0    0    0    0  0.00000000000E+00  0.00000000000E+00  0.45593999997E+02  0.45594000000E+02  0.51100000000E-03 0.  1.
         11   -1    0    0    0    0 -0.00000000000E+00 -0.00000000000E+00 -0.45593999997E+02  0.45594000000E+02  0.51100000000E-03 0. -1.
    9900012    2    1    2    0    0 -0.28828476486E+01 -0.21412141840E+02 -0.34443800563E+02  0.50528855568E+02  0.29999986985E+02 0.  0.
        -12    1    1    2    0    0  0.28828476486E+01  0.21412141840E+02  0.34443800563E+02  0.40659144432E+02  0.00000000000E+00 0.  1.
         11    1    3    3    0    0  0.18595935680E+01 -0.16515050843E+02 -0.14102872656E+02  0.21796697227E+02  0.51100000000E-03 0. -1.
        -11    1    3    3    0    0  0.13260304752E+01 -0.16378642544E+01 -0.21623083279E+02  0.21725530762E+02  0.51100000000E-03 0.  1.
        -12    1    3    3    0    0 -0.60684716918E+01 -0.32592267425E+01  0.12821553725E+01  0.70066275791E+01  0.00000000000E+00 0.  1.
</event>
<event>
 7    1  0.9865694E-013  0.5052889E+02  0.7816164E-02  0.1300439E+00
        -11   -1    0    0    0    0  0.00000000000E+00  0.00000000000E+00  0.45593999997E+02  0.45594000000E+02  0.51100000000E-03 0. -1.
         11   -1    0    0    0    0 -0.00000000000E+00 -0.00000000000E+00 -0.45593999997E+02  0.45594000000E+02  0.51100000000E-03 0.  1.
    9900012    2    1    2    0    0 -0.17729448566E+01  0.40203770343E+02  0.58031765552E+01  0.50528888581E+02  0.30000087331E+02 0.  0.
        -12    1    1    2    0    0  0.17729448566E+01 -0.40203770343E+02 -0.58031765552E+01  0.40659111419E+02  0.00000000000E+00 0.  1.
         11    1    3    3    0    0 -0.10595539090E+02  0.37791729946E+02  0.74976365763E+01  0.39958664335E+02  0.51100000000E-03 0. -1.
        -11    1    3    3    0    0  0.49034713217E+01  0.36074259767E+01 -0.21308965281E+01  0.64496723525E+01  0.51100000000E-03 0.  1.
         12    1    3    3    0    0  0.39191229118E+01 -0.11953855800E+01  0.43643650701E+00  0.41205518936E+01  0.00000000000E+00 0. -1.
</event>
<event>
 7    1  0.9865694E-013  0.5052881E+02  0.7816164E-02  0.1300439E+00
        -11   -1    0    0    0    0  0.00000000000E+00  0.00000000000E+00  0.45593999997E+02  0.45594000000E+02  0.51100000000E-03 0.  1.
         11   -1    0    0    0    0 -0.00000000000E+00 -0.00000000000E+00 -0.45593999997E+02  0.45594000000E+02  0.51100000000E-03 0. -1.
    9900012    2    1    2    0    0 -0.27000104104E+02 -0.17504625112E+02 -0.24854615989E+02  0.50528813364E+02  0.29999858700E+02 0.  0.
        -12    1    1    2    0    0  0.27000104104E+02  0.17504625112E+02  0.24854615989E+02  0.40659186636E+02  0.00000000000E+00 0.  1.
         11    1    3    3    0    0 -0.15368035896E+02 -0.75913054326E+01 -0.24942729275E+02  0.30264569870E+02  0.51100000000E-03 0. -1.
        -11    1    3    3    0    0 -0.30665963014E+01 -0.89811164441E+01 -0.44996251589E+01  0.10502908754E+02  0.51100000000E-03 0.  1.
         12    1    3    3    0    0 -0.85654719069E+01 -0.93220323536E+00  0.45877384448E+01  0.97613347395E+01  0.00000000000E+00 0. -1.
</event>
<event>
 7    1  0.9865694E-013  0.5052886E+02  0.7816164E-02  0.1300439E+00
        -11   -1    0    0    0    0  0.00000000000E+00  0.00000000000E+00  0.45593999997E+02  0.45594000000E+02  0.51100000000E-03 0.  1.
         11   -1    0    0    0    0 -0.00000000000E+00 -0.00000000000E+00 -0.45593999997E+02  0.45594000000E+02  0.51100000000E-03 0. -1.
    9900012    2    1    2    0    0 -0.12291079408E+02 -0.17290956909E+02 -0.34685988581E+02  0.50528860465E+02  0.30000001870E+02 0.  0.
        -12    1    1    2    0    0  0.12291079408E+02  0.17290956909E+02  0.34685988581E+02  0.40659139535E+02  0.00000000000E+00 0.  1.
         11    1    3    3    0    0 -0.11360351482E+02 -0.11092241431E+02 -0.39445849352E+01  0.16360169813E+02  0.51100000000E-03 0.  1.
        -11    1    3    3    0    0 -0.62901887401E+01 -0.58879500409E+01 -0.24306937773E+02  0.25788789313E+02  0.51100000000E-03 0. -1.
        -12    1    3    3    0    0  0.53594608142E+01 -0.31076543741E+00 -0.64344658727E+01  0.83799013386E+01  0.00000000000E+00 0.  1.
</event>
<event>
 7    1  0.9865694E-013  0.5052887E+02  0.7816164E-02  0.1300439E+00
        -11   -1    0    0    0    0  0.00000000000E+00  0.00000000000E+00  0.45593999997E+02  0.45594000000E+02  0.51100000000E-03 0.  1.
         11   -1    0    0    0    0 -0.00000000000E+00 -0.00000000000E+00 -0.45593999997E+02  0.45594000000E+02  0.51100000000E-03 0. -1.
    9900012    2    1    2    0    0 -0.24627181530E+01  0.32851982661E+02 -0.23829550706E+02  0.50528865327E+02  0.30000016649E+02 0.  0.
        -12    1    1    2    0    0  0.24627181530E+01 -0.32851982661E+02  0.23829550706E+02  0.40659134673E+02  0.00000000000E+00 0.  1.
         11    1    3    3    0    0  0.10236503252E+02  0.67768537214E+01 -0.75289519530E+01  0.14401279907E+02  0.51100000000E-03 0. -1.
        -11    1    3    3    0    0 -0.75143820775E+01  0.35366313111E+01 -0.80683153385E+01  0.11578921008E+02  0.51100000000E-03 0.  1.
         12    1    3    3    0    0 -0.51848393278E+01  0.22538497629E+02 -0.82322834150E+01  0.24548664412E+02  0.00000000000E+00 0. -1.
</event>
<event>
 7    1  0.9865694E-013  0.5052886E+02  0.7816164E-02  0.1300439E+00
        -11   -1    0    0    0    0  0.00000000000E+00  0.00000000000E+00  0.45593999997E+02  0.45594000000E+02  0.51100000000E-03 0. -1.
         11   -1    0    0    0    0 -0.00000000000E+00 -0.00000000000E+00 -0.45593999997E+02  0.45594000000E+02  0.51100000000E-03 0.  1.
    9900012    2    1    2    0    0 -0.25918971130E+02 -0.30011455061E+02  0.89824949440E+01  0.50528859395E+02  0.29999998618E+02 0.  0.
        -12    1    1    2    0    0  0.25918971130E+02  0.30011455061E+02 -0.89824949440E+01  0.40659140605E+02  0.00000000000E+00 0.  1.
         11    1    3    3    0    0 -0.10381300617E+02 -0.15355023804E+02  0.36231154331E+01  0.18885844546E+02  0.51100000000E-03 0. -1.
        -11    1    3    3    0    0 -0.76466376832E+00  0.91850473090E+00 -0.68456735985E+01  0.69492164233E+01  0.51100000000E-03 0.  1.
        -12    1    3    3    0    0 -0.14773006745E+02 -0.15574935988E+02  0.12205053109E+02  0.24693798426E+02  0.00000000000E+00 0.  1.
</event>
<event>
 7    1  0.9865694E-013  0.5052886E+02  0.7816164E-02  0.1300439E+00
        -11   -1    0    0    0    0  0.00000000000E+00  0.00000000000E+00  0.45593999997E+02  0.45594000000E+02  0.51100000000E-03 0. -1.
         11   -1    0    0    0    0 -0.00000000000E+00 -0.00000000000E+00 -0.45593999997E+02  0.45594000000E+02  0.51100000000E-03 0.  1.
    9900012    2    1    2    0    0 -0.65605752546E+01  0.11194756596E+02  0.38533129339E+02  0.50528858598E+02  0.29999996195E+02 0.  0.
        -12    1    1    2    0    0  0.65605752546E+01 -0.11194756596E+02 -0.38533129339E+02  0.40659141402E+02  0.00000000000E+00 0.  1.
         11    1    3    3    0    0  0.96820253930E+00  0.56351318729E+01  0.28815513836E+02  0.29377303574E+02  0.51100000000E-03 0. -1.
        -11    1    3    3    0    0 -0.10881676702E+02  0.71052240987E+01  0.27759323505E+01  0.13289127060E+02  0.51100000000E-03 0.  1.
        -12    1    3    3    0    0  0.33528989077E+01 -0.15455993757E+01  0.69416831520E+01  0.78624279646E+01  0.00000000000E+00 0.  1.
</event>
<event>
 7    1  0.9865694E-013  0.5052886E+02  0.7816164E-02  0.1300439E+00
        -11   -1    0    0    0    0  0.00000000000E+00  0.00000000000E+00  0.45593999997E+02  0.45594000000E+02  0.51100000000E-03 0.  1.
         11   -1    0    0    0    0 -0.00000000000E+00 -0.00000000000E+00 -0.45593999997E+02  0.45594000000E+02  0.51100000000E-03 0. -1.
    9900012    2    1    2    0    0 -0.17335355930E+00 -0.39545830381E+02 -0.94478895248E+01  0.50528863654E+02  0.30000011561E+02 0.  0.
        -12    1    1    2    0    0  0.17335355930E+00  0.39545830381E+02  0.94478895248E+01  0.40659136346E+02  0.00000000000E+00 0.  1.
         11    1    3    3    0    0  0.19721678567E+01 -0.14793435079E+02 -0.15408218615E+02  0.21451069172E+02  0.51100000000E-03 0. -1.
        -11    1    3    3    0    0  0.49049128658E+01 -0.17970821063E+02  0.30889123554E+01  0.18882530543E+02  0.51100000000E-03 0.  1.
        -12    1    3    3    0    0 -0.70504342818E+01 -0.67815742391E+01  0.28714167344E+01  0.10195263939E+02  0.00000000000E+00 0.  1.
</event>
<event>
 7    1  0.9865694E-013  0.5052887E+02  0.7816164E-02  0.1300439E+00
        -11   -1    0    0    0    0  0.00000000000E+00  0.00000000000E+00  0.45593999997E+02  0.45594000000E+02  0.51100000000E-03 0.  1.
         11   -1    0    0    0    0 -0.00000000000E+00 -0.00000000000E+00 -0.45593999997E+02  0.45594000000E+02  0.51100000000E-03 0. -1.
    9900012    2    1    2    0    0  0.13735597539E+02 -0.16975994348E+02 -0.34297436091E+02  0.50528866385E+02  0.30000019865E+02 0.  0.
        -12    1    1    2    0    0 -0.13735597539E+02  0.16975994348E+02  0.34297436091E+02  0.40659133615E+02  0.00000000000E+00 0.  1.
         11    1    3    3    0    0  0.70609504497E+01  0.75612932601E+01 -0.10314118725E+02  0.14608600972E+02  0.51100000000E-03 0. -1.
        -11    1    3    3    0    0  0.28112684977E+01 -0.21857473751E+02 -0.19904061717E+02  0.29695522599E+02  0.51100000000E-03 0.  1.
        -12    1    3    3    0    0  0.38633785915E+01 -0.26798138572E+01 -0.40792556492E+01  0.62247428142E+01  0.00000000000E+00 0.  1.
</event>
<event>
 7    1  0.9865694E-013  0.5052885E+02  0.7816164E-02  0.1300439E+00
        -11   -1    0    0    0    0  0.00000000000E+00  0.00000000000E+00  0.45593999997E+02  0.45594000000E+02  0.51100000000E-03 0.  1.
         11   -1    0    0    0    0 -0.00000000000E+00 -0.00000000000E+00 -0.45593999997E+02  0.45594000000E+02  0.51100000000E-03 0. -1.
    9900012    2    1    2    0    0  0.94304259998E+01  0.30786060205E+02 -0.24828451396E+02  0.50528850522E+02  0.29999971648E+02 0.  0.
        -12    1    1    2    0    0 -0.94304259998E+01 -0.30786060205E+02  0.24828451396E+02  0.40659149478E+02  0.00000000000E+00 0.  1.
         11    1    3    3    0    0  0.15981440070E+02  0.19882860892E+02 -0.89929953761E+01  0.27048263347E+02  0.51100000000E-03 0. -1.
        -11    1    3    3    0    0 -0.78843627246E+01  0.89442674922E+01 -0.17059704409E+02  0.20813375780E+02  0.51100000000E-03 0.  1.
        -12    1    3    3    0    0  0.13333486541E+01  0.19589318208E+01  0.12242483891E+01  0.26672113959E+01  0.00000000000E+00 0.  1.
</event>
<event>
 7    1  0.9865694E-013  0.5052886E+02  0.7816164E-02  0.1300439E+00
        -11   -1    0    0    0    0  0.00000000000E+00  0.00000000000E+00  0.45593999997E+02  0.45594000000E+02  0.51100000000E-03 0.  1.
         11   -1    0    0    0    0 -0.00000000000E+00 -0.00000000000E+00 -0.45593999997E+02  0.45594000000E+02  0.51100000000E-03 0. -1.
    9900012    2    1    2    0    0 -0.11600861987E+02  0.44437487206E+00 -0.38966501724E+02  0.50528859275E+02  0.29999998253E+02 0.  0.
        -12    1    1    2    0    0  0.11600861987E+02 -0.44437487206E+00  0.38966501724E+02  0.40659140725E+02  0.00000000000E+00 0.  1.
         11    1    3    3    0    0 -0.19033144513E+01 -0.10770084229E+02 -0.16528725848E+02  0.19819588760E+02  0.51100000000E-03 0. -1.
        -11    1    3    3    0    0 -0.93552733251E+01  0.31678690585E+01 -0.41252458344E+01  0.10703933240E+02  0.51100000000E-03 0.  1.
         12    1    3    3    0    0 -0.34227421062E+00  0.80465900429E+01 -0.18312530041E+02  0.20005337275E+02  0.00000000000E+00 0. -1.
</event>
<event>
 7    1  0.9865694E-013  0.5052887E+02  0.7816164E-02  0.1300439E+00
        -11   -1    0    0    0    0  0.00000000000E+00  0.00000000000E+00  0.45593999997E+02  0.45594000000E+02  0.51100000000E-03 0.  1.
         11   -1    0    0    0    0 -0.00000000000E+00 -0.00000000000E+00 -0.45593999997E+02  0.45594000000E+02  0.51100000000E-03 0. -1.
    9900012    2    1    2    0    0  0.30335112446E+02 -0.27011167535E+02 -0.18282161287E+01  0.50528873190E+02  0.30000040548E+02 0.  0.
        -12    1    1    2    0    0 -0.30335112446E+02  0.27011167535E+02  0.18282161287E+01  0.40659126810E+02  0.00000000000E+00 0.  1.
         11    1    3    3    0    0  0.39657489353E+01 -0.17842721436E+02 -0.40465566749E+01  0.18720696944E+02  0.51100000000E-03 0. -1.
        -11    1    3    3    0    0  0.12583375661E+02  0.34107859060E+01  0.16015906072E+01  0.13135444274E+02  0.51100000000E-03 0.  1.
        -12    1    3    3    0    0  0.13785987850E+02 -0.12579232005E+02  0.61674993902E+00  0.18672731973E+02  0.00000000000E+00 0.  1.
</event>
<event>
 7    1  0.9865694E-013  0.5052888E+02  0.7816164E-02  0.1300439E+00
        -11   -1    0    0    0    0  0.00000000000E+00  0.00000000000E+00  0.45593999997E+02  0.45594000000E+02  0.51100000000E-03 0. -1.
         11   -1    0    0    0    0 -0.00000000000E+00 -0.00000000000E+00 -0.45593999997E+02  0.45594000000E+02  0.51100000000E-03 0.  1.
    9900012    2    1    2    0    0 -0.28909660798E+02 -0.20032626612E+02  0.20398271801E+02  0.50528879143E+02  0.30000058642E+02 0.  0.
        -12    1    1    2    0    0  0.28909660798E+02  0.20032626612E+02 -0.20398271801E+02  0.40659120857E+02  0.00000000000E+00 0.  1.
         11    1    3    3    0    0 -0.25279450579E+02 -0.97699281549E+01  0.26377982880E+02  0.37819308545E+02  0.51100000000E-03 0. -1.
        -11    1    3    3    0    0 -0.21239336083E+01 -0.23810028946E+01 -0.17087571362E+01  0.36194087871E+01  0.51100000000E-03 0.  1.
         12    1    3    3    0    0 -0.15062766101E+01 -0.78816955624E+01 -0.42709539424E+01  0.90901618106E+01  0.00000000000E+00 0. -1.
</event>
<event>
 7    1  0.9865694E-013  0.5052885E+02  0.7816164E-02  0.1300439E+00
        -11   -1    0    0    0    0  0.00000000000E+00  0.00000000000E+00  0.45593999997E+02  0.45594000000E+02  0.51100000000E-03 0.  1.
         11   -1    0    0    0    0 -0.00000000000E+00 -0.00000000000E+00 -0.45593999997E+02  0.45594000000E+02  0.51100000000E-03 0. -1.
    9900012    2    1    2    0    0  0.25368644526E+02  0.18865506349E+02 -0.25567376087E+02  0.50528853737E+02  0.29999981419E+02 0.  0.
        -12    1    1    2    0    0 -0.25368644526E+02 -0.18865506349E+02  0.25567376087E+02  0.40659146263E+02  0.00000000000E+00 0.  1.
         11    1    3    3    0    0 -0.14941576817E+01  0.67356046801E+01 -0.15500966904E+02  0.16967051977E+02  0.51100000000E-03 0.  1.
        -11    1    3    3    0    0  0.14921779532E+02  0.43643077327E+01  0.91847200601E+00  0.15574025731E+02  0.51100000000E-03 0. -1.
         12    1    3    3    0    0  0.11941022675E+02  0.77655939360E+01 -0.10984881189E+02  0.17987776028E+02  0.00000000000E+00 0. -1.
</event>
<event>
 7    1  0.9865694E-013  0.5052886E+02  0.7816164E-02  0.1300439E+00
        -11   -1    0    0    0    0  0.00000000000E+00  0.00000000000E+00  0.45593999997E+02  0.45594000000E+02  0.51100000000E-03 0. -1.
         11   -1    0    0    0    0 -0.00000000000E+00 -0.00000000000E+00 -0.45593999997E+02  0.45594000000E+02  0.51100000000E-03 0.  1.
    9900012    2    1    2    0    0 -0.94867376733E+01 -0.16058953212E+01  0.39504284038E+02  0.50528861436E+02  0.30000004819E+02 0.  0.
        -12    1    1    2    0    0  0.94867376733E+01  0.16058953212E+01 -0.39504284038E+02  0.40659138564E+02  0.00000000000E+00 0.  1.
         11    1    3    3    0    0  0.14603181985E+01 -0.80872041944E+01  0.14089333952E+02  0.16310877733E+02  0.51100000000E-03 0. -1.
        -11    1    3    3    0    0  0.23433659625E+01  0.88997036362E+01  0.12556320779E+02  0.15567828384E+02  0.51100000000E-03 0.  1.
        -12    1    3    3    0    0 -0.13290421834E+02 -0.24183947629E+01  0.12858629307E+02  0.18650155319E+02  0.00000000000E+00 0.  1.
</event>
<event>
 7    1  0.9865694E-013  0.5052887E+02  0.7816164E-02  0.1300439E+00
        -11   -1    0    0    0    0  0.00000000000E+00  0.00000000000E+00  0.45593999997E+02  0.45594000000E+02  0.51100000000E-03 0. -1.
         11   -1    0    0    0    0 -0.00000000000E+00 -0.00000000000E+00 -0.45593999997E+02  0.45594000000E+02  0.51100000000E-03 0.  1.
    9900012    2    1    2    0    0  0.30216430361E+02 -0.25830064991E+02  0.85404664848E+01  0.50528874469E+02  0.30000044434E+02 0.  0.
        -12    1    1    2    0    0 -0.30216430361E+02  0.25830064991E+02 -0.85404664848E+01  0.40659125531E+02  0.00000000000E+00 0.  1.
         11    1    3    3    0    0  0.29867266214E+02 -0.96445119240E+01  0.77986652654E+01  0.32340213071E+02  0.51100000000E-03 0. -1.
        -11    1    3    3    0    0 -0.21020731498E+01 -0.11198654219E+02 -0.26233894877E+01  0.11692336828E+02  0.51100000000E-03 0.  1.
        -12    1    3    3    0    0  0.24512372976E+01 -0.49868988476E+01  0.33651907070E+01  0.64963245685E+01  0.00000000000E+00 0.  1.
</event>
<event>
 7    1  0.9865694E-013  0.5052886E+02  0.7816164E-02  0.1300439E+00
        -11   -1    0    0    0    0  0.00000000000E+00  0.00000000000E+00  0.45593999997E+02  0.45594000000E+02  0.51100000000E-03 0.  1.
         11   -1    0    0    0    0 -0.00000000000E+00 -0.00000000000E+00 -0.45593999997E+02  0.45594000000E+02  0.51100000000E-03 0. -1.
    9900012    2    1    2    0    0 -0.39411825761E+02  0.97953612506E+01  0.19811337593E+01  0.50528855853E+02  0.29999987849E+02 0.  0.
        -12    1    1    2    0    0  0.39411825761E+02 -0.97953612506E+01 -0.19811337593E+01  0.40659144147E+02  0.00000000000E+00 0.  1.
         11    1    3    3    0    0 -0.13963593639E+02 -0.71030114534E+01  0.78432038992E+01  0.17520004757E+02  0.51100000000E-03 0.  1.
        -11    1    3    3    0    0 -0.16171868710E+02  0.13778104910E+02 -0.84839073854E+01  0.22876673650E+02  0.51100000000E-03 0. -1.
        -12    1    3    3    0    0 -0.92763634117E+01  0.31202677937E+01  0.26218372455E+01  0.10132177446E+02  0.00000000000E+00 0.  1.
</event>
<event>
 7    1  0.9865694E-013  0.5052886E+02  0.7816164E-02  0.1300439E+00
        -11   -1    0    0    0    0  0.00000000000E+00  0.00000000000E+00  0.45593999997E+02  0.45594000000E+02  0.51100000000E-03 0. -1.
         11   -1    0    0    0    0 -0.00000000000E+00 -0.00000000000E+00 -0.45593999997E+02  0.45594000000E+02  0.51100000000E-03 0.  1.
    9900012    2    1    2    0    0  0.34944707444E+02 -0.20620652095E+02  0.26117936808E+01  0.50528864035E+02  0.30000012721E+02 0.  0.
        -12    1    1    2    0    0 -0.34944707444E+02  0.20620652095E+02 -0.26117936808E+01  0.40659135965E+02  0.00000000000E+00 0.  1.
         11    1    3    3    0    0  0.12058904913E+02 -0.10844956376E+02 -0.14211127563E+01  0.16280350986E+02  0.51100000000E-03 0. -1.
        -11    1    3    3    0    0  0.13207000552E+02 -0.88181342397E+01  0.13375163007E+02  0.20762450260E+02  0.51100000000E-03 0.  1.
        -12    1    3    3    0    0  0.96788019786E+01 -0.95756147958E+00 -0.93422565702E+01  0.13486062789E+02  0.00000000000E+00 0.  1.
</event>
<event>
 7    1  0.9865694E-013  0.5052885E+02  0.7816164E-02  0.1300439E+00
        -11   -1    0    0    0    0  0.00000000000E+00  0.00000000000E+00  0.45593999997E+02  0.45594000000E+02  0.51100000000E-03 0.  1.
         11   -1    0    0    0    0 -0.00000000000E+00 -0.00000000000E+00 -0.45593999997E+02  0.45594000000E+02  0.51100000000E-03 0. -1.
    9900012    2    1    2    0    0  0.27583451561E+02 -0.99990430206E+01 -0.28148507783E+02  0.50528854021E+02  0.29999982283E+02 0.  0.
        -12    1    1    2    0    0 -0.27583451561E+02  0.99990430206E+01  0.28148507783E+02  0.40659145979E+02  0.00000000000E+00 0.  1.
         11    1    3    3    0    0  0.53384794730E+01 -0.11302054064E+02 -0.13092443724E+02  0.18101046160E+02  0.51100000000E-03 0. -1.
        -11    1    3    3    0    0  0.11767684832E+02  0.75844274133E+01 -0.14564229135E+02  0.20201948323E+02  0.51100000000E-03 0.  1.
        -12    1    3    3    0    0  0.10477287256E+02 -0.62814163697E+01 -0.49183492360E+00  0.12225859538E+02  0.00000000000E+00 0.  1.
</event>
<event>
 7    1  0.9865694E-013  0.5052886E+02  0.7816164E-02  0.1300439E+00
        -11   -1    0    0    0    0  0.00000000000E+00  0.00000000000E+00  0.45593999997E+02  0.45594000000E+02  0.51100000000E-03 0.  1.
         11   -1    0    0    0    0 -0.00000000000E+00 -0.00000000000E+00 -0.45593999997E+02  0.45594000000E+02  0.51100000000E-03 0. -1.
    9900012    2    1    2    0    0  0.64097556913E+01  0.23320838711E+01 -0.40082942639E+02  0.50528857439E+02  0.29999992671E+02 0.  0.
        -12    1    1    2    0    0 -0.64097556913E+01 -0.23320838711E+01  0.40082942639E+02  0.40659142561E+02  0.00000000000E+00 0.  1.
         11    1    3    3    0    0 -0.23151100536E+01  0.53633785116E+01 -0.28196963745E+02  0.28795734550E+02  0.51100000000E-03 0. -1.
        -11    1    3    3    0    0  0.10594965599E+01 -0.75095692751E+01 -0.94362745467E+00  0.76424208660E+01  0.51100000000E-03 0.  1.
        -12    1    3    3    0    0  0.76653691850E+01  0.44782746347E+01 -0.10942351440E+02  0.14090702022E+02  0.00000000000E+00 0.  1.
</event>
<event>
 7    1  0.9865694E-013  0.5052886E+02  0.7816164E-02  0.1300439E+00
        -11   -1    0    0    0    0  0.00000000000E+00  0.00000000000E+00  0.45593999997E+02  0.45594000000E+02  0.51100000000E-03 0.  1.
         11   -1    0    0    0    0 -0.00000000000E+00 -0.00000000000E+00 -0.45593999997E+02  0.45594000000E+02  0.51100000000E-03 0. -1.
    9900012    2    1    2    0    0  0.87285965417E+01  0.39233824792E+02 -0.61387274865E+01  0.50528863504E+02  0.30000011108E+02 0.  0.
        -12    1    1    2    0    0 -0.87285965417E+01 -0.39233824792E+02  0.61387274865E+01  0.40659136496E+02  0.00000000000E+00 0.  1.
         11    1    3    3    0    0  0.36409601095E+01  0.34030209076E+02 -0.13947056365E+02  0.36957165771E+02  0.51100000000E-03 0. -1.
        -11    1    3    3    0    0  0.73296575619E+01  0.48599977756E+01  0.57392271920E+01  0.10501532620E+02  0.51100000000E-03 0.  1.
         12    1    3    3    0    0 -0.22420211297E+01  0.34361794043E+00  0.20691016863E+01  0.30701651133E+01  0.00000000000E+00 0. -1.
</event>
<event>
 7    1  0.9865694E-013  0.5052886E+02  0.7816164E-02  0.1300439E+00
        -11   -1    0    0    0    0  0.00000000000E+00  0.00000000000E+00  0.45593999997E+02  0.45594000000E+02  0.51100000000E-03 0.  1.
         11   -1    0    0    0    0 -0.00000000000E+00 -0.00000000000E+00 -0.45593999997E+02  0.45594000000E+02  0.51100000000E-03 0. -1.
    9900012    2    1    2    0    0  0.29599369367E+02  0.42930346427E+01 -0.27542920100E+02  0.50528864975E+02  0.30000015577E+02 0.  0.
        -12    1    1    2    0    0 -0.29599369367E+02 -0.42930346427E+01  0.27542920100E+02  0.40659135025E+02  0.00000000000E+00 0.  1.
         11    1    3    3    0    0  0.14184319060E+02  0.16904157623E+01 -0.28345198698E+02  0.31741183061E+02  0.51100000000E-03 0. -1.
        -11    1    3    3    0    0  0.91613890569E+01 -0.36952178089E+01  0.81808736452E+00  0.99123635579E+01  0.51100000000E-03 0.  1.
        -12    1    3    3    0    0  0.62536612499E+01  0.62978366893E+01 -0.15808766745E-01  0.88753183555E+01  0.00000000000E+00 0.  1.
</event>
<event>
 7    1  0.9865694E-013  0.5052886E+02  0.7816164E-02  0.1300439E+00
        -11   -1    0    0    0    0  0.00000000000E+00  0.00000000000E+00  0.45593999997E+02  0.45594000000E+02  0.51100000000E-03 0.  1.
         11   -1    0    0    0    0 -0.00000000000E+00 -0.00000000000E+00 -0.45593999997E+02  0.45594000000E+02  0.51100000000E-03 0. -1.
    9900012    2    1    2    0    0 -0.34202668928E+02  0.14723600777E+02 -0.16326627693E+02  0.50528858919E+02  0.29999997169E+02 0.  0.
        -12    1    1    2    0    0  0.34202668928E+02 -0.14723600777E+02  0.16326627693E+02  0.40659141081E+02  0.00000000000E+00 0.  1.
         11    1    3    3    0    0 -0.46029823201E+01  0.58227635186E+01 -0.17598879981E+02  0.19100068013E+02  0.51100000000E-03 0. -1.
        -11    1    3    3    0    0 -0.16378678345E+02  0.74965477617E+01 -0.47549231203E+00  0.18019029549E+02  0.51100000000E-03 0.  1.
         12    1    3    3    0    0 -0.13221008262E+02  0.14042894968E+01  0.17477446000E+01  0.13409761357E+02  0.00000000000E+00 0. -1.
</event>
<event>
 7    1  0.9865694E-013  0.5052886E+02  0.7816164E-02  0.1300439E+00
        -11   -1    0    0    0    0  0.00000000000E+00  0.00000000000E+00  0.45593999997E+02  0.45594000000E+02  0.51100000000E-03 0.  1.
         11   -1    0    0    0    0 -0.00000000000E+00 -0.00000000000E+00 -0.45593999997E+02  0.45594000000E+02  0.51100000000E-03 0. -1.
    9900012    2    1    2    0    0 -0.39154984942E+02  0.43185822156E+01 -0.10069885466E+02  0.50528860911E+02  0.30000003226E+02 0.  0.
        -12    1    1    2    0    0  0.39154984942E+02 -0.43185822156E+01  0.10069885466E+02  0.40659139089E+02  0.00000000000E+00 0.  1.
         11    1    3    3    0    0 -0.98197903574E+01  0.10803395546E+02 -0.79056348379E+01  0.16602430558E+02  0.51100000000E-03 0. -1.
        -11    1    3    3    0    0 -0.19016886988E+02 -0.55777173649E+01  0.60343259850E+01  0.20716322359E+02  0.51100000000E-03 0.  1.
         12    1    3    3    0    0 -0.10318307596E+02 -0.90709596599E+00 -0.81985766130E+01  0.13210107994E+02  0.00000000000E+00 0. -1.
</event>
<event>
 7    1  0.9865694E-013  0.5052886E+02  0.7816164E-02  0.1300439E+00
        -11   -1    0    0    0    0  0.00000000000E+00  0.00000000000E+00  0.45593999997E+02  0.45594000000E+02  0.51100000000E-03 0. -1.
         11   -1    0    0    0    0 -0.00000000000E+00 -0.00000000000E+00 -0.45593999997E+02  0.45594000000E+02  0.51100000000E-03 0.  1.
    9900012    2    1    2    0    0  0.18026252399E+02 -0.54999001836E+01  0.36027363984E+02  0.50528860397E+02  0.30000001662E+02 0.  0.
        -12    1    1    2    0    0 -0.18026252399E+02  0.54999001836E+01 -0.36027363984E+02  0.40659139603E+02  0.00000000000E+00 0.  1.
         11    1    3    3    0    0 -0.31361210719E+01 -0.96100794743E+01  0.86873051156E+01  0.13328846661E+02  0.51100000000E-03 0. -1.
        -11    1    3    3    0    0  0.18088638089E+02  0.96893171115E+00  0.13257761688E+02  0.22447848490E+02  0.51100000000E-03 0.  1.
         12    1    3    3    0    0  0.30737353818E+01  0.31412475795E+01  0.14082297181E+02  0.14752165246E+02  0.00000000000E+00 0. -1.
</event>
<event>
 7    1  0.9865694E-013  0.5052886E+02  0.7816164E-02  0.1300439E+00
        -11   -1    0    0    0    0  0.00000000000E+00  0.00000000000E+00  0.45593999997E+02  0.45594000000E+02  0.51100000000E-03 0. -1.
         11   -1    0    0    0    0 -0.00000000000E+00 -0.00000000000E+00 -0.45593999997E+02  0.45594000000E+02  0.51100000000E-03 0.  1.
    9900012    2    1    2    0    0 -0.37250537633E+02  0.15994615606E+02 -0.31201917301E+01  0.50528857378E+02  0.29999992487E+02 0.  0.
        -12    1    1    2    0    0  0.37250537633E+02 -0.15994615606E+02  0.31201917301E+01  0.40659142622E+02  0.00000000000E+00 0.  1.
         11    1    3    3    0    0 -0.14362759239E+02  0.59188808691E+01  0.21653208329E+01  0.15684725636E+02  0.51100000000E-03 0. -1.
        -11    1    3    3    0    0 -0.31961039907E+01 -0.48781136758E+01 -0.80754665872E+01  0.99611362111E+01  0.51100000000E-03 0.  1.
        -12    1    3    3    0    0 -0.19691674403E+02  0.14953848413E+02  0.27899540243E+01  0.24882995531E+02  0.00000000000E+00 0.  1.
</event>
<event>
 7    1  0.9865694E-013  0.5052886E+02  0.7816164E-02  0.1300439E+00
        -11   -1    0    0    0    0  0.00000000000E+00  0.00000000000E+00  0.45593999997E+02  0.45594000000E+02  0.51100000000E-03 0.  1.
         11   -1    0    0    0    0 -0.00000000000E+00 -0.00000000000E+00 -0.45593999997E+02  0.45594000000E+02  0.51100000000E-03 0. -1.
    9900012    2    1    2    0    0  0.39862781406E+02  0.79466827804E+01  0.98714913845E+00  0.50528861149E+02  0.30000003950E+02 0.  0.
        -12    1    1    2    0    0 -0.39862781406E+02 -0.79466827804E+01 -0.98714913845E+00  0.40659138851E+02  0.00000000000E+00 0.  1.
         11    1    3    3    0    0  0.19047254129E+02  0.13242757820E+02 -0.70391383393E+01  0.24242895730E+02  0.51100000000E-03 0. -1.
        -11    1    3    3    0    0  0.11672980963E+02 -0.18007900916E+01  0.10913375246E+02  0.16081140788E+02  0.51100000000E-03 0.  1.
         12    1    3    3    0    0  0.91425463147E+01 -0.34952849483E+01 -0.28870877685E+01  0.10204824632E+02  0.00000000000E+00 0. -1.
</event>
<event>
 7    1  0.9865694E-013  0.5052885E+02  0.7816164E-02  0.1300439E+00
        -11   -1    0    0    0    0  0.00000000000E+00  0.00000000000E+00  0.45593999997E+02  0.45594000000E+02  0.51100000000E-03 0. -1.
         11   -1    0    0    0    0 -0.00000000000E+00 -0.00000000000E+00 -0.45593999997E+02  0.45594000000E+02  0.51100000000E-03 0.  1.
    9900012    2    1    2    0    0  0.32727867759E+02  0.17011122991E+02  0.17107745700E+02  0.50528848553E+02  0.29999965661E+02 0.  0.
        -12    1    1    2    0    0 -0.32727867759E+02 -0.17011122991E+02 -0.17107745700E+02  0.40659151447E+02  0.00000000000E+00 0.  1.
         11    1    3    3    0    0  0.31071640722E+02  0.11610729360E+02  0.22831955793E+02  0.40268524917E+02  0.51100000000E-03 0. -1.
        -11    1    3    3    0    0 -0.27247998426E+00 -0.11717828099E+01 -0.23161254993E+01  0.26099344599E+01  0.51100000000E-03 0.  1.
         12    1    3    3    0    0  0.19287070218E+01  0.65721764407E+01 -0.34080845937E+01  0.76503891758E+01  0.00000000000E+00 0. -1.
</event>
<event>
 7    1  0.9865694E-013  0.5052886E+02  0.7816164E-02  0.1300439E+00
        -11   -1    0    0    0    0  0.00000000000E+00  0.00000000000E+00  0.45593999997E+02  0.45594000000E+02  0.51100000000E-03 0.  1.
         11   -1    0    0    0    0 -0.00000000000E+00 -0.00000000000E+00 -0.45593999997E+02  0.45594000000E+02  0.51100000000E-03 0. -1.
    9900012    2    1    2    0    0 -0.19488404449E+02  0.10973978209E+02 -0.33954962052E+02  0.50528861376E+02  0.30000004639E+02 0.  0.
        -12    1    1    2    0    0  0.19488404449E+02 -0.10973978209E+02  0.33954962052E+02  0.40659138624E+02  0.00000000000E+00 0.  1.
         11    1    3    3    0    0 -0.80543369708E+01 -0.90158060266E+01 -0.14930991258E+02  0.19211756883E+02  0.51100000000E-03 0. -1.
        -11    1    3    3    0    0 -0.54506788966E+01  0.53615503867E+01 -0.16341695175E+01  0.78183523364E+01  0.51100000000E-03 0.  1.
         12    1    3    3    0    0 -0.59833885814E+01  0.14628233849E+02 -0.17389801277E+02  0.23498752156E+02  0.00000000000E+00 0. -1.
</event>
<event>
 7    1  0.9865694E-013  0.5052878E+02  0.7816164E-02  0.1300439E+00
        -11   -1    0    0    0    0  0.00000000000E+00  0.00000000000E+00  0.45593999997E+02  0.45594000000E+02  0.51100000000E-03 0.  1.
         11   -1    0    0    0    0 -0.00000000000E+00 -0.00000000000E+00 -0.45593999997E+02  0.45594000000E+02  0.51100000000E-03 0. -1.
    9900012    2    1    2    0    0  0.28267583323E+02  0.21495579700E+02 -0.19800404777E+02  0.50528779116E+02  0.29999754600E+02 0.  0.
        -12    1    1    2    0    0 -0.28267583323E+02 -0.21495579700E+02  0.19800404777E+02  0.40659220884E+02  0.00000000000E+00 0.  1.
         11    1    3    3    0    0  0.10942854428E+02  0.86639050386E+01 -0.84027675934E+01  0.16291587309E+02  0.51100000000E-03 0. -1.
        -11    1    3    3    0    0  0.45155870656E+01 -0.43853197319E+01  0.43226933562E+01  0.76359173523E+01  0.51100000000E-03 0.  1.
        -12    1    3    3    0    0  0.12809141829E+02  0.17216994394E+02 -0.15720330539E+02  0.26601274455E+02  0.00000000000E+00 0.  1.
</event>
<event>
 7    1  0.9865694E-013  0.5052887E+02  0.7816164E-02  0.1300439E+00
        -11   -1    0    0    0    0  0.00000000000E+00  0.00000000000E+00  0.45593999997E+02  0.45594000000E+02  0.51100000000E-03 0. -1.
         11   -1    0    0    0    0 -0.00000000000E+00 -0.00000000000E+00 -0.45593999997E+02  0.45594000000E+02  0.51100000000E-03 0.  1.
    9900012    2    1    2    0    0  0.21063123212E+02 -0.98845128249E+01  0.33343759880E+02  0.50528867248E+02  0.30000022486E+02 0.  0.
        -12    1    1    2    0    0 -0.21063123212E+02  0.98845128249E+01 -0.33343759880E+02  0.40659132752E+02  0.00000000000E+00 0.  1.
         11    1    3    3    0    0  0.10834212863E+02 -0.12120879591E+01  0.13616500879E+02  0.17443004960E+02  0.51100000000E-03 0. -1.
        -11    1    3    3    0    0 -0.36384125921E+01 -0.74061264184E+01 -0.79009503018E+00  0.82893308013E+01  0.51100000000E-03 0.  1.
        -12    1    3    3    0    0  0.13867322941E+02 -0.12662984475E+01  0.20517354032E+02  0.24796531487E+02  0.00000000000E+00 0.  1.
</event>
<event>
 7    1  0.9865694E-013  0.5052883E+02  0.7816164E-02  0.1300439E+00
        -11   -1    0    0    0    0  0.00000000000E+00  0.00000000000E+00  0.45593999997E+02  0.45594000000E+02  0.51100000000E-03 0. -1.
         11   -1    0    0    0    0 -0.00000000000E+00 -0.00000000000E+00 -0.45593999997E+02  0.45594000000E+02  0.51100000000E-03 0.  1.
    9900012    2    1    2    0    0 -0.33518606789E+02  0.73916794710E+01 -0.21795285607E+02  0.50528826359E+02  0.29999898201E+02 0.  0.
        -12    1    1    2    0    0  0.33518606789E+02 -0.73916794710E+01  0.21795285607E+02  0.40659173641E+02  0.00000000000E+00 0.  1.
         11    1    3    3    0    0 -0.26500375284E+02  0.11623222861E+02 -0.13569866025E+02  0.31961077329E+02  0.51100000000E-03 0. -1.
        -11    1    3    3    0    0  0.73958594715E+00 -0.68784254267E+01 -0.77039373823E+01  0.10354244307E+02  0.51100000000E-03 0.  1.
        -12    1    3    3    0    0 -0.77578174524E+01  0.26468820363E+01 -0.52148220009E+00  0.82135047223E+01  0.00000000000E+00 0.  1.
</event>
<event>
 7    1  0.9865694E-013  0.5052887E+02  0.7816164E-02  0.1300439E+00
        -11   -1    0    0    0    0  0.00000000000E+00  0.00000000000E+00  0.45593999997E+02  0.45594000000E+02  0.51100000000E-03 0.  1.
         11   -1    0    0    0    0 -0.00000000000E+00 -0.00000000000E+00 -0.45593999997E+02  0.45594000000E+02  0.51100000000E-03 0. -1.
    9900012    2    1    2    0    0 -0.67997117490E+01 -0.22746735676E+02 -0.33007802846E+02  0.50528866801E+02  0.30000021128E+02 0.  0.
        -12    1    1    2    0    0  0.67997117490E+01  0.22746735676E+02  0.33007802846E+02  0.40659133199E+02  0.00000000000E+00 0.  1.
         11    1    3    3    0    0 -0.14253514528E+02 -0.18762133977E+02 -0.32497947051E+02  0.40140963000E+02  0.51100000000E-03 0. -1.
        -11    1    3    3    0    0  0.49444423914E+01  0.76502485856E+00 -0.28815816941E+00  0.50115675180E+01  0.51100000000E-03 0.  1.
        -12    1    3    3    0    0  0.25093603873E+01 -0.47496265574E+01 -0.22169762512E+00  0.53763362828E+01  0.00000000000E+00 0.  1.
</event>
<event>
 7    1  0.9865694E-013  0.5052887E+02  0.7816164E-02  0.1300439E+00
        -11   -1    0    0    0    0  0.00000000000E+00  0.00000000000E+00  0.45593999997E+02  0.45594000000E+02  0.51100000000E-03 0. -1.
         11   -1    0    0    0    0 -0.00000000000E+00 -0.00000000000E+00 -0.45593999997E+02  0.45594000000E+02  0.51100000000E-03 0.  1.
    9900012    2    1    2    0    0 -0.35252782736E+02 -0.19877219112E+02 -0.39117690057E+01  0.50528874739E+02  0.30000045256E+02 0.  0.
        -12    1    1    2    0    0  0.35252782736E+02  0.19877219112E+02  0.39117690057E+01  0.40659125261E+02  0.00000000000E+00 0.  1.
         11    1    3    3    0    0 -0.31095593342E+02 -0.77238757283E+01 -0.64757157554E+01  0.32688363012E+02  0.51100000000E-03 0. -1.
        -11    1    3    3    0    0 -0.32648814944E+00 -0.12727057158E+02  0.45090261365E+01  0.13506142876E+02  0.51100000000E-03 0.  1.
         12    1    3    3    0    0 -0.38307012442E+01  0.57371377451E+00 -0.19450793868E+01  0.43343688512E+01  0.00000000000E+00 0. -1.
</event>
<event>
 7    1  0.9865694E-013  0.5052885E+02  0.7816164E-02  0.1300439E+00
        -11   -1    0    0    0    0  0.00000000000E+00  0.00000000000E+00  0.45593999997E+02  0.45594000000E+02  0.51100000000E-03 0.  1.
         11   -1    0    0    0    0 -0.00000000000E+00 -0.00000000000E+00 -0.45593999997E+02  0.45594000000E+02  0.51100000000E-03 0. -1.
    9900012    2    1    2    0    0  0.34186342561E+01 -0.35443771597E+02 -0.19626982438E+02  0.50528850417E+02  0.29999971326E+02 0.  0.
        -12    1    1    2    0    0 -0.34186342561E+01  0.35443771597E+02  0.19626982438E+02  0.40659149583E+02  0.00000000000E+00 0.  1.
         11    1    3    3    0    0  0.51733063529E+01 -0.12232882353E+01  0.43360233668E+01  0.68600751910E+01  0.51100000000E-03 0. -1.
        -11    1    3    3    0    0 -0.36527914435E+01 -0.60370923400E+01 -0.97828776638E+01  0.12062092061E+02  0.51100000000E-03 0.  1.
         12    1    3    3    0    0  0.18981193467E+01 -0.28183391022E+02 -0.14180128141E+02  0.31606683164E+02  0.00000000000E+00 0. -1.
</event>
<event>
 7    1  0.9865694E-013  0.5052884E+02  0.7816164E-02  0.1300439E+00
        -11   -1    0    0    0    0  0.00000000000E+00  0.00000000000E+00  0.45593999997E+02  0.45594000000E+02  0.51100000000E-03 0. -1.
         11   -1    0    0    0    0 -0.00000000000E+00 -0.00000000000E+00 -0.45593999997E+02  0.45594000000E+02  0.51100000000E-03 0.  1.
    9900012    2    1    2    0    0  0.14856433994E+02  0.29906596063E+02  0.23195893604E+02  0.50528836222E+02  0.29999928180E+02 0.  0.
        -12    1    1    2    0    0 -0.14856433994E+02 -0.29906596063E+02 -0.23195893604E+02  0.40659163778E+02  0.00000000000E+00 0.  1.
         11    1    3    3    0    0  0.20490466262E+02  0.18094719599E+02  0.23107989952E+02  0.35794654418E+02  0.51100000000E-03 0. -1.
        -11    1    3    3    0    0 -0.13937205192E+01 -0.30270530701E-01 -0.15094913972E+01  0.20547354404E+01  0.51100000000E-03 0.  1.
         12    1    3    3    0    0 -0.42403117491E+01  0.11842146994E+02  0.15973950494E+01  0.12679446364E+02  0.00000000000E+00 0. -1.
</event>
<event>
 7    1  0.1141366E-012  0.5052886E+02  0.7816164E-02  0.1300439E+00
        -11   -1    0    0    0    0  0.00000000000E+00  0.00000000000E+00  0.45593999997E+02  0.45594000000E+02  0.51100000000E-03 0. -1.
         11   -1    0    0    0    0 -0.00000000000E+00 -0.00000000000E+00 -0.45593999997E+02  0.45594000000E+02  0.51100000000E-03 0.  1.
    9900012    2    1    2    0    0  0.50651257961E+01 -0.15364167527E+02  0.37302178554E+02  0.50528859969E+02  0.30000000363E+02 0.  0.
        -12    1    1    2    0    0 -0.50651257961E+01  0.15364167527E+02 -0.37302178554E+02  0.40659140031E+02  0.00000000000E+00 0.  1.
         11    1    3    3    0    0 -0.35145346348E+00 -0.48477290178E+01  0.18449152033E+02  0.19078658422E+02  0.51100000000E-03 0. -1.
        -11    1    3    3    0    0 -0.62903016198E+01 -0.53438664497E+00 -0.93851727489E+00  0.63823411450E+01  0.51100000000E-03 0.  1.
        -12    1    3    3    0    0  0.11706880879E+02 -0.99820518641E+01  0.19791543796E+02  0.25067860403E+02  0.00000000000E+00 0.  1.
</event>
<event>
 7    1  0.9865694E-013  0.5052884E+02  0.7816164E-02  0.1300439E+00
        -11   -1    0    0    0    0  0.00000000000E+00  0.00000000000E+00  0.45593999997E+02  0.45594000000E+02  0.51100000000E-03 0. -1.
         11   -1    0    0    0    0 -0.00000000000E+00 -0.00000000000E+00 -0.45593999997E+02  0.45594000000E+02  0.51100000000E-03 0.  1.
    9900012    2    1    2    0    0  0.14905521996E+02  0.34515046927E+02  0.15482384254E+02  0.50528840238E+02  0.29999940388E+02 0.  0.
        -12    1    1    2    0    0 -0.14905521996E+02 -0.34515046927E+02 -0.15482384254E+02  0.40659159762E+02  0.00000000000E+00 0.  1.
         11    1    3    3    0    0  0.93927576535E+01  0.19424601988E+02 -0.30658441827E+01  0.21793082837E+02  0.51100000000E-03 0. -1.
        -11    1    3    3    0    0  0.41782360069E-01 -0.28348675175E+01  0.85381487653E+00  0.29609491235E+01  0.51100000000E-03 0.  1.
         12    1    3    3    0    0  0.54709819822E+01  0.17925312456E+02  0.17694413561E+02  0.25774808278E+02  0.00000000000E+00 0. -1.
</event>
<event>
 7    1  0.9865694E-013  0.5052886E+02  0.7816164E-02  0.1300439E+00
        -11   -1    0    0    0    0  0.00000000000E+00  0.00000000000E+00  0.45593999997E+02  0.45594000000E+02  0.51100000000E-03 0. -1.
         11   -1    0    0    0    0 -0.00000000000E+00 -0.00000000000E+00 -0.45593999997E+02  0.45594000000E+02  0.51100000000E-03 0.  1.
    9900012    2    1    2    0    0  0.29271390117E+02 -0.20539810924E+01  0.28144845314E+02  0.50528862829E+02  0.30000009056E+02 0.  0.
        -12    1    1    2    0    0 -0.29271390117E+02  0.20539810924E+01 -0.28144845314E+02  0.40659137171E+02  0.00000000000E+00 0.  1.
         11    1    3    3    0    0  0.62046090366E+01 -0.17367393091E+01  0.35862299796E+01  0.73739055088E+01  0.51100000000E-03 0. -1.
        -11    1    3    3    0    0  0.11618637629E+02  0.11709693099E+02  0.20021773089E+02  0.25941878319E+02  0.51100000000E-03 0.  1.
        -12    1    3    3    0    0  0.11448143452E+02 -0.12026934883E+02  0.45368422455E+01  0.17213079002E+02  0.00000000000E+00 0.  1.
</event>
<event>
 7    1  0.9865694E-013  0.5052885E+02  0.7816164E-02  0.1300439E+00
        -11   -1    0    0    0    0  0.00000000000E+00  0.00000000000E+00  0.45593999997E+02  0.45594000000E+02  0.51100000000E-03 0.  1.
         11   -1    0    0    0    0 -0.00000000000E+00 -0.00000000000E+00 -0.45593999997E+02  0.45594000000E+02  0.51100000000E-03 0. -1.
    9900012    2    1    2    0    0 -0.60067953778E+01  0.57835854581E+01 -0.39794910918E+02  0.50528851135E+02  0.29999973511E+02 0.  0.
        -12    1    1    2    0    0  0.60067953778E+01 -0.57835854581E+01  0.39794910918E+02  0.40659148865E+02  0.00000000000E+00 0.  1.
         11    1    3    3    0    0 -0.10730470261E+02  0.70475653664E+01 -0.17674450545E+02  0.21844847721E+02  0.51100000000E-03 0. -1.
        -11    1    3    3    0    0  0.89034208943E+00 -0.79061513563E+01 -0.18630632024E+02  0.20258341200E+02  0.51100000000E-03 0.  1.
        -12    1    3    3    0    0  0.38333327934E+01  0.66421714480E+01 -0.34898283480E+01  0.84256622142E+01  0.00000000000E+00 0.  1.
</event>
<event>
 7    1  0.9865694E-013  0.5052889E+02  0.7816164E-02  0.1300439E+00
        -11   -1    0    0    0    0  0.00000000000E+00  0.00000000000E+00  0.45593999997E+02  0.45594000000E+02  0.51100000000E-03 0.  1.
         11   -1    0    0    0    0 -0.00000000000E+00 -0.00000000000E+00 -0.45593999997E+02  0.45594000000E+02  0.51100000000E-03 0. -1.
    9900012    2    1    2    0    0  0.22133741150E+02 -0.31588971428E+02 -0.12860688444E+02  0.50528893757E+02  0.30000103065E+02 0.  0.
        -12    1    1    2    0    0 -0.22133741150E+02  0.31588971428E+02  0.12860688444E+02  0.40659106243E+02  0.00000000000E+00 0.  1.
         11    1    3    3    0    0  0.90246703068E+01  0.20774723465E+01 -0.14620105268E+01  0.93753954871E+01  0.51100000000E-03 0. -1.
        -11    1    3    3    0    0  0.45798198100E+01 -0.29502958838E+02 -0.10373495613E+02  0.31607099537E+02  0.51100000000E-03 0.  1.
        -12    1    3    3    0    0  0.85292510333E+01 -0.41634849368E+01 -0.10251823045E+01  0.95463987328E+01  0.00000000000E+00 0.  1.
</event>
<event>
 7    1  0.9865694E-013  0.5052886E+02  0.7816164E-02  0.1300439E+00
        -11   -1    0    0    0    0  0.00000000000E+00  0.00000000000E+00  0.45593999997E+02  0.45594000000E+02  0.51100000000E-03 0.  1.
         11   -1    0    0    0    0 -0.00000000000E+00 -0.00000000000E+00 -0.45593999997E+02  0.45594000000E+02  0.51100000000E-03 0. -1.
    9900012    2    1    2    0    0  0.63251137032E+01  0.90608640793E+01 -0.39128750883E+02  0.50528862443E+02  0.30000007881E+02 0.  0.
        -12    1    1    2    0    0 -0.63251137032E+01 -0.90608640793E+01  0.39128750883E+02  0.40659137557E+02  0.00000000000E+00 0.  1.
         11    1    3    3    0    0 -0.60731054273E+01  0.39631854565E+01 -0.27032895447E+02  0.27988692091E+02  0.51100000000E-03 0. -1.
        -11    1    3    3    0    0  0.10324773581E+02  0.19008749674E+01 -0.14598539917E+02  0.17981424947E+02  0.51100000000E-03 0.  1.
         12    1    3    3    0    0  0.20734455492E+01  0.31968036553E+01  0.25026844805E+01  0.45587454047E+01  0.00000000000E+00 0. -1.
</event>
<event>
 7    1  0.9865694E-013  0.5052886E+02  0.7816164E-02  0.1300439E+00
        -11   -1    0    0    0    0  0.00000000000E+00  0.00000000000E+00  0.45593999997E+02  0.45594000000E+02  0.51100000000E-03 0. -1.
         11   -1    0    0    0    0 -0.00000000000E+00 -0.00000000000E+00 -0.45593999997E+02  0.45594000000E+02  0.51100000000E-03 0.  1.
    9900012    2    1    2    0    0  0.43381677029E+01  0.31797464395E+02 -0.24965314624E+02  0.50528863570E+02  0.30000011307E+02 0.  0.
        -12    1    1    2    0    0 -0.43381677029E+01 -0.31797464395E+02  0.24965314624E+02  0.40659136430E+02  0.00000000000E+00 0.  1.
         11    1    3    3    0    0  0.81148384178E+01  0.15339851736E+01  0.47517452560E-01  0.82586906486E+01  0.51100000000E-03 0. -1.
        -11    1    3    3    0    0 -0.87674377987E+01  0.24303125035E+02 -0.16094027445E+02  0.30438915416E+02  0.51100000000E-03 0.  1.
         12    1    3    3    0    0  0.49907670838E+01  0.59603541865E+01 -0.89188046315E+01  0.11831257506E+02  0.00000000000E+00 0. -1.
</event>
<event>
 7    1  0.9865694E-013  0.5052886E+02  0.7816164E-02  0.1300439E+00
        -11   -1    0    0    0    0  0.00000000000E+00  0.00000000000E+00  0.45593999997E+02  0.45594000000E+02  0.51100000000E-03 0. -1.
         11   -1    0    0    0    0 -0.00000000000E+00 -0.00000000000E+00 -0.45593999997E+02  0.45594000000E+02  0.51100000000E-03 0.  1.
    9900012    2    1    2    0    0  0.11202013330E+02 -0.19435350023E+02  0.33910883218E+02  0.50528856701E+02  0.29999990429E+02 0.  0.
        -12    1    1    2    0    0 -0.11202013330E+02  0.19435350023E+02 -0.33910883218E+02  0.40659143299E+02  0.00000000000E+00 0.  1.
         11    1    3    3    0    0 -0.36612068960E+01  0.14871847544E+01  0.15404261020E+02  0.15903062983E+02  0.51100000000E-03 0. -1.
        -11    1    3    3    0    0  0.11466493841E+02 -0.20970777282E+02  0.10847922495E+02  0.26247502805E+02  0.51100000000E-03 0.  1.
         12    1    3    3    0    0  0.33967263851E+01  0.48242503655E-01  0.76586997032E+01  0.83782909127E+01  0.00000000000E+00 0. -1.
</event>
<event>
 7    1  0.9865694E-013  0.5052886E+02  0.7816164E-02  0.1300439E+00
        -11   -1    0    0    0    0  0.00000000000E+00  0.00000000000E+00  0.45593999997E+02  0.45594000000E+02  0.51100000000E-03 0.  1.
         11   -1    0    0    0    0 -0.00000000000E+00 -0.00000000000E+00 -0.45593999997E+02  0.45594000000E+02  0.51100000000E-03 0. -1.
    9900012    2    1    2    0    0 -0.15225431765E+02  0.30648994093E+01 -0.37576032534E+02  0.50528860784E+02  0.30000002839E+02 0.  0.
        -12    1    1    2    0    0  0.15225431765E+02 -0.30648994093E+01  0.37576032534E+02  0.40659139216E+02  0.00000000000E+00 0.  1.
         11    1    3    3    0    0 -0.10895631562E+02  0.31479672598E+01  0.19832148744E+00  0.11343007391E+02  0.51100000000E-03 0.  1.
        -11    1    3    3    0    0 -0.33962411384E+01  0.13973650238E+01 -0.42543729298E+01  0.56202110429E+01  0.51100000000E-03 0. -1.
         12    1    3    3    0    0 -0.93355906519E+00 -0.14804328743E+01 -0.33519981091E+02  0.33565642350E+02  0.00000000000E+00 0. -1.
</event>
<event>
 7    1  0.9865694E-013  0.5052886E+02  0.7816164E-02  0.1300439E+00
        -11   -1    0    0    0    0  0.00000000000E+00  0.00000000000E+00  0.45593999997E+02  0.45594000000E+02  0.51100000000E-03 0.  1.
         11   -1    0    0    0    0 -0.00000000000E+00 -0.00000000000E+00 -0.45593999997E+02  0.45594000000E+02  0.51100000000E-03 0. -1.
    9900012    2    1    2    0    0  0.25596821919E+02  0.16638973717E+02 -0.26853549186E+02  0.50528857823E+02  0.29999993838E+02 0.  0.
        -12    1    1    2    0    0 -0.25596821919E+02 -0.16638973717E+02  0.26853549186E+02  0.40659142177E+02  0.00000000000E+00 0.  1.
         11    1    3    3    0    0  0.10441046453E+02 -0.39158261510E+01 -0.10693875446E+02  0.15450181805E+02  0.51100000000E-03 0. -1.
        -11    1    3    3    0    0  0.42365617182E+00  0.77320210476E+01  0.24291372159E+01  0.81156849314E+01  0.51100000000E-03 0.  1.
         12    1    3    3    0    0  0.14732119294E+02  0.12822778821E+02 -0.18588810956E+02  0.26962991086E+02  0.00000000000E+00 0. -1.
</event>
<event>
 7    1  0.9865694E-013  0.5052885E+02  0.7816164E-02  0.1300439E+00
        -11   -1    0    0    0    0  0.00000000000E+00  0.00000000000E+00  0.45593999997E+02  0.45594000000E+02  0.51100000000E-03 0.  1.
         11   -1    0    0    0    0 -0.00000000000E+00 -0.00000000000E+00 -0.45593999997E+02  0.45594000000E+02  0.51100000000E-03 0. -1.
    9900012    2    1    2    0    0 -0.12920948868E+02  0.34886394760E+01 -0.38393288574E+02  0.50528854257E+02  0.29999982998E+02 0.  0.
        -12    1    1    2    0    0  0.12920948868E+02 -0.34886394760E+01  0.38393288574E+02  0.40659145743E+02  0.00000000000E+00 0.  1.
         11    1    3    3    0    0 -0.43202407695E+01 -0.44629081400E+01 -0.12359505192E+02  0.13832548508E+02  0.51100000000E-03 0. -1.
        -11    1    3    3    0    0 -0.12247434796E+02  0.11173922902E+02 -0.87614618898E+01  0.18751517987E+02  0.51100000000E-03 0.  1.
        -12    1    3    3    0    0  0.36467266975E+01 -0.32223752859E+01 -0.17272321492E+02  0.17944787762E+02  0.00000000000E+00 0.  1.
</event>
<event>
 7    1  0.9865694E-013  0.5052886E+02  0.7816164E-02  0.1300439E+00
        -11   -1    0    0    0    0  0.00000000000E+00  0.00000000000E+00  0.45593999997E+02  0.45594000000E+02  0.51100000000E-03 0.  1.
         11   -1    0    0    0    0 -0.00000000000E+00 -0.00000000000E+00 -0.45593999997E+02  0.45594000000E+02  0.51100000000E-03 0. -1.
    9900012    2    1    2    0    0 -0.12741488274E+02  0.24271861951E+02 -0.30028270532E+02  0.50528857889E+02  0.29999994040E+02 0.  0.
        -12    1    1    2    0    0  0.12741488274E+02 -0.24271861951E+02  0.30028270532E+02  0.40659142111E+02  0.00000000000E+00 0.  1.
         11    1    3    3    0    0 -0.12740437246E+01  0.55811663230E+01 -0.12995270065E+02  0.14200339759E+02  0.51100000000E-03 0. -1.
        -11    1    3    3    0    0 -0.12206297909E+02  0.16536568085E+02 -0.14769184627E+01  0.20606627115E+02  0.51100000000E-03 0.  1.
        -12    1    3    3    0    0  0.73885335885E+00  0.21541275435E+01 -0.15556082005E+02  0.15721891015E+02  0.00000000000E+00 0.  1.
</event>
<event>
 7    1  0.9865694E-013  0.5052886E+02  0.7816164E-02  0.1300439E+00
        -11   -1    0    0    0    0  0.00000000000E+00  0.00000000000E+00  0.45593999997E+02  0.45594000000E+02  0.51100000000E-03 0.  1.
         11   -1    0    0    0    0 -0.00000000000E+00 -0.00000000000E+00 -0.45593999997E+02  0.45594000000E+02  0.51100000000E-03 0. -1.
    9900012    2    1    2    0    0 -0.51002688183E+01 -0.22295348499E+02 -0.33616519644E+02  0.50528859580E+02  0.29999999181E+02 0.  0.
        -12    1    1    2    0    0  0.51002688183E+01  0.22295348499E+02  0.33616519644E+02  0.40659140420E+02  0.00000000000E+00 0.  1.
         11    1    3    3    0    0  0.15336090949E+01 -0.24888256338E+02 -0.20014116331E+02  0.31974085025E+02  0.51100000000E-03 0. -1.
        -11    1    3    3    0    0  0.20493575082E+01  0.29869370784E+01 -0.22782531999E+01  0.42792636295E+01  0.51100000000E-03 0.  1.
         12    1    3    3    0    0 -0.86832354213E+01 -0.39402923911E+00 -0.11324150113E+02  0.14275510926E+02  0.00000000000E+00 0. -1.
</event>
<event>
 7    1  0.9865694E-013  0.5052886E+02  0.7816164E-02  0.1300439E+00
        -11   -1    0    0    0    0  0.00000000000E+00  0.00000000000E+00  0.45593999997E+02  0.45594000000E+02  0.51100000000E-03 0. -1.
         11   -1    0    0    0    0 -0.00000000000E+00 -0.00000000000E+00 -0.45593999997E+02  0.45594000000E+02  0.51100000000E-03 0.  1.
    9900012    2    1    2    0    0  0.24367363506E+02 -0.81341385693E+01  0.31515595024E+02  0.50528863952E+02  0.30000012467E+02 0.  0.
        -12    1    1    2    0    0 -0.24367363506E+02  0.81341385693E+01 -0.31515595024E+02  0.40659136048E+02  0.00000000000E+00 0.  1.
         11    1    3    3    0    0  0.25039497152E+02 -0.91665202733E+01  0.20255575276E+02  0.33485666211E+02  0.51100000000E-03 0. -1.
        -11    1    3    3    0    0 -0.63560773367E+01  0.48953066220E+00  0.31125664505E+01  0.70941827965E+01  0.51100000000E-03 0.  1.
        -12    1    3    3    0    0  0.56839436906E+01  0.54285104174E+00  0.81474532976E+01  0.99490149447E+01  0.00000000000E+00 0.  1.
</event>
<event>
 7    1  0.9865694E-013  0.5052886E+02  0.7816164E-02  0.1300439E+00
        -11   -1    0    0    0    0  0.00000000000E+00  0.00000000000E+00  0.45593999997E+02  0.45594000000E+02  0.51100000000E-03 0.  1.
         11   -1    0    0    0    0 -0.00000000000E+00 -0.00000000000E+00 -0.45593999997E+02  0.45594000000E+02  0.51100000000E-03 0. -1.
    9900012    2    1    2    0    0 -0.36039483620E+02 -0.69602926097E+01 -0.17489301483E+02  0.50528859340E+02  0.29999998450E+02 0.  0.
        -12    1    1    2    0    0  0.36039483620E+02  0.69602926097E+01  0.17489301483E+02  0.40659140660E+02  0.00000000000E+00 0.  1.
         11    1    3    3    0    0 -0.73361856338E+01 -0.50071638083E+01  0.34663206242E+01  0.95344998814E+01  0.51100000000E-03 0. -1.
        -11    1    3    3    0    0 -0.15913463076E+02  0.90853030994E+01 -0.11492114082E+02  0.21629834161E+02  0.51100000000E-03 0.  1.
        -12    1    3    3    0    0 -0.12789834910E+02 -0.11038431901E+02 -0.94635080252E+01  0.19364525297E+02  0.00000000000E+00 0.  1.
</event>
<event>
 7    1  0.9865694E-013  0.5052886E+02  0.7816164E-02  0.1300439E+00
        -11   -1    0    0    0    0  0.00000000000E+00  0.00000000000E+00  0.45593999997E+02  0.45594000000E+02  0.51100000000E-03 0.  1.
         11   -1    0    0    0    0 -0.00000000000E+00 -0.00000000000E+00 -0.45593999997E+02  0.45594000000E+02  0.51100000000E-03 0. -1.
    9900012    2    1    2    0    0  0.11247437975E+02 -0.39020119678E+02 -0.20225461352E+01  0.50528864575E+02  0.30000014361E+02 0.  0.
        -12    1    1    2    0    0 -0.11247437975E+02  0.39020119678E+02  0.20225461352E+01  0.40659135425E+02  0.00000000000E+00 0.  1.
         11    1    3    3    0    0  0.12048187276E+02 -0.42846766225E+02 -0.71085085783E+00  0.44514149456E+02  0.51100000000E-03 0. -1.
        -11    1    3    3    0    0  0.21714979424E+00  0.42950618171E+01 -0.14484822372E-01  0.43005720686E+01  0.51100000000E-03 0.  1.
         12    1    3    3    0    0 -0.10178990948E+01 -0.46841526955E+00 -0.12972104550E+01  0.17141430502E+01  0.00000000000E+00 0. -1.
</event>
<event>
 7    1  0.9865694E-013  0.5052886E+02  0.7816164E-02  0.1300439E+00
        -11   -1    0    0    0    0  0.00000000000E+00  0.00000000000E+00  0.45593999997E+02  0.45594000000E+02  0.51100000000E-03 0.  1.
         11   -1    0    0    0    0 -0.00000000000E+00 -0.00000000000E+00 -0.45593999997E+02  0.45594000000E+02  0.51100000000E-03 0. -1.
    9900012    2    1    2    0    0  0.19818909653E+02 -0.67708713993E+01 -0.34850135006E+02  0.50528858478E+02  0.29999995830E+02 0.  0.
        -12    1    1    2    0    0 -0.19818909653E+02  0.67708713993E+01  0.34850135006E+02  0.40659141522E+02  0.00000000000E+00 0.  1.
         11    1    3    3    0    0  0.18265531323E+01 -0.26517848295E+01 -0.13185264571E+02  0.13572747003E+02  0.51100000000E-03 0. -1.
        -11    1    3    3    0    0  0.69689579901E+01 -0.24858089826E+01  0.44003555192E+01  0.86086439537E+01  0.51100000000E-03 0.  1.
        -12    1    3    3    0    0  0.11023398530E+02 -0.16332775872E+01 -0.26065225955E+02  0.28347467522E+02  0.00000000000E+00 0.  1.
</event>
<event>
 7    1  0.9865694E-013  0.5052887E+02  0.7816164E-02  0.1300439E+00
        -11   -1    0    0    0    0  0.00000000000E+00  0.00000000000E+00  0.45593999997E+02  0.45594000000E+02  0.51100000000E-03 0. -1.
         11   -1    0    0    0    0 -0.00000000000E+00 -0.00000000000E+00 -0.45593999997E+02  0.45594000000E+02  0.51100000000E-03 0.  1.
    9900012    2    1    2    0    0  0.12516358504E+02  0.30656101532E+02  0.23594676783E+02  0.50528873548E+02  0.30000041637E+02 0.  0.
        -12    1    1    2    0    0 -0.12516358504E+02 -0.30656101532E+02 -0.23594676783E+02  0.40659126452E+02  0.00000000000E+00 0.  1.
         11    1    3    3    0    0  0.11067887676E+02  0.24262325055E+02  0.64514293712E+01  0.27436827365E+02  0.51100000000E-03 0. -1.
        -11    1    3    3    0    0 -0.55336842805E+01 -0.62630360220E+00  0.62890233665E+01  0.84003412481E+01  0.51100000000E-03 0.  1.
        -12    1    3    3    0    0  0.69821551078E+01  0.70200800793E+01  0.10854224046E+02  0.14691704935E+02  0.00000000000E+00 0.  1.
</event>
<event>
 7    1  0.9865694E-013  0.5052886E+02  0.7816164E-02  0.1300439E+00
        -11   -1    0    0    0    0  0.00000000000E+00  0.00000000000E+00  0.45593999997E+02  0.45594000000E+02  0.51100000000E-03 0.  1.
         11   -1    0    0    0    0 -0.00000000000E+00 -0.00000000000E+00 -0.45593999997E+02  0.45594000000E+02  0.51100000000E-03 0. -1.
    9900012    2    1    2    0    0  0.26048739065E+02  0.29353548915E+02 -0.10630041153E+02  0.50528863072E+02  0.30000009794E+02 0.  0.
        -12    1    1    2    0    0 -0.26048739065E+02 -0.29353548915E+02  0.10630041153E+02  0.40659136928E+02  0.00000000000E+00 0.  1.
         11    1    3    3    0    0  0.21651024818E+02  0.13759052835E+02  0.17982522813E+01  0.25715989619E+02  0.51100000000E-03 0. -1.
        -11    1    3    3    0    0 -0.75250307122E+00  0.14629224547E+02 -0.12943445454E+02  0.19547717314E+02  0.51100000000E-03 0.  1.
        -12    1    3    3    0    0  0.51502173189E+01  0.96527153354E+00  0.51515201937E+00  0.52651561390E+01  0.00000000000E+00 0.  1.
</event>
<event>
 7    1  0.9865694E-013  0.5052884E+02  0.7816164E-02  0.1300439E+00
        -11   -1    0    0    0    0  0.00000000000E+00  0.00000000000E+00  0.45593999997E+02  0.45594000000E+02  0.51100000000E-03 0. -1.
         11   -1    0    0    0    0 -0.00000000000E+00 -0.00000000000E+00 -0.45593999997E+02  0.45594000000E+02  0.51100000000E-03 0.  1.
    9900012    2    1    2    0    0 -0.35289797555E+02  0.11000748277E+02  0.16934612998E+02  0.50528838775E+02  0.29999935941E+02 0.  0.
        -12    1    1    2    0    0  0.35289797555E+02 -0.11000748277E+02 -0.16934612998E+02  0.40659161225E+02  0.00000000000E+00 0.  1.
         11    1    3    3    0    0 -0.13323350023E+02  0.26807457256E+00  0.70656202205E+01  0.15083318905E+02  0.51100000000E-03 0. -1.
        -11    1    3    3    0    0  0.39838566241E+01 -0.25730583098E+01  0.29580182944E+00  0.47517619522E+01  0.51100000000E-03 0.  1.
        -12    1    3    3    0    0 -0.25950304156E+02  0.13305732014E+02  0.95731909480E+01  0.30693757918E+02  0.00000000000E+00 0.  1.
</event>
<event>
 7    1  0.9865694E-013  0.5052887E+02  0.7816164E-02  0.1300439E+00
        -11   -1    0    0    0    0  0.00000000000E+00  0.00000000000E+00  0.45593999997E+02  0.45594000000E+02  0.51100000000E-03 0. -1.
         11   -1    0    0    0    0 -0.00000000000E+00 -0.00000000000E+00 -0.45593999997E+02  0.45594000000E+02  0.51100000000E-03 0.  1.
    9900012    2    1    2    0    0 -0.21484702436E+02 -0.22853870022E+02  0.25870315089E+02  0.50528867981E+02  0.30000024715E+02 0.  0.
        -12    1    1    2    0    0  0.21484702436E+02  0.22853870022E+02 -0.25870315089E+02  0.40659132019E+02  0.00000000000E+00 0.  1.
         11    1    3    3    0    0 -0.84950928967E+01 -0.18235701098E+02  0.17484874751E+02  0.26653859818E+02  0.51100000000E-03 0. -1.
        -11    1    3    3    0    0 -0.64032503298E+01 -0.83661650322E+01 -0.22918624747E+01  0.10781788627E+02  0.51100000000E-03 0.  1.
        -12    1    3    3    0    0 -0.65863592098E+01  0.37479961087E+01  0.10677302812E+02  0.13093219536E+02  0.00000000000E+00 0.  1.
</event>
<event>
 7    1  0.9865694E-013  0.5052888E+02  0.7816164E-02  0.1300439E+00
        -11   -1    0    0    0    0  0.00000000000E+00  0.00000000000E+00  0.45593999997E+02  0.45594000000E+02  0.51100000000E-03 0. -1.
         11   -1    0    0    0    0 -0.00000000000E+00 -0.00000000000E+00 -0.45593999997E+02  0.45594000000E+02  0.51100000000E-03 0.  1.
    9900012    2    1    2    0    0  0.85439901690E+01 -0.34808721456E+02  0.19196808651E+02  0.50528876549E+02  0.30000050760E+02 0.  0.
        -12    1    1    2    0    0 -0.85439901690E+01  0.34808721456E+02 -0.19196808651E+02  0.40659123451E+02  0.00000000000E+00 0.  1.
         11    1    3    3    0    0  0.95014350359E+01 -0.23736571153E+02  0.10833194169E+02  0.27767970290E+02  0.51100000000E-03 0. -1.
        -11    1    3    3    0    0 -0.84758702649E+01 -0.30185284960E+01  0.11569984837E+00  0.89980707790E+01  0.51100000000E-03 0.  1.
         12    1    3    3    0    0  0.75184253980E+01 -0.80536218066E+01  0.82479146332E+01  0.13762835481E+02  0.00000000000E+00 0. -1.
</event>
<event>
 7    1  0.9865694E-013  0.5052886E+02  0.7816164E-02  0.1300439E+00
        -11   -1    0    0    0    0  0.00000000000E+00  0.00000000000E+00  0.45593999997E+02  0.45594000000E+02  0.51100000000E-03 0.  1.
         11   -1    0    0    0    0 -0.00000000000E+00 -0.00000000000E+00 -0.45593999997E+02  0.45594000000E+02  0.51100000000E-03 0. -1.
    9900012    2    1    2    0    0  0.28368793201E+02 -0.17977839180E+02 -0.22916686591E+02  0.50528860147E+02  0.30000000904E+02 0.  0.
        -12    1    1    2    0    0 -0.28368793201E+02  0.17977839180E+02  0.22916686591E+02  0.40659139853E+02  0.00000000000E+00 0.  1.
         11    1    3    3    0    0  0.18155889978E+02 -0.15273926556E+01 -0.19597172975E+02  0.26758521223E+02  0.51100000000E-03 0. -1.
        -11    1    3    3    0    0  0.51257582036E+01 -0.27459487741E+01  0.43503609507E+01  0.72621809737E+01  0.51100000000E-03 0.  1.
         12    1    3    3    0    0  0.50871450194E+01 -0.13704497751E+02 -0.76698745669E+01  0.16508157950E+02  0.00000000000E+00 0. -1.
</event>
<event>
 7    1  0.9865694E-013  0.5052885E+02  0.7816164E-02  0.1300439E+00
        -11   -1    0    0    0    0  0.00000000000E+00  0.00000000000E+00  0.45593999997E+02  0.45594000000E+02  0.51100000000E-03 0.  1.
         11   -1    0    0    0    0 -0.00000000000E+00 -0.00000000000E+00 -0.45593999997E+02  0.45594000000E+02  0.51100000000E-03 0. -1.
    9900012    2    1    2    0    0  0.12056017900E+02 -0.13412771247E+02 -0.36440583223E+02  0.50528854587E+02  0.29999984002E+02 0.  0.
        -12    1    1    2    0    0 -0.12056017900E+02  0.13412771247E+02  0.36440583223E+02  0.40659145413E+02  0.00000000000E+00 0.  1.
         11    1    3    3    0    0  0.38030068930E+01  0.16370491082E+01  0.26540552571E+01  0.49180078060E+01  0.51100000000E-03 0.  1.
        -11    1    3    3    0    0  0.59972101848E+01 -0.35893995860E+01 -0.30011050502E+02  0.30814176476E+02  0.51100000000E-03 0. -1.
        -12    1    3    3    0    0  0.22558008222E+01 -0.11460420770E+02 -0.90835879777E+01  0.14796670305E+02  0.00000000000E+00 0.  1.
</event>
<event>
 7    1  0.9865694E-013  0.5052886E+02  0.7816164E-02  0.1300439E+00
        -11   -1    0    0    0    0  0.00000000000E+00  0.00000000000E+00  0.45593999997E+02  0.45594000000E+02  0.51100000000E-03 0.  1.
         11   -1    0    0    0    0 -0.00000000000E+00 -0.00000000000E+00 -0.45593999997E+02  0.45594000000E+02  0.51100000000E-03 0. -1.
    9900012    2    1    2    0    0 -0.55533818995E+01  0.94003339386E+01 -0.39165796733E+02  0.50528856349E+02  0.29999989358E+02 0.  0.
        -12    1    1    2    0    0  0.55533818995E+01 -0.94003339386E+01  0.39165796733E+02  0.40659143651E+02  0.00000000000E+00 0.  1.
         11    1    3    3    0    0  0.46354463992E+01  0.60696926261E+00 -0.14075963384E+02  0.14832009993E+02  0.51100000000E-03 0. -1.
        -11    1    3    3    0    0 -0.12944510599E+02  0.14264774930E+02 -0.19288852317E+02  0.27259933647E+02  0.51100000000E-03 0.  1.
        -12    1    3    3    0    0  0.27556823007E+01 -0.54714102540E+01 -0.58009810330E+01  0.84369127087E+01  0.00000000000E+00 0.  1.
</event>
<event>
 7    1  0.9865694E-013  0.5052887E+02  0.7816164E-02  0.1300439E+00
        -11   -1    0    0    0    0  0.00000000000E+00  0.00000000000E+00  0.45593999997E+02  0.45594000000E+02  0.51100000000E-03 0.  1.
         11   -1    0    0    0    0 -0.00000000000E+00 -0.00000000000E+00 -0.45593999997E+02  0.45594000000E+02  0.51100000000E-03 0. -1.
    9900012    2    1    2    0    0 -0.16747585478E+02  0.33695001787E+02 -0.15405530641E+02  0.50528866474E+02  0.30000020135E+02 0.  0.
        -12    1    1    2    0    0  0.16747585478E+02 -0.33695001787E+02  0.15405530641E+02  0.40659133526E+02  0.00000000000E+00 0.  1.
         11    1    3    3    0    0 -0.14825028766E+02  0.32149108043E+02 -0.21437810600E+02  0.41387514415E+02  0.51100000000E-03 0. -1.
        -11    1    3    3    0    0  0.14310241926E+01  0.23089801000E+01  0.47478478983E+01  0.54700346679E+01  0.51100000000E-03 0.  1.
        -12    1    3    3    0    0 -0.33535809041E+01 -0.76308635663E+00  0.12844320601E+01  0.36713173910E+01  0.00000000000E+00 0.  1.
</event>
<event>
 7    1  0.9865694E-013  0.5052886E+02  0.7816164E-02  0.1300439E+00
        -11   -1    0    0    0    0  0.00000000000E+00  0.00000000000E+00  0.45593999997E+02  0.45594000000E+02  0.51100000000E-03 0.  1.
         11   -1    0    0    0    0 -0.00000000000E+00 -0.00000000000E+00 -0.45593999997E+02  0.45594000000E+02  0.51100000000E-03 0. -1.
    9900012    2    1    2    0    0  0.13216008933E+02  0.22086731170E+02 -0.31475060133E+02  0.50528855933E+02  0.29999988095E+02 0.  0.
        -12    1    1    2    0    0 -0.13216008933E+02 -0.22086731170E+02  0.31475060133E+02  0.40659144067E+02  0.00000000000E+00 0.  1.
         11    1    3    3    0    0 -0.63893030923E+00  0.32933442942E+00 -0.12971514025E+02  0.12991415222E+02  0.51100000000E-03 0. -1.
        -11    1    3    3    0    0  0.67572149869E+01  0.17754987698E+02 -0.19627371574E+01  0.19098478472E+02  0.51100000000E-03 0.  1.
        -12    1    3    3    0    0  0.70977242549E+01  0.40024090425E+01 -0.16540808950E+02  0.18438962239E+02  0.00000000000E+00 0.  1.
</event>
<event>
 7    1  0.9865694E-013  0.5052886E+02  0.7816164E-02  0.1300439E+00
        -11   -1    0    0    0    0  0.00000000000E+00  0.00000000000E+00  0.45593999997E+02  0.45594000000E+02  0.51100000000E-03 0.  1.
         11   -1    0    0    0    0 -0.00000000000E+00 -0.00000000000E+00 -0.45593999997E+02  0.45594000000E+02  0.51100000000E-03 0. -1.
    9900012    2    1    2    0    0 -0.27824435262E+02 -0.27877961331E+02  0.10088906547E+02  0.50528856367E+02  0.29999989413E+02 0.  0.
        -12    1    1    2    0    0  0.27824435262E+02  0.27877961331E+02 -0.10088906547E+02  0.40659143633E+02  0.00000000000E+00 0.  1.
         11    1    3    3    0    0 -0.27781302859E+02 -0.22781473608E+02 -0.34098025730E+00  0.35929272134E+02  0.51100000000E-03 0. -1.
        -11    1    3    3    0    0 -0.36698706654E+01 -0.17163112978E+01  0.82352306540E+01  0.91778374009E+01  0.51100000000E-03 0.  1.
         12    1    3    3    0    0  0.36267382623E+01 -0.33801764255E+01  0.21946561500E+01  0.54217468317E+01  0.00000000000E+00 0. -1.
</event>
<event>
 7    1  0.9865694E-013  0.5052886E+02  0.7816164E-02  0.1300439E+00
        -11   -1    0    0    0    0  0.00000000000E+00  0.00000000000E+00  0.45593999997E+02  0.45594000000E+02  0.51100000000E-03 0.  1.
         11   -1    0    0    0    0 -0.00000000000E+00 -0.00000000000E+00 -0.45593999997E+02  0.45594000000E+02  0.51100000000E-03 0. -1.
    9900012    2    1    2    0    0  0.26637780039E+02  0.24827171660E+01 -0.30617482626E+02  0.50528862623E+02  0.30000008428E+02 0.  0.
        -12    1    1    2    0    0 -0.26637780039E+02 -0.24827171660E+01  0.30617482626E+02  0.40659137377E+02  0.00000000000E+00 0.  1.
         11    1    3    3    0    0  0.12016540511E+02 -0.62285148677E+01 -0.28416059570E+02  0.31474816680E+02  0.51100000000E-03 0. -1.
        -11    1    3    3    0    0  0.14209324952E+02  0.98669923652E+01 -0.98644315604E+00  0.17327305742E+02  0.51100000000E-03 0.  1.
        -12    1    3    3    0    0  0.41191457609E+00 -0.11557603314E+01 -0.12149798997E+01  0.17267402000E+01  0.00000000000E+00 0.  1.
</event>
<event>
 7    1  0.9865694E-013  0.5052887E+02  0.7816164E-02  0.1300439E+00
        -11   -1    0    0    0    0  0.00000000000E+00  0.00000000000E+00  0.45593999997E+02  0.45594000000E+02  0.51100000000E-03 0. -1.
         11   -1    0    0    0    0 -0.00000000000E+00 -0.00000000000E+00 -0.45593999997E+02  0.45594000000E+02  0.51100000000E-03 0.  1.
    9900012    2    1    2    0    0 -0.35672306607E+02 -0.18433603006E+02  0.63917133783E+01  0.50528865991E+02  0.30000018667E+02 0.  0.
        -12    1    1    2    0    0  0.35672306607E+02  0.18433603006E+02 -0.63917133783E+01  0.40659134009E+02  0.00000000000E+00 0.  1.
         11    1    3    3    0    0 -0.25282046406E+02 -0.62278830187E+01  0.57443085982E+01  0.26663935923E+02  0.51100000000E-03 0. -1.
        -11    1    3    3    0    0 -0.35719868569E+01 -0.42840439656E+01  0.89301891955E+01  0.10529026647E+02  0.51100000000E-03 0.  1.
        -12    1    3    3    0    0 -0.68182733435E+01 -0.79216760215E+01 -0.82827844154E+01  0.13335903421E+02  0.00000000000E+00 0.  1.
</event>
<event>
 7    1  0.9865694E-013  0.5052887E+02  0.7816164E-02  0.1300439E+00
        -11   -1    0    0    0    0  0.00000000000E+00  0.00000000000E+00  0.45593999997E+02  0.45594000000E+02  0.51100000000E-03 0.  1.
         11   -1    0    0    0    0 -0.00000000000E+00 -0.00000000000E+00 -0.45593999997E+02  0.45594000000E+02  0.51100000000E-03 0. -1.
    9900012    2    1    2    0    0 -0.39103788503E+02  0.34927723256E+01  0.10576334729E+02  0.50528873225E+02  0.30000040655E+02 0.  0.
        -12    1    1    2    0    0  0.39103788503E+02 -0.34927723256E+01 -0.10576334729E+02  0.40659126775E+02  0.00000000000E+00 0.  1.
         11    1    3    3    0    0 -0.18868834748E+02 -0.53853797728E+01 -0.74936971243E+01  0.21004540864E+02  0.51100000000E-03 0. -1.
        -11    1    3    3    0    0 -0.99124925587E+01  0.83294647397E+01  0.11128994900E+02  0.17073137360E+02  0.51100000000E-03 0.  1.
        -12    1    3    3    0    0 -0.10322461196E+02  0.54868735866E+00  0.69410369533E+01  0.12451195001E+02  0.00000000000E+00 0.  1.
</event>
<event>
 7    1  0.9865694E-013  0.5052883E+02  0.7816164E-02  0.1300439E+00
        -11   -1    0    0    0    0  0.00000000000E+00  0.00000000000E+00  0.45593999997E+02  0.45594000000E+02  0.51100000000E-03 0.  1.
         11   -1    0    0    0    0 -0.00000000000E+00 -0.00000000000E+00 -0.45593999997E+02  0.45594000000E+02  0.51100000000E-03 0. -1.
    9900012    2    1    2    0    0  0.10090622180E+02 -0.34963595457E+02 -0.18135450186E+02  0.50528828628E+02  0.29999905096E+02 0.  0.
        -12    1    1    2    0    0 -0.10090622180E+02  0.34963595457E+02  0.18135450186E+02  0.40659171372E+02  0.00000000000E+00 0.  1.
         11    1    3    3    0    0 -0.56402081641E+00 -0.18223675328E+02 -0.75290270026E+01  0.19725787939E+02  0.51100000000E-03 0. -1.
        -11    1    3    3    0    0  0.16975046672E+02 -0.13863876363E+02 -0.88796065725E+01  0.23647551469E+02  0.51100000000E-03 0.  1.
        -12    1    3    3    0    0 -0.63204036757E+01 -0.28760437649E+01 -0.17268166113E+01  0.71554892195E+01  0.00000000000E+00 0.  1.
</event>
<event>
 7    1  0.9865694E-013  0.5052886E+02  0.7816164E-02  0.1300439E+00
        -11   -1    0    0    0    0  0.00000000000E+00  0.00000000000E+00  0.45593999997E+02  0.45594000000E+02  0.51100000000E-03 0.  1.
         11   -1    0    0    0    0 -0.00000000000E+00 -0.00000000000E+00 -0.45593999997E+02  0.45594000000E+02  0.51100000000E-03 0. -1.
    9900012    2    1    2    0    0  0.27554073174E+01  0.82554372099E+01 -0.39716761692E+02  0.50528859917E+02  0.30000000203E+02 0.  0.
        -12    1    1    2    0    0 -0.27554073174E+01 -0.82554372099E+01  0.39716761692E+02  0.40659140083E+02  0.00000000000E+00 0.  1.
         11    1    3    3    0    0 -0.99562538134E+01 -0.46787271064E+00 -0.17148855760E+02  0.19835048500E+02  0.51100000000E-03 0. -1.
        -11    1    3    3    0    0  0.96219543377E+01  0.11782482129E+02 -0.21281865664E+02  0.26159638698E+02  0.51100000000E-03 0.  1.
        -12    1    3    3    0    0  0.30897067930E+01 -0.30591722087E+01 -0.12860402678E+01  0.45341727184E+01  0.00000000000E+00 0.  1.
</event>
<event>
 7    1  0.9865694E-013  0.5052886E+02  0.7816164E-02  0.1300439E+00
        -11   -1    0    0    0    0  0.00000000000E+00  0.00000000000E+00  0.45593999997E+02  0.45594000000E+02  0.51100000000E-03 0. -1.
         11   -1    0    0    0    0 -0.00000000000E+00 -0.00000000000E+00 -0.45593999997E+02  0.45594000000E+02  0.51100000000E-03 0.  1.
    9900012    2    1    2    0    0 -0.22296090759E+02  0.81759874808E+01  0.33003082191E+02  0.50528857504E+02  0.29999992868E+02 0.  0.
        -12    1    1    2    0    0  0.22296090759E+02 -0.81759874808E+01 -0.33003082191E+02  0.40659142496E+02  0.00000000000E+00 0.  1.
         11    1    3    3    0    0 -0.21946607109E+01  0.96017699778E+01  0.25767382827E+02  0.27585658237E+02  0.51100000000E-03 0. -1.
        -11    1    3    3    0    0 -0.11730424762E+02  0.11137880041E+01  0.31252417949E+00  0.11787326263E+02  0.51100000000E-03 0.  1.
        -12    1    3    3    0    0 -0.83710052861E+01 -0.25395705010E+01  0.69231751842E+01  0.11155873003E+02  0.00000000000E+00 0.  1.
</event>
<event>
 7    1  0.9865694E-013  0.5052886E+02  0.7816164E-02  0.1300439E+00
        -11   -1    0    0    0    0  0.00000000000E+00  0.00000000000E+00  0.45593999997E+02  0.45594000000E+02  0.51100000000E-03 0. -1.
         11   -1    0    0    0    0 -0.00000000000E+00 -0.00000000000E+00 -0.45593999997E+02  0.45594000000E+02  0.51100000000E-03 0.  1.
    9900012    2    1    2    0    0  0.12140888748E+02 -0.25769480344E+02  0.29012043243E+02  0.50528856503E+02  0.29999989826E+02 0.  0.
        -12    1    1    2    0    0 -0.12140888748E+02  0.25769480344E+02 -0.29012043243E+02  0.40659143497E+02  0.00000000000E+00 0.  1.
         11    1    3    3    0    0  0.16883539897E+02 -0.14264725493E+02  0.17928457888E+02  0.28459900129E+02  0.51100000000E-03 0. -1.
        -11    1    3    3    0    0 -0.56363003752E+01 -0.11376293973E+02  0.14068662515E+02  0.18950335398E+02  0.51100000000E-03 0.  1.
         12    1    3    3    0    0  0.89364922632E+00 -0.12846087772E+00 -0.29850771604E+01  0.31186209757E+01  0.00000000000E+00 0. -1.
</event>
<event>
 7    1  0.9865694E-013  0.5052885E+02  0.7816164E-02  0.1300439E+00
        -11   -1    0    0    0    0  0.00000000000E+00  0.00000000000E+00  0.45593999997E+02  0.45594000000E+02  0.51100000000E-03 0. -1.
         11   -1    0    0    0    0 -0.00000000000E+00 -0.00000000000E+00 -0.45593999997E+02  0.45594000000E+02  0.51100000000E-03 0.  1.
    9900012    2    1    2    0    0 -0.18828439535E+02  0.26847107026E+02  0.24039323579E+02  0.50528851347E+02  0.29999974155E+02 0.  0.
        -12    1    1    2    0    0  0.18828439535E+02 -0.26847107026E+02 -0.24039323579E+02  0.40659148653E+02  0.00000000000E+00 0.  1.
         11    1    3    3    0    0  0.49651981508E+01  0.11396003240E+02  0.14895612396E+02  0.19401065729E+02  0.51100000000E-03 0. -1.
        -11    1    3    3    0    0 -0.19548333714E+02  0.16217026002E+02  0.83854746560E+01  0.26747812412E+02  0.51100000000E-03 0.  1.
        -12    1    3    3    0    0 -0.42453039718E+01 -0.76592221516E+00  0.75823652687E+00  0.43799732058E+01  0.00000000000E+00 0.  1.
</event>
<event>
 7    1  0.9865694E-013  0.5052886E+02  0.7816164E-02  0.1300439E+00
        -11   -1    0    0    0    0  0.00000000000E+00  0.00000000000E+00  0.45593999997E+02  0.45594000000E+02  0.51100000000E-03 0.  1.
         11   -1    0    0    0    0 -0.00000000000E+00 -0.00000000000E+00 -0.45593999997E+02  0.45594000000E+02  0.51100000000E-03 0. -1.
    9900012    2    1    2    0    0  0.41766449369E+01  0.86510403384E+01 -0.39507986048E+02  0.50528858059E+02  0.29999994555E+02 0.  0.
        -12    1    1    2    0    0 -0.41766449369E+01 -0.86510403384E+01  0.39507986048E+02  0.40659141941E+02  0.00000000000E+00 0.  1.
         11    1    3    3    0    0  0.96070248726E+01 -0.10646262290E+01 -0.23730677133E+02  0.25623688129E+02  0.51100000000E-03 0. -1.
        -11    1    3    3    0    0 -0.53148071653E+01  0.35440003788E+01  0.14970018877E+01  0.65611072847E+01  0.51100000000E-03 0.  1.
         12    1    3    3    0    0 -0.11557277046E+00  0.61716661886E+01 -0.17274310802E+02  0.18344062645E+02  0.00000000000E+00 0. -1.
</event>
<event>
 7    1  0.9865694E-013  0.5052889E+02  0.7816164E-02  0.1300439E+00
        -11   -1    0    0    0    0  0.00000000000E+00  0.00000000000E+00  0.45593999997E+02  0.45594000000E+02  0.51100000000E-03 0.  1.
         11   -1    0    0    0    0 -0.00000000000E+00 -0.00000000000E+00 -0.45593999997E+02  0.45594000000E+02  0.51100000000E-03 0. -1.
    9900012    2    1    2    0    0 -0.14152388480E+02 -0.20729941540E+02 -0.31986597302E+02  0.50528892989E+02  0.30000100729E+02 0.  0.
        -12    1    1    2    0    0  0.14152388480E+02  0.20729941540E+02  0.31986597302E+02  0.40659107011E+02  0.00000000000E+00 0.  1.
         11    1    3    3    0    0 -0.16115421545E+02 -0.61780087798E+01 -0.27910330248E+02  0.32815562450E+02  0.51100000000E-03 0. -1.
        -11    1    3    3    0    0  0.30521209745E+01 -0.14285357296E+02 -0.57500320058E+01  0.15698717905E+02  0.51100000000E-03 0.  1.
        -12    1    3    3    0    0 -0.10890879093E+01 -0.26657546435E+00  0.16737649521E+01  0.20146126345E+01  0.00000000000E+00 0.  1.
</event>
<event>
 7    1  0.9865694E-013  0.5052886E+02  0.7816164E-02  0.1300439E+00
        -11   -1    0    0    0    0  0.00000000000E+00  0.00000000000E+00  0.45593999997E+02  0.45594000000E+02  0.51100000000E-03 0.  1.
         11   -1    0    0    0    0 -0.00000000000E+00 -0.00000000000E+00 -0.45593999997E+02  0.45594000000E+02  0.51100000000E-03 0. -1.
    9900012    2    1    2    0    0 -0.22957433829E+02  0.16335457711E+02 -0.29313391839E+02  0.50528857267E+02  0.29999992150E+02 0.  0.
        -12    1    1    2    0    0  0.22957433829E+02 -0.16335457711E+02  0.29313391839E+02  0.40659142733E+02  0.00000000000E+00 0.  1.
         11    1    3    3    0    0 -0.36283180903E+01 -0.55843852136E+01  0.11336333673E+01  0.67553812070E+01  0.51100000000E-03 0.  1.
        -11    1    3    3    0    0 -0.89574802206E+01  0.16878652999E+02 -0.23585714763E+02  0.30354757784E+02  0.51100000000E-03 0. -1.
        -12    1    3    3    0    0 -0.10371635518E+02  0.50411899254E+01 -0.68613104426E+01  0.13418718276E+02  0.00000000000E+00 0.  1.
</event>
<event>
 7    1  0.9865694E-013  0.5052886E+02  0.7816164E-02  0.1300439E+00
        -11   -1    0    0    0    0  0.00000000000E+00  0.00000000000E+00  0.45593999997E+02  0.45594000000E+02  0.51100000000E-03 0. -1.
         11   -1    0    0    0    0 -0.00000000000E+00 -0.00000000000E+00 -0.45593999997E+02  0.45594000000E+02  0.51100000000E-03 0.  1.
    9900012    2    1    2    0    0 -0.19687160417E+02 -0.27483063200E+02  0.22588994090E+02  0.50528859550E+02  0.29999999088E+02 0.  0.
        -12    1    1    2    0    0  0.19687160417E+02  0.27483063200E+02 -0.22588994090E+02  0.40659140450E+02  0.00000000000E+00 0.  1.
         11    1    3    3    0    0  0.15215915537E+01 -0.71190385492E+01 -0.49932100747E+01  0.88276892691E+01  0.51100000000E-03 0.  1.
        -11    1    3    3    0    0 -0.16062209716E+02 -0.10624864428E+02  0.22361269166E+02  0.29511162025E+02  0.51100000000E-03 0. -1.
        -12    1    3    3    0    0 -0.51465422543E+01 -0.97391602226E+01  0.52209349987E+01  0.12190008256E+02  0.00000000000E+00 0.  1.
</event>
<event>
 7    1  0.9865694E-013  0.5052883E+02  0.7816164E-02  0.1300439E+00
        -11   -1    0    0    0    0  0.00000000000E+00  0.00000000000E+00  0.45593999997E+02  0.45594000000E+02  0.51100000000E-03 0. -1.
         11   -1    0    0    0    0 -0.00000000000E+00 -0.00000000000E+00 -0.45593999997E+02  0.45594000000E+02  0.51100000000E-03 0.  1.
    9900012    2    1    2    0    0  0.35511417464E+02  0.90974007458E+01 -0.17588194108E+02  0.50528830768E+02  0.29999911604E+02 0.  0.
        -12    1    1    2    0    0 -0.35511417464E+02 -0.90974007458E+01  0.17588194108E+02  0.40659169232E+02  0.00000000000E+00 0.  1.
         11    1    3    3    0    0  0.35721948047E+02  0.51337165088E+01 -0.14783593326E+02  0.38999580118E+02  0.51100000000E-03 0. -1.
        -11    1    3    3    0    0  0.10449092735E+01  0.68082157354E+01  0.60545754526E+00  0.69144931839E+01  0.51100000000E-03 0.  1.
         12    1    3    3    0    0 -0.12554398570E+01 -0.28445314985E+01 -0.34100583277E+01  0.46147574669E+01  0.00000000000E+00 0. -1.
</event>
<event>
 7    1  0.9865694E-013  0.5052891E+02  0.7816164E-02  0.1300439E+00
        -11   -1    0    0    0    0  0.00000000000E+00  0.00000000000E+00  0.45593999997E+02  0.45594000000E+02  0.51100000000E-03 0. -1.
         11   -1    0    0    0    0 -0.00000000000E+00 -0.00000000000E+00 -0.45593999997E+02  0.45594000000E+02  0.51100000000E-03 0.  1.
    9900012    2    1    2    0    0 -0.25390877630E+02  0.19102197656E+02  0.25368698509E+02  0.50528911395E+02  0.30000156677E+02 0.  0.
        -12    1    1    2    0    0  0.25390877630E+02 -0.19102197656E+02 -0.25368698509E+02  0.40659088605E+02  0.00000000000E+00 0.  1.
         11    1    3    3    0    0 -0.22520269919E+02  0.21504203570E+02  0.13633069611E+02  0.33991968400E+02  0.51100000000E-03 0. -1.
        -11    1    3    3    0    0  0.29139118602E+01 -0.23025891011E+01  0.30591594827E+00  0.37264438444E+01  0.51100000000E-03 0.  1.
         12    1    3    3    0    0 -0.57845195710E+01 -0.99416813402E-01  0.11429712950E+02  0.12810499151E+02  0.00000000000E+00 0. -1.
</event>
<event>
 7    1  0.9865694E-013  0.5052886E+02  0.7816164E-02  0.1300439E+00
        -11   -1    0    0    0    0  0.00000000000E+00  0.00000000000E+00  0.45593999997E+02  0.45594000000E+02  0.51100000000E-03 0.  1.
         11   -1    0    0    0    0 -0.00000000000E+00 -0.00000000000E+00 -0.45593999997E+02  0.45594000000E+02  0.51100000000E-03 0. -1.
    9900012    2    1    2    0    0 -0.31499438162E+02  0.25618938258E+02 -0.21496212651E+01  0.50528862360E+02  0.30000007631E+02 0.  0.
        -12    1    1    2    0    0  0.31499438162E+02 -0.25618938258E+02  0.21496212651E+01  0.40659137640E+02  0.00000000000E+00 0.  1.
         11    1    3    3    0    0 -0.16454537096E+01  0.10631640205E+02 -0.78423384573E+01  0.13313210135E+02  0.51100000000E-03 0. -1.
        -11    1    3    3    0    0 -0.26289060066E+02  0.96601095898E+01  0.97189628227E+01  0.29646089709E+02  0.51100000000E-03 0.  1.
        -12    1    3    3    0    0 -0.35649243867E+01  0.53271884634E+01 -0.40262456306E+01  0.75695625161E+01  0.00000000000E+00 0.  1.
</event>
<event>
 7    1  0.1041182E-012  0.5052884E+02  0.7816164E-02  0.1300439E+00
        -11   -1    0    0    0    0  0.00000000000E+00  0.00000000000E+00  0.45593999997E+02  0.45594000000E+02  0.51100000000E-03 0.  1.
         11   -1    0    0    0    0 -0.00000000000E+00 -0.00000000000E+00 -0.45593999997E+02  0.45594000000E+02  0.51100000000E-03 0. -1.
    9900012    2    1    2    0    0 -0.98325752622E+01  0.32036639065E+02 -0.23024795755E+02  0.50528843609E+02  0.29999950633E+02 0.  0.
        -12    1    1    2    0    0  0.98325752622E+01 -0.32036639065E+02  0.23024795755E+02  0.40659156391E+02  0.00000000000E+00 0.  1.
         11    1    3    3    0    0 -0.30662540534E+01  0.87718055800E+01 -0.17020893564E+02  0.19392197014E+02  0.51100000000E-03 0. -1.
        -11    1    3    3    0    0 -0.10957119795E+02  0.87793418752E+01  0.18034927028E+01  0.14155843463E+02  0.51100000000E-03 0.  1.
        -12    1    3    3    0    0  0.41907985858E+01  0.14485491610E+02 -0.78073948932E+01  0.16980803132E+02  0.00000000000E+00 0.  1.
</event>
<event>
 7    1  0.9865694E-013  0.5052886E+02  0.7816164E-02  0.1300439E+00
        -11   -1    0    0    0    0  0.00000000000E+00  0.00000000000E+00  0.45593999997E+02  0.45594000000E+02  0.51100000000E-03 0. -1.
         11   -1    0    0    0    0 -0.00000000000E+00 -0.00000000000E+00 -0.45593999997E+02  0.45594000000E+02  0.51100000000E-03 0.  1.
    9900012    2    1    2    0    0  0.28385648364E+02  0.28133033289E+02 -0.74802031556E+01  0.50528855465E+02  0.29999986671E+02 0.  0.
        -12    1    1    2    0    0 -0.28385648364E+02 -0.28133033289E+02  0.74802031556E+01  0.40659144535E+02  0.00000000000E+00 0.  1.
         11    1    3    3    0    0 -0.90636266642E+00  0.45215105560E+01 -0.91500262489E+01  0.10246391150E+02  0.51100000000E-03 0. -1.
        -11    1    3    3    0    0  0.10095273021E+02  0.17240631591E+02 -0.97821196008E-01  0.19979076161E+02  0.51100000000E-03 0.  1.
         12    1    3    3    0    0  0.19196738010E+02  0.63708911425E+01  0.17676442893E+01  0.20303388153E+02  0.00000000000E+00 0. -1.
</event>
<event>
 7    1  0.9865694E-013  0.5052886E+02  0.7816164E-02  0.1300439E+00
        -11   -1    0    0    0    0  0.00000000000E+00  0.00000000000E+00  0.45593999997E+02  0.45594000000E+02  0.51100000000E-03 0.  1.
         11   -1    0    0    0    0 -0.00000000000E+00 -0.00000000000E+00 -0.45593999997E+02  0.45594000000E+02  0.51100000000E-03 0. -1.
    9900012    2    1    2    0    0  0.35036961987E+02  0.18602204640E+02  0.89182522353E+01  0.50528856555E+02  0.29999989986E+02 0.  0.
        -12    1    1    2    0    0 -0.35036961987E+02 -0.18602204640E+02 -0.89182522353E+01  0.40659143445E+02  0.00000000000E+00 0.  1.
         11    1    3    3    0    0  0.13225661399E+02 -0.10614033592E+01 -0.28864808918E+01  0.13578529697E+02  0.51100000000E-03 0. -1.
        -11    1    3    3    0    0  0.16407440212E+02  0.22029270870E+02  0.13778208080E+02  0.30729983527E+02  0.51100000000E-03 0.  1.
        -12    1    3    3    0    0  0.54038603748E+01 -0.23656628708E+01 -0.19734749534E+01  0.62203433314E+01  0.00000000000E+00 0.  1.
</event>
<event>
 7    1  0.9865694E-013  0.5052886E+02  0.7816164E-02  0.1300439E+00
        -11   -1    0    0    0    0  0.00000000000E+00  0.00000000000E+00  0.45593999997E+02  0.45594000000E+02  0.51100000000E-03 0. -1.
         11   -1    0    0    0    0 -0.00000000000E+00 -0.00000000000E+00 -0.45593999997E+02  0.45594000000E+02  0.51100000000E-03 0.  1.
    9900012    2    1    2    0    0 -0.33214183689E+02  0.16762101748E+02  0.16401700416E+02  0.50528857982E+02  0.29999994322E+02 0.  0.
        -12    1    1    2    0    0  0.33214183689E+02 -0.16762101748E+02 -0.16401700416E+02  0.40659142018E+02  0.00000000000E+00 0.  1.
         11    1    3    3    0    0 -0.25016594751E+02  0.15835930400E+02  0.16569522730E+02  0.33928686806E+02  0.51100000000E-03 0. -1.
        -11    1    3    3    0    0 -0.35204984850E+01 -0.14630167058E+01 -0.70070520223E+01  0.79770361519E+01  0.51100000000E-03 0.  1.
         12    1    3    3    0    0 -0.46770904525E+01  0.23891880534E+01  0.68392297080E+01  0.86231350247E+01  0.00000000000E+00 0. -1.
</event>
<event>
 7    1  0.9865694E-013  0.5052886E+02  0.7816164E-02  0.1300439E+00
        -11   -1    0    0    0    0  0.00000000000E+00  0.00000000000E+00  0.45593999997E+02  0.45594000000E+02  0.51100000000E-03 0.  1.
         11   -1    0    0    0    0 -0.00000000000E+00 -0.00000000000E+00 -0.45593999997E+02  0.45594000000E+02  0.51100000000E-03 0. -1.
    9900012    2    1    2    0    0  0.85593786013E+01  0.16886218611E+02 -0.35982750945E+02  0.50528859496E+02  0.29999998923E+02 0.  0.
        -12    1    1    2    0    0 -0.85593786013E+01 -0.16886218611E+02  0.35982750945E+02  0.40659140504E+02  0.00000000000E+00 0.  1.
         11    1    3    3    0    0  0.25012725199E+01  0.14900482639E+02 -0.29766835088E+02  0.33381809695E+02  0.51100000000E-03 0. -1.
        -11    1    3    3    0    0  0.84843094364E+01  0.43287531340E+01  0.59852620682E+00  0.95435760693E+01  0.51100000000E-03 0.  1.
         12    1    3    3    0    0 -0.24262033550E+01 -0.23430171625E+01 -0.68144420633E+01  0.76034737310E+01  0.00000000000E+00 0. -1.
</event>
<event>
 7    1  0.9865694E-013  0.5052886E+02  0.7816164E-02  0.1300439E+00
        -11   -1    0    0    0    0  0.00000000000E+00  0.00000000000E+00  0.45593999997E+02  0.45594000000E+02  0.51100000000E-03 0.  1.
         11   -1    0    0    0    0 -0.00000000000E+00 -0.00000000000E+00 -0.45593999997E+02  0.45594000000E+02  0.51100000000E-03 0. -1.
    9900012    2    1    2    0    0 -0.26882094858E+02 -0.51602805688E+01 -0.30064764437E+02  0.50528861050E+02  0.30000003648E+02 0.  0.
        -12    1    1    2    0    0  0.26882094858E+02  0.51602805688E+01  0.30064764437E+02  0.40659138950E+02  0.00000000000E+00 0.  1.
         11    1    3    3    0    0 -0.11204039325E+02 -0.13867653650E+02 -0.77890401669E+01  0.19455371030E+02  0.51100000000E-03 0. -1.
        -11    1    3    3    0    0 -0.15245176124E+01  0.72132135342E+01 -0.65265030736E+01  0.98463112927E+01  0.51100000000E-03 0.  1.
         12    1    3    3    0    0 -0.14153537921E+02  0.14941595469E+01 -0.15749221196E+02  0.21227178727E+02  0.00000000000E+00 0. -1.
</event>
<event>
 7    1  0.9865694E-013  0.5052886E+02  0.7816164E-02  0.1300439E+00
        -11   -1    0    0    0    0  0.00000000000E+00  0.00000000000E+00  0.45593999997E+02  0.45594000000E+02  0.51100000000E-03 0. -1.
         11   -1    0    0    0    0 -0.00000000000E+00 -0.00000000000E+00 -0.45593999997E+02  0.45594000000E+02  0.51100000000E-03 0.  1.
    9900012    2    1    2    0    0 -0.27498401082E+01 -0.29333724020E+02  0.28020287702E+02  0.50528861933E+02  0.30000006331E+02 0.  0.
        -12    1    1    2    0    0  0.27498401082E+01  0.29333724020E+02 -0.28020287702E+02  0.40659138067E+02  0.00000000000E+00 0.  1.
         11    1    3    3    0    0  0.10480076542E+02 -0.92216624229E+01  0.89032487339E+01  0.16557140467E+02  0.51100000000E-03 0. -1.
        -11    1    3    3    0    0 -0.41555043469E+01 -0.11361772778E+02  0.17482424426E+02  0.21260133139E+02  0.51100000000E-03 0.  1.
         12    1    3    3    0    0 -0.90744123038E+01 -0.87502888185E+01  0.16346145422E+01  0.12711588326E+02  0.00000000000E+00 0. -1.
</event>
<event>
 7    1  0.9865694E-013  0.5052882E+02  0.7816164E-02  0.1300439E+00
        -11   -1    0    0    0    0  0.00000000000E+00  0.00000000000E+00  0.45593999997E+02  0.45594000000E+02  0.51100000000E-03 0.  1.
         11   -1    0    0    0    0 -0.00000000000E+00 -0.00000000000E+00 -0.45593999997E+02  0.45594000000E+02  0.51100000000E-03 0. -1.
    9900012    2    1    2    0    0 -0.33219761417E+02 -0.21336663799E+02 -0.97140695349E+01  0.50528820008E+02  0.29999878895E+02 0.  0.
        -12    1    1    2    0    0  0.33219761417E+02  0.21336663799E+02  0.97140695349E+01  0.40659179992E+02  0.00000000000E+00 0.  1.
         11    1    3    3    0    0 -0.26095406048E+02 -0.31122122286E+01 -0.14622558622E+02  0.30074495884E+02  0.51100000000E-03 0. -1.
        -11    1    3    3    0    0 -0.31246089473E+01 -0.12242215922E+02  0.26245467621E+01  0.12904389862E+02  0.51100000000E-03 0.  1.
         12    1    3    3    0    0 -0.39997464219E+01 -0.59822356492E+01  0.22839423253E+01  0.75499342611E+01  0.00000000000E+00 0. -1.
</event>
<event>
 7    1  0.9865694E-013  0.5052884E+02  0.7816164E-02  0.1300439E+00
        -11   -1    0    0    0    0  0.00000000000E+00  0.00000000000E+00  0.45593999997E+02  0.45594000000E+02  0.51100000000E-03 0.  1.
         11   -1    0    0    0    0 -0.00000000000E+00 -0.00000000000E+00 -0.45593999997E+02  0.45594000000E+02  0.51100000000E-03 0. -1.
    9900012    2    1    2    0    0  0.17546236275E+02 -0.36051534795E+02 -0.67515531529E+01  0.50528843117E+02  0.29999949138E+02 0.  0.
        -12    1    1    2    0    0 -0.17546236275E+02  0.36051534795E+02  0.67515531529E+01  0.40659156883E+02  0.00000000000E+00 0.  1.
         11    1    3    3    0    0  0.62010506960E+01 -0.23087027140E+02 -0.53142956870E+00  0.23911216396E+02  0.51100000000E-03 0. -1.
        -11    1    3    3    0    0  0.95902894499E+01 -0.91119365499E+00 -0.99791521184E+01  0.13870378613E+02  0.51100000000E-03 0.  1.
        -12    1    3    3    0    0  0.17548961291E+01 -0.12053313999E+02  0.37590285342E+01  0.12747248108E+02  0.00000000000E+00 0.  1.
</event>
<event>
 7    1  0.9865694E-013  0.5052887E+02  0.7816164E-02  0.1300439E+00
        -11   -1    0    0    0    0  0.00000000000E+00  0.00000000000E+00  0.45593999997E+02  0.45594000000E+02  0.51100000000E-03 0.  1.
         11   -1    0    0    0    0 -0.00000000000E+00 -0.00000000000E+00 -0.45593999997E+02  0.45594000000E+02  0.51100000000E-03 0. -1.
    9900012    2    1    2    0    0  0.37327730348E+02 -0.13619855486E+01 -0.16060840143E+02  0.50528867648E+02  0.30000023702E+02 0.  0.
        -12    1    1    2    0    0 -0.37327730348E+02  0.13619855486E+01  0.16060840143E+02  0.40659132352E+02  0.00000000000E+00 0.  1.
         11    1    3    3    0    0  0.21203077690E+02  0.48103673203E+01 -0.80932914685E+01  0.23199385861E+02  0.51100000000E-03 0. -1.
        -11    1    3    3    0    0  0.13915625104E+01 -0.23475474833E+00 -0.11057492842E+02  0.11147183690E+02  0.51100000000E-03 0.  1.
         12    1    3    3    0    0  0.14733090147E+02 -0.59375981206E+01  0.30899441674E+01  0.16182298097E+02  0.00000000000E+00 0. -1.
</event>
<event>
 7    1  0.9865694E-013  0.5052885E+02  0.7816164E-02  0.1300439E+00
        -11   -1    0    0    0    0  0.00000000000E+00  0.00000000000E+00  0.45593999997E+02  0.45594000000E+02  0.51100000000E-03 0. -1.
         11   -1    0    0    0    0 -0.00000000000E+00 -0.00000000000E+00 -0.45593999997E+02  0.45594000000E+02  0.51100000000E-03 0.  1.
    9900012    2    1    2    0    0  0.39319832526E+02 -0.37271302980E+00  0.10343016382E+02  0.50528854255E+02  0.29999982993E+02 0.  0.
        -12    1    1    2    0    0 -0.39319832526E+02  0.37271302980E+00 -0.10343016382E+02  0.40659145745E+02  0.00000000000E+00 0.  1.
         11    1    3    3    0    0  0.28490159409E+01 -0.30722591852E+01  0.11403249246E+02  0.12148652681E+02  0.51100000000E-03 0. -1.
        -11    1    3    3    0    0  0.30666962856E+02  0.37221429666E+01  0.32735838242E+01  0.31064985279E+02  0.51100000000E-03 0.  1.
        -12    1    3    3    0    0  0.58038537293E+01 -0.10225968112E+01 -0.43338166887E+01  0.73152162948E+01  0.00000000000E+00 0.  1.
</event>
<event>
 7    1  0.9865694E-013  0.5052886E+02  0.7816164E-02  0.1300439E+00
        -11   -1    0    0    0    0  0.00000000000E+00  0.00000000000E+00  0.45593999997E+02  0.45594000000E+02  0.51100000000E-03 0. -1.
         11   -1    0    0    0    0 -0.00000000000E+00 -0.00000000000E+00 -0.45593999997E+02  0.45594000000E+02  0.51100000000E-03 0.  1.
    9900012    2    1    2    0    0  0.70449499183E+01  0.28525336850E+02  0.28104085656E+02  0.50528858441E+02  0.29999995717E+02 0.  0.
        -12    1    1    2    0    0 -0.70449499183E+01 -0.28525336850E+02 -0.28104085656E+02  0.40659141559E+02  0.00000000000E+00 0.  1.
         11    1    3    3    0    0  0.21138835307E+01  0.16864726814E+02  0.46455789800E+01  0.17620128217E+02  0.51100000000E-03 0. -1.
        -11    1    3    3    0    0  0.34982994193E+01  0.33072752475E+01  0.23940477946E+02  0.24419718527E+02  0.51100000000E-03 0.  1.
        -12    1    3    3    0    0  0.14327669683E+01  0.83533347893E+01 -0.48197127009E+00  0.84890116971E+01  0.00000000000E+00 0.  1.
</event>
<event>
 7    1  0.9865694E-013  0.5052887E+02  0.7816164E-02  0.1300439E+00
        -11   -1    0    0    0    0  0.00000000000E+00  0.00000000000E+00  0.45593999997E+02  0.45594000000E+02  0.51100000000E-03 0. -1.
         11   -1    0    0    0    0 -0.00000000000E+00 -0.00000000000E+00 -0.45593999997E+02  0.45594000000E+02  0.51100000000E-03 0.  1.
    9900012    2    1    2    0    0  0.28539541659E+02  0.25600521258E+02  0.13537834975E+02  0.50528866922E+02  0.30000021497E+02 0.  0.
        -12    1    1    2    0    0 -0.28539541659E+02 -0.25600521258E+02 -0.13537834975E+02  0.40659133078E+02  0.00000000000E+00 0.  1.
         11    1    3    3    0    0  0.18246534464E+01 -0.43164696272E+01  0.58558692995E+01  0.75001650486E+01  0.51100000000E-03 0. -1.
        -11    1    3    3    0    0  0.75093546117E+01  0.17070935784E+02 -0.93378798326E-01  0.18649825069E+02  0.51100000000E-03 0.  1.
         12    1    3    3    0    0  0.19205533601E+02  0.12846055101E+02  0.77753444741E+01  0.24378876805E+02  0.00000000000E+00 0. -1.
</event>
<event>
 7    1  0.9865694E-013  0.5052886E+02  0.7816164E-02  0.1300439E+00
        -11   -1    0    0    0    0  0.00000000000E+00  0.00000000000E+00  0.45593999997E+02  0.45594000000E+02  0.51100000000E-03 0. -1.
         11   -1    0    0    0    0 -0.00000000000E+00 -0.00000000000E+00 -0.45593999997E+02  0.45594000000E+02  0.51100000000E-03 0.  1.
    9900012    2    1    2    0    0  0.22918902342E+02  0.31477308737E+01  0.33436225595E+02  0.50528862328E+02  0.30000007531E+02 0.  0.
        -12    1    1    2    0    0 -0.22918902342E+02 -0.31477308737E+01 -0.33436225595E+02  0.40659137672E+02  0.00000000000E+00 0.  1.
         11    1    3    3    0    0 -0.26446401682E+01 -0.61505111037E+01  0.10841017508E+02  0.12741686283E+02  0.51100000000E-03 0. -1.
        -11    1    3    3    0    0  0.13198940239E+02  0.75904470534E+01  0.46353635305E+01  0.15915825622E+02  0.51100000000E-03 0.  1.
         12    1    3    3    0    0  0.12364602271E+02  0.17077949239E+01  0.17959844557E+02  0.21871350423E+02  0.00000000000E+00 0. -1.
</event>
<event>
 7    1  0.9865694E-013  0.5052885E+02  0.7816164E-02  0.1300439E+00
        -11   -1    0    0    0    0  0.00000000000E+00  0.00000000000E+00  0.45593999997E+02  0.45594000000E+02  0.51100000000E-03 0. -1.
         11   -1    0    0    0    0 -0.00000000000E+00 -0.00000000000E+00 -0.45593999997E+02  0.45594000000E+02  0.51100000000E-03 0.  1.
    9900012    2    1    2    0    0 -0.29852007894E+02 -0.16733134950E+02  0.21955096246E+02  0.50528850578E+02  0.29999971816E+02 0.  0.
        -12    1    1    2    0    0  0.29852007894E+02  0.16733134950E+02 -0.21955096246E+02  0.40659149422E+02  0.00000000000E+00 0.  1.
         11    1    3    3    0    0 -0.13168617608E+01 -0.26459116922E+00  0.11367934759E+01  0.17596684494E+01  0.51100000000E-03 0. -1.
        -11    1    3    3    0    0 -0.20320082488E+02 -0.92438158069E+01 -0.30326693392E+01  0.22528891818E+02  0.51100000000E-03 0.  1.
        -12    1    3    3    0    0 -0.82150636453E+01 -0.72247279743E+01  0.23850972109E+02  0.26240290310E+02  0.00000000000E+00 0.  1.
</event>
<event>
 7    1  0.9865694E-013  0.5052886E+02  0.7816164E-02  0.1300439E+00
        -11   -1    0    0    0    0  0.00000000000E+00  0.00000000000E+00  0.45593999997E+02  0.45594000000E+02  0.51100000000E-03 0. -1.
         11   -1    0    0    0    0 -0.00000000000E+00 -0.00000000000E+00 -0.45593999997E+02  0.45594000000E+02  0.51100000000E-03 0.  1.
    9900012    2    1    2    0    0 -0.33591015942E+02  0.11035891611E+02 -0.20075317150E+02  0.50528860629E+02  0.30000002369E+02 0.  0.
        -12    1    1    2    0    0  0.33591015942E+02 -0.11035891611E+02  0.20075317150E+02  0.40659139371E+02  0.00000000000E+00 0.  1.
         11    1    3    3    0    0 -0.18006770486E+02  0.46153255920E+00 -0.15940143866E+01  0.18083077110E+02  0.51100000000E-03 0. -1.
        -11    1    3    3    0    0 -0.97446172808E+00  0.10888352074E+02 -0.34056466672E+01  0.11450074936E+02  0.51100000000E-03 0.  1.
        -12    1    3    3    0    0 -0.14609783728E+02 -0.31399302224E+00 -0.15075656096E+02  0.20995708584E+02  0.00000000000E+00 0.  1.
</event>
<event>
 7    1  0.9865694E-013  0.5052889E+02  0.7816164E-02  0.1300439E+00
        -11   -1    0    0    0    0  0.00000000000E+00  0.00000000000E+00  0.45593999997E+02  0.45594000000E+02  0.51100000000E-03 0. -1.
         11   -1    0    0    0    0 -0.00000000000E+00 -0.00000000000E+00 -0.45593999997E+02  0.45594000000E+02  0.51100000000E-03 0.  1.
    9900012    2    1    2    0    0  0.10962509788E+02  0.22437361403E+02  0.32086627134E+02  0.50528887265E+02  0.30000083329E+02 0.  0.
        -12    1    1    2    0    0 -0.10962509788E+02 -0.22437361403E+02 -0.32086627134E+02  0.40659112735E+02  0.00000000000E+00 0.  1.
         11    1    3    3    0    0 -0.56863749054E+01  0.11322815749E+02  0.19144637151E+02  0.22957747014E+02  0.51100000000E-03 0. -1.
        -11    1    3    3    0    0  0.12220209236E+02  0.12131102759E+02  0.14757750109E+02  0.22677926635E+02  0.51100000000E-03 0.  1.
         12    1    3    3    0    0  0.44286754578E+01 -0.10165571045E+01 -0.18157601259E+01  0.48932136160E+01  0.00000000000E+00 0. -1.
</event>
<event>
 7    1  0.9865694E-013  0.5052887E+02  0.7816164E-02  0.1300439E+00
        -11   -1    0    0    0    0  0.00000000000E+00  0.00000000000E+00  0.45593999997E+02  0.45594000000E+02  0.51100000000E-03 0. -1.
         11   -1    0    0    0    0 -0.00000000000E+00 -0.00000000000E+00 -0.45593999997E+02  0.45594000000E+02  0.51100000000E-03 0.  1.
    9900012    2    1    2    0    0 -0.25014422781E+02 -0.24104715114E+02  0.21128328476E+02  0.50528869390E+02  0.30000028996E+02 0.  0.
        -12    1    1    2    0    0  0.25014422781E+02  0.24104715114E+02 -0.21128328476E+02  0.40659130610E+02  0.00000000000E+00 0.  1.
         11    1    3    3    0    0 -0.21792987304E+02 -0.15551771757E+02  0.17537074153E+02  0.32005325659E+02  0.51100000000E-03 0. -1.
        -11    1    3    3    0    0 -0.21509104402E+01 -0.13189944240E+02  0.32419325678E+01  0.13751769770E+02  0.51100000000E-03 0.  1.
        -12    1    3    3    0    0 -0.10705250368E+01  0.46370008831E+01  0.34932175573E+00  0.47717739608E+01  0.00000000000E+00 0.  1.
</event>
<event>
 7    1  0.9865694E-013  0.5052890E+02  0.7816164E-02  0.1300439E+00
        -11   -1    0    0    0    0  0.00000000000E+00  0.00000000000E+00  0.45593999997E+02  0.45594000000E+02  0.51100000000E-03 0.  1.
         11   -1    0    0    0    0 -0.00000000000E+00 -0.00000000000E+00 -0.45593999997E+02  0.45594000000E+02  0.51100000000E-03 0. -1.
    9900012    2    1    2    0    0  0.50578383937E+01  0.34603879642E+02  0.20740115117E+02  0.50528897814E+02  0.30000115395E+02 0.  0.
        -12    1    1    2    0    0 -0.50578383937E+01 -0.34603879642E+02 -0.20740115117E+02  0.40659102186E+02  0.00000000000E+00 0.  1.
         11    1    3    3    0    0 -0.36495079632E+01  0.51987639060E+01 -0.19477287945E+01  0.66437716879E+01  0.51100000000E-03 0. -1.
        -11    1    3    3    0    0  0.17946896187E+01  0.14242006772E+02  0.23121444763E+02  0.27215011959E+02  0.51100000000E-03 0.  1.
        -12    1    3    3    0    0  0.69126567382E+01  0.15163108965E+02 -0.43360085136E+00  0.16670114167E+02  0.00000000000E+00 0.  1.
</event>
<event>
 7    1  0.9865694E-013  0.5052884E+02  0.7816164E-02  0.1300439E+00
        -11   -1    0    0    0    0  0.00000000000E+00  0.00000000000E+00  0.45593999997E+02  0.45594000000E+02  0.51100000000E-03 0. -1.
         11   -1    0    0    0    0 -0.00000000000E+00 -0.00000000000E+00 -0.45593999997E+02  0.45594000000E+02  0.51100000000E-03 0.  1.
    9900012    2    1    2    0    0 -0.32726979589E+02 -0.57322512531E+01  0.23436147546E+02  0.50528844706E+02  0.29999953969E+02 0.  0.
        -12    1    1    2    0    0  0.32726979589E+02  0.57322512531E+01 -0.23436147546E+02  0.40659155294E+02  0.00000000000E+00 0.  1.
         11    1    3    3    0    0 -0.20045477766E+02  0.31576870066E+01  0.11532995017E+02  0.23340996988E+02  0.51100000000E-03 0. -1.
        -11    1    3    3    0    0  0.48232398886E+01 -0.32181524798E+01  0.12697640197E+01  0.59356928267E+01  0.51100000000E-03 0.  1.
         12    1    3    3    0    0 -0.17504741712E+02 -0.56717857800E+01  0.10633388509E+02  0.21252154891E+02  0.00000000000E+00 0. -1.
</event>
<event>
 7    1  0.9865694E-013  0.5052879E+02  0.7816164E-02  0.1300439E+00
        -11   -1    0    0    0    0  0.00000000000E+00  0.00000000000E+00  0.45593999997E+02  0.45594000000E+02  0.51100000000E-03 0.  1.
         11   -1    0    0    0    0 -0.00000000000E+00 -0.00000000000E+00 -0.45593999997E+02  0.45594000000E+02  0.51100000000E-03 0. -1.
    9900012    2    1    2    0    0  0.31647150365E+02 -0.23810945460E+01 -0.25415728977E+02  0.50528794193E+02  0.29999800427E+02 0.  0.
        -12    1    1    2    0    0 -0.31647150365E+02  0.23810945460E+01  0.25415728977E+02  0.40659205807E+02  0.00000000000E+00 0.  1.
         11    1    3    3    0    0  0.23276092604E+02  0.11472424107E+02 -0.12980952247E+02  0.29015480752E+02  0.51100000000E-03 0. -1.
        -11    1    3    3    0    0 -0.26114900218E+00 -0.46511340445E+01 -0.51483476458E+01  0.69431066854E+01  0.51100000000E-03 0.  1.
         12    1    3    3    0    0  0.86322067631E+01 -0.92023846084E+01 -0.72864290850E+01  0.14570206755E+02  0.00000000000E+00 0. -1.
</event>
<event>
 7    1  0.9865694E-013  0.5052882E+02  0.7816164E-02  0.1300439E+00
        -11   -1    0    0    0    0  0.00000000000E+00  0.00000000000E+00  0.45593999997E+02  0.45594000000E+02  0.51100000000E-03 0. -1.
         11   -1    0    0    0    0 -0.00000000000E+00 -0.00000000000E+00 -0.45593999997E+02  0.45594000000E+02  0.51100000000E-03 0.  1.
    9900012    2    1    2    0    0 -0.32150555451E+02 -0.78262326723E+01  0.23627550861E+02  0.50528815388E+02  0.29999864852E+02 0.  0.
        -12    1    1    2    0    0  0.32150555451E+02  0.78262326723E+01 -0.23627550861E+02  0.40659184612E+02  0.00000000000E+00 0.  1.
         11    1    3    3    0    0 -0.95716125204E+01 -0.78705522123E+01  0.86275956838E+01  0.15099561779E+02  0.51100000000E-03 0. -1.
        -11    1    3    3    0    0 -0.14744899544E+02  0.10648943865E+02  0.12339672597E+02  0.21979071593E+02  0.51100000000E-03 0.  1.
        -12    1    3    3    0    0 -0.78340433866E+01 -0.10604624325E+02  0.26602825803E+01  0.13450182016E+02  0.00000000000E+00 0.  1.
</event>
<event>
 7    1  0.9865694E-013  0.5052886E+02  0.7816164E-02  0.1300439E+00
        -11   -1    0    0    0    0  0.00000000000E+00  0.00000000000E+00  0.45593999997E+02  0.45594000000E+02  0.51100000000E-03 0.  1.
         11   -1    0    0    0    0 -0.00000000000E+00 -0.00000000000E+00 -0.45593999997E+02  0.45594000000E+02  0.51100000000E-03 0. -1.
    9900012    2    1    2    0    0 -0.13886546624E+02  0.21754546366E+02 -0.31417658832E+02  0.50528858946E+02  0.29999997252E+02 0.  0.
        -12    1    1    2    0    0  0.13886546624E+02 -0.21754546366E+02  0.31417658832E+02  0.40659141054E+02  0.00000000000E+00 0.  1.
         11    1    3    3    0    0 -0.83116994075E+01  0.14820654677E+02 -0.71145885255E+01  0.18421550484E+02  0.51100000000E-03 0. -1.
        -11    1    3    3    0    0 -0.44642407929E+01 -0.18689395298E+01 -0.22549576209E+02  0.23063082367E+02  0.51100000000E-03 0.  1.
        -12    1    3    3    0    0 -0.11106064241E+01  0.88028312187E+01 -0.17534940980E+01  0.90442260944E+01  0.00000000000E+00 0.  1.
</event>
<event>
 7    1  0.9865694E-013  0.5052885E+02  0.7816164E-02  0.1300439E+00
        -11   -1    0    0    0    0  0.00000000000E+00  0.00000000000E+00  0.45593999997E+02  0.45594000000E+02  0.51100000000E-03 0.  1.
         11   -1    0    0    0    0 -0.00000000000E+00 -0.00000000000E+00 -0.45593999997E+02  0.45594000000E+02  0.51100000000E-03 0. -1.
    9900012    2    1    2    0    0 -0.39050853982E+02 -0.11247533476E+02  0.13001704203E+01  0.50528847904E+02  0.29999963690E+02 0.  0.
        -12    1    1    2    0    0  0.39050853982E+02  0.11247533476E+02 -0.13001704203E+01  0.40659152096E+02  0.00000000000E+00 0.  1.
         11    1    3    3    0    0 -0.11891076759E+02 -0.37678495361E+01 -0.56079141897E+01  0.13676370076E+02  0.51100000000E-03 0. -1.
        -11    1    3    3    0    0 -0.20983910003E+02  0.52339978389E+01  0.69564119225E+01  0.22718073851E+02  0.51100000000E-03 0.  1.
        -12    1    3    3    0    0 -0.61758672198E+01 -0.12713681778E+02 -0.48327312464E-01  0.14134403978E+02  0.00000000000E+00 0.  1.
</event>
<event>
 7    1  0.9865694E-013  0.5052887E+02  0.7816164E-02  0.1300439E+00
        -11   -1    0    0    0    0  0.00000000000E+00  0.00000000000E+00  0.45593999997E+02  0.45594000000E+02  0.51100000000E-03 0.  1.
         11   -1    0    0    0    0 -0.00000000000E+00 -0.00000000000E+00 -0.45593999997E+02  0.45594000000E+02  0.51100000000E-03 0. -1.
    9900012    2    1    2    0    0 -0.36916789747E+02 -0.11945218681E+02  0.12150202622E+02  0.50528867714E+02  0.30000023902E+02 0.  0.
        -12    1    1    2    0    0  0.36916789747E+02  0.11945218681E+02 -0.12150202622E+02  0.40659132286E+02  0.00000000000E+00 0.  1.
         11    1    3    3    0    0 -0.10923360520E+02 -0.65484539735E+01 -0.45920732183E+01  0.13538433854E+02  0.51100000000E-03 0. -1.
        -11    1    3    3    0    0 -0.28027107344E+02 -0.18994113725E+01  0.17168494036E+02  0.32922388999E+02  0.51100000000E-03 0.  1.
        -12    1    3    3    0    0  0.20336781184E+01 -0.34973533354E+01 -0.42621819656E+00  0.40680448612E+01  0.00000000000E+00 0.  1.
</event>
<event>
 7    1  0.9865694E-013  0.5052887E+02  0.7816164E-02  0.1300439E+00
        -11   -1    0    0    0    0  0.00000000000E+00  0.00000000000E+00  0.45593999997E+02  0.45594000000E+02  0.51100000000E-03 0.  1.
         11   -1    0    0    0    0 -0.00000000000E+00 -0.00000000000E+00 -0.45593999997E+02  0.45594000000E+02  0.51100000000E-03 0. -1.
    9900012    2    1    2    0    0 -0.26782798181E+02  0.30451807176E+02 -0.29213138788E+01  0.50528869249E+02  0.30000028569E+02 0.  0.
        -12    1    1    2    0    0  0.26782798181E+02 -0.30451807176E+02  0.29213138788E+01  0.40659130751E+02  0.00000000000E+00 0.  1.
         11    1    3    3    0    0 -0.34724554098E+01  0.73672691507E+01  0.80955224997E+01  0.11483557207E+02  0.51100000000E-03 0. -1.
        -11    1    3    3    0    0 -0.89332363782E+01  0.10203159480E+02 -0.14024431431E+02  0.19508763487E+02  0.51100000000E-03 0.  1.
         12    1    3    3    0    0 -0.14377106393E+02  0.12881378545E+02  0.30075950526E+01  0.19536548555E+02  0.00000000000E+00 0. -1.
</event>
<event>
 7    1  0.1034469E-012  0.5052887E+02  0.7816164E-02  0.1300439E+00
        -11   -1    0    0    0    0  0.00000000000E+00  0.00000000000E+00  0.45593999997E+02  0.45594000000E+02  0.51100000000E-03 0.  1.
         11   -1    0    0    0    0 -0.00000000000E+00 -0.00000000000E+00 -0.45593999997E+02  0.45594000000E+02  0.51100000000E-03 0. -1.
    9900012    2    1    2    0    0 -0.35677516107E+02  0.12863489429E+02 -0.14656420607E+02  0.50528865960E+02  0.30000018573E+02 0.  0.
        -12    1    1    2    0    0  0.35677516107E+02 -0.12863489429E+02  0.14656420607E+02  0.40659134040E+02  0.00000000000E+00 0.  1.
         11    1    3    3    0    0 -0.74300128576E+01  0.29062887957E+01 -0.13111262403E+02  0.15347860036E+02  0.51100000000E-03 0. -1.
        -11    1    3    3    0    0 -0.12257171040E+02 -0.27736687416E+01  0.52814883824E+01  0.13631786383E+02  0.51100000000E-03 0.  1.
        -12    1    3    3    0    0 -0.15990332209E+02  0.12730869375E+02 -0.68266465862E+01  0.21549219541E+02  0.00000000000E+00 0.  1.
</event>
<event>
 7    1  0.9865694E-013  0.5052884E+02  0.7816164E-02  0.1300439E+00
        -11   -1    0    0    0    0  0.00000000000E+00  0.00000000000E+00  0.45593999997E+02  0.45594000000E+02  0.51100000000E-03 0. -1.
         11   -1    0    0    0    0 -0.00000000000E+00 -0.00000000000E+00 -0.45593999997E+02  0.45594000000E+02  0.51100000000E-03 0.  1.
    9900012    2    1    2    0    0  0.34396115365E+02  0.89749083042E+01  0.19736398978E+02  0.50528841427E+02  0.29999944002E+02 0.  0.
        -12    1    1    2    0    0 -0.34396115365E+02 -0.89749083042E+01 -0.19736398978E+02  0.40659158573E+02  0.00000000000E+00 0.  1.
         11    1    3    3    0    0  0.11641869336E+02  0.13124460661E+02  0.20167872851E+02  0.26730650663E+02  0.51100000000E-03 0. -1.
        -11    1    3    3    0    0  0.20865416502E+02 -0.20456038878E+01 -0.46413333264E+00  0.20970587047E+02  0.51100000000E-03 0.  1.
         12    1    3    3    0    0  0.18888295268E+01 -0.21039484689E+01  0.32659459019E-01  0.28276037172E+01  0.00000000000E+00 0. -1.
</event>
<event>
 7    1  0.9865694E-013  0.5052884E+02  0.7816164E-02  0.1300439E+00
        -11   -1    0    0    0    0  0.00000000000E+00  0.00000000000E+00  0.45593999997E+02  0.45594000000E+02  0.51100000000E-03 0.  1.
         11   -1    0    0    0    0 -0.00000000000E+00 -0.00000000000E+00 -0.45593999997E+02  0.45594000000E+02  0.51100000000E-03 0. -1.
    9900012    2    1    2    0    0 -0.26596484594E+02 -0.18423413094E+02 -0.24624623384E+02  0.50528840889E+02  0.29999942367E+02 0.  0.
        -12    1    1    2    0    0  0.26596484594E+02  0.18423413094E+02  0.24624623384E+02  0.40659159111E+02  0.00000000000E+00 0.  1.
         11    1    3    3    0    0 -0.93061387641E+01 -0.16064751172E+02 -0.70174269729E+01  0.19847537139E+02  0.51100000000E-03 0. -1.
        -11    1    3    3    0    0 -0.92404081007E+01 -0.25783868778E+01 -0.20082741497E+02  0.22256453605E+02  0.51100000000E-03 0.  1.
        -12    1    3    3    0    0 -0.80499377290E+01  0.21972495561E+00  0.24755450864E+01  0.84248501454E+01  0.00000000000E+00 0.  1.
</event>
<event>
 7    1  0.9865694E-013  0.5052886E+02  0.7816164E-02  0.1300439E+00
        -11   -1    0    0    0    0  0.00000000000E+00  0.00000000000E+00  0.45593999997E+02  0.45594000000E+02  0.51100000000E-03 0. -1.
         11   -1    0    0    0    0 -0.00000000000E+00 -0.00000000000E+00 -0.45593999997E+02  0.45594000000E+02  0.51100000000E-03 0.  1.
    9900012    2    1    2    0    0 -0.70034312502E+01 -0.33700047378E+02  0.21643122979E+02  0.50528855704E+02  0.29999987399E+02 0.  0.
        -12    1    1    2    0    0  0.70034312502E+01  0.33700047378E+02 -0.21643122979E+02  0.40659144296E+02  0.00000000000E+00 0.  1.
         11    1    3    3    0    0 -0.61260588039E+01 -0.52414074503E+01 -0.49164835160E+01  0.94431328992E+01  0.51100000000E-03 0.  1.
        -11    1    3    3    0    0 -0.69055128071E-01 -0.63713594547E+01  0.14657894126E+02  0.15982892428E+02  0.51100000000E-03 0. -1.
         12    1    3    3    0    0 -0.80831731824E+00 -0.22087280473E+02  0.11901712369E+02  0.25102830377E+02  0.00000000000E+00 0. -1.
</event>
<event>
 7    1  0.9865694E-013  0.5052887E+02  0.7816164E-02  0.1300439E+00
        -11   -1    0    0    0    0  0.00000000000E+00  0.00000000000E+00  0.45593999997E+02  0.45594000000E+02  0.51100000000E-03 0.  1.
         11   -1    0    0    0    0 -0.00000000000E+00 -0.00000000000E+00 -0.45593999997E+02  0.45594000000E+02  0.51100000000E-03 0. -1.
    9900012    2    1    2    0    0  0.21429702988E+02 -0.61753792780E+00 -0.34547815480E+02  0.50528867229E+02  0.30000022430E+02 0.  0.
        -12    1    1    2    0    0 -0.21429702988E+02  0.61753792780E+00  0.34547815480E+02  0.40659132771E+02  0.00000000000E+00 0.  1.
         11    1    3    3    0    0  0.19844237125E+02 -0.96244787818E+01 -0.32764156950E+02  0.39495750655E+02  0.51100000000E-03 0. -1.
        -11    1    3    3    0    0 -0.34106221808E+00  0.75560945707E+01 -0.32259725432E+01  0.82230035698E+01  0.51100000000E-03 0.  1.
         12    1    3    3    0    0  0.19265280813E+01  0.14508462833E+01  0.14423140134E+01  0.28101130047E+01  0.00000000000E+00 0. -1.
</event>
<event>
 7    1  0.9865694E-013  0.5052887E+02  0.7816164E-02  0.1300439E+00
        -11   -1    0    0    0    0  0.00000000000E+00  0.00000000000E+00  0.45593999997E+02  0.45594000000E+02  0.51100000000E-03 0. -1.
         11   -1    0    0    0    0 -0.00000000000E+00 -0.00000000000E+00 -0.45593999997E+02  0.45594000000E+02  0.51100000000E-03 0.  1.
    9900012    2    1    2    0    0  0.17510865988E+02  0.47949074516E+01  0.36380533611E+02  0.50528870755E+02  0.30000033146E+02 0.  0.
        -12    1    1    2    0    0 -0.17510865988E+02 -0.47949074516E+01 -0.36380533611E+02  0.40659129245E+02  0.00000000000E+00 0.  1.
         11    1    3    3    0    0  0.19716522163E+02 -0.21933243160E+01  0.23853504838E+02  0.31024854731E+02  0.51100000000E-03 0. -1.
        -11    1    3    3    0    0 -0.55903143169E+01  0.41406866959E+01  0.13304018433E+02  0.15013121168E+02  0.51100000000E-03 0.  1.
        -12    1    3    3    0    0  0.33846581426E+01  0.28475450717E+01 -0.77698965961E+00  0.44908948561E+01  0.00000000000E+00 0.  1.
</event>
<event>
 7    1  0.9865694E-013  0.5052900E+02  0.7816164E-02  0.1300438E+00
        -11   -1    0    0    0    0  0.00000000000E+00  0.00000000000E+00  0.45593999997E+02  0.45594000000E+02  0.51100000000E-03 0. -1.
         11   -1    0    0    0    0 -0.00000000000E+00 -0.00000000000E+00 -0.45593999997E+02  0.45594000000E+02  0.51100000000E-03 0.  1.
    9900012    2    1    2    0    0 -0.28253664075E+02  0.29237431114E+02 -0.23935305848E+00  0.50529000975E+02  0.30000428962E+02 0.  0.
        -12    1    1    2    0    0  0.28253664075E+02 -0.29237431114E+02  0.23935305848E+00  0.40658999025E+02  0.00000000000E+00 0.  1.
         11    1    3    3    0    0 -0.62060902677E+00  0.91488655414E+01 -0.10721193837E+02  0.14107830939E+02  0.51100000000E-03 0. -1.
        -11    1    3    3    0    0 -0.26183462798E+01  0.11000170115E+01  0.30116220983E+01  0.41395220244E+01  0.51100000000E-03 0.  1.
         12    1    3    3    0    0 -0.25014708768E+02  0.18988548561E+02  0.74702186803E+01  0.32281648012E+02  0.00000000000E+00 0. -1.
</event>
<event>
 7    1  0.9865694E-013  0.5052874E+02  0.7816164E-02  0.1300439E+00
        -11   -1    0    0    0    0  0.00000000000E+00  0.00000000000E+00  0.45593999997E+02  0.45594000000E+02  0.51100000000E-03 0. -1.
         11   -1    0    0    0    0 -0.00000000000E+00 -0.00000000000E+00 -0.45593999997E+02  0.45594000000E+02  0.51100000000E-03 0.  1.
    9900012    2    1    2    0    0  0.38695636493E+02  0.46127322142E+01  0.11599401362E+02  0.50528736676E+02  0.29999625598E+02 0.  0.
        -12    1    1    2    0    0 -0.38695636493E+02 -0.46127322142E+01 -0.11599401362E+02  0.40659263324E+02  0.00000000000E+00 0.  1.
         11    1    3    3    0    0  0.27142536302E+02  0.26333680999E+00  0.63749972708E+01  0.27882381779E+02  0.51100000000E-03 0. -1.
        -11    1    3    3    0    0  0.94388662438E+00  0.74356272576E+01  0.82939008061E+01  0.11178920588E+02  0.51100000000E-03 0.  1.
        -12    1    3    3    0    0  0.10609213567E+02 -0.30862318534E+01 -0.30694967147E+01  0.11467434309E+02  0.00000000000E+00 0.  1.
</event>
<event>
 7    1  0.9865694E-013  0.5052886E+02  0.7816164E-02  0.1300439E+00
        -11   -1    0    0    0    0  0.00000000000E+00  0.00000000000E+00  0.45593999997E+02  0.45594000000E+02  0.51100000000E-03 0. -1.
         11   -1    0    0    0    0 -0.00000000000E+00 -0.00000000000E+00 -0.45593999997E+02  0.45594000000E+02  0.51100000000E-03 0.  1.
    9900012    2    1    2    0    0  0.39611827827E+02  0.86789604923E+01  0.29571176654E+01  0.50528858298E+02  0.29999995282E+02 0.  0.
        -12    1    1    2    0    0 -0.39611827827E+02 -0.86789604923E+01 -0.29571176654E+01  0.40659141702E+02  0.00000000000E+00 0.  1.
         11    1    3    3    0    0  0.25535059411E+02  0.12158457724E+02 -0.69878016453E+01  0.29132399926E+02  0.51100000000E-03 0. -1.
        -11    1    3    3    0    0 -0.17456228276E+01 -0.25404458381E+01  0.13395064338E+01  0.33608543348E+01  0.51100000000E-03 0.  1.
         12    1    3    3    0    0  0.15822391244E+02 -0.93905139397E+00  0.86054128769E+01  0.18035604037E+02  0.00000000000E+00 0. -1.
</event>
<event>
 7    1  0.9865694E-013  0.5052887E+02  0.7816164E-02  0.1300439E+00
        -11   -1    0    0    0    0  0.00000000000E+00  0.00000000000E+00  0.45593999997E+02  0.45594000000E+02  0.51100000000E-03 0. -1.
         11   -1    0    0    0    0 -0.00000000000E+00 -0.00000000000E+00 -0.45593999997E+02  0.45594000000E+02  0.51100000000E-03 0.  1.
    9900012    2    1    2    0    0  0.24958081980E+02 -0.30118314068E+02  0.11097133428E+02  0.50528867340E+02  0.30000022766E+02 0.  0.
        -12    1    1    2    0    0 -0.24958081980E+02  0.30118314068E+02 -0.11097133428E+02  0.40659132660E+02  0.00000000000E+00 0.  1.
         11    1    3    3    0    0  0.24439224724E+02 -0.13608040219E+02  0.11802889090E+02  0.30360544377E+02  0.51100000000E-03 0. -1.
        -11    1    3    3    0    0 -0.54937216777E+01 -0.71926237820E+01 -0.71837270688E+00  0.90791450230E+01  0.51100000000E-03 0.  1.
        -12    1    3    3    0    0  0.60125789333E+01 -0.93176500665E+01  0.12617044061E-01  0.11089177940E+02  0.00000000000E+00 0.  1.
</event>
<event>
 7    1  0.9865694E-013  0.5052887E+02  0.7816164E-02  0.1300439E+00
        -11   -1    0    0    0    0  0.00000000000E+00  0.00000000000E+00  0.45593999997E+02  0.45594000000E+02  0.51100000000E-03 0. -1.
         11   -1    0    0    0    0 -0.00000000000E+00 -0.00000000000E+00 -0.45593999997E+02  0.45594000000E+02  0.51100000000E-03 0.  1.
    9900012    2    1    2    0    0  0.15928613146E+02 -0.36802118441E+02  0.67118106060E+01  0.50528867691E+02  0.30000023834E+02 0.  0.
        -12    1    1    2    0    0 -0.15928613146E+02  0.36802118441E+02 -0.67118106060E+01  0.40659132309E+02  0.00000000000E+00 0.  1.
         11    1    3    3    0    0  0.30585707951E+01 -0.68545888814E+01  0.14615343285E+02  0.16430109666E+02  0.51100000000E-03 0. -1.
        -11    1    3    3    0    0  0.54841108082E+01 -0.19162594559E+02 -0.30949331992E+01  0.20170748954E+02  0.51100000000E-03 0.  1.
         12    1    3    3    0    0  0.73859315431E+01 -0.10784935000E+02 -0.48085994801E+01  0.13928009071E+02  0.00000000000E+00 0. -1.
</event>
<event>
 7    1  0.9865694E-013  0.5052886E+02  0.7816164E-02  0.1300439E+00
        -11   -1    0    0    0    0  0.00000000000E+00  0.00000000000E+00  0.45593999997E+02  0.45594000000E+02  0.51100000000E-03 0.  1.
         11   -1    0    0    0    0 -0.00000000000E+00 -0.00000000000E+00 -0.45593999997E+02  0.45594000000E+02  0.51100000000E-03 0. -1.
    9900012    2    1    2    0    0  0.24185203113E+02  0.15812451307E+02 -0.28604336822E+02  0.50528858949E+02  0.29999997263E+02 0.  0.
        -12    1    1    2    0    0 -0.24185203113E+02 -0.15812451307E+02  0.28604336822E+02  0.40659141051E+02  0.00000000000E+00 0.  1.
         11    1    3    3    0    0  0.77662429507E+01  0.13831956148E+02 -0.28617725882E+02  0.32720204391E+02  0.51100000000E-03 0. -1.
        -11    1    3    3    0    0 -0.48434632502E+00 -0.50877045672E+00 -0.16723807731E+00  0.72208557375E+00  0.51100000000E-03 0.  1.
         12    1    3    3    0    0  0.16903306488E+02  0.24892656155E+01  0.18062713759E+00  0.17086568985E+02  0.00000000000E+00 0. -1.
</event>
<event>
 7    1  0.9865694E-013  0.5052886E+02  0.7816164E-02  0.1300439E+00
        -11   -1    0    0    0    0  0.00000000000E+00  0.00000000000E+00  0.45593999997E+02  0.45594000000E+02  0.51100000000E-03 0. -1.
         11   -1    0    0    0    0 -0.00000000000E+00 -0.00000000000E+00 -0.45593999997E+02  0.45594000000E+02  0.51100000000E-03 0.  1.
    9900012    2    1    2    0    0 -0.14391693537E+02 -0.18166721125E+02  0.33406812233E+02  0.50528859541E+02  0.29999999060E+02 0.  0.
        -12    1    1    2    0    0  0.14391693537E+02  0.18166721125E+02 -0.33406812233E+02  0.40659140459E+02  0.00000000000E+00 0.  1.
         11    1    3    3    0    0  0.78373755371E+00 -0.89595454530E+01  0.45284287230E+01  0.10069476959E+02  0.51100000000E-03 0. -1.
        -11    1    3    3    0    0 -0.94711735312E+01  0.15438500073E+01  0.53223302076E+00  0.96109246773E+01  0.51100000000E-03 0.  1.
        -12    1    3    3    0    0 -0.57042575598E+01 -0.10751025679E+02  0.28346150490E+02  0.30848457904E+02  0.00000000000E+00 0.  1.
</event>
<event>
 7    1  0.9865694E-013  0.5052886E+02  0.7816164E-02  0.1300439E+00
        -11   -1    0    0    0    0  0.00000000000E+00  0.00000000000E+00  0.45593999997E+02  0.45594000000E+02  0.51100000000E-03 0. -1.
         11   -1    0    0    0    0 -0.00000000000E+00 -0.00000000000E+00 -0.45593999997E+02  0.45594000000E+02  0.51100000000E-03 0.  1.
    9900012    2    1    2    0    0  0.18519085492E+02 -0.24057977816E+02  0.27044823462E+02  0.50528864493E+02  0.30000014114E+02 0.  0.
        -12    1    1    2    0    0 -0.18519085492E+02  0.24057977816E+02 -0.27044823462E+02  0.40659135507E+02  0.00000000000E+00 0.  1.
         11    1    3    3    0    0  0.19167873407E+02 -0.38842129759E+01  0.14035365049E+02  0.24072514487E+02  0.51100000000E-03 0. -1.
        -11    1    3    3    0    0 -0.52951911192E+01 -0.54566112210E+01  0.43151273338E+01  0.87426528682E+01  0.51100000000E-03 0.  1.
         12    1    3    3    0    0  0.46464032034E+01 -0.14717153619E+02  0.86943310797E+01  0.17713697138E+02  0.00000000000E+00 0. -1.
</event>
<event>
 7    1  0.9865694E-013  0.5052886E+02  0.7816164E-02  0.1300439E+00
        -11   -1    0    0    0    0  0.00000000000E+00  0.00000000000E+00  0.45593999997E+02  0.45594000000E+02  0.51100000000E-03 0.  1.
         11   -1    0    0    0    0 -0.00000000000E+00 -0.00000000000E+00 -0.45593999997E+02  0.45594000000E+02  0.51100000000E-03 0. -1.
    9900012    2    1    2    0    0  0.13291539881E+02  0.32079477881E+01 -0.38291114486E+02  0.50528863142E+02  0.30000010007E+02 0.  0.
        -12    1    1    2    0    0 -0.13291539881E+02 -0.32079477881E+01  0.38291114486E+02  0.40659136858E+02  0.00000000000E+00 0.  1.
         11    1    3    3    0    0  0.15416367202E+02 -0.95418577632E+01 -0.24026099561E+02  0.30099250616E+02  0.51100000000E-03 0. -1.
        -11    1    3    3    0    0 -0.18178532481E+01  0.11467601409E+02 -0.81787915981E+01  0.14202221826E+02  0.51100000000E-03 0.  1.
         12    1    3    3    0    0 -0.30697407317E+00  0.12822041419E+01 -0.60862233278E+01  0.62273907007E+01  0.00000000000E+00 0. -1.
</event>
<event>
 7    1  0.1391283E-012  0.5052886E+02  0.7816164E-02  0.1300439E+00
        -11   -1    0    0    0    0  0.00000000000E+00  0.00000000000E+00  0.45593999997E+02  0.45594000000E+02  0.51100000000E-03 0.  1.
         11   -1    0    0    0    0 -0.00000000000E+00 -0.00000000000E+00 -0.45593999997E+02  0.45594000000E+02  0.51100000000E-03 0. -1.
    9900012    2    1    2    0    0  0.39258660528E+02 -0.10512136089E+02  0.11908235492E+01  0.50528862130E+02  0.30000006931E+02 0.  0.
        -12    1    1    2    0    0 -0.39258660528E+02  0.10512136089E+02 -0.11908235492E+01  0.40659137870E+02  0.00000000000E+00 0.  1.
         11    1    3    3    0    0  0.33114192691E+02 -0.13916216165E+02 -0.64246676940E+00  0.35925250086E+02  0.51100000000E-03 0. -1.
        -11    1    3    3    0    0  0.26003935025E+01  0.23679615625E+01  0.72442478185E+01  0.80528513612E+01  0.51100000000E-03 0.  1.
        -12    1    3    3    0    0  0.35440743344E+01  0.10361185141E+01 -0.54109574998E+01  0.65507606832E+01  0.00000000000E+00 0.  1.
</event>
<event>
 7    1  0.9865694E-013  0.5052886E+02  0.7816164E-02  0.1300439E+00
        -11   -1    0    0    0    0  0.00000000000E+00  0.00000000000E+00  0.45593999997E+02  0.45594000000E+02  0.51100000000E-03 0.  1.
         11   -1    0    0    0    0 -0.00000000000E+00 -0.00000000000E+00 -0.45593999997E+02  0.45594000000E+02  0.51100000000E-03 0. -1.
    9900012    2    1    2    0    0 -0.22379029080E+02  0.32310600721E+02  0.10410073730E+02  0.50528862078E+02  0.30000006771E+02 0.  0.
        -12    1    1    2    0    0  0.22379029080E+02 -0.32310600721E+02 -0.10410073730E+02  0.40659137922E+02  0.00000000000E+00 0.  1.
         11    1    3    3    0    0 -0.15762595528E+02  0.11403083942E+02 -0.41432590030E+01  0.19891112000E+02  0.51100000000E-03 0. -1.
        -11    1    3    3    0    0  0.41801863984E+01  0.11694239117E+02  0.92530248788E+01  0.15487015740E+02  0.51100000000E-03 0.  1.
        -12    1    3    3    0    0 -0.10796619950E+02  0.92132776625E+01  0.53003078541E+01  0.15150734338E+02  0.00000000000E+00 0.  1.
</event>
<event>
 7    1  0.9865694E-013  0.5052886E+02  0.7816164E-02  0.1300439E+00
        -11   -1    0    0    0    0  0.00000000000E+00  0.00000000000E+00  0.45593999997E+02  0.45594000000E+02  0.51100000000E-03 0. -1.
         11   -1    0    0    0    0 -0.00000000000E+00 -0.00000000000E+00 -0.45593999997E+02  0.45594000000E+02  0.51100000000E-03 0.  1.
    9900012    2    1    2    0    0  0.94565155830E+01  0.14649906670E+02  0.36730371773E+02  0.50528860031E+02  0.30000000551E+02 0.  0.
        -12    1    1    2    0    0 -0.94565155830E+01 -0.14649906670E+02 -0.36730371773E+02  0.40659139969E+02  0.00000000000E+00 0.  1.
         11    1    3    3    0    0  0.10300558762E+02  0.10649190324E+02  0.39969290534E+02  0.42626880620E+02  0.51100000000E-03 0. -1.
        -11    1    3    3    0    0 -0.32201403626E+01  0.35239787029E+01 -0.19444253862E+01  0.51544660438E+01  0.51100000000E-03 0.  1.
         12    1    3    3    0    0  0.23760971837E+01  0.47673764327E+00 -0.12944933747E+01  0.27475133674E+01  0.00000000000E+00 0. -1.
</event>
<event>
 7    1  0.9865694E-013  0.5052885E+02  0.7816164E-02  0.1300439E+00
        -11   -1    0    0    0    0  0.00000000000E+00  0.00000000000E+00  0.45593999997E+02  0.45594000000E+02  0.51100000000E-03 0.  1.
         11   -1    0    0    0    0 -0.00000000000E+00 -0.00000000000E+00 -0.45593999997E+02  0.45594000000E+02  0.51100000000E-03 0. -1.
    9900012    2    1    2    0    0  0.22811052193E+02  0.19188663112E+02 -0.27651716533E+02  0.50528851935E+02  0.29999975942E+02 0.  0.
        -12    1    1    2    0    0 -0.22811052193E+02 -0.19188663112E+02  0.27651716533E+02  0.40659148065E+02  0.00000000000E+00 0.  1.
         11    1    3    3    0    0  0.24146134536E+02  0.14000407430E+02 -0.15591105349E+02  0.31970764575E+02  0.51100000000E-03 0. -1.
        -11    1    3    3    0    0 -0.35696876084E+00  0.50891954783E+01  0.12164156865E+01  0.52447120699E+01  0.51100000000E-03 0.  1.
         12    1    3    3    0    0 -0.97811358275E+00  0.99060204301E-01 -0.13277026871E+02  0.13313375291E+02  0.00000000000E+00 0. -1.
</event>
<event>
 7    1  0.9865694E-013  0.5052885E+02  0.7816164E-02  0.1300439E+00
        -11   -1    0    0    0    0  0.00000000000E+00  0.00000000000E+00  0.45593999997E+02  0.45594000000E+02  0.51100000000E-03 0.  1.
         11   -1    0    0    0    0 -0.00000000000E+00 -0.00000000000E+00 -0.45593999997E+02  0.45594000000E+02  0.51100000000E-03 0. -1.
    9900012    2    1    2    0    0 -0.69675918931E+01 -0.19570399886E+02 -0.34951663431E+02  0.50528847709E+02  0.29999963095E+02 0.  0.
        -12    1    1    2    0    0  0.69675918931E+01  0.19570399886E+02  0.34951663431E+02  0.40659152291E+02  0.00000000000E+00 0.  1.
         11    1    3    3    0    0 -0.94175476321E+01 -0.20544238354E+02 -0.27621790174E+02  0.35689203208E+02  0.51100000000E-03 0. -1.
        -11    1    3    3    0    0 -0.14007764472E+01  0.61636060890E+01 -0.26159675058E+01  0.68407237138E+01  0.51100000000E-03 0.  1.
         12    1    3    3    0    0  0.38507321863E+01 -0.51897676205E+01 -0.47139057507E+01  0.79989207867E+01  0.00000000000E+00 0. -1.
</event>
<event>
 7    1  0.9865694E-013  0.5052886E+02  0.7816164E-02  0.1300439E+00
        -11   -1    0    0    0    0  0.00000000000E+00  0.00000000000E+00  0.45593999997E+02  0.45594000000E+02  0.51100000000E-03 0.  1.
         11   -1    0    0    0    0 -0.00000000000E+00 -0.00000000000E+00 -0.45593999997E+02  0.45594000000E+02  0.51100000000E-03 0. -1.
    9900012    2    1    2    0    0 -0.12903500143E+01 -0.39499151808E+02 -0.95560479686E+01  0.50528855278E+02  0.29999986103E+02 0.  0.
        -12    1    1    2    0    0  0.12903500143E+01  0.39499151808E+02  0.95560479686E+01  0.40659144722E+02  0.00000000000E+00 0.  1.
         11    1    3    3    0    0 -0.43650513374E+01  0.30344552552E+01 -0.62007754424E+00  0.53522040596E+01  0.51100000000E-03 0. -1.
        -11    1    3    3    0    0 -0.14654483114E+01 -0.10241865646E+02  0.24578040946E+01  0.10634103249E+02  0.51100000000E-03 0.  1.
         12    1    3    3    0    0  0.45401496344E+01 -0.32291741417E+02 -0.11393774519E+02  0.34542547970E+02  0.00000000000E+00 0. -1.
</event>
<event>
 7    1  0.9865694E-013  0.5052883E+02  0.7816164E-02  0.1300439E+00
        -11   -1    0    0    0    0  0.00000000000E+00  0.00000000000E+00  0.45593999997E+02  0.45594000000E+02  0.51100000000E-03 0.  1.
         11   -1    0    0    0    0 -0.00000000000E+00 -0.00000000000E+00 -0.45593999997E+02  0.45594000000E+02  0.51100000000E-03 0. -1.
    9900012    2    1    2    0    0  0.34809872841E+02  0.11969890670E+02 -0.17267384611E+02  0.50528830049E+02  0.29999909415E+02 0.  0.
        -12    1    1    2    0    0 -0.34809872841E+02 -0.11969890670E+02  0.17267384611E+02  0.40659169951E+02  0.00000000000E+00 0.  1.
         11    1    3    3    0    0  0.34797783894E+02  0.14850868844E+02 -0.12892097056E+02  0.39970492067E+02  0.51100000000E-03 0. -1.
        -11    1    3    3    0    0 -0.26710258233E+00  0.15173839169E+01 -0.57411764343E+01  0.59443170214E+01  0.51100000000E-03 0.  1.
         12    1    3    3    0    0  0.27919152898E+00 -0.43983620905E+01  0.13658888788E+01  0.46140209599E+01  0.00000000000E+00 0. -1.
</event>
<event>
 7    1  0.9865694E-013  0.5052886E+02  0.7816164E-02  0.1300439E+00
        -11   -1    0    0    0    0  0.00000000000E+00  0.00000000000E+00  0.45593999997E+02  0.45594000000E+02  0.51100000000E-03 0. -1.
         11   -1    0    0    0    0 -0.00000000000E+00 -0.00000000000E+00 -0.45593999997E+02  0.45594000000E+02  0.51100000000E-03 0.  1.
    9900012    2    1    2    0    0 -0.62223552104E+00  0.17455066963E+02  0.36716469798E+02  0.50528859648E+02  0.29999999385E+02 0.  0.
        -12    1    1    2    0    0  0.62223552104E+00 -0.17455066963E+02 -0.36716469798E+02  0.40659140352E+02  0.00000000000E+00 0.  1.
         11    1    3    3    0    0 -0.12350770902E+01 -0.13533714451E+00  0.29661878249E+02  0.29687888997E+02  0.51100000000E-03 0. -1.
        -11    1    3    3    0    0  0.39526763715E+00  0.38834165154E+00 -0.15208704192E+01  0.16186700826E+01  0.51100000000E-03 0.  1.
         12    1    3    3    0    0  0.21757393196E+00  0.17202062456E+02  0.85754619683E+01  0.19222300568E+02  0.00000000000E+00 0. -1.
</event>
<event>
 7    1  0.9865694E-013  0.5052887E+02  0.7816164E-02  0.1300439E+00
        -11   -1    0    0    0    0  0.00000000000E+00  0.00000000000E+00  0.45593999997E+02  0.45594000000E+02  0.51100000000E-03 0.  1.
         11   -1    0    0    0    0 -0.00000000000E+00 -0.00000000000E+00 -0.45593999997E+02  0.45594000000E+02  0.51100000000E-03 0. -1.
    9900012    2    1    2    0    0 -0.16852078981E+02 -0.35708396822E+01 -0.36829623298E+02  0.50528872928E+02  0.30000039752E+02 0.  0.
        -12    1    1    2    0    0  0.16852078981E+02  0.35708396822E+01  0.36829623298E+02  0.40659127072E+02  0.00000000000E+00 0.  1.
         11    1    3    3    0    0 -0.17120490840E+01  0.56819825158E+01 -0.24387283572E+02  0.25098917061E+02  0.51100000000E-03 0. -1.
        -11    1    3    3    0    0 -0.35070919531E+01 -0.47924810142E+01  0.20830882852E+01  0.62933953717E+01  0.51100000000E-03 0.  1.
         12    1    3    3    0    0 -0.11632937943E+02 -0.44603411838E+01 -0.14525428011E+02  0.19136560495E+02  0.00000000000E+00 0. -1.
</event>
<event>
 7    1  0.9865694E-013  0.5052886E+02  0.7816164E-02  0.1300439E+00
        -11   -1    0    0    0    0  0.00000000000E+00  0.00000000000E+00  0.45593999997E+02  0.45594000000E+02  0.51100000000E-03 0. -1.
         11   -1    0    0    0    0 -0.00000000000E+00 -0.00000000000E+00 -0.45593999997E+02  0.45594000000E+02  0.51100000000E-03 0.  1.
    9900012    2    1    2    0    0  0.31180303478E+02 -0.18770408073E+02  0.18128049246E+02  0.50528859408E+02  0.29999998656E+02 0.  0.
        -12    1    1    2    0    0 -0.31180303478E+02  0.18770408073E+02 -0.18128049246E+02  0.40659140592E+02  0.00000000000E+00 0.  1.
         11    1    3    3    0    0  0.16260742153E+02 -0.98313793728E+01  0.19646700327E+02  0.27332409146E+02  0.51100000000E-03 0. -1.
        -11    1    3    3    0    0 -0.22582745788E+01 -0.18601060331E+01 -0.34425378736E+01  0.45178386203E+01  0.51100000000E-03 0.  1.
        -12    1    3    3    0    0  0.17177835904E+02 -0.70789226673E+01  0.19238867933E+01  0.18678611642E+02  0.00000000000E+00 0.  1.
</event>
<event>
 7    1  0.9865694E-013  0.5052887E+02  0.7816164E-02  0.1300439E+00
        -11   -1    0    0    0    0  0.00000000000E+00  0.00000000000E+00  0.45593999997E+02  0.45594000000E+02  0.51100000000E-03 0.  1.
         11   -1    0    0    0    0 -0.00000000000E+00 -0.00000000000E+00 -0.45593999997E+02  0.45594000000E+02  0.51100000000E-03 0. -1.
    9900012    2    1    2    0    0  0.20638065053E+02 -0.11143677242E+02 -0.33212249658E+02  0.50528870657E+02  0.30000032849E+02 0.  0.
        -12    1    1    2    0    0 -0.20638065053E+02  0.11143677242E+02  0.33212249658E+02  0.40659129343E+02  0.00000000000E+00 0.  1.
         11    1    3    3    0    0  0.15302386671E+02 -0.81137522987E+01 -0.25829528412E+02  0.31099205013E+02  0.51100000000E-03 0. -1.
        -11    1    3    3    0    0  0.38003559622E+00  0.32195062794E+01  0.42376349073E+01  0.53354660159E+01  0.51100000000E-03 0.  1.
        -12    1    3    3    0    0  0.49556427858E+01 -0.62494312231E+01 -0.11620356153E+02  0.14094199628E+02  0.00000000000E+00 0.  1.
</event>
<event>
 7    1  0.9865694E-013  0.5052885E+02  0.7816164E-02  0.1300439E+00
        -11   -1    0    0    0    0  0.00000000000E+00  0.00000000000E+00  0.45593999997E+02  0.45594000000E+02  0.51100000000E-03 0.  1.
         11   -1    0    0    0    0 -0.00000000000E+00 -0.00000000000E+00 -0.45593999997E+02  0.45594000000E+02  0.51100000000E-03 0. -1.
    9900012    2    1    2    0    0  0.25583190177E+02 -0.17371713211E+02 -0.26398680251E+02  0.50528851478E+02  0.29999974554E+02 0.  0.
        -12    1    1    2    0    0 -0.25583190177E+02  0.17371713211E+02  0.26398680251E+02  0.40659148522E+02  0.00000000000E+00 0.  1.
         11    1    3    3    0    0  0.79202695142E+01  0.66560900564E+00 -0.18487385806E+02  0.20123546873E+02  0.51100000000E-03 0. -1.
        -11    1    3    3    0    0  0.19204001606E+02 -0.12339072492E+02 -0.36301125260E+01  0.23113288491E+02  0.51100000000E-03 0.  1.
        -12    1    3    3    0    0 -0.15410809434E+01 -0.56982497244E+01 -0.42811819183E+01  0.72920161145E+01  0.00000000000E+00 0.  1.
</event>
<event>
 7    1  0.9865694E-013  0.5052885E+02  0.7816164E-02  0.1300439E+00
        -11   -1    0    0    0    0  0.00000000000E+00  0.00000000000E+00  0.45593999997E+02  0.45594000000E+02  0.51100000000E-03 0.  1.
         11   -1    0    0    0    0 -0.00000000000E+00 -0.00000000000E+00 -0.45593999997E+02  0.45594000000E+02  0.51100000000E-03 0. -1.
    9900012    2    1    2    0    0  0.76034293550E+01 -0.18538356463E+02 -0.35379137632E+02  0.50528853699E+02  0.29999981304E+02 0.  0.
        -12    1    1    2    0    0 -0.76034293550E+01  0.18538356463E+02  0.35379137632E+02  0.40659146301E+02  0.00000000000E+00 0.  1.
         11    1    3    3    0    0  0.27916995612E+01  0.85180899467E+00  0.66990049276E-01  0.29195295736E+01  0.51100000000E-03 0. -1.
        -11    1    3    3    0    0  0.42273823502E+01 -0.17151307723E+02 -0.39315106630E+02  0.43101226523E+02  0.51100000000E-03 0.  1.
        -12    1    3    3    0    0  0.58434744360E+00 -0.22388577343E+01  0.38689789487E+01  0.45080976026E+01  0.00000000000E+00 0.  1.
</event>
<event>
 7    1  0.9865694E-013  0.5052886E+02  0.7816164E-02  0.1300439E+00
        -11   -1    0    0    0    0  0.00000000000E+00  0.00000000000E+00  0.45593999997E+02  0.45594000000E+02  0.51100000000E-03 0. -1.
         11   -1    0    0    0    0 -0.00000000000E+00 -0.00000000000E+00 -0.45593999997E+02  0.45594000000E+02  0.51100000000E-03 0.  1.
    9900012    2    1    2    0    0 -0.13693511895E+01  0.39619401414E+02  0.90329169158E+01  0.50528859834E+02  0.29999999950E+02 0.  0.
        -12    1    1    2    0    0  0.13693511895E+01 -0.39619401414E+02 -0.90329169158E+01  0.40659140166E+02  0.00000000000E+00 0.  1.
         11    1    3    3    0    0 -0.11554438520E+02  0.24983969394E+02  0.11837177785E+02  0.29963687263E+02  0.51100000000E-03 0. -1.
        -11    1    3    3    0    0  0.24372124856E+01  0.11912658513E+02 -0.15601826064E+01  0.12259103050E+02  0.51100000000E-03 0.  1.
         12    1    3    3    0    0  0.77478748446E+01  0.27227735060E+01 -0.12440782624E+01  0.83060695214E+01  0.00000000000E+00 0. -1.
</event>
<event>
 7    1  0.9865694E-013  0.5052885E+02  0.7816164E-02  0.1300439E+00
        -11   -1    0    0    0    0  0.00000000000E+00  0.00000000000E+00  0.45593999997E+02  0.45594000000E+02  0.51100000000E-03 0.  1.
         11   -1    0    0    0    0 -0.00000000000E+00 -0.00000000000E+00 -0.45593999997E+02  0.45594000000E+02  0.51100000000E-03 0. -1.
    9900012    2    1    2    0    0  0.37843392831E+02 -0.12954169385E+02 -0.72961470737E+01  0.50528847924E+02  0.29999963748E+02 0.  0.
        -12    1    1    2    0    0 -0.37843392831E+02  0.12954169385E+02  0.72961470737E+01  0.40659152076E+02  0.00000000000E+00 0.  1.
         11    1    3    3    0    0  0.27766478332E+02 -0.17991456120E+02 -0.10348765631E+02  0.34666507794E+02  0.51100000000E-03 0. -1.
        -11    1    3    3    0    0  0.14894792015E+01  0.11658637894E+01  0.57588599502E+01  0.60615389839E+01  0.51100000000E-03 0.  1.
         12    1    3    3    0    0  0.85874352982E+01  0.38714229456E+01 -0.27062413925E+01  0.98008011457E+01  0.00000000000E+00 0. -1.
</event>
<event>
 7    1  0.9865694E-013  0.5052886E+02  0.7816164E-02  0.1300439E+00
        -11   -1    0    0    0    0  0.00000000000E+00  0.00000000000E+00  0.45593999997E+02  0.45594000000E+02  0.51100000000E-03 0. -1.
         11   -1    0    0    0    0 -0.00000000000E+00 -0.00000000000E+00 -0.45593999997E+02  0.45594000000E+02  0.51100000000E-03 0.  1.
    9900012    2    1    2    0    0  0.38029519707E+02 -0.47315224323E+01  0.13584318497E+02  0.50528863478E+02  0.30000011029E+02 0.  0.
        -12    1    1    2    0    0 -0.38029519707E+02  0.47315224323E+01 -0.13584318497E+02  0.40659136522E+02  0.00000000000E+00 0.  1.
         11    1    3    3    0    0  0.89339669471E+01 -0.20981498024E+01  0.93788164831E+01  0.13121745192E+02  0.51100000000E-03 0. -1.
        -11    1    3    3    0    0  0.26392474590E+02  0.53104383920E+01 -0.19626164270E+01  0.26992875623E+02  0.51100000000E-03 0.  1.
        -12    1    3    3    0    0  0.27030781692E+01 -0.79438110218E+01  0.61681184408E+01  0.10414242663E+02  0.00000000000E+00 0.  1.
</event>
<event>
 7    1  0.9865694E-013  0.5052886E+02  0.7816164E-02  0.1300439E+00
        -11   -1    0    0    0    0  0.00000000000E+00  0.00000000000E+00  0.45593999997E+02  0.45594000000E+02  0.51100000000E-03 0.  1.
         11   -1    0    0    0    0 -0.00000000000E+00 -0.00000000000E+00 -0.45593999997E+02  0.45594000000E+02  0.51100000000E-03 0. -1.
    9900012    2    1    2    0    0 -0.22978231191E+02  0.31638125900E+02 -0.11144323080E+02  0.50528855198E+02  0.29999985860E+02 0.  0.
        -12    1    1    2    0    0  0.22978231191E+02 -0.31638125900E+02  0.11144323080E+02  0.40659144802E+02  0.00000000000E+00 0.  1.
         11    1    3    3    0    0 -0.24543940791E+01  0.98176231535E+01 -0.44132339384E+01  0.11040217785E+02  0.51100000000E-03 0. -1.
        -11    1    3    3    0    0 -0.11840848140E+02  0.96748378315E+01  0.90466660580E+01  0.17766551122E+02  0.51100000000E-03 0.  1.
        -12    1    3    3    0    0 -0.86829889714E+01  0.12145664915E+02 -0.15777755200E+02  0.21722086291E+02  0.00000000000E+00 0.  1.
</event>
<event>
 7    1  0.9865694E-013  0.5052886E+02  0.7816164E-02  0.1300439E+00
        -11   -1    0    0    0    0  0.00000000000E+00  0.00000000000E+00  0.45593999997E+02  0.45594000000E+02  0.51100000000E-03 0.  1.
         11   -1    0    0    0    0 -0.00000000000E+00 -0.00000000000E+00 -0.45593999997E+02  0.45594000000E+02  0.51100000000E-03 0. -1.
    9900012    2    1    2    0    0 -0.10356299097E+02  0.11406660954E+02 -0.37627123578E+02  0.50528864817E+02  0.30000015098E+02 0.  0.
        -12    1    1    2    0    0  0.10356299097E+02 -0.11406660954E+02  0.37627123578E+02  0.40659135183E+02  0.00000000000E+00 0.  1.
         11    1    3    3    0    0  0.29287236550E+01 -0.34866471078E+01 -0.22574571356E+02  0.23029229307E+02  0.51100000000E-03 0. -1.
        -11    1    3    3    0    0 -0.13773175526E+02  0.10115045191E+02 -0.14934902636E+02  0.22695061584E+02  0.51100000000E-03 0.  1.
         12    1    3    3    0    0  0.48815277388E+00  0.47782628701E+01 -0.11764958566E+00  0.48045739261E+01  0.00000000000E+00 0. -1.
</event>
<event>
 7    1  0.9865694E-013  0.5052886E+02  0.7816164E-02  0.1300439E+00
        -11   -1    0    0    0    0  0.00000000000E+00  0.00000000000E+00  0.45593999997E+02  0.45594000000E+02  0.51100000000E-03 0. -1.
         11   -1    0    0    0    0 -0.00000000000E+00 -0.00000000000E+00 -0.45593999997E+02  0.45594000000E+02  0.51100000000E-03 0.  1.
    9900012    2    1    2    0    0  0.25159568419E+02 -0.30176651599E+02  0.10465710121E+02  0.50528864826E+02  0.30000015126E+02 0.  0.
        -12    1    1    2    0    0 -0.25159568419E+02  0.30176651599E+02 -0.10465710121E+02  0.40659135174E+02  0.00000000000E+00 0.  1.
         11    1    3    3    0    0  0.25979645822E+02 -0.31496966247E+02  0.15961263035E+02  0.43837915070E+02  0.51100000000E-03 0. -1.
        -11    1    3    3    0    0 -0.74958833480E+00  0.17840489763E+01 -0.10135897977E+01  0.21845086314E+01  0.51100000000E-03 0.  1.
         12    1    3    3    0    0 -0.70489067956E-01 -0.46373432810E+00 -0.44819631158E+01  0.45064411244E+01  0.00000000000E+00 0. -1.
</event>
<event>
 7    1  0.9865694E-013  0.5052886E+02  0.7816164E-02  0.1300439E+00
        -11   -1    0    0    0    0  0.00000000000E+00  0.00000000000E+00  0.45593999997E+02  0.45594000000E+02  0.51100000000E-03 0.  1.
         11   -1    0    0    0    0 -0.00000000000E+00 -0.00000000000E+00 -0.45593999997E+02  0.45594000000E+02  0.51100000000E-03 0. -1.
    9900012    2    1    2    0    0 -0.20748650292E+02 -0.34646577672E+01 -0.34794473432E+02  0.50528859283E+02  0.29999998277E+02 0.  0.
        -12    1    1    2    0    0  0.20748650292E+02  0.34646577672E+01  0.34794473432E+02  0.40659140717E+02  0.00000000000E+00 0.  1.
         11    1    3    3    0    0 -0.21106914994E+02 -0.67821664176E+01 -0.20265715205E+02  0.30036625225E+02  0.51100000000E-03 0. -1.
        -11    1    3    3    0    0  0.49472798069E+01 -0.31085488439E+01 -0.94278282075E+01  0.11091555273E+02  0.51100000000E-03 0.  1.
         12    1    3    3    0    0 -0.45890151055E+01  0.64260574943E+01 -0.51009300203E+01  0.94006787856E+01  0.00000000000E+00 0. -1.
</event>
<event>
 7    1  0.9865694E-013  0.5052886E+02  0.7816164E-02  0.1300439E+00
        -11   -1    0    0    0    0  0.00000000000E+00  0.00000000000E+00  0.45593999997E+02  0.45594000000E+02  0.51100000000E-03 0.  1.
         11   -1    0    0    0    0 -0.00000000000E+00 -0.00000000000E+00 -0.45593999997E+02  0.45594000000E+02  0.51100000000E-03 0. -1.
    9900012    2    1    2    0    0 -0.23115103868E+02  0.34058490303E+01 -0.33275483133E+02  0.50528860656E+02  0.30000002450E+02 0.  0.
        -12    1    1    2    0    0  0.23115103868E+02 -0.34058490303E+01  0.33275483133E+02  0.40659139344E+02  0.00000000000E+00 0.  1.
         11    1    3    3    0    0 -0.25015726946E+02  0.70310692512E+01 -0.22255425094E+02  0.34212957718E+02  0.51100000000E-03 0. -1.
        -11    1    3    3    0    0  0.32390457095E+01  0.33201330103E+01 -0.25933654834E+01  0.53141551639E+01  0.51100000000E-03 0.  1.
         12    1    3    3    0    0 -0.13384226313E+01 -0.69453532312E+01 -0.84266925559E+01  0.11001747774E+02  0.00000000000E+00 0. -1.
</event>
<event>
 7    1  0.9865694E-013  0.5052886E+02  0.7816164E-02  0.1300439E+00
        -11   -1    0    0    0    0  0.00000000000E+00  0.00000000000E+00  0.45593999997E+02  0.45594000000E+02  0.51100000000E-03 0.  1.
         11   -1    0    0    0    0 -0.00000000000E+00 -0.00000000000E+00 -0.45593999997E+02  0.45594000000E+02  0.51100000000E-03 0. -1.
    9900012    2    1    2    0    0  0.10772486933E+02  0.38700999170E+02  0.62731180418E+01  0.50528858083E+02  0.29999994628E+02 0.  0.
        -12    1    1    2    0    0 -0.10772486933E+02 -0.38700999170E+02 -0.62731180418E+01  0.40659141917E+02  0.00000000000E+00 0.  1.
         11    1    3    3    0    0  0.79240781265E+01  0.43698867755E+01 -0.15142134978E+01  0.91749532622E+01  0.51100000000E-03 0. -1.
        -11    1    3    3    0    0 -0.75710508195E+01  0.18848401751E+02 -0.17656216480E+01  0.20388734123E+02  0.51100000000E-03 0.  1.
        -12    1    3    3    0    0  0.10419459626E+02  0.15482710644E+02  0.95529531877E+01  0.20965170698E+02  0.00000000000E+00 0.  1.
</event>
<event>
 7    1  0.9865694E-013  0.5052886E+02  0.7816164E-02  0.1300439E+00
        -11   -1    0    0    0    0  0.00000000000E+00  0.00000000000E+00  0.45593999997E+02  0.45594000000E+02  0.51100000000E-03 0.  1.
         11   -1    0    0    0    0 -0.00000000000E+00 -0.00000000000E+00 -0.45593999997E+02  0.45594000000E+02  0.51100000000E-03 0. -1.
    9900012    2    1    2    0    0 -0.24912621249E+02  0.63326069582E+01 -0.31502784740E+02  0.50528855214E+02  0.29999985908E+02 0.  0.
        -12    1    1    2    0    0  0.24912621249E+02 -0.63326069582E+01  0.31502784740E+02  0.40659144786E+02  0.00000000000E+00 0.  1.
         11    1    3    3    0    0 -0.22133373183E+02  0.22762184096E+01 -0.62933448104E+01  0.23123009490E+02  0.51100000000E-03 0.  1.
        -11    1    3    3    0    0 -0.58187802886E+01  0.45428906935E+01 -0.14619569690E+02  0.16377663999E+02  0.51100000000E-03 0. -1.
         12    1    3    3    0    0  0.30395322223E+01 -0.48650214492E+00 -0.10589870240E+02  0.11028181725E+02  0.00000000000E+00 0. -1.
</event>
<event>
 7    1  0.9865694E-013  0.5052886E+02  0.7816164E-02  0.1300439E+00
        -11   -1    0    0    0    0  0.00000000000E+00  0.00000000000E+00  0.45593999997E+02  0.45594000000E+02  0.51100000000E-03 0.  1.
         11   -1    0    0    0    0 -0.00000000000E+00 -0.00000000000E+00 -0.45593999997E+02  0.45594000000E+02  0.51100000000E-03 0. -1.
    9900012    2    1    2    0    0 -0.17818688151E+02 -0.24853269450E+02 -0.26795052464E+02  0.50528862204E+02  0.30000007154E+02 0.  0.
        -12    1    1    2    0    0  0.17818688151E+02  0.24853269450E+02  0.26795052464E+02  0.40659137796E+02  0.00000000000E+00 0.  1.
         11    1    3    3    0    0 -0.23340425076E+02 -0.12918966349E+02 -0.20605623500E+02  0.33708557584E+02  0.51100000000E-03 0. -1.
        -11    1    3    3    0    0  0.25179980557E+00 -0.20823917145E+01  0.20538362897E+01  0.29356433981E+01  0.51100000000E-03 0.  1.
         12    1    3    3    0    0  0.52699371196E+01 -0.98519113864E+01 -0.82432652535E+01  0.13884661222E+02  0.00000000000E+00 0. -1.
</event>
<event>
 7    1  0.9865694E-013  0.5052888E+02  0.7816164E-02  0.1300439E+00
        -11   -1    0    0    0    0  0.00000000000E+00  0.00000000000E+00  0.45593999997E+02  0.45594000000E+02  0.51100000000E-03 0.  1.
         11   -1    0    0    0    0 -0.00000000000E+00 -0.00000000000E+00 -0.45593999997E+02  0.45594000000E+02  0.51100000000E-03 0. -1.
    9900012    2    1    2    0    0 -0.41547146133E+01  0.34143696906E+02 -0.21682030890E+02  0.50528878570E+02  0.30000056901E+02 0.  0.
        -12    1    1    2    0    0  0.41547146133E+01 -0.34143696906E+02  0.21682030890E+02  0.40659121430E+02  0.00000000000E+00 0.  1.
         11    1    3    3    0    0 -0.64541265956E+01  0.14277216174E+02 -0.30462352993E+01  0.15961647833E+02  0.51100000000E-03 0. -1.
        -11    1    3    3    0    0  0.10894768364E+02  0.62154761596E+01 -0.52197354258E+01  0.13585792571E+02  0.51100000000E-03 0.  1.
        -12    1    3    3    0    0 -0.85953563820E+01  0.13651004573E+02 -0.13416060164E+02  0.20981438166E+02  0.00000000000E+00 0.  1.
</event>
<event>
 7    1  0.9865694E-013  0.5052887E+02  0.7816164E-02  0.1300439E+00
        -11   -1    0    0    0    0  0.00000000000E+00  0.00000000000E+00  0.45593999997E+02  0.45594000000E+02  0.51100000000E-03 0.  1.
         11   -1    0    0    0    0 -0.00000000000E+00 -0.00000000000E+00 -0.45593999997E+02  0.45594000000E+02  0.51100000000E-03 0. -1.
    9900012    2    1    2    0    0 -0.23180943348E+01  0.29580313549E+01 -0.40485080323E+02  0.50528865238E+02  0.30000016376E+02 0.  0.
        -12    1    1    2    0    0  0.23180943348E+01 -0.29580313549E+01  0.40485080323E+02  0.40659134762E+02  0.00000000000E+00 0.  1.
         11    1    3    3    0    0  0.31056320214E+01 -0.23485249891E+01 -0.89705315074E+01  0.97791081221E+01  0.51100000000E-03 0. -1.
        -11    1    3    3    0    0  0.31615903193E+01  0.12805344068E+02 -0.10563870540E+02  0.16898752945E+02  0.51100000000E-03 0.  1.
        -12    1    3    3    0    0 -0.85853166754E+01 -0.74987877236E+01 -0.20950678276E+02  0.23851004171E+02  0.00000000000E+00 0.  1.
</event>
<event>
 7    1  0.9865694E-013  0.5052887E+02  0.7816164E-02  0.1300439E+00
        -11   -1    0    0    0    0  0.00000000000E+00  0.00000000000E+00  0.45593999997E+02  0.45594000000E+02  0.51100000000E-03 0.  1.
         11   -1    0    0    0    0 -0.00000000000E+00 -0.00000000000E+00 -0.45593999997E+02  0.45594000000E+02  0.51100000000E-03 0. -1.
    9900012    2    1    2    0    0 -0.98162042616E+01  0.35412316781E+02 -0.17400435272E+02  0.50528865804E+02  0.30000018097E+02 0.  0.
        -12    1    1    2    0    0  0.98162042616E+01 -0.35412316781E+02  0.17400435272E+02  0.40659134196E+02  0.00000000000E+00 0.  1.
         11    1    3    3    0    0 -0.75559614518E+01  0.30967490159E+01 -0.20113598091E+01  0.84099926559E+01  0.51100000000E-03 0. -1.
        -11    1    3    3    0    0  0.65905634739E+01  0.42990413680E+01 -0.91759146149E+01  0.12087791067E+02  0.51100000000E-03 0.  1.
        -12    1    3    3    0    0 -0.88508062836E+01  0.28016526397E+02 -0.62131608480E+01  0.30031082081E+02  0.00000000000E+00 0.  1.
</event>
<event>
 7    1  0.9865694E-013  0.5052885E+02  0.7816164E-02  0.1300439E+00
        -11   -1    0    0    0    0  0.00000000000E+00  0.00000000000E+00  0.45593999997E+02  0.45594000000E+02  0.51100000000E-03 0.  1.
         11   -1    0    0    0    0 -0.00000000000E+00 -0.00000000000E+00 -0.45593999997E+02  0.45594000000E+02  0.51100000000E-03 0. -1.
    9900012    2    1    2    0    0  0.48677375630E+01 -0.11695318431E+02 -0.38635358675E+02  0.50528852418E+02  0.29999977409E+02 0.  0.
        -12    1    1    2    0    0 -0.48677375630E+01  0.11695318431E+02  0.38635358675E+02  0.40659147582E+02  0.00000000000E+00 0.  1.
         11    1    3    3    0    0 -0.29877049846E+01 -0.11671984242E+02 -0.12334727189E+02  0.17242595289E+02  0.51100000000E-03 0.  1.
        -11    1    3    3    0    0  0.77732867811E+01  0.69122241768E+01 -0.23693628633E+02  0.25876453940E+02  0.51100000000E-03 0. -1.
         12    1    3    3    0    0  0.82155766497E-01 -0.69355583653E+01 -0.26070028524E+01  0.74098031877E+01  0.00000000000E+00 0. -1.
</event>
<event>
 7    1  0.9865694E-013  0.5052884E+02  0.7816164E-02  0.1300439E+00
        -11   -1    0    0    0    0  0.00000000000E+00  0.00000000000E+00  0.45593999997E+02  0.45594000000E+02  0.51100000000E-03 0. -1.
         11   -1    0    0    0    0 -0.00000000000E+00 -0.00000000000E+00 -0.45593999997E+02  0.45594000000E+02  0.51100000000E-03 0.  1.
    9900012    2    1    2    0    0 -0.74587311860E+01 -0.33584328754E+02  0.21670891614E+02  0.50528839260E+02  0.29999937413E+02 0.  0.
        -12    1    1    2    0    0  0.74587311860E+01  0.33584328754E+02 -0.21670891614E+02  0.40659160740E+02  0.00000000000E+00 0.  1.
         11    1    3    3    0    0  0.67685458074E+01 -0.95542022792E+00  0.58310235789E+01  0.89848136540E+01  0.51100000000E-03 0. -1.
        -11    1    3    3    0    0 -0.15557875092E+02 -0.33341981203E+02  0.15776987409E+02  0.40033092809E+02  0.51100000000E-03 0.  1.
        -12    1    3    3    0    0  0.13305980989E+01  0.71307267624E+00  0.62880626406E-01  0.15109327965E+01  0.00000000000E+00 0.  1.
</event>
<event>
 7    1  0.9865694E-013  0.5052882E+02  0.7816164E-02  0.1300439E+00
        -11   -1    0    0    0    0  0.00000000000E+00  0.00000000000E+00  0.45593999997E+02  0.45594000000E+02  0.51100000000E-03 0. -1.
         11   -1    0    0    0    0 -0.00000000000E+00 -0.00000000000E+00 -0.45593999997E+02  0.45594000000E+02  0.51100000000E-03 0.  1.
    9900012    2    1    2    0    0  0.21306371141E+02 -0.27614601064E+02 -0.20895954381E+02  0.50528824497E+02  0.29999892541E+02 0.  0.
        -12    1    1    2    0    0 -0.21306371141E+02  0.27614601064E+02  0.20895954381E+02  0.40659175503E+02  0.00000000000E+00 0.  1.
         11    1    3    3    0    0  0.15318459299E+02 -0.18050574710E+02 -0.95329424320E+01  0.25521665979E+02  0.51100000000E-03 0. -1.
        -11    1    3    3    0    0 -0.52387268554E+01 -0.18841992942E+01  0.20226560124E+01  0.59233101938E+01  0.51100000000E-03 0.  1.
        -12    1    3    3    0    0  0.11226638697E+02 -0.76798270597E+01 -0.13385667961E+02  0.19083848324E+02  0.00000000000E+00 0.  1.
</event>
<event>
 7    1  0.9865694E-013  0.5052886E+02  0.7816164E-02  0.1300439E+00
        -11   -1    0    0    0    0  0.00000000000E+00  0.00000000000E+00  0.45593999997E+02  0.45594000000E+02  0.51100000000E-03 0.  1.
         11   -1    0    0    0    0 -0.00000000000E+00 -0.00000000000E+00 -0.45593999997E+02  0.45594000000E+02  0.51100000000E-03 0. -1.
    9900012    2    1    2    0    0  0.27821166593E+02  0.24404702570E+02 -0.16839204074E+02  0.50528860658E+02  0.30000002457E+02 0.  0.
        -12    1    1    2    0    0 -0.27821166593E+02 -0.24404702570E+02  0.16839204074E+02  0.40659139342E+02  0.00000000000E+00 0.  1.
         11    1    3    3    0    0 -0.44942098503E+01  0.40874800190E+01 -0.93618237504E+01  0.11160159465E+02  0.51100000000E-03 0. -1.
        -11    1    3    3    0    0  0.45151467036E+01  0.46161079474E+01  0.44594884493E+00  0.64725476414E+01  0.51100000000E-03 0.  1.
         12    1    3    3    0    0  0.27800229740E+02  0.15701114604E+02 -0.79233291681E+01  0.32896153552E+02  0.00000000000E+00 0. -1.
</event>
<event>
 7    1  0.9865694E-013  0.5052897E+02  0.7816164E-02  0.1300438E+00
        -11   -1    0    0    0    0  0.00000000000E+00  0.00000000000E+00  0.45593999997E+02  0.45594000000E+02  0.51100000000E-03 0.  1.
         11   -1    0    0    0    0 -0.00000000000E+00 -0.00000000000E+00 -0.45593999997E+02  0.45594000000E+02  0.51100000000E-03 0. -1.
    9900012    2    1    2    0    0 -0.34492909712E+02  0.20811711757E+02  0.55016587969E+01  0.50528973743E+02  0.30000346186E+02 0.  0.
        -12    1    1    2    0    0  0.34492909712E+02 -0.20811711757E+02 -0.55016587969E+01  0.40659026257E+02  0.00000000000E+00 0.  1.
         11    1    3    3    0    0 -0.13522135678E+02  0.57054956452E+00  0.29549215090E+01  0.13852986735E+02  0.51100000000E-03 0. -1.
        -11    1    3    3    0    0 -0.19850804590E+02  0.18852864391E+02 -0.59316869897E+01  0.28011959043E+02  0.51100000000E-03 0.  1.
        -12    1    3    3    0    0 -0.11199694442E+01  0.13882978023E+01  0.84784242776E+01  0.86640279648E+01  0.00000000000E+00 0.  1.
</event>
<event>
 7    1  0.9865694E-013  0.5052887E+02  0.7816164E-02  0.1300439E+00
        -11   -1    0    0    0    0  0.00000000000E+00  0.00000000000E+00  0.45593999997E+02  0.45594000000E+02  0.51100000000E-03 0.  1.
         11   -1    0    0    0    0 -0.00000000000E+00 -0.00000000000E+00 -0.45593999997E+02  0.45594000000E+02  0.51100000000E-03 0. -1.
    9900012    2    1    2    0    0 -0.15833579636E+01 -0.33343535384E+02 -0.23213505943E+02  0.50528865326E+02  0.30000016644E+02 0.  0.
        -12    1    1    2    0    0  0.15833579636E+01  0.33343535384E+02  0.23213505943E+02  0.40659134674E+02  0.00000000000E+00 0.  1.
         11    1    3    3    0    0 -0.32132822798E+01 -0.12366472736E+02 -0.10152410635E+02  0.16319505902E+02  0.51100000000E-03 0. -1.
        -11    1    3    3    0    0 -0.59532386539E+01 -0.98015935193E+00  0.36647066270E+01  0.70591669302E+01  0.51100000000E-03 0.  1.
        -12    1    3    3    0    0  0.75831629701E+01 -0.19996903296E+02 -0.16725801934E+02  0.27150192493E+02  0.00000000000E+00 0.  1.
</event>
<event>
 7    1  0.1009820E-012  0.5052886E+02  0.7816164E-02  0.1300439E+00
        -11   -1    0    0    0    0  0.00000000000E+00  0.00000000000E+00  0.45593999997E+02  0.45594000000E+02  0.51100000000E-03 0.  1.
         11   -1    0    0    0    0 -0.00000000000E+00 -0.00000000000E+00 -0.45593999997E+02  0.45594000000E+02  0.51100000000E-03 0. -1.
    9900012    2    1    2    0    0 -0.27416611971E+02  0.43391390231E+01 -0.29709714056E+02  0.50528857747E+02  0.29999993609E+02 0.  0.
        -12    1    1    2    0    0  0.27416611971E+02 -0.43391390231E+01  0.29709714056E+02  0.40659142253E+02  0.00000000000E+00 0.  1.
         11    1    3    3    0    0 -0.23046781237E+02  0.42967252617E+01 -0.23607482368E+02  0.33270545493E+02  0.51100000000E-03 0. -1.
        -11    1    3    3    0    0 -0.36811008201E+01 -0.57138701672E+01  0.21894857665E+01  0.71409147676E+01  0.51100000000E-03 0.  1.
        -12    1    3    3    0    0 -0.68872991354E+00  0.57562839286E+01 -0.82917174550E+01  0.10117397487E+02  0.00000000000E+00 0.  1.
</event>
<event>
 7    1  0.9865694E-013  0.5052887E+02  0.7816164E-02  0.1300439E+00
        -11   -1    0    0    0    0  0.00000000000E+00  0.00000000000E+00  0.45593999997E+02  0.45594000000E+02  0.51100000000E-03 0. -1.
         11   -1    0    0    0    0 -0.00000000000E+00 -0.00000000000E+00 -0.45593999997E+02  0.45594000000E+02  0.51100000000E-03 0.  1.
    9900012    2    1    2    0    0  0.11197311950E+02 -0.27291409743E+02 -0.27981489249E+02  0.50528873334E+02  0.30000040985E+02 0.  0.
        -12    1    1    2    0    0 -0.11197311950E+02  0.27291409743E+02  0.27981489249E+02  0.40659126666E+02  0.00000000000E+00 0.  1.
         11    1    3    3    0    0 -0.25736423850E+01 -0.29418048312E+01  0.15538472246E+01  0.42062206610E+01  0.51100000000E-03 0. -1.
        -11    1    3    3    0    0  0.17546625628E+02 -0.11701453013E+02 -0.11650888715E+02  0.24094631802E+02  0.51100000000E-03 0.  1.
        -12    1    3    3    0    0 -0.37756712938E+01 -0.12648151899E+02 -0.17884447759E+02  0.22228020871E+02  0.00000000000E+00 0.  1.
</event>
<event>
 7    1  0.9865694E-013  0.5052886E+02  0.7816164E-02  0.1300439E+00
        -11   -1    0    0    0    0  0.00000000000E+00  0.00000000000E+00  0.45593999997E+02  0.45594000000E+02  0.51100000000E-03 0. -1.
         11   -1    0    0    0    0 -0.00000000000E+00 -0.00000000000E+00 -0.45593999997E+02  0.45594000000E+02  0.51100000000E-03 0.  1.
    9900012    2    1    2    0    0 -0.80373192707E+01 -0.39369730153E+02  0.62121989735E+01  0.50528861182E+02  0.30000004048E+02 0.  0.
        -12    1    1    2    0    0  0.80373192707E+01  0.39369730153E+02 -0.62121989735E+01  0.40659138818E+02  0.00000000000E+00 0.  1.
         11    1    3    3    0    0 -0.69260551433E+01 -0.24473489150E+00  0.65727532222E+01  0.95515035569E+01  0.51100000000E-03 0. -1.
        -11    1    3    3    0    0 -0.64819117379E+01 -0.18989644974E+02 -0.13826044403E+01  0.20113015470E+02  0.51100000000E-03 0.  1.
         12    1    3    3    0    0  0.53706476106E+01 -0.20135350288E+02  0.10220501915E+01  0.20864342155E+02  0.00000000000E+00 0. -1.
</event>
<event>
 7    1  0.9865694E-013  0.5052886E+02  0.7816164E-02  0.1300439E+00
        -11   -1    0    0    0    0  0.00000000000E+00  0.00000000000E+00  0.45593999997E+02  0.45594000000E+02  0.51100000000E-03 0.  1.
         11   -1    0    0    0    0 -0.00000000000E+00 -0.00000000000E+00 -0.45593999997E+02  0.45594000000E+02  0.51100000000E-03 0. -1.
    9900012    2    1    2    0    0 -0.25304256289E+02  0.15903905828E+02 -0.27566751457E+02  0.50528863353E+02  0.30000010649E+02 0.  0.
        -12    1    1    2    0    0  0.25304256289E+02 -0.15903905828E+02  0.27566751457E+02  0.40659136647E+02  0.00000000000E+00 0.  1.
         11    1    3    3    0    0  0.21192425299E+01  0.45411480867E+01 -0.22833339798E+01  0.55069800409E+01  0.51100000000E-03 0. -1.
        -11    1    3    3    0    0 -0.13933350201E+02 -0.55057081189E+01 -0.14622502865E+02  0.20934867088E+02  0.51100000000E-03 0.  1.
        -12    1    3    3    0    0 -0.13490148618E+02  0.16868465860E+02 -0.10660914613E+02  0.24087016224E+02  0.00000000000E+00 0.  1.
</event>
<event>
 7    1  0.9865694E-013  0.5052886E+02  0.7816164E-02  0.1300439E+00
        -11   -1    0    0    0    0  0.00000000000E+00  0.00000000000E+00  0.45593999997E+02  0.45594000000E+02  0.51100000000E-03 0. -1.
         11   -1    0    0    0    0 -0.00000000000E+00 -0.00000000000E+00 -0.45593999997E+02  0.45594000000E+02  0.51100000000E-03 0.  1.
    9900012    2    1    2    0    0  0.35113781385E+02  0.13740342441E+02 -0.15211538689E+02  0.50528861263E+02  0.30000004296E+02 0.  0.
        -12    1    1    2    0    0 -0.35113781385E+02 -0.13740342441E+02  0.15211538689E+02  0.40659138737E+02  0.00000000000E+00 0.  1.
         11    1    3    3    0    0  0.38251562722E+02  0.67956301254E+01 -0.93602870359E+01  0.39962202306E+02  0.51100000000E-03 0. -1.
        -11    1    3    3    0    0 -0.82985807554E+00 -0.18381403659E+00  0.26946325060E+00  0.89166290163E+00  0.51100000000E-03 0.  1.
         12    1    3    3    0    0 -0.23079232623E+01  0.71285263526E+01 -0.61207149034E+01  0.96749960554E+01  0.00000000000E+00 0. -1.
</event>
<event>
 7    1  0.9865694E-013  0.5052886E+02  0.7816164E-02  0.1300439E+00
        -11   -1    0    0    0    0  0.00000000000E+00  0.00000000000E+00  0.45593999997E+02  0.45594000000E+02  0.51100000000E-03 0.  1.
         11   -1    0    0    0    0 -0.00000000000E+00 -0.00000000000E+00 -0.45593999997E+02  0.45594000000E+02  0.51100000000E-03 0. -1.
    9900012    2    1    2    0    0  0.16618643702E+02  0.35536249423E+02 -0.10684647376E+02  0.50528855504E+02  0.29999986791E+02 0.  0.
        -12    1    1    2    0    0 -0.16618643702E+02 -0.35536249423E+02  0.10684647376E+02  0.40659144496E+02  0.00000000000E+00 0.  1.
         11    1    3    3    0    0  0.31176838522E+01  0.14746375751E+02 -0.16506406613E+02  0.22352561597E+02  0.51100000000E-03 0. -1.
        -11    1    3    3    0    0  0.74062356277E-01 -0.91054732157E+00  0.22255038827E+01  0.24057118386E+01  0.51100000000E-03 0.  1.
         12    1    3    3    0    0  0.13426897493E+02  0.21700420994E+02  0.35962553544E+01  0.25770582069E+02  0.00000000000E+00 0. -1.
</event>
<event>
 7    1  0.9865694E-013  0.5052886E+02  0.7816164E-02  0.1300439E+00
        -11   -1    0    0    0    0  0.00000000000E+00  0.00000000000E+00  0.45593999997E+02  0.45594000000E+02  0.51100000000E-03 0.  1.
         11   -1    0    0    0    0 -0.00000000000E+00 -0.00000000000E+00 -0.45593999997E+02  0.45594000000E+02  0.51100000000E-03 0. -1.
    9900012    2    1    2    0    0  0.32826720948E+02 -0.23990252278E+02 -0.19916428407E+00  0.50528862294E+02  0.30000007429E+02 0.  0.
        -12    1    1    2    0    0 -0.32826720948E+02  0.23990252278E+02  0.19916428407E+00  0.40659137706E+02  0.00000000000E+00 0.  1.
         11    1    3    3    0    0  0.22425719574E+02 -0.25587830019E+02  0.71819072210E+01  0.34773980719E+02  0.51100000000E-03 0. -1.
        -11    1    3    3    0    0  0.11252446174E+02  0.32014380842E+01 -0.75617376442E+01  0.13930061994E+02  0.51100000000E-03 0.  1.
         12    1    3    3    0    0 -0.85144479910E+00 -0.16038603438E+01  0.18066613918E+00  0.18248195807E+01  0.00000000000E+00 0. -1.
</event>
<event>
 7    1  0.1169106E-012  0.5052886E+02  0.7816164E-02  0.1300439E+00
        -11   -1    0    0    0    0  0.00000000000E+00  0.00000000000E+00  0.45593999997E+02  0.45594000000E+02  0.51100000000E-03 0.  1.
         11   -1    0    0    0    0 -0.00000000000E+00 -0.00000000000E+00 -0.45593999997E+02  0.45594000000E+02  0.51100000000E-03 0. -1.
    9900012    2    1    2    0    0  0.41187978157E+01  0.40316285804E+02 -0.32860957492E+01  0.50528858079E+02  0.29999994617E+02 0.  0.
        -12    1    1    2    0    0 -0.41187978157E+01 -0.40316285804E+02  0.32860957492E+01  0.40659141921E+02  0.00000000000E+00 0.  1.
         11    1    3    3    0    0  0.88695445461E+01  0.15440657162E+02 -0.26559343992E+00  0.17808797101E+02  0.51100000000E-03 0. -1.
        -11    1    3    3    0    0 -0.82963660310E+01  0.24850061627E+02  0.23295149881E+01  0.26301746949E+02  0.51100000000E-03 0.  1.
        -12    1    3    3    0    0  0.35456193007E+01  0.25567014522E-01 -0.53500172974E+01  0.64183140294E+01  0.00000000000E+00 0.  1.
</event>
<event>
 7    1  0.9865694E-013  0.5052886E+02  0.7816164E-02  0.1300439E+00
        -11   -1    0    0    0    0  0.00000000000E+00  0.00000000000E+00  0.45593999997E+02  0.45594000000E+02  0.51100000000E-03 0. -1.
         11   -1    0    0    0    0 -0.00000000000E+00 -0.00000000000E+00 -0.45593999997E+02  0.45594000000E+02  0.51100000000E-03 0.  1.
    9900012    2    1    2    0    0  0.38529819618E+02  0.79913303272E+01  0.10235102820E+02  0.50528859700E+02  0.29999999545E+02 0.  0.
        -12    1    1    2    0    0 -0.38529819618E+02 -0.79913303272E+01 -0.10235102820E+02  0.40659140300E+02  0.00000000000E+00 0.  1.
         11    1    3    3    0    0  0.40869950066E+01 -0.19505128835E+01  0.10518065763E+02  0.11451538602E+02  0.51100000000E-03 0. -1.
        -11    1    3    3    0    0  0.12161757928E+02  0.35194003056E+01 -0.75943257783E+01  0.14763750157E+02  0.51100000000E-03 0.  1.
         12    1    3    3    0    0  0.22281066684E+02  0.64224429051E+01  0.73113628348E+01  0.24313570942E+02  0.00000000000E+00 0. -1.
</event>
<event>
 7    1  0.9865694E-013  0.5052886E+02  0.7816164E-02  0.1300439E+00
        -11   -1    0    0    0    0  0.00000000000E+00  0.00000000000E+00  0.45593999997E+02  0.45594000000E+02  0.51100000000E-03 0. -1.
         11   -1    0    0    0    0 -0.00000000000E+00 -0.00000000000E+00 -0.45593999997E+02  0.45594000000E+02  0.51100000000E-03 0.  1.
    9900012    2    1    2    0    0 -0.33108555310E+02 -0.23468032353E+02  0.24980781819E+01  0.50528863612E+02  0.30000011434E+02 0.  0.
        -12    1    1    2    0    0  0.33108555310E+02  0.23468032353E+02 -0.24980781819E+01  0.40659136388E+02  0.00000000000E+00 0.  1.
         11    1    3    3    0    0 -0.25928345220E+02 -0.26668511745E+02  0.27957599946E+01  0.37300199447E+02  0.51100000000E-03 0. -1.
        -11    1    3    3    0    0  0.23219295110E+01 -0.12307971872E+01  0.63209351548E+00  0.27029170988E+01  0.51100000000E-03 0.  1.
         12    1    3    3    0    0 -0.95021396016E+01  0.44312765801E+01 -0.92977532818E+00  0.10525747066E+02  0.00000000000E+00 0. -1.
</event>
<event>
 7    1  0.9865694E-013  0.5052891E+02  0.7816164E-02  0.1300439E+00
        -11   -1    0    0    0    0  0.00000000000E+00  0.00000000000E+00  0.45593999997E+02  0.45594000000E+02  0.51100000000E-03 0. -1.
         11   -1    0    0    0    0 -0.00000000000E+00 -0.00000000000E+00 -0.45593999997E+02  0.45594000000E+02  0.51100000000E-03 0.  1.
    9900012    2    1    2    0    0  0.19084514748E+02 -0.15861408491E+02  0.32208056971E+02  0.50528906106E+02  0.30000140599E+02 0.  0.
        -12    1    1    2    0    0 -0.19084514748E+02  0.15861408491E+02 -0.32208056971E+02  0.40659093894E+02  0.00000000000E+00 0.  1.
         11    1    3    3    0    0  0.31733144700E+01 -0.53258362084E+01  0.30145654370E+02  0.30776532191E+02  0.51100000000E-03 0. -1.
        -11    1    3    3    0    0  0.30590414487E+01 -0.19863357495E+01  0.23048074343E+01  0.43145569721E+01  0.51100000000E-03 0.  1.
         12    1    3    3    0    0  0.12852158829E+02 -0.85492365328E+01 -0.24240483321E+00  0.15437816943E+02  0.00000000000E+00 0. -1.
</event>
<event>
 7    1  0.1286514E-012  0.5052884E+02  0.7816164E-02  0.1300439E+00
        -11   -1    0    0    0    0  0.00000000000E+00  0.00000000000E+00  0.45593999997E+02  0.45594000000E+02  0.51100000000E-03 0. -1.
         11   -1    0    0    0    0 -0.00000000000E+00 -0.00000000000E+00 -0.45593999997E+02  0.45594000000E+02  0.51100000000E-03 0.  1.
    9900012    2    1    2    0    0  0.32684574450E+02  0.24183986701E+02  0.14347879464E+00  0.50528841058E+02  0.29999942878E+02 0.  0.
        -12    1    1    2    0    0 -0.32684574450E+02 -0.24183986701E+02 -0.14347879464E+00  0.40659158942E+02  0.00000000000E+00 0.  1.
         11    1    3    3    0    0  0.22594417847E+02  0.11766704417E+02  0.45998083234E+01  0.25886700978E+02  0.51100000000E-03 0. -1.
        -11    1    3    3    0    0  0.43967326807E+01  0.16599123934E+02 -0.31256801690E+01  0.17453711651E+02  0.51100000000E-03 0.  1.
        -12    1    3    3    0    0  0.56934239227E+01 -0.41818416494E+01 -0.13306493597E+01  0.71884284279E+01  0.00000000000E+00 0.  1.
</event>
<event>
 7    1  0.9865694E-013  0.5052886E+02  0.7816164E-02  0.1300439E+00
        -11   -1    0    0    0    0  0.00000000000E+00  0.00000000000E+00  0.45593999997E+02  0.45594000000E+02  0.51100000000E-03 0. -1.
         11   -1    0    0    0    0 -0.00000000000E+00 -0.00000000000E+00 -0.45593999997E+02  0.45594000000E+02  0.51100000000E-03 0.  1.
    9900012    2    1    2    0    0  0.35786484062E+02  0.12336560395E+02  0.14842594888E+02  0.50528858507E+02  0.29999995918E+02 0.  0.
        -12    1    1    2    0    0 -0.35786484062E+02 -0.12336560395E+02 -0.14842594888E+02  0.40659141493E+02  0.00000000000E+00 0.  1.
         11    1    3    3    0    0  0.31137361233E+02  0.38781805089E+01  0.74133605137E+01  0.32241796832E+02  0.51100000000E-03 0. -1.
        -11    1    3    3    0    0 -0.18803998550E+01  0.79912916423E+01 -0.22840665229E+00  0.82127227877E+01  0.51100000000E-03 0.  1.
        -12    1    3    3    0    0  0.65295226843E+01  0.46708824343E+00  0.76576410270E+01  0.10074338887E+02  0.00000000000E+00 0.  1.
</event>
<event>
 7    1  0.9865694E-013  0.5052886E+02  0.7816164E-02  0.1300439E+00
        -11   -1    0    0    0    0  0.00000000000E+00  0.00000000000E+00  0.45593999997E+02  0.45594000000E+02  0.51100000000E-03 0.  1.
         11   -1    0    0    0    0 -0.00000000000E+00 -0.00000000000E+00 -0.45593999997E+02  0.45594000000E+02  0.51100000000E-03 0. -1.
    9900012    2    1    2    0    0 -0.17536909415E+02 -0.24424362121E+02 -0.27369194271E+02  0.50528862627E+02  0.30000008441E+02 0.  0.
        -12    1    1    2    0    0  0.17536909415E+02  0.24424362121E+02  0.27369194271E+02  0.40659137373E+02  0.00000000000E+00 0.  1.
         11    1    3    3    0    0 -0.96356501997E+01 -0.27241761446E+02 -0.29241534074E+02  0.41109933553E+02  0.51100000000E-03 0. -1.
        -11    1    3    3    0    0 -0.10176523122E+01  0.72946101071E-01  0.17283169759E+01  0.20069920759E+01  0.51100000000E-03 0.  1.
         12    1    3    3    0    0 -0.68836069032E+01  0.27444532231E+01  0.14402282738E+00  0.74119369983E+01  0.00000000000E+00 0. -1.
</event>
<event>
 7    1  0.9865694E-013  0.5052886E+02  0.7816164E-02  0.1300439E+00
        -11   -1    0    0    0    0  0.00000000000E+00  0.00000000000E+00  0.45593999997E+02  0.45594000000E+02  0.51100000000E-03 0.  1.
         11   -1    0    0    0    0 -0.00000000000E+00 -0.00000000000E+00 -0.45593999997E+02  0.45594000000E+02  0.51100000000E-03 0. -1.
    9900012    2    1    2    0    0  0.17690805145E+02  0.11110058080E+02 -0.34882202979E+02  0.50528855126E+02  0.29999985642E+02 0.  0.
        -12    1    1    2    0    0 -0.17690805145E+02 -0.11110058080E+02  0.34882202979E+02  0.40659144874E+02  0.00000000000E+00 0.  1.
         11    1    3    3    0    0  0.44779301615E+01 -0.37810265554E+01 -0.69065388332E+00  0.59012730314E+01  0.51100000000E-03 0. -1.
        -11    1    3    3    0    0 -0.33190825280E+01  0.10342637867E+02 -0.87527958321E+01  0.13949835197E+02  0.51100000000E-03 0.  1.
        -12    1    3    3    0    0  0.16531957511E+02  0.45484467684E+01 -0.25438753263E+02  0.30677746898E+02  0.00000000000E+00 0.  1.
</event>
<event>
 7    1  0.9865694E-013  0.5052886E+02  0.7816164E-02  0.1300439E+00
        -11   -1    0    0    0    0  0.00000000000E+00  0.00000000000E+00  0.45593999997E+02  0.45594000000E+02  0.51100000000E-03 0. -1.
         11   -1    0    0    0    0 -0.00000000000E+00 -0.00000000000E+00 -0.45593999997E+02  0.45594000000E+02  0.51100000000E-03 0.  1.
    9900012    2    1    2    0    0  0.24822265526E+02  0.21211596844E+02  0.24229913319E+02  0.50528863192E+02  0.30000010159E+02 0.  0.
        -12    1    1    2    0    0 -0.24822265526E+02 -0.21211596844E+02 -0.24229913319E+02  0.40659136808E+02  0.00000000000E+00 0.  1.
         11    1    3    3    0    0  0.23828535541E+02  0.15017827806E+02  0.19430974426E+02  0.34218372630E+02  0.51100000000E-03 0. -1.
        -11    1    3    3    0    0 -0.77474785877E+00  0.96759336958E+01 -0.50937512481E+00  0.97202567048E+01  0.51100000000E-03 0.  1.
         12    1    3    3    0    0  0.17684778443E+01 -0.34821646578E+01  0.53083140174E+01  0.65902338575E+01  0.00000000000E+00 0. -1.
</event>
<event>
 7    1  0.9865694E-013  0.5052886E+02  0.7816164E-02  0.1300439E+00
        -11   -1    0    0    0    0  0.00000000000E+00  0.00000000000E+00  0.45593999997E+02  0.45594000000E+02  0.51100000000E-03 0. -1.
         11   -1    0    0    0    0 -0.00000000000E+00 -0.00000000000E+00 -0.45593999997E+02  0.45594000000E+02  0.51100000000E-03 0.  1.
    9900012    2    1    2    0    0 -0.13360806887E+02  0.38112526215E+02 -0.46999937775E+01  0.50528858880E+02  0.29999997051E+02 0.  0.
        -12    1    1    2    0    0  0.13360806887E+02 -0.38112526215E+02  0.46999937775E+01  0.40659141120E+02  0.00000000000E+00 0.  1.
         11    1    3    3    0    0 -0.12573582097E+02  0.18660941554E+02  0.19934546563E+01  0.22589811158E+02  0.51100000000E-03 0. -1.
        -11    1    3    3    0    0  0.17845981981E+01 -0.24157651450E+01  0.26643675744E+01  0.40149180311E+01  0.51100000000E-03 0.  1.
         12    1    3    3    0    0 -0.25718229886E+01  0.21867349806E+02 -0.93578160082E+01  0.23924129691E+02  0.00000000000E+00 0. -1.
</event>
<event>
 7    1  0.9865694E-013  0.5052888E+02  0.7816164E-02  0.1300439E+00
        -11   -1    0    0    0    0  0.00000000000E+00  0.00000000000E+00  0.45593999997E+02  0.45594000000E+02  0.51100000000E-03 0.  1.
         11   -1    0    0    0    0 -0.00000000000E+00 -0.00000000000E+00 -0.45593999997E+02  0.45594000000E+02  0.51100000000E-03 0. -1.
    9900012    2    1    2    0    0 -0.80811407168E+01 -0.19405882999E+02 -0.34803319007E+02  0.50528878709E+02  0.30000057324E+02 0.  0.
        -12    1    1    2    0    0  0.80811407168E+01  0.19405882999E+02  0.34803319007E+02  0.40659121291E+02  0.00000000000E+00 0.  1.
         11    1    3    3    0    0 -0.48954163537E+01 -0.12537662656E+02 -0.28671790545E+02  0.31673800837E+02  0.51100000000E-03 0. -1.
        -11    1    3    3    0    0 -0.91952056805E+01 -0.70375998573E+01 -0.25483326390E+01  0.11856374604E+02  0.51100000000E-03 0.  1.
        -12    1    3    3    0    0  0.60094813173E+01  0.16937951467E+00 -0.35831958237E+01  0.69987032680E+01  0.00000000000E+00 0.  1.
</event>
<event>
 7    1  0.9865694E-013  0.5052886E+02  0.7816164E-02  0.1300439E+00
        -11   -1    0    0    0    0  0.00000000000E+00  0.00000000000E+00  0.45593999997E+02  0.45594000000E+02  0.51100000000E-03 0. -1.
         11   -1    0    0    0    0 -0.00000000000E+00 -0.00000000000E+00 -0.45593999997E+02  0.45594000000E+02  0.51100000000E-03 0.  1.
    9900012    2    1    2    0    0  0.16703970102E+02  0.36015525567E+02 -0.87763848189E+01  0.50528860443E+02  0.30000001803E+02 0.  0.
        -12    1    1    2    0    0 -0.16703970102E+02 -0.36015525567E+02  0.87763848189E+01  0.40659139557E+02  0.00000000000E+00 0.  1.
         11    1    3    3    0    0  0.77635004670E+00  0.13605361669E+02  0.81930131770E+01  0.15900756294E+02  0.51100000000E-03 0. -1.
        -11    1    3    3    0    0  0.17463683932E+02  0.18203461607E+02 -0.16459534580E+02  0.30120799289E+02  0.51100000000E-03 0.  1.
         12    1    3    3    0    0 -0.15360638768E+01  0.42067022916E+01 -0.50986341545E+00  0.45073048605E+01  0.00000000000E+00 0. -1.
</event>
<event>
 7    1  0.9865694E-013  0.5052885E+02  0.7816164E-02  0.1300439E+00
        -11   -1    0    0    0    0  0.00000000000E+00  0.00000000000E+00  0.45593999997E+02  0.45594000000E+02  0.51100000000E-03 0.  1.
         11   -1    0    0    0    0 -0.00000000000E+00 -0.00000000000E+00 -0.45593999997E+02  0.45594000000E+02  0.51100000000E-03 0. -1.
    9900012    2    1    2    0    0  0.17224481999E+02 -0.28405364487E+02 -0.23443948076E+02  0.50528853266E+02  0.29999979987E+02 0.  0.
        -12    1    1    2    0    0 -0.17224481999E+02  0.28405364487E+02  0.23443948076E+02  0.40659146734E+02  0.00000000000E+00 0.  1.
         11    1    3    3    0    0  0.14672984473E+02 -0.22661814878E+02 -0.14487571640E+02  0.30638930451E+02  0.51100000000E-03 0. -1.
        -11    1    3    3    0    0 -0.63660464521E+01 -0.61138438384E+01 -0.41615403293E+01  0.97582812055E+01  0.51100000000E-03 0.  1.
        -12    1    3    3    0    0  0.89175439782E+01  0.37029422872E+00 -0.47948361068E+01  0.10131641610E+02  0.00000000000E+00 0.  1.
</event>
<event>
 7    1  0.9865694E-013  0.5052886E+02  0.7816164E-02  0.1300439E+00
        -11   -1    0    0    0    0  0.00000000000E+00  0.00000000000E+00  0.45593999997E+02  0.45594000000E+02  0.51100000000E-03 0. -1.
         11   -1    0    0    0    0 -0.00000000000E+00 -0.00000000000E+00 -0.45593999997E+02  0.45594000000E+02  0.51100000000E-03 0.  1.
    9900012    2    1    2    0    0  0.24273861043E+02  0.28912335365E+02  0.15100400162E+02  0.50528861405E+02  0.30000004727E+02 0.  0.
        -12    1    1    2    0    0 -0.24273861043E+02 -0.28912335365E+02 -0.15100400162E+02  0.40659138595E+02  0.00000000000E+00 0.  1.
         11    1    3    3    0    0  0.89555501641E+01  0.27599925680E+02  0.11036065061E+02  0.31044363556E+02  0.51100000000E-03 0. -1.
        -11    1    3    3    0    0  0.98147419623E+01 -0.23651941041E+01  0.69571898398E+01  0.12260741970E+02  0.51100000000E-03 0.  1.
         12    1    3    3    0    0  0.55035689170E+01  0.36776037888E+01 -0.28928547393E+01  0.72237558786E+01  0.00000000000E+00 0. -1.
</event>
<event>
 7    1  0.9865694E-013  0.5052886E+02  0.7816164E-02  0.1300439E+00
        -11   -1    0    0    0    0  0.00000000000E+00  0.00000000000E+00  0.45593999997E+02  0.45594000000E+02  0.51100000000E-03 0. -1.
         11   -1    0    0    0    0 -0.00000000000E+00 -0.00000000000E+00 -0.45593999997E+02  0.45594000000E+02  0.51100000000E-03 0.  1.
    9900012    2    1    2    0    0  0.76622572505E+01 -0.31195226380E+02  0.24926163512E+02  0.50528856348E+02  0.29999989356E+02 0.  0.
        -12    1    1    2    0    0 -0.76622572505E+01  0.31195226380E+02 -0.24926163512E+02  0.40659143652E+02  0.00000000000E+00 0.  1.
         11    1    3    3    0    0 -0.45509753556E+00 -0.10093588120E+01  0.18463400531E+02  0.18496569369E+02  0.51100000000E-03 0. -1.
        -11    1    3    3    0    0  0.27309649355E+01 -0.14105356143E+02  0.38438183967E+01  0.14872598345E+02  0.51100000000E-03 0.  1.
         12    1    3    3    0    0  0.53863898506E+01 -0.16080511424E+02  0.26189445848E+01  0.17159688634E+02  0.00000000000E+00 0. -1.
</event>
<event>
 7    1  0.9865694E-013  0.5052885E+02  0.7816164E-02  0.1300439E+00
        -11   -1    0    0    0    0  0.00000000000E+00  0.00000000000E+00  0.45593999997E+02  0.45594000000E+02  0.51100000000E-03 0. -1.
         11   -1    0    0    0    0 -0.00000000000E+00 -0.00000000000E+00 -0.45593999997E+02  0.45594000000E+02  0.51100000000E-03 0.  1.
    9900012    2    1    2    0    0  0.28430068296E+02 -0.10364840432E+02  0.27156352568E+02  0.50528853608E+02  0.29999981028E+02 0.  0.
        -12    1    1    2    0    0 -0.28430068296E+02  0.10364840432E+02 -0.27156352568E+02  0.40659146392E+02  0.00000000000E+00 0.  1.
         11    1    3    3    0    0  0.15118693961E+02 -0.54227556777E+01  0.26944204751E+02  0.31368317713E+02  0.51100000000E-03 0. -1.
        -11    1    3    3    0    0  0.14940395897E+02 -0.70083515918E+01  0.52475861174E+00  0.16510838666E+02  0.51100000000E-03 0.  1.
         12    1    3    3    0    0 -0.16290215620E+01  0.20662668379E+01 -0.31261079480E+00  0.26496972287E+01  0.00000000000E+00 0. -1.
</event>
<event>
 7    1  0.9865694E-013  0.5052879E+02  0.7816164E-02  0.1300439E+00
        -11   -1    0    0    0    0  0.00000000000E+00  0.00000000000E+00  0.45593999997E+02  0.45594000000E+02  0.51100000000E-03 0.  1.
         11   -1    0    0    0    0 -0.00000000000E+00 -0.00000000000E+00 -0.45593999997E+02  0.45594000000E+02  0.51100000000E-03 0. -1.
    9900012    2    1    2    0    0  0.18251085679E+02 -0.13118024809E+02 -0.33881953747E+02  0.50528788337E+02  0.29999782627E+02 0.  0.
        -12    1    1    2    0    0 -0.18251085679E+02  0.13118024809E+02  0.33881953747E+02  0.40659211663E+02  0.00000000000E+00 0.  1.
         11    1    3    3    0    0  0.16371548827E+02 -0.21326371363E+00 -0.29844365882E+02  0.34040553280E+02  0.51100000000E-03 0. -1.
        -11    1    3    3    0    0  0.19103983152E+01 -0.13376385889E+02 -0.57699895220E+01  0.14692518522E+02  0.51100000000E-03 0.  1.
        -12    1    3    3    0    0 -0.30861464055E-01  0.47162479307E+00  0.17324016565E+01  0.17957165352E+01  0.00000000000E+00 0.  1.
</event>
<event>
 7    1  0.9865694E-013  0.5052884E+02  0.7816164E-02  0.1300439E+00
        -11   -1    0    0    0    0  0.00000000000E+00  0.00000000000E+00  0.45593999997E+02  0.45594000000E+02  0.51100000000E-03 0.  1.
         11   -1    0    0    0    0 -0.00000000000E+00 -0.00000000000E+00 -0.45593999997E+02  0.45594000000E+02  0.51100000000E-03 0. -1.
    9900012    2    1    2    0    0 -0.12149309432E+01 -0.33954344490E+02 -0.22333685543E+02  0.50528842645E+02  0.29999947702E+02 0.  0.
        -12    1    1    2    0    0  0.12149309432E+01  0.33954344490E+02  0.22333685543E+02  0.40659157355E+02  0.00000000000E+00 0.  1.
         11    1    3    3    0    0  0.17299286399E+01 -0.64743454250E+01 -0.19124088219E+02  0.20264267869E+02  0.51100000000E-03 0. -1.
        -11    1    3    3    0    0  0.15159200512E+01 -0.10099970293E+01  0.22262165023E+01  0.28764818402E+01  0.51100000000E-03 0.  1.
         12    1    3    3    0    0 -0.44607796344E+01 -0.26470002035E+02 -0.54358138265E+01  0.27388092936E+02  0.00000000000E+00 0. -1.
</event>
<event>
 7    1  0.9865694E-013  0.5052888E+02  0.7816164E-02  0.1300439E+00
        -11   -1    0    0    0    0  0.00000000000E+00  0.00000000000E+00  0.45593999997E+02  0.45594000000E+02  0.51100000000E-03 0. -1.
         11   -1    0    0    0    0 -0.00000000000E+00 -0.00000000000E+00 -0.45593999997E+02  0.45594000000E+02  0.51100000000E-03 0.  1.
    9900012    2    1    2    0    0 -0.17590997839E+02 -0.72267183151E+01  0.35937386951E+02  0.50528875029E+02  0.30000046138E+02 0.  0.
        -12    1    1    2    0    0  0.17590997839E+02  0.72267183151E+01 -0.35937386951E+02  0.40659124971E+02  0.00000000000E+00 0.  1.
         11    1    3    3    0    0 -0.12584490110E+02  0.82453118430E+01  0.28891875711E+02  0.32574453811E+02  0.51100000000E-03 0. -1.
        -11    1    3    3    0    0 -0.22743385258E+00 -0.26066134730E+01  0.21801001532E+00  0.26255834748E+01  0.51100000000E-03 0.  1.
         12    1    3    3    0    0 -0.47790738763E+01 -0.12865416685E+02  0.68275012247E+01  0.15328837744E+02  0.00000000000E+00 0. -1.
</event>
<event>
 7    1  0.9865694E-013  0.5052885E+02  0.7816164E-02  0.1300439E+00
        -11   -1    0    0    0    0  0.00000000000E+00  0.00000000000E+00  0.45593999997E+02  0.45594000000E+02  0.51100000000E-03 0.  1.
         11   -1    0    0    0    0 -0.00000000000E+00 -0.00000000000E+00 -0.45593999997E+02  0.45594000000E+02  0.51100000000E-03 0. -1.
    9900012    2    1    2    0    0  0.34578806058E+02  0.20415400186E+02 -0.63784249371E+01  0.50528847305E+02  0.29999961869E+02 0.  0.
        -12    1    1    2    0    0 -0.34578806058E+02 -0.20415400186E+02  0.63784249371E+01  0.40659152695E+02  0.00000000000E+00 0.  1.
         11    1    3    3    0    0  0.12796420249E+02  0.13181002910E+02 -0.11328553311E+02  0.21582940700E+02  0.51100000000E-03 0. -1.
        -11    1    3    3    0    0  0.81506629675E+01 -0.48309616301E+01  0.50599771275E+01  0.10741269286E+02  0.51100000000E-03 0.  1.
        -12    1    3    3    0    0  0.13631722841E+02  0.12065358907E+02 -0.10984875406E+00  0.18204637319E+02  0.00000000000E+00 0.  1.
</event>
<event>
 7    1  0.9865694E-013  0.5052887E+02  0.7816164E-02  0.1300439E+00
        -11   -1    0    0    0    0  0.00000000000E+00  0.00000000000E+00  0.45593999997E+02  0.45594000000E+02  0.51100000000E-03 0. -1.
         11   -1    0    0    0    0 -0.00000000000E+00 -0.00000000000E+00 -0.45593999997E+02  0.45594000000E+02  0.51100000000E-03 0.  1.
    9900012    2    1    2    0    0 -0.34179659697E+02  0.18012841429E+02 -0.12667002913E+02  0.50528873643E+02  0.30000041925E+02 0.  0.
        -12    1    1    2    0    0  0.34179659697E+02 -0.18012841429E+02  0.12667002913E+02  0.40659126357E+02  0.00000000000E+00 0.  1.
         11    1    3    3    0    0 -0.12632971486E+02 -0.13752159339E+01  0.77103260220E+01  0.14863792082E+02  0.51100000000E-03 0. -1.
        -11    1    3    3    0    0 -0.17371096411E+02  0.17499203557E+02 -0.17760070269E+02  0.30387451552E+02  0.51100000000E-03 0.  1.
         12    1    3    3    0    0 -0.41755918000E+01  0.18888538063E+01 -0.26172586663E+01  0.52776300087E+01  0.00000000000E+00 0. -1.
</event>
<event>
 7    1  0.9865694E-013  0.5052886E+02  0.7816164E-02  0.1300439E+00
        -11   -1    0    0    0    0  0.00000000000E+00  0.00000000000E+00  0.45593999997E+02  0.45594000000E+02  0.51100000000E-03 0. -1.
         11   -1    0    0    0    0 -0.00000000000E+00 -0.00000000000E+00 -0.45593999997E+02  0.45594000000E+02  0.51100000000E-03 0.  1.
    9900012    2    1    2    0    0 -0.69763734068E+01  0.34468303153E+02  0.20406655952E+02  0.50528864307E+02  0.30000013548E+02 0.  0.
        -12    1    1    2    0    0  0.69763734068E+01 -0.34468303153E+02 -0.20406655952E+02  0.40659135693E+02  0.00000000000E+00 0.  1.
         11    1    3    3    0    0 -0.16681982869E+02  0.12014224681E+02  0.42404440833E+01  0.20990748282E+02  0.51100000000E-03 0. -1.
        -11    1    3    3    0    0  0.40608827231E+01  0.13241291372E+02  0.10154262709E+02  0.17173573219E+02  0.51100000000E-03 0.  1.
         12    1    3    3    0    0  0.56447267396E+01  0.92127870999E+01  0.60119491602E+01  0.12364542807E+02  0.00000000000E+00 0. -1.
</event>
<event>
 7    1  0.9865694E-013  0.5052881E+02  0.7816164E-02  0.1300439E+00
        -11   -1    0    0    0    0  0.00000000000E+00  0.00000000000E+00  0.45593999997E+02  0.45594000000E+02  0.51100000000E-03 0. -1.
         11   -1    0    0    0    0 -0.00000000000E+00 -0.00000000000E+00 -0.45593999997E+02  0.45594000000E+02  0.51100000000E-03 0.  1.
    9900012    2    1    2    0    0  0.13013039018E+02 -0.17315872947E+02  0.34409174339E+02  0.50528807692E+02  0.29999841460E+02 0.  0.
        -12    1    1    2    0    0 -0.13013039018E+02  0.17315872947E+02 -0.34409174339E+02  0.40659192308E+02  0.00000000000E+00 0.  1.
         11    1    3    3    0    0  0.15226336795E+02 -0.10207977524E+02  0.77721408053E+01  0.19911059999E+02  0.51100000000E-03 0.  1.
        -11    1    3    3    0    0 -0.16302850589E+01 -0.93115103188E+01  0.97600126422E+01  0.13587490601E+02  0.51100000000E-03 0. -1.
         12    1    3    3    0    0 -0.58301271823E+00  0.22036148955E+01  0.16877020892E+02  0.17030257092E+02  0.00000000000E+00 0. -1.
</event>
<event>
 7    1  0.9865694E-013  0.5052886E+02  0.7816164E-02  0.1300439E+00
        -11   -1    0    0    0    0  0.00000000000E+00  0.00000000000E+00  0.45593999997E+02  0.45594000000E+02  0.51100000000E-03 0. -1.
         11   -1    0    0    0    0 -0.00000000000E+00 -0.00000000000E+00 -0.45593999997E+02  0.45594000000E+02  0.51100000000E-03 0.  1.
    9900012    2    1    2    0    0  0.43836911971E+01 -0.37224056515E+02 -0.15758124394E+02  0.50528860605E+02  0.30000002294E+02 0.  0.
        -12    1    1    2    0    0 -0.43836911971E+01  0.37224056515E+02  0.15758124394E+02  0.40659139395E+02  0.00000000000E+00 0.  1.
         11    1    3    3    0    0  0.65058519243E+01 -0.39582016973E+02 -0.19863793969E+02  0.44761953576E+02  0.51100000000E-03 0. -1.
        -11    1    3    3    0    0 -0.15351653652E+01  0.47163724902E+00  0.32274705989E+01  0.36049606268E+01  0.51100000000E-03 0.  1.
         12    1    3    3    0    0 -0.58699536197E+00  0.18863232082E+01  0.87819897608E+00  0.21619464014E+01  0.00000000000E+00 0. -1.
</event>
<event>
 7    1  0.9865694E-013  0.5052886E+02  0.7816164E-02  0.1300439E+00
        -11   -1    0    0    0    0  0.00000000000E+00  0.00000000000E+00  0.45593999997E+02  0.45594000000E+02  0.51100000000E-03 0.  1.
         11   -1    0    0    0    0 -0.00000000000E+00 -0.00000000000E+00 -0.45593999997E+02  0.45594000000E+02  0.51100000000E-03 0. -1.
    9900012    2    1    2    0    0  0.47967569344E+01 -0.34727218281E+02 -0.20595553474E+02  0.50528863394E+02  0.30000010773E+02 0.  0.
        -12    1    1    2    0    0 -0.47967569344E+01  0.34727218281E+02  0.20595553474E+02  0.40659136606E+02  0.00000000000E+00 0.  1.
         11    1    3    3    0    0 -0.27331112061E+00 -0.96911313632E+01 -0.77624090078E+01  0.12419650556E+02  0.51100000000E-03 0. -1.
        -11    1    3    3    0    0  0.64001449212E+01  0.34216121534E+01 -0.12919052889E+01  0.73714519789E+01  0.51100000000E-03 0.  1.
        -12    1    3    3    0    0 -0.13300768661E+01 -0.28457699071E+02 -0.11541239177E+02  0.30737760859E+02  0.00000000000E+00 0.  1.
</event>
<event>
 7    1  0.9865694E-013  0.5052886E+02  0.7816164E-02  0.1300439E+00
        -11   -1    0    0    0    0  0.00000000000E+00  0.00000000000E+00  0.45593999997E+02  0.45594000000E+02  0.51100000000E-03 0.  1.
         11   -1    0    0    0    0 -0.00000000000E+00 -0.00000000000E+00 -0.45593999997E+02  0.45594000000E+02  0.51100000000E-03 0. -1.
    9900012    2    1    2    0    0 -0.10271766421E+02 -0.24099207501E+02 -0.31094773667E+02  0.50528856662E+02  0.29999990309E+02 0.  0.
        -12    1    1    2    0    0  0.10271766421E+02  0.24099207501E+02  0.31094773667E+02  0.40659143338E+02  0.00000000000E+00 0.  1.
         11    1    3    3    0    0 -0.17128682972E+01  0.67287735618E+00 -0.16408347886E+02  0.16511225344E+02  0.51100000000E-03 0. -1.
        -11    1    3    3    0    0 -0.12857734225E+02 -0.17838170261E+02 -0.77684922041E+01  0.23321044553E+02  0.51100000000E-03 0.  1.
        -12    1    3    3    0    0  0.42988361003E+01 -0.69339145967E+01 -0.69179335766E+01  0.10696586765E+02  0.00000000000E+00 0.  1.
</event>
<event>
 7    1  0.9865694E-013  0.5052886E+02  0.7816164E-02  0.1300439E+00
        -11   -1    0    0    0    0  0.00000000000E+00  0.00000000000E+00  0.45593999997E+02  0.45594000000E+02  0.51100000000E-03 0.  1.
         11   -1    0    0    0    0 -0.00000000000E+00 -0.00000000000E+00 -0.45593999997E+02  0.45594000000E+02  0.51100000000E-03 0. -1.
    9900012    2    1    2    0    0  0.36119476281E+02  0.11188590795E+02 -0.14945380213E+02  0.50528861784E+02  0.30000005878E+02 0.  0.
        -12    1    1    2    0    0 -0.36119476281E+02 -0.11188590795E+02  0.14945380213E+02  0.40659138216E+02  0.00000000000E+00 0.  1.
         11    1    3    3    0    0  0.32422803464E+02  0.16548542175E+02 -0.84790775837E+01  0.37376291811E+02  0.51100000000E-03 0. -1.
        -11    1    3    3    0    0  0.16628057550E+01 -0.58963714550E+01 -0.83313737704E+01  0.10341368791E+02  0.51100000000E-03 0.  1.
         12    1    3    3    0    0  0.20338670615E+01  0.53642007513E+00  0.18650711414E+01  0.28112011816E+01  0.00000000000E+00 0. -1.
</event>
<event>
 7    1  0.9865694E-013  0.5052887E+02  0.7816164E-02  0.1300439E+00
        -11   -1    0    0    0    0  0.00000000000E+00  0.00000000000E+00  0.45593999997E+02  0.45594000000E+02  0.51100000000E-03 0.  1.
         11   -1    0    0    0    0 -0.00000000000E+00 -0.00000000000E+00 -0.45593999997E+02  0.45594000000E+02  0.51100000000E-03 0. -1.
    9900012    2    1    2    0    0 -0.40600530995E+02 -0.19278333453E+01 -0.10223001589E+01  0.50528871184E+02  0.30000034451E+02 0.  0.
        -12    1    1    2    0    0  0.40600530995E+02  0.19278333453E+01  0.10223001589E+01  0.40659128816E+02  0.00000000000E+00 0.  1.
         11    1    3    3    0    0 -0.19155657414E+02  0.77106384813E+01 -0.55819002292E+01  0.21390436349E+02  0.51100000000E-03 0. -1.
        -11    1    3    3    0    0  0.10596831572E+01 -0.52256386096E+01  0.30799591282E+01  0.61576274460E+01  0.51100000000E-03 0.  1.
        -12    1    3    3    0    0 -0.22504556738E+02 -0.44128332170E+01  0.14796409420E+01  0.22980807390E+02  0.00000000000E+00 0.  1.
</event>
<event>
 7    1  0.9865694E-013  0.5052886E+02  0.7816164E-02  0.1300439E+00
        -11   -1    0    0    0    0  0.00000000000E+00  0.00000000000E+00  0.45593999997E+02  0.45594000000E+02  0.51100000000E-03 0.  1.
         11   -1    0    0    0    0 -0.00000000000E+00 -0.00000000000E+00 -0.45593999997E+02  0.45594000000E+02  0.51100000000E-03 0. -1.
    9900012    2    1    2    0    0  0.48069312766E+01 -0.30023469209E+02 -0.26993524514E+02  0.50528860101E+02  0.30000000763E+02 0.  0.
        -12    1    1    2    0    0 -0.48069312766E+01  0.30023469209E+02  0.26993524514E+02  0.40659139899E+02  0.00000000000E+00 0.  1.
         11    1    3    3    0    0  0.88259667151E+00 -0.32312564538E+02 -0.25114509844E+02  0.40934330444E+02  0.51100000000E-03 0. -1.
        -11    1    3    3    0    0  0.19810643270E+01  0.12435249502E+01  0.32539140830E+01  0.40073591417E+01  0.51100000000E-03 0.  1.
         12    1    3    3    0    0  0.19432702781E+01  0.10455703784E+01 -0.51329287526E+01  0.55871705155E+01  0.00000000000E+00 0. -1.
</event>
<event>
 7    1  0.9865694E-013  0.5052886E+02  0.7816164E-02  0.1300439E+00
        -11   -1    0    0    0    0  0.00000000000E+00  0.00000000000E+00  0.45593999997E+02  0.45594000000E+02  0.51100000000E-03 0.  1.
         11   -1    0    0    0    0 -0.00000000000E+00 -0.00000000000E+00 -0.45593999997E+02  0.45594000000E+02  0.51100000000E-03 0. -1.
    9900012    2    1    2    0    0 -0.41868398531E+01 -0.17170505834E+02 -0.36617066265E+02  0.50528862768E+02  0.30000008871E+02 0.  0.
        -12    1    1    2    0    0  0.41868398531E+01  0.17170505834E+02  0.36617066265E+02  0.40659137232E+02  0.00000000000E+00 0.  1.
         11    1    3    3    0    0  0.36852084796E+00 -0.12094776883E+02 -0.37733345337E+01  0.12675073539E+02  0.51100000000E-03 0. -1.
        -11    1    3    3    0    0  0.65182854991E+01 -0.62507574548E+00 -0.15224737954E+02  0.16573213677E+02  0.51100000000E-03 0.  1.
         12    1    3    3    0    0 -0.11073646200E+02 -0.44506532054E+01 -0.17618993777E+02  0.21280575552E+02  0.00000000000E+00 0. -1.
</event>
<event>
 7    1  0.9865694E-013  0.5052886E+02  0.7816164E-02  0.1300439E+00
        -11   -1    0    0    0    0  0.00000000000E+00  0.00000000000E+00  0.45593999997E+02  0.45594000000E+02  0.51100000000E-03 0. -1.
         11   -1    0    0    0    0 -0.00000000000E+00 -0.00000000000E+00 -0.45593999997E+02  0.45594000000E+02  0.51100000000E-03 0.  1.
    9900012    2    1    2    0    0  0.39505338324E+02 -0.86077693456E+01 -0.42895799417E+01  0.50528856560E+02  0.29999990000E+02 0.  0.
        -12    1    1    2    0    0 -0.39505338324E+02  0.86077693456E+01  0.42895799417E+01  0.40659143440E+02  0.00000000000E+00 0.  1.
         11    1    3    3    0    0  0.16265058454E+02  0.27562156552E+01 -0.13539761204E+02  0.21341836495E+02  0.51100000000E-03 0.  1.
        -11    1    3    3    0    0  0.79066668208E+01 -0.68090659600E+01  0.79887909015E+01  0.13141519691E+02  0.51100000000E-03 0. -1.
         12    1    3    3    0    0  0.15333613049E+02 -0.45549190408E+01  0.12613903607E+01  0.16045500374E+02  0.00000000000E+00 0. -1.
</event>
<event>
 7    1  0.9865694E-013  0.5052886E+02  0.7816164E-02  0.1300439E+00
        -11   -1    0    0    0    0  0.00000000000E+00  0.00000000000E+00  0.45593999997E+02  0.45594000000E+02  0.51100000000E-03 0. -1.
         11   -1    0    0    0    0 -0.00000000000E+00 -0.00000000000E+00 -0.45593999997E+02  0.45594000000E+02  0.51100000000E-03 0.  1.
    9900012    2    1    2    0    0 -0.12477048904E+00 -0.12725523196E+02  0.38616205570E+02  0.50528857844E+02  0.29999993901E+02 0.  0.
        -12    1    1    2    0    0  0.12477048904E+00  0.12725523196E+02 -0.38616205570E+02  0.40659142156E+02  0.00000000000E+00 0.  1.
         11    1    3    3    0    0  0.32986618409E+01 -0.11161700237E+02  0.30821153645E+02  0.32945534362E+02  0.51100000000E-03 0. -1.
        -11    1    3    3    0    0 -0.80980165695E+01  0.14164536633E+01  0.86959687273E+01  0.11966790953E+02  0.51100000000E-03 0.  1.
        -12    1    3    3    0    0  0.46745842396E+01 -0.29802766219E+01 -0.90091680291E+00  0.56165325284E+01  0.00000000000E+00 0.  1.
</event>
<event>
 7    1  0.9865694E-013  0.5052886E+02  0.7816164E-02  0.1300439E+00
        -11   -1    0    0    0    0  0.00000000000E+00  0.00000000000E+00  0.45593999997E+02  0.45594000000E+02  0.51100000000E-03 0.  1.
         11   -1    0    0    0    0 -0.00000000000E+00 -0.00000000000E+00 -0.45593999997E+02  0.45594000000E+02  0.51100000000E-03 0. -1.
    9900012    2    1    2    0    0 -0.32898271196E+02  0.16304739385E+02 -0.17464970280E+02  0.50528856366E+02  0.29999989411E+02 0.  0.
        -12    1    1    2    0    0  0.32898271196E+02 -0.16304739385E+02  0.17464970280E+02  0.40659143634E+02  0.00000000000E+00 0.  1.
         11    1    3    3    0    0  0.16994886064E+01  0.72210769335E+01  0.25862619968E+01  0.78562691514E+01  0.51100000000E-03 0.  1.
        -11    1    3    3    0    0 -0.28921650937E+02  0.49753257788E+01 -0.11264547691E+02  0.31434150131E+02  0.51100000000E-03 0. -1.
        -12    1    3    3    0    0 -0.56761088659E+01  0.41083366730E+01 -0.87866845855E+01  0.11238437084E+02  0.00000000000E+00 0.  1.
</event>
<event>
 7    1  0.9865694E-013  0.5052890E+02  0.7816164E-02  0.1300439E+00
        -11   -1    0    0    0    0  0.00000000000E+00  0.00000000000E+00  0.45593999997E+02  0.45594000000E+02  0.51100000000E-03 0.  1.
         11   -1    0    0    0    0 -0.00000000000E+00 -0.00000000000E+00 -0.45593999997E+02  0.45594000000E+02  0.51100000000E-03 0. -1.
    9900012    2    1    2    0    0  0.39165767661E+02  0.10707336091E+02  0.21349906201E+01  0.50528897850E+02  0.30000115505E+02 0.  0.
        -12    1    1    2    0    0 -0.39165767661E+02 -0.10707336091E+02 -0.21349906201E+01  0.40659102150E+02  0.00000000000E+00 0.  1.
         11    1    3    3    0    0  0.23619278545E+02  0.23910920697E+01 -0.12600033230E+02  0.26876541405E+02  0.51100000000E-03 0. -1.
        -11    1    3    3    0    0  0.39266384240E+01  0.93788085013E+00  0.63817385900E+01  0.75514698896E+01  0.51100000000E-03 0.  1.
         12    1    3    3    0    0  0.11619850693E+02  0.73783631715E+01  0.83532852605E+01  0.16100886555E+02  0.00000000000E+00 0. -1.
</event>
<event>
 7    1  0.9865694E-013  0.5052886E+02  0.7816164E-02  0.1300439E+00
        -11   -1    0    0    0    0  0.00000000000E+00  0.00000000000E+00  0.45593999997E+02  0.45594000000E+02  0.51100000000E-03 0.  1.
         11   -1    0    0    0    0 -0.00000000000E+00 -0.00000000000E+00 -0.45593999997E+02  0.45594000000E+02  0.51100000000E-03 0. -1.
    9900012    2    1    2    0    0 -0.84635327833E+01 -0.32594012200E+01 -0.39634713586E+02  0.50528860750E+02  0.30000002737E+02 0.  0.
        -12    1    1    2    0    0  0.84635327833E+01  0.32594012200E+01  0.39634713586E+02  0.40659139250E+02  0.00000000000E+00 0.  1.
         11    1    3    3    0    0 -0.10664441158E+02  0.97650650421E+01 -0.24430721240E+02  0.28389204657E+02  0.51100000000E-03 0. -1.
        -11    1    3    3    0    0  0.55218956386E+01 -0.64143080594E+01 -0.99684317889E+01  0.13076861700E+02  0.51100000000E-03 0.  1.
         12    1    3    3    0    0 -0.33209872641E+01 -0.66101582027E+01 -0.52355605570E+01  0.90627943935E+01  0.00000000000E+00 0. -1.
</event>
<event>
 7    1  0.9865694E-013  0.5052885E+02  0.7816164E-02  0.1300439E+00
        -11   -1    0    0    0    0  0.00000000000E+00  0.00000000000E+00  0.45593999997E+02  0.45594000000E+02  0.51100000000E-03 0. -1.
         11   -1    0    0    0    0 -0.00000000000E+00 -0.00000000000E+00 -0.45593999997E+02  0.45594000000E+02  0.51100000000E-03 0.  1.
    9900012    2    1    2    0    0 -0.38593057707E+02 -0.12550030248E+02  0.24978303793E+01  0.50528849505E+02  0.29999968554E+02 0.  0.
        -12    1    1    2    0    0  0.38593057707E+02  0.12550030248E+02 -0.24978303793E+01  0.40659150495E+02  0.00000000000E+00 0.  1.
         11    1    3    3    0    0 -0.26393583033E+02 -0.57381414234E+01  0.36562511778E+01  0.27256479326E+02  0.51100000000E-03 0. -1.
        -11    1    3    3    0    0  0.19172921918E+01  0.45764599707E+01 -0.13180381687E+01  0.51339283290E+01  0.51100000000E-03 0.  1.
        -12    1    3    3    0    0 -0.14116766865E+02 -0.11388348795E+02  0.15961737030E+00  0.18138441849E+02  0.00000000000E+00 0.  1.
</event>
<event>
 7    1  0.9865694E-013  0.5052886E+02  0.7816164E-02  0.1300439E+00
        -11   -1    0    0    0    0  0.00000000000E+00  0.00000000000E+00  0.45593999997E+02  0.45594000000E+02  0.51100000000E-03 0.  1.
         11   -1    0    0    0    0 -0.00000000000E+00 -0.00000000000E+00 -0.45593999997E+02  0.45594000000E+02  0.51100000000E-03 0. -1.
    9900012    2    1    2    0    0 -0.52180342868E+01 -0.34795294948E+02 -0.20377084309E+02  0.50528855921E+02  0.29999988057E+02 0.  0.
        -12    1    1    2    0    0  0.52180342868E+01  0.34795294948E+02  0.20377084309E+02  0.40659144079E+02  0.00000000000E+00 0.  1.
         11    1    3    3    0    0 -0.19393372427E+01 -0.41657240177E+01  0.53209564786E+01  0.70304241437E+01  0.51100000000E-03 0. -1.
        -11    1    3    3    0    0 -0.50841569065E+01 -0.60551444875E+01 -0.14319795583E+02  0.16357566201E+02  0.51100000000E-03 0.  1.
         12    1    3    3    0    0  0.18054598623E+01 -0.24574426443E+02 -0.11378245204E+02  0.27140865576E+02  0.00000000000E+00 0. -1.
</event>
<event>
 7    1  0.9865694E-013  0.5052886E+02  0.7816164E-02  0.1300439E+00
        -11   -1    0    0    0    0  0.00000000000E+00  0.00000000000E+00  0.45593999997E+02  0.45594000000E+02  0.51100000000E-03 0.  1.
         11   -1    0    0    0    0 -0.00000000000E+00 -0.00000000000E+00 -0.45593999997E+02  0.45594000000E+02  0.51100000000E-03 0. -1.
    9900012    2    1    2    0    0  0.32367308354E+02  0.14588487539E+02  0.19816631302E+02  0.50528862098E+02  0.30000006833E+02 0.  0.
        -12    1    1    2    0    0 -0.32367308354E+02 -0.14588487539E+02 -0.19816631302E+02  0.40659137902E+02  0.00000000000E+00 0.  1.
         11    1    3    3    0    0  0.68650143190E+01 -0.73036118908E+01 -0.16287328589E+01  0.10154995777E+02  0.51100000000E-03 0. -1.
        -11    1    3    3    0    0  0.65419070625E+01  0.82081594363E+01  0.41365174239E+01  0.11281897270E+02  0.51100000000E-03 0.  1.
         12    1    3    3    0    0  0.18960386973E+02  0.13683939994E+02  0.17308846737E+02  0.29091969051E+02  0.00000000000E+00 0. -1.
</event>
<event>
 7    1  0.9865694E-013  0.5052887E+02  0.7816164E-02  0.1300439E+00
        -11   -1    0    0    0    0  0.00000000000E+00  0.00000000000E+00  0.45593999997E+02  0.45594000000E+02  0.51100000000E-03 0. -1.
         11   -1    0    0    0    0 -0.00000000000E+00 -0.00000000000E+00 -0.45593999997E+02  0.45594000000E+02  0.51100000000E-03 0.  1.
    9900012    2    1    2    0    0  0.25510373953E+02  0.11626183973E+02  0.29448555860E+02  0.50528870949E+02  0.30000033735E+02 0.  0.
        -12    1    1    2    0    0 -0.25510373953E+02 -0.11626183973E+02 -0.29448555860E+02  0.40659129051E+02  0.00000000000E+00 0.  1.
         11    1    3    3    0    0  0.18025913084E+02  0.11066151120E+02  0.68023590749E+01  0.22218580791E+02  0.51100000000E-03 0. -1.
        -11    1    3    3    0    0  0.69432352508E+01  0.50698071360E+01  0.22127115357E+02  0.23738590826E+02  0.51100000000E-03 0.  1.
         12    1    3    3    0    0  0.54122561766E+00 -0.45097742821E+01  0.51908142815E+00  0.45716993311E+01  0.00000000000E+00 0. -1.
</event>
<event>
 7    1  0.9865694E-013  0.5052885E+02  0.7816164E-02  0.1300439E+00
        -11   -1    0    0    0    0  0.00000000000E+00  0.00000000000E+00  0.45593999997E+02  0.45594000000E+02  0.51100000000E-03 0. -1.
         11   -1    0    0    0    0 -0.00000000000E+00 -0.00000000000E+00 -0.45593999997E+02  0.45594000000E+02  0.51100000000E-03 0.  1.
    9900012    2    1    2    0    0 -0.24071994932E+02 -0.22272319229E+02  0.24034336753E+02  0.50528849898E+02  0.29999969750E+02 0.  0.
        -12    1    1    2    0    0  0.24071994932E+02  0.22272319229E+02 -0.24034336753E+02  0.40659150102E+02  0.00000000000E+00 0.  1.
         11    1    3    3    0    0  0.40902107575E+01 -0.10431840687E+02  0.45662747082E+00  0.11214349426E+02  0.51100000000E-03 0. -1.
        -11    1    3    3    0    0 -0.22601676224E+02 -0.12501505151E+02  0.18688921397E+02  0.31881016019E+02  0.51100000000E-03 0.  1.
        -12    1    3    3    0    0 -0.55605294655E+01  0.66102660859E+00  0.48887878853E+01  0.74334844522E+01  0.00000000000E+00 0.  1.
</event>
<event>
 7    1  0.9865694E-013  0.5052887E+02  0.7816164E-02  0.1300439E+00
        -11   -1    0    0    0    0  0.00000000000E+00  0.00000000000E+00  0.45593999997E+02  0.45594000000E+02  0.51100000000E-03 0.  1.
         11   -1    0    0    0    0 -0.00000000000E+00 -0.00000000000E+00 -0.45593999997E+02  0.45594000000E+02  0.51100000000E-03 0. -1.
    9900012    2    1    2    0    0  0.10316334708E+02  0.12111309827E+02 -0.37417298329E+02  0.50528870622E+02  0.30000032743E+02 0.  0.
        -12    1    1    2    0    0 -0.10316334708E+02 -0.12111309827E+02  0.37417298329E+02  0.40659129378E+02  0.00000000000E+00 0.  1.
         11    1    3    3    0    0  0.75933136615E+01  0.12289454098E+02 -0.11845702180E+02  0.18681802771E+02  0.51100000000E-03 0. -1.
        -11    1    3    3    0    0  0.23272956242E+01  0.17975218777E+01 -0.28301632027E+02  0.28453993841E+02  0.51100000000E-03 0.  1.
        -12    1    3    3    0    0  0.39572542245E+00 -0.19756661486E+01  0.27300358786E+01  0.33930740102E+01  0.00000000000E+00 0.  1.
</event>
<event>
 7    1  0.9865694E-013  0.5052885E+02  0.7816164E-02  0.1300439E+00
        -11   -1    0    0    0    0  0.00000000000E+00  0.00000000000E+00  0.45593999997E+02  0.45594000000E+02  0.51100000000E-03 0. -1.
         11   -1    0    0    0    0 -0.00000000000E+00 -0.00000000000E+00 -0.45593999997E+02  0.45594000000E+02  0.51100000000E-03 0.  1.
    9900012    2    1    2    0    0  0.37252023946E+01 -0.32994387599E+02  0.23466134712E+02  0.50528853130E+02  0.29999979573E+02 0.  0.
        -12    1    1    2    0    0 -0.37252023946E+01  0.32994387599E+02 -0.23466134712E+02  0.40659146870E+02  0.00000000000E+00 0.  1.
         11    1    3    3    0    0  0.17967868222E+01 -0.17317832649E+02  0.75087054143E+01  0.18960918433E+02  0.51100000000E-03 0. -1.
        -11    1    3    3    0    0 -0.28426786233E+01  0.49286984227E+01  0.13036554063E+01  0.58371574912E+01  0.51100000000E-03 0.  1.
        -12    1    3    3    0    0  0.47710941957E+01 -0.20605253373E+02  0.14653773891E+02  0.25730777206E+02  0.00000000000E+00 0.  1.
</event>
<event>
 7    1  0.9865694E-013  0.5052886E+02  0.7816164E-02  0.1300439E+00
        -11   -1    0    0    0    0  0.00000000000E+00  0.00000000000E+00  0.45593999997E+02  0.45594000000E+02  0.51100000000E-03 0.  1.
         11   -1    0    0    0    0 -0.00000000000E+00 -0.00000000000E+00 -0.45593999997E+02  0.45594000000E+02  0.51100000000E-03 0. -1.
    9900012    2    1    2    0    0 -0.20377314871E+02 -0.16631906630E+02 -0.31005000554E+02  0.50528864017E+02  0.30000012667E+02 0.  0.
        -12    1    1    2    0    0  0.20377314871E+02  0.16631906630E+02  0.31005000554E+02  0.40659135983E+02  0.00000000000E+00 0.  1.
         11    1    3    3    0    0 -0.50110306189E+00 -0.44253389718E+01 -0.89135808423E+01  0.99642688135E+01  0.51100000000E-03 0. -1.
        -11    1    3    3    0    0 -0.16339801604E+02 -0.92887588274E+01 -0.82927759257E+00  0.18813767794E+02  0.51100000000E-03 0.  1.
        -12    1    3    3    0    0 -0.35364102044E+01 -0.29178088304E+01 -0.21262142119E+02  0.21750827410E+02  0.00000000000E+00 0.  1.
</event>
<event>
 7    1  0.9865694E-013  0.5052885E+02  0.7816164E-02  0.1300439E+00
        -11   -1    0    0    0    0  0.00000000000E+00  0.00000000000E+00  0.45593999997E+02  0.45594000000E+02  0.51100000000E-03 0.  1.
         11   -1    0    0    0    0 -0.00000000000E+00 -0.00000000000E+00 -0.45593999997E+02  0.45594000000E+02  0.51100000000E-03 0. -1.
    9900012    2    1    2    0    0 -0.15006380523E+02 -0.64593794277E+00 -0.37783030445E+02  0.50528854880E+02  0.29999984895E+02 0.  0.
        -12    1    1    2    0    0  0.15006380523E+02  0.64593794277E+00  0.37783030445E+02  0.40659145120E+02  0.00000000000E+00 0.  1.
         11    1    3    3    0    0  0.37059297867E+01  0.68438232674E+01 -0.18896975714E+02  0.20436915714E+02  0.51100000000E-03 0. -1.
        -11    1    3    3    0    0 -0.79676627729E+01  0.26493530465E+01 -0.47602152325E+01  0.96520656311E+01  0.51100000000E-03 0.  1.
         12    1    3    3    0    0 -0.10744647537E+02 -0.10139114257E+02 -0.14125839499E+02  0.20439873536E+02  0.00000000000E+00 0. -1.
</event>
<event>
 7    1  0.9865694E-013  0.5052886E+02  0.7816164E-02  0.1300439E+00
        -11   -1    0    0    0    0  0.00000000000E+00  0.00000000000E+00  0.45593999997E+02  0.45594000000E+02  0.51100000000E-03 0.  1.
         11   -1    0    0    0    0 -0.00000000000E+00 -0.00000000000E+00 -0.45593999997E+02  0.45594000000E+02  0.51100000000E-03 0. -1.
    9900012    2    1    2    0    0 -0.84137902134E+01 -0.10971434991E+02 -0.38236129661E+02  0.50528857573E+02  0.29999993078E+02 0.  0.
        -12    1    1    2    0    0  0.84137902134E+01  0.10971434991E+02  0.38236129661E+02  0.40659142427E+02  0.00000000000E+00 0.  1.
         11    1    3    3    0    0 -0.51684215078E+01 -0.82770200304E+01 -0.29863709941E+02  0.31417555811E+02  0.51100000000E-03 0. -1.
        -11    1    3    3    0    0 -0.32820871668E+00  0.60198725111E+01  0.85422318630E+00  0.60890297687E+01  0.51100000000E-03 0.  1.
        -12    1    3    3    0    0 -0.29171599889E+01 -0.87142874712E+01 -0.92266429059E+01  0.13022271992E+02  0.00000000000E+00 0.  1.
</event>
<event>
 7    1  0.9865694E-013  0.5052887E+02  0.7816164E-02  0.1300439E+00
        -11   -1    0    0    0    0  0.00000000000E+00  0.00000000000E+00  0.45593999997E+02  0.45594000000E+02  0.51100000000E-03 0. -1.
         11   -1    0    0    0    0 -0.00000000000E+00 -0.00000000000E+00 -0.45593999997E+02  0.45594000000E+02  0.51100000000E-03 0.  1.
    9900012    2    1    2    0    0  0.25209967728E+02 -0.23053493850E+02  0.22049017231E+02  0.50528865573E+02  0.30000017396E+02 0.  0.
        -12    1    1    2    0    0 -0.25209967728E+02  0.23053493850E+02 -0.22049017231E+02  0.40659134427E+02  0.00000000000E+00 0.  1.
         11    1    3    3    0    0  0.22742196657E+02 -0.99090824580E+01  0.20348882968E+02  0.32085424451E+02  0.51100000000E-03 0. -1.
        -11    1    3    3    0    0  0.55085236347E+01 -0.13943169225E+02  0.28206205147E+00  0.14994510994E+02  0.51100000000E-03 0.  1.
        -12    1    3    3    0    0 -0.30407525635E+01  0.79875783379E+00  0.14180722113E+01  0.34489301277E+01  0.00000000000E+00 0.  1.
</event>
<event>
 7    1  0.9865694E-013  0.5052886E+02  0.7816164E-02  0.1300439E+00
        -11   -1    0    0    0    0  0.00000000000E+00  0.00000000000E+00  0.45593999997E+02  0.45594000000E+02  0.51100000000E-03 0. -1.
         11   -1    0    0    0    0 -0.00000000000E+00 -0.00000000000E+00 -0.45593999997E+02  0.45594000000E+02  0.51100000000E-03 0.  1.
    9900012    2    1    2    0    0  0.14339643450E+02  0.32437476163E+02  0.19883424783E+02  0.50528858160E+02  0.29999994863E+02 0.  0.
        -12    1    1    2    0    0 -0.14339643450E+02 -0.32437476163E+02 -0.19883424783E+02  0.40659141840E+02  0.00000000000E+00 0.  1.
         11    1    3    3    0    0  0.22736646677E+02  0.26931856118E+02  0.19537287147E+02  0.40298704265E+02  0.51100000000E-03 0. -1.
        -11    1    3    3    0    0 -0.66457438110E+01  0.51814291490E+01  0.50515528780E+00  0.84420554934E+01  0.51100000000E-03 0.  1.
         12    1    3    3    0    0 -0.17512594165E+01  0.32419089535E+00 -0.15901765205E+00  0.17880984017E+01  0.00000000000E+00 0. -1.
</event>
<event>
 7    1  0.9865694E-013  0.5052886E+02  0.7816164E-02  0.1300439E+00
        -11   -1    0    0    0    0  0.00000000000E+00  0.00000000000E+00  0.45593999997E+02  0.45594000000E+02  0.51100000000E-03 0. -1.
         11   -1    0    0    0    0 -0.00000000000E+00 -0.00000000000E+00 -0.45593999997E+02  0.45594000000E+02  0.51100000000E-03 0.  1.
    9900012    2    1    2    0    0  0.22169975360E+02  0.25685267918E+02  0.22403687903E+02  0.50528855553E+02  0.29999986939E+02 0.  0.
        -12    1    1    2    0    0 -0.22169975360E+02 -0.25685267918E+02 -0.22403687903E+02  0.40659144447E+02  0.00000000000E+00 0.  1.
         11    1    3    3    0    0  0.14018490544E+02  0.15933207982E+02  0.22516694618E+02  0.30941666576E+02  0.51100000000E-03 0. -1.
        -11    1    3    3    0    0  0.39654705619E+01  0.11295206943E+02 -0.49970899579E+01  0.12972184279E+02  0.51100000000E-03 0.  1.
        -12    1    3    3    0    0  0.41860142547E+01 -0.15431470071E+01  0.48840832432E+01  0.66150046978E+01  0.00000000000E+00 0.  1.
</event>
<event>
 7    1  0.9865694E-013  0.5052885E+02  0.7816164E-02  0.1300439E+00
        -11   -1    0    0    0    0  0.00000000000E+00  0.00000000000E+00  0.45593999997E+02  0.45594000000E+02  0.51100000000E-03 0.  1.
         11   -1    0    0    0    0 -0.00000000000E+00 -0.00000000000E+00 -0.45593999997E+02  0.45594000000E+02  0.51100000000E-03 0. -1.
    9900012    2    1    2    0    0  0.31000417856E+01 -0.38423919517E+02 -0.12928999755E+02  0.50528845006E+02  0.29999954881E+02 0.  0.
        -12    1    1    2    0    0 -0.31000417856E+01  0.38423919517E+02  0.12928999755E+02  0.40659154994E+02  0.00000000000E+00 0.  1.
         11    1    3    3    0    0 -0.35293740866E+01  0.58805396991E+00  0.47942779513E+01  0.59822562842E+01  0.51100000000E-03 0. -1.
        -11    1    3    3    0    0 -0.10823683436E+01 -0.62163675302E+01  0.34098413100E+00  0.63190993774E+01  0.51100000000E-03 0.  1.
         12    1    3    3    0    0  0.77117842157E+01 -0.32795605957E+02 -0.18064261837E+02  0.38227489345E+02  0.00000000000E+00 0. -1.
</event>
<event>
 7    1  0.9865694E-013  0.5052880E+02  0.7816164E-02  0.1300439E+00
        -11   -1    0    0    0    0  0.00000000000E+00  0.00000000000E+00  0.45593999997E+02  0.45594000000E+02  0.51100000000E-03 0.  1.
         11   -1    0    0    0    0 -0.00000000000E+00 -0.00000000000E+00 -0.45593999997E+02  0.45594000000E+02  0.51100000000E-03 0. -1.
    9900012    2    1    2    0    0 -0.17580903996E+02 -0.22192609820E+02 -0.29181682429E+02  0.50528798024E+02  0.29999812073E+02 0.  0.
        -12    1    1    2    0    0  0.17580903996E+02  0.22192609820E+02  0.29181682429E+02  0.40659201976E+02  0.00000000000E+00 0.  1.
         11    1    3    3    0    0 -0.12292848925E+02 -0.10151656304E+02 -0.19781222549E+02  0.25406043104E+02  0.51100000000E-03 0. -1.
        -11    1    3    3    0    0  0.17195028020E+01  0.32922450892E+01 -0.72257284588E+01  0.81244519590E+01  0.51100000000E-03 0.  1.
         12    1    3    3    0    0 -0.70075578733E+01 -0.15333198605E+02 -0.21747314219E+01  0.16998302961E+02  0.00000000000E+00 0. -1.
</event>
<event>
 7    1  0.9865694E-013  0.5052891E+02  0.7816164E-02  0.1300439E+00
        -11   -1    0    0    0    0  0.00000000000E+00  0.00000000000E+00  0.45593999997E+02  0.45594000000E+02  0.51100000000E-03 0. -1.
         11   -1    0    0    0    0 -0.00000000000E+00 -0.00000000000E+00 -0.45593999997E+02  0.45594000000E+02  0.51100000000E-03 0.  1.
    9900012    2    1    2    0    0  0.45151378179E+01  0.36824080207E+02  0.16636163051E+02  0.50528914008E+02  0.30000164620E+02 0.  0.
        -12    1    1    2    0    0 -0.45151378179E+01 -0.36824080207E+02 -0.16636163051E+02  0.40659085992E+02  0.00000000000E+00 0.  1.
         11    1    3    3    0    0 -0.88889198277E+00  0.28480909890E+02  0.13662477035E+02  0.31600880306E+02  0.51100000000E-03 0. -1.
        -11    1    3    3    0    0  0.70338890579E+01  0.64654376107E+01 -0.48530388248E+01  0.10715851104E+02  0.51100000000E-03 0.  1.
        -12    1    3    3    0    0 -0.16298592572E+01  0.18777327069E+01  0.78267248405E+01  0.82121825994E+01  0.00000000000E+00 0.  1.
</event>
<event>
 7    1  0.9865694E-013  0.5052886E+02  0.7816164E-02  0.1300439E+00
        -11   -1    0    0    0    0  0.00000000000E+00  0.00000000000E+00  0.45593999997E+02  0.45594000000E+02  0.51100000000E-03 0. -1.
         11   -1    0    0    0    0 -0.00000000000E+00 -0.00000000000E+00 -0.45593999997E+02  0.45594000000E+02  0.51100000000E-03 0.  1.
    9900012    2    1    2    0    0  0.14543070779E+02 -0.26669404870E+02  0.27026051985E+02  0.50528861425E+02  0.30000004787E+02 0.  0.
        -12    1    1    2    0    0 -0.14543070779E+02  0.26669404870E+02 -0.27026051985E+02  0.40659138575E+02  0.00000000000E+00 0.  1.
         11    1    3    3    0    0  0.14292625377E+02 -0.24511869630E+02  0.26511678023E+02  0.38832717710E+02  0.51100000000E-03 0. -1.
        -11    1    3    3    0    0 -0.30562546176E+01  0.35325485966E+01  0.17719412992E+01  0.49959351581E+01  0.51100000000E-03 0.  1.
         12    1    3    3    0    0  0.33067000198E+01 -0.56900838369E+01 -0.12575673375E+01  0.67002085565E+01  0.00000000000E+00 0. -1.
</event>
<event>
 7    1  0.9865694E-013  0.5052886E+02  0.7816164E-02  0.1300439E+00
        -11   -1    0    0    0    0  0.00000000000E+00  0.00000000000E+00  0.45593999997E+02  0.45594000000E+02  0.51100000000E-03 0.  1.
         11   -1    0    0    0    0 -0.00000000000E+00 -0.00000000000E+00 -0.45593999997E+02  0.45594000000E+02  0.51100000000E-03 0. -1.
    9900012    2    1    2    0    0  0.31175517233E+02  0.57276730938E+01 -0.25464615379E+02  0.50528858958E+02  0.29999997290E+02 0.  0.
        -12    1    1    2    0    0 -0.31175517233E+02 -0.57276730938E+01  0.25464615379E+02  0.40659141042E+02  0.00000000000E+00 0.  1.
         11    1    3    3    0    0  0.26597750120E+02  0.97917555246E+01 -0.15733428516E+02  0.32416964090E+02  0.51100000000E-03 0. -1.
        -11    1    3    3    0    0  0.60880764393E+01 -0.43691964972E+01  0.73803866524E+00  0.75298907093E+01  0.51100000000E-03 0.  1.
         12    1    3    3    0    0 -0.15103093259E+01  0.30511406628E+00 -0.10469225529E+02  0.10582004159E+02  0.00000000000E+00 0. -1.
</event>
<event>
 7    1  0.9865694E-013  0.5052886E+02  0.7816164E-02  0.1300439E+00
        -11   -1    0    0    0    0  0.00000000000E+00  0.00000000000E+00  0.45593999997E+02  0.45594000000E+02  0.51100000000E-03 0.  1.
         11   -1    0    0    0    0 -0.00000000000E+00 -0.00000000000E+00 -0.45593999997E+02  0.45594000000E+02  0.51100000000E-03 0. -1.
    9900012    2    1    2    0    0 -0.16626620758E+02  0.30648952257E+02 -0.20913223012E+02  0.50528859711E+02  0.29999999578E+02 0.  0.
        -12    1    1    2    0    0  0.16626620758E+02 -0.30648952257E+02  0.20913223012E+02  0.40659140289E+02  0.00000000000E+00 0.  1.
         11    1    3    3    0    0 -0.98518676118E+01 -0.19204070994E+01 -0.89020995178E+01  0.13416207920E+02  0.51100000000E-03 0. -1.
        -11    1    3    3    0    0  0.17355910648E+01  0.18751072625E+02 -0.74883859844E+01  0.20265510747E+02  0.51100000000E-03 0.  1.
         12    1    3    3    0    0 -0.85103442109E+01  0.13818286732E+02 -0.45227375099E+01  0.16847141044E+02  0.00000000000E+00 0. -1.
</event>
<event>
 7    1  0.9865694E-013  0.5052885E+02  0.7816164E-02  0.1300439E+00
        -11   -1    0    0    0    0  0.00000000000E+00  0.00000000000E+00  0.45593999997E+02  0.45594000000E+02  0.51100000000E-03 0. -1.
         11   -1    0    0    0    0 -0.00000000000E+00 -0.00000000000E+00 -0.45593999997E+02  0.45594000000E+02  0.51100000000E-03 0.  1.
    9900012    2    1    2    0    0  0.22439321769E+02  0.11736583029E+02  0.31810305517E+02  0.50528854907E+02  0.29999984975E+02 0.  0.
        -12    1    1    2    0    0 -0.22439321769E+02 -0.11736583029E+02 -0.31810305517E+02  0.40659145093E+02  0.00000000000E+00 0.  1.
         11    1    3    3    0    0  0.25861465070E+02  0.14335074467E+02  0.21627033429E+02  0.36633841060E+02  0.51100000000E-03 0. -1.
        -11    1    3    3    0    0 -0.47700836565E+01  0.68359961665E+00  0.89021325184E+01  0.10122695795E+02  0.51100000000E-03 0.  1.
         12    1    3    3    0    0  0.13479403548E+01 -0.32820910546E+01  0.12811395690E+01  0.37723180520E+01  0.00000000000E+00 0. -1.
</event>
<event>
 7    1  0.9865694E-013  0.5052886E+02  0.7816164E-02  0.1300439E+00
        -11   -1    0    0    0    0  0.00000000000E+00  0.00000000000E+00  0.45593999997E+02  0.45594000000E+02  0.51100000000E-03 0.  1.
         11   -1    0    0    0    0 -0.00000000000E+00 -0.00000000000E+00 -0.45593999997E+02  0.45594000000E+02  0.51100000000E-03 0. -1.
    9900012    2    1    2    0    0 -0.40264363021E+01 -0.37906442547E+02 -0.14144074296E+02  0.50528863098E+02  0.30000009874E+02 0.  0.
        -12    1    1    2    0    0  0.40264363021E+01  0.37906442547E+02  0.14144074296E+02  0.40659136902E+02  0.00000000000E+00 0.  1.
         11    1    3    3    0    0 -0.35683908239E+01 -0.16080239870E+02 -0.79020827299E+01  0.18268837924E+02  0.51100000000E-03 0. -1.
        -11    1    3    3    0    0  0.10715059377E+02 -0.78364514514E+01  0.72808633657E-01  0.13275080797E+02  0.51100000000E-03 0.  1.
        -12    1    3    3    0    0 -0.11173104855E+02 -0.13989751226E+02 -0.63148001998E+01  0.18984944378E+02  0.00000000000E+00 0.  1.
</event>
<event>
 7    1  0.9865694E-013  0.5052890E+02  0.7816164E-02  0.1300439E+00
        -11   -1    0    0    0    0  0.00000000000E+00  0.00000000000E+00  0.45593999997E+02  0.45594000000E+02  0.51100000000E-03 0.  1.
         11   -1    0    0    0    0 -0.00000000000E+00 -0.00000000000E+00 -0.45593999997E+02  0.45594000000E+02  0.51100000000E-03 0. -1.
    9900012    2    1    2    0    0  0.68981801338E+01 -0.28863948023E+02 -0.27792987398E+02  0.50528898520E+02  0.30000117541E+02 0.  0.
        -12    1    1    2    0    0 -0.68981801338E+01  0.28863948023E+02  0.27792987398E+02  0.40659101480E+02  0.00000000000E+00 0.  1.
         11    1    3    3    0    0  0.57197445959E+01  0.78435242006E+00  0.53071375227E+00  0.57976153985E+01  0.51100000000E-03 0. -1.
        -11    1    3    3    0    0  0.23159256268E+01 -0.31231004647E+02 -0.22421923616E+02  0.38515994362E+02  0.51100000000E-03 0.  1.
         12    1    3    3    0    0 -0.11374900889E+01  0.15827042035E+01 -0.59017775344E+01  0.62152887595E+01  0.00000000000E+00 0. -1.
</event>
<event>
 7    1  0.9865694E-013  0.5052886E+02  0.7816164E-02  0.1300439E+00
        -11   -1    0    0    0    0  0.00000000000E+00  0.00000000000E+00  0.45593999997E+02  0.45594000000E+02  0.51100000000E-03 0.  1.
         11   -1    0    0    0    0 -0.00000000000E+00 -0.00000000000E+00 -0.45593999997E+02  0.45594000000E+02  0.51100000000E-03 0. -1.
    9900012    2    1    2    0    0  0.30417751269E+02 -0.19391747927E+02 -0.18758619577E+02  0.50528864639E+02  0.30000014556E+02 0.  0.
        -12    1    1    2    0    0 -0.30417751269E+02  0.19391747927E+02  0.18758619577E+02  0.40659135361E+02  0.00000000000E+00 0.  1.
         11    1    3    3    0    0  0.91615880648E+01 -0.12750208000E+02 -0.13507411915E+02  0.20711172753E+02  0.51100000000E-03 0. -1.
        -11    1    3    3    0    0  0.12494467002E+02  0.60128249293E+01 -0.12983560671E+01  0.13926647050E+02  0.51100000000E-03 0.  1.
        -12    1    3    3    0    0  0.87616962017E+01 -0.12654364856E+02 -0.39528515942E+01  0.15891044836E+02  0.00000000000E+00 0.  1.
</event>
<event>
 7    1  0.9865694E-013  0.5052885E+02  0.7816164E-02  0.1300439E+00
        -11   -1    0    0    0    0  0.00000000000E+00  0.00000000000E+00  0.45593999997E+02  0.45594000000E+02  0.51100000000E-03 0. -1.
         11   -1    0    0    0    0 -0.00000000000E+00 -0.00000000000E+00 -0.45593999997E+02  0.45594000000E+02  0.51100000000E-03 0.  1.
    9900012    2    1    2    0    0 -0.15429324332E+02  0.14970149322E+02  0.34510825163E+02  0.50528850064E+02  0.29999970256E+02 0.  0.
        -12    1    1    2    0    0  0.15429324332E+02 -0.14970149322E+02 -0.34510825163E+02  0.40659149936E+02  0.00000000000E+00 0.  1.
         11    1    3    3    0    0 -0.32496136964E+01  0.13604465046E+02  0.28330813196E+02  0.31595512893E+02  0.51100000000E-03 0. -1.
        -11    1    3    3    0    0 -0.11077211104E+02  0.63132892670E+01  0.52047946408E+01  0.13771423845E+02  0.51100000000E-03 0.  1.
         12    1    3    3    0    0 -0.11024995316E+01 -0.49476049902E+01  0.97521732570E+00  0.51619133263E+01  0.00000000000E+00 0. -1.
</event>
<event>
 7    1  0.9865694E-013  0.5052886E+02  0.7816164E-02  0.1300439E+00
        -11   -1    0    0    0    0  0.00000000000E+00  0.00000000000E+00  0.45593999997E+02  0.45594000000E+02  0.51100000000E-03 0. -1.
         11   -1    0    0    0    0 -0.00000000000E+00 -0.00000000000E+00 -0.45593999997E+02  0.45594000000E+02  0.51100000000E-03 0.  1.
    9900012    2    1    2    0    0 -0.24536666961E+02 -0.27695811376E+01  0.32302433085E+02  0.50528858489E+02  0.29999995862E+02 0.  0.
        -12    1    1    2    0    0  0.24536666961E+02  0.27695811376E+01 -0.32302433085E+02  0.40659141511E+02  0.00000000000E+00 0.  1.
         11    1    3    3    0    0 -0.27151615706E+01 -0.99470410003E+01  0.14214149756E+02  0.17560119036E+02  0.51100000000E-03 0. -1.
        -11    1    3    3    0    0 -0.20516576448E+02  0.38515522650E+01  0.81530340417E+01  0.22410629807E+02  0.51100000000E-03 0.  1.
        -12    1    3    3    0    0 -0.13049289423E+01  0.33259075977E+01  0.99352492873E+01  0.10558109646E+02  0.00000000000E+00 0.  1.
</event>
<event>
 7    1  0.9865694E-013  0.5052886E+02  0.7816164E-02  0.1300439E+00
        -11   -1    0    0    0    0  0.00000000000E+00  0.00000000000E+00  0.45593999997E+02  0.45594000000E+02  0.51100000000E-03 0.  1.
         11   -1    0    0    0    0 -0.00000000000E+00 -0.00000000000E+00 -0.45593999997E+02  0.45594000000E+02  0.51100000000E-03 0. -1.
    9900012    2    1    2    0    0  0.14960770815E+02 -0.20393642017E+02 -0.31834579304E+02  0.50528859114E+02  0.29999997763E+02 0.  0.
        -12    1    1    2    0    0 -0.14960770815E+02  0.20393642017E+02  0.31834579304E+02  0.40659140886E+02  0.00000000000E+00 0.  1.
         11    1    3    3    0    0  0.36507861736E+01  0.61681745294E+01 -0.60711086473E+01  0.93932410370E+01  0.51100000000E-03 0. -1.
        -11    1    3    3    0    0  0.19216798975E+01 -0.18276591699E+02 -0.97365200742E+01  0.20797271003E+02  0.51100000000E-03 0.  1.
         12    1    3    3    0    0  0.93883047434E+01 -0.82852248482E+01 -0.16026950583E+02  0.20338347074E+02  0.00000000000E+00 0. -1.
</event>
<event>
 7    1  0.9865694E-013  0.5052886E+02  0.7816164E-02  0.1300439E+00
        -11   -1    0    0    0    0  0.00000000000E+00  0.00000000000E+00  0.45593999997E+02  0.45594000000E+02  0.51100000000E-03 0.  1.
         11   -1    0    0    0    0 -0.00000000000E+00 -0.00000000000E+00 -0.45593999997E+02  0.45594000000E+02  0.51100000000E-03 0. -1.
    9900012    2    1    2    0    0 -0.62188377278E+00 -0.24745018376E+02 -0.32256204933E+02  0.50528862890E+02  0.30000009241E+02 0.  0.
        -12    1    1    2    0    0  0.62188377278E+00  0.24745018376E+02  0.32256204933E+02  0.40659137110E+02  0.00000000000E+00 0.  1.
         11    1    3    3    0    0 -0.14358020747E+01 -0.17783657030E+02 -0.36882632064E+02  0.40971313540E+02  0.51100000000E-03 0. -1.
        -11    1    3    3    0    0  0.17337879129E+01 -0.72030649000E+01  0.41840237121E+01  0.85085967801E+01  0.51100000000E-03 0.  1.
         12    1    3    3    0    0 -0.91986961100E+00  0.24170355375E+00  0.44240341938E+00  0.10489525702E+01  0.00000000000E+00 0. -1.
</event>
<event>
 7    1  0.9865694E-013  0.5052885E+02  0.7816164E-02  0.1300439E+00
        -11   -1    0    0    0    0  0.00000000000E+00  0.00000000000E+00  0.45593999997E+02  0.45594000000E+02  0.51100000000E-03 0.  1.
         11   -1    0    0    0    0 -0.00000000000E+00 -0.00000000000E+00 -0.45593999997E+02  0.45594000000E+02  0.51100000000E-03 0. -1.
    9900012    2    1    2    0    0 -0.17908136356E+02  0.11152049368E+02 -0.34757684065E+02  0.50528853988E+02  0.29999982181E+02 0.  0.
        -12    1    1    2    0    0  0.17908136356E+02 -0.11152049368E+02  0.34757684065E+02  0.40659146012E+02  0.00000000000E+00 0.  1.
         11    1    3    3    0    0 -0.21962848044E+02  0.12218290108E+02 -0.31863641163E+02  0.40582569360E+02  0.51100000000E-03 0. -1.
        -11    1    3    3    0    0 -0.10114376026E+01 -0.12878006199E+01  0.22105674996E+01  0.27510080683E+01  0.51100000000E-03 0.  1.
         12    1    3    3    0    0  0.50661492912E+01  0.22155988017E+00 -0.51046104018E+01  0.71952765600E+01  0.00000000000E+00 0. -1.
</event>
<event>
 7    1  0.9865694E-013  0.5052887E+02  0.7816164E-02  0.1300439E+00
        -11   -1    0    0    0    0  0.00000000000E+00  0.00000000000E+00  0.45593999997E+02  0.45594000000E+02  0.51100000000E-03 0.  1.
         11   -1    0    0    0    0 -0.00000000000E+00 -0.00000000000E+00 -0.45593999997E+02  0.45594000000E+02  0.51100000000E-03 0. -1.
    9900012    2    1    2    0    0  0.75688051939E+01  0.30093704730E+02 -0.26272548046E+02  0.50528872399E+02  0.30000038144E+02 0.  0.
        -12    1    1    2    0    0 -0.75688051939E+01 -0.30093704730E+02  0.26272548046E+02  0.40659127601E+02  0.00000000000E+00 0.  1.
         11    1    3    3    0    0  0.12963764218E+02  0.16916550287E+02 -0.20756935537E+01  0.21413485478E+02  0.51100000000E-03 0. -1.
        -11    1    3    3    0    0 -0.68095001618E+01  0.66837494874E+01 -0.14646903813E+02  0.17480663352E+02  0.51100000000E-03 0.  1.
         12    1    3    3    0    0  0.14145411379E+01  0.64934049554E+01 -0.95499506795E+01  0.11634723569E+02  0.00000000000E+00 0. -1.
</event>
<event>
 7    1  0.9865694E-013  0.5052884E+02  0.7816164E-02  0.1300439E+00
        -11   -1    0    0    0    0  0.00000000000E+00  0.00000000000E+00  0.45593999997E+02  0.45594000000E+02  0.51100000000E-03 0.  1.
         11   -1    0    0    0    0 -0.00000000000E+00 -0.00000000000E+00 -0.45593999997E+02  0.45594000000E+02  0.51100000000E-03 0. -1.
    9900012    2    1    2    0    0 -0.17204049228E+02  0.15650936452E+02 -0.33350204539E+02  0.50528840337E+02  0.29999940689E+02 0.  0.
        -12    1    1    2    0    0  0.17204049228E+02 -0.15650936452E+02  0.33350204539E+02  0.40659159663E+02  0.00000000000E+00 0.  1.
         11    1    3    3    0    0 -0.35733976858E+01  0.16735268285E+02 -0.10197777356E+02  0.19920668635E+02  0.51100000000E-03 0. -1.
        -11    1    3    3    0    0 -0.67857825310E+01  0.10347709046E+01 -0.22370865547E+02  0.23400282498E+02  0.51100000000E-03 0.  1.
         12    1    3    3    0    0 -0.68448690114E+01 -0.21191027378E+01 -0.78156163625E+00  0.72078892047E+01  0.00000000000E+00 0. -1.
</event>
<event>
 7    1  0.9865694E-013  0.5052887E+02  0.7816164E-02  0.1300439E+00
        -11   -1    0    0    0    0  0.00000000000E+00  0.00000000000E+00  0.45593999997E+02  0.45594000000E+02  0.51100000000E-03 0. -1.
         11   -1    0    0    0    0 -0.00000000000E+00 -0.00000000000E+00 -0.45593999997E+02  0.45594000000E+02  0.51100000000E-03 0.  1.
    9900012    2    1    2    0    0  0.39954825243E+02  0.58046896946E+01 -0.48044524927E+01  0.50528865154E+02  0.30000016122E+02 0.  0.
        -12    1    1    2    0    0 -0.39954825243E+02 -0.58046896946E+01  0.48044524927E+01  0.40659134846E+02  0.00000000000E+00 0.  1.
         11    1    3    3    0    0  0.23289342990E+02  0.10040370886E+02  0.35190060422E+01  0.25604412671E+02  0.51100000000E-03 0. -1.
        -11    1    3    3    0    0  0.33826543226E+01 -0.74232705397E+01  0.12374357277E+01  0.82509722586E+01  0.51100000000E-03 0.  1.
        -12    1    3    3    0    0  0.13282827931E+02  0.31875893488E+01 -0.95608942626E+01  0.16673480224E+02  0.00000000000E+00 0.  1.
</event>
<event>
 7    1  0.9865694E-013  0.5052885E+02  0.7816164E-02  0.1300439E+00
        -11   -1    0    0    0    0  0.00000000000E+00  0.00000000000E+00  0.45593999997E+02  0.45594000000E+02  0.51100000000E-03 0.  1.
         11   -1    0    0    0    0 -0.00000000000E+00 -0.00000000000E+00 -0.45593999997E+02  0.45594000000E+02  0.51100000000E-03 0. -1.
    9900012    2    1    2    0    0  0.16220654817E+02  0.74847207723E+01 -0.36524458506E+02  0.50528846579E+02  0.29999959662E+02 0.  0.
        -12    1    1    2    0    0 -0.16220654817E+02 -0.74847207723E+01  0.36524458506E+02  0.40659153421E+02  0.00000000000E+00 0.  1.
         11    1    3    3    0    0 -0.13247892160E+01  0.37336174825E+01 -0.26250444535E+02  0.26547708084E+02  0.51100000000E-03 0. -1.
        -11    1    3    3    0    0  0.12693207485E+02  0.65335720421E+01 -0.11407630468E+02  0.18274001013E+02  0.51100000000E-03 0.  1.
         12    1    3    3    0    0  0.48522365478E+01 -0.27824687523E+01  0.11336164967E+01  0.57071374817E+01  0.00000000000E+00 0. -1.
</event>
<event>
 7    1  0.9865694E-013  0.5052887E+02  0.7816164E-02  0.1300439E+00
        -11   -1    0    0    0    0  0.00000000000E+00  0.00000000000E+00  0.45593999997E+02  0.45594000000E+02  0.51100000000E-03 0. -1.
         11   -1    0    0    0    0 -0.00000000000E+00 -0.00000000000E+00 -0.45593999997E+02  0.45594000000E+02  0.51100000000E-03 0.  1.
    9900012    2    1    2    0    0  0.21661345784E+02  0.17045281994E+02  0.29889948372E+02  0.50528873680E+02  0.30000042038E+02 0.  0.
        -12    1    1    2    0    0 -0.21661345784E+02 -0.17045281994E+02 -0.29889948372E+02  0.40659126320E+02  0.00000000000E+00 0.  1.
         11    1    3    3    0    0  0.17331882538E+02  0.12235149941E+02  0.16705952558E+02  0.27003368263E+02  0.51100000000E-03 0. -1.
        -11    1    3    3    0    0  0.58737019583E+01 -0.59779141319E+01  0.40599094390E+01  0.93122874192E+01  0.51100000000E-03 0.  1.
        -12    1    3    3    0    0 -0.15442387123E+01  0.10788046185E+02  0.91240863749E+01  0.14213217998E+02  0.00000000000E+00 0.  1.
</event>
<event>
 7    1  0.9865694E-013  0.5052886E+02  0.7816164E-02  0.1300439E+00
        -11   -1    0    0    0    0  0.00000000000E+00  0.00000000000E+00  0.45593999997E+02  0.45594000000E+02  0.51100000000E-03 0. -1.
         11   -1    0    0    0    0 -0.00000000000E+00 -0.00000000000E+00 -0.45593999997E+02  0.45594000000E+02  0.51100000000E-03 0.  1.
    9900012    2    1    2    0    0 -0.33965219141E+02  0.14692883354E+02  0.16841877021E+02  0.50528858910E+02  0.29999997143E+02 0.  0.
        -12    1    1    2    0    0  0.33965219141E+02 -0.14692883354E+02 -0.16841877021E+02  0.40659141090E+02  0.00000000000E+00 0.  1.
         11    1    3    3    0    0 -0.29828824615E+02  0.15859348470E+02  0.11262455600E+02  0.35610681238E+02  0.51100000000E-03 0. -1.
        -11    1    3    3    0    0 -0.29310027502E+01 -0.49273574471E+01 -0.22421837813E+01  0.61560553038E+01  0.51100000000E-03 0.  1.
         12    1    3    3    0    0 -0.12053917760E+01  0.37608923309E+01  0.78216052022E+01  0.87621223683E+01  0.00000000000E+00 0. -1.
</event>
<event>
 7    1  0.9865694E-013  0.5052887E+02  0.7816164E-02  0.1300439E+00
        -11   -1    0    0    0    0  0.00000000000E+00  0.00000000000E+00  0.45593999997E+02  0.45594000000E+02  0.51100000000E-03 0. -1.
         11   -1    0    0    0    0 -0.00000000000E+00 -0.00000000000E+00 -0.45593999997E+02  0.45594000000E+02  0.51100000000E-03 0.  1.
    9900012    2    1    2    0    0  0.34151392202E+02  0.18609767620E+02  0.11854282186E+02  0.50528867614E+02  0.30000023599E+02 0.  0.
        -12    1    1    2    0    0 -0.34151392202E+02 -0.18609767620E+02 -0.11854282186E+02  0.40659132386E+02  0.00000000000E+00 0.  1.
         11    1    3    3    0    0  0.22817540371E+02  0.34394177097E+01 -0.16168579798E+01  0.23131882170E+02  0.51100000000E-03 0. -1.
        -11    1    3    3    0    0  0.12174515975E+02  0.16166484614E+02  0.79818992176E+01  0.21755109271E+02  0.51100000000E-03 0.  1.
         12    1    3    3    0    0 -0.84066414363E+00 -0.99613470433E+00  0.54892409486E+01  0.56418761723E+01  0.00000000000E+00 0. -1.
</event>
<event>
 7    1  0.9865694E-013  0.5052886E+02  0.7816164E-02  0.1300439E+00
        -11   -1    0    0    0    0  0.00000000000E+00  0.00000000000E+00  0.45593999997E+02  0.45594000000E+02  0.51100000000E-03 0. -1.
         11   -1    0    0    0    0 -0.00000000000E+00 -0.00000000000E+00 -0.45593999997E+02  0.45594000000E+02  0.51100000000E-03 0.  1.
    9900012    2    1    2    0    0 -0.32726042666E+02  0.78845137523E+01  0.22803642579E+02  0.50528861537E+02  0.30000005129E+02 0.  0.
        -12    1    1    2    0    0  0.32726042666E+02 -0.78845137523E+01 -0.22803642579E+02  0.40659138463E+02  0.00000000000E+00 0.  1.
         11    1    3    3    0    0 -0.12430264188E+02 -0.44866616181E+01  0.16527082621E+02  0.21160956039E+02  0.51100000000E-03 0. -1.
        -11    1    3    3    0    0 -0.22489107320E+02  0.86316380654E+01  0.38340835812E+01  0.24391910973E+02  0.51100000000E-03 0.  1.
         12    1    3    3    0    0  0.21933288422E+01  0.37395373050E+01  0.24424763764E+01  0.49759945252E+01  0.00000000000E+00 0. -1.
</event>
<event>
 7    1  0.9865694E-013  0.5052886E+02  0.7816164E-02  0.1300439E+00
        -11   -1    0    0    0    0  0.00000000000E+00  0.00000000000E+00  0.45593999997E+02  0.45594000000E+02  0.51100000000E-03 0.  1.
         11   -1    0    0    0    0 -0.00000000000E+00 -0.00000000000E+00 -0.45593999997E+02  0.45594000000E+02  0.51100000000E-03 0. -1.
    9900012    2    1    2    0    0  0.71370703655E+00 -0.54787457325E+01 -0.40282005807E+02  0.50528855588E+02  0.29999987044E+02 0.  0.
        -12    1    1    2    0    0 -0.71370703655E+00  0.54787457325E+01  0.40282005807E+02  0.40659144412E+02  0.00000000000E+00 0.  1.
         11    1    3    3    0    0 -0.34698503848E+01 -0.13241794238E+02 -0.20403704747E+02  0.24570228815E+02  0.51100000000E-03 0. -1.
        -11    1    3    3    0    0  0.68888185998E+01  0.34520367978E+01 -0.28985246014E+01  0.82324859478E+01  0.51100000000E-03 0.  1.
        -12    1    3    3    0    0 -0.27052611784E+01  0.43110117079E+01 -0.16979776458E+02  0.17726140825E+02  0.00000000000E+00 0.  1.
</event>
<event>
 7    1  0.9865694E-013  0.5052886E+02  0.7816164E-02  0.1300439E+00
        -11   -1    0    0    0    0  0.00000000000E+00  0.00000000000E+00  0.45593999997E+02  0.45594000000E+02  0.51100000000E-03 0. -1.
         11   -1    0    0    0    0 -0.00000000000E+00 -0.00000000000E+00 -0.45593999997E+02  0.45594000000E+02  0.51100000000E-03 0.  1.
    9900012    2    1    2    0    0  0.83057594608E+01 -0.36000657148E+02 -0.16974462501E+02  0.50528864095E+02  0.30000012905E+02 0.  0.
        -12    1    1    2    0    0 -0.83057594608E+01  0.36000657148E+02  0.16974462501E+02  0.40659135905E+02  0.00000000000E+00 0.  1.
         11    1    3    3    0    0  0.13594836267E+01  0.21919739568E+01  0.28932723778E-01  0.25794927645E+01  0.51100000000E-03 0. -1.
        -11    1    3    3    0    0  0.11460327802E+02 -0.38610296982E+02 -0.15756591966E+02  0.43247709038E+02  0.51100000000E-03 0.  1.
        -12    1    3    3    0    0 -0.45140519677E+01  0.41766587746E+00 -0.12468032587E+01  0.47016622931E+01  0.00000000000E+00 0.  1.
</event>
<event>
 7    1  0.9865694E-013  0.5052887E+02  0.7816164E-02  0.1300439E+00
        -11   -1    0    0    0    0  0.00000000000E+00  0.00000000000E+00  0.45593999997E+02  0.45594000000E+02  0.51100000000E-03 0.  1.
         11   -1    0    0    0    0 -0.00000000000E+00 -0.00000000000E+00 -0.45593999997E+02  0.45594000000E+02  0.51100000000E-03 0. -1.
    9900012    2    1    2    0    0 -0.10273352243E+02 -0.16404794403E+02 -0.35756204854E+02  0.50528865340E+02  0.30000016688E+02 0.  0.
        -12    1    1    2    0    0  0.10273352243E+02  0.16404794403E+02  0.35756204854E+02  0.40659134660E+02  0.00000000000E+00 0.  1.
         11    1    3    3    0    0 -0.72857175095E+01  0.80634707919E+01 -0.13269604735E+02  0.17151782733E+02  0.51100000000E-03 0. -1.
        -11    1    3    3    0    0 -0.23291325656E+01 -0.15946967344E+02 -0.14921564064E+02  0.21963235198E+02  0.51100000000E-03 0.  1.
         12    1    3    3    0    0 -0.65850216808E+00 -0.85212978510E+01 -0.75650360552E+01  0.11413847410E+02  0.00000000000E+00 0. -1.
</event>
<event>
 7    1  0.9865694E-013  0.5052886E+02  0.7816164E-02  0.1300439E+00
        -11   -1    0    0    0    0  0.00000000000E+00  0.00000000000E+00  0.45593999997E+02  0.45594000000E+02  0.51100000000E-03 0.  1.
         11   -1    0    0    0    0 -0.00000000000E+00 -0.00000000000E+00 -0.45593999997E+02  0.45594000000E+02  0.51100000000E-03 0. -1.
    9900012    2    1    2    0    0 -0.38647639916E+02 -0.11094619669E+02  0.60361361528E+01  0.50528860852E+02  0.30000003044E+02 0.  0.
        -12    1    1    2    0    0  0.38647639916E+02  0.11094619669E+02 -0.60361361528E+01  0.40659139148E+02  0.00000000000E+00 0.  1.
         11    1    3    3    0    0 -0.24970408821E+02 -0.12062325479E+02 -0.62406961437E+01  0.28424765633E+02  0.51100000000E-03 0. -1.
        -11    1    3    3    0    0 -0.15205410708E+02 -0.75700958366E+00  0.12619443234E+02  0.19774426063E+02  0.51100000000E-03 0.  1.
         12    1    3    3    0    0  0.15281796140E+01  0.17247153939E+01 -0.34261093696E+00  0.23296691561E+01  0.00000000000E+00 0. -1.
</event>
<event>
 7    1  0.9865694E-013  0.5052887E+02  0.7816164E-02  0.1300439E+00
        -11   -1    0    0    0    0  0.00000000000E+00  0.00000000000E+00  0.45593999997E+02  0.45594000000E+02  0.51100000000E-03 0.  1.
         11   -1    0    0    0    0 -0.00000000000E+00 -0.00000000000E+00 -0.45593999997E+02  0.45594000000E+02  0.51100000000E-03 0. -1.
    9900012    2    1    2    0    0 -0.11789931290E+02 -0.38079438275E+02  0.80074051996E+01  0.50528872646E+02  0.30000038895E+02 0.  0.
        -12    1    1    2    0    0  0.11789931290E+02  0.38079438275E+02 -0.80074051996E+01  0.40659127354E+02  0.00000000000E+00 0.  1.
         11    1    3    3    0    0 -0.15935059412E+01 -0.96042744191E+01 -0.10247200127E+01  0.97893513404E+01  0.51100000000E-03 0. -1.
        -11    1    3    3    0    0 -0.10126139104E+02  0.91112840225E+00  0.68232302673E+00  0.10189917227E+02  0.51100000000E-03 0.  1.
        -12    1    3    3    0    0 -0.70286244650E-01 -0.29386292258E+02  0.83498021856E+01  0.30549604079E+02  0.00000000000E+00 0.  1.
</event>
<event>
 7    1  0.9865694E-013  0.5052886E+02  0.7816164E-02  0.1300439E+00
        -11   -1    0    0    0    0  0.00000000000E+00  0.00000000000E+00  0.45593999997E+02  0.45594000000E+02  0.51100000000E-03 0.  1.
         11   -1    0    0    0    0 -0.00000000000E+00 -0.00000000000E+00 -0.45593999997E+02  0.45594000000E+02  0.51100000000E-03 0. -1.
    9900012    2    1    2    0    0  0.13750824107E+01  0.28739970729E+02 -0.28727841793E+02  0.50528860028E+02  0.30000000541E+02 0.  0.
        -12    1    1    2    0    0 -0.13750824107E+01 -0.28739970729E+02  0.28727841793E+02  0.40659139972E+02  0.00000000000E+00 0.  1.
         11    1    3    3    0    0  0.90891857933E+00  0.11523010264E+02 -0.24997425524E+02  0.27540464441E+02  0.51100000000E-03 0. -1.
        -11    1    3    3    0    0 -0.46866073014E+01  0.14322166443E+02 -0.65603982798E+01  0.16435557960E+02  0.51100000000E-03 0.  1.
         12    1    3    3    0    0  0.51527711327E+01  0.28947940222E+01  0.28299820108E+01  0.65528376265E+01  0.00000000000E+00 0. -1.
</event>
<event>
 7    1  0.9865694E-013  0.5052884E+02  0.7816164E-02  0.1300439E+00
        -11   -1    0    0    0    0  0.00000000000E+00  0.00000000000E+00  0.45593999997E+02  0.45594000000E+02  0.51100000000E-03 0.  1.
         11   -1    0    0    0    0 -0.00000000000E+00 -0.00000000000E+00 -0.45593999997E+02  0.45594000000E+02  0.51100000000E-03 0. -1.
    9900012    2    1    2    0    0 -0.34974941640E+02  0.18489598522E+02 -0.93837854322E+01  0.50528840819E+02  0.29999942154E+02 0.  0.
        -12    1    1    2    0    0  0.34974941640E+02 -0.18489598522E+02  0.93837854322E+01  0.40659159181E+02  0.00000000000E+00 0.  1.
         11    1    3    3    0    0 -0.21214392651E+02 -0.14017219270E+01 -0.11869361858E+02  0.24349477019E+02  0.51100000000E-03 0. -1.
        -11    1    3    3    0    0 -0.99259353829E+01  0.75628903159E+01  0.41739989026E+01  0.13158410628E+02  0.51100000000E-03 0.  1.
         12    1    3    3    0    0 -0.38346136062E+01  0.12328430133E+02 -0.16884224771E+01  0.13020953172E+02  0.00000000000E+00 0. -1.
</event>
<event>
 7    1  0.9865694E-013  0.5052888E+02  0.7816164E-02  0.1300439E+00
        -11   -1    0    0    0    0  0.00000000000E+00  0.00000000000E+00  0.45593999997E+02  0.45594000000E+02  0.51100000000E-03 0. -1.
         11   -1    0    0    0    0 -0.00000000000E+00 -0.00000000000E+00 -0.45593999997E+02  0.45594000000E+02  0.51100000000E-03 0.  1.
    9900012    2    1    2    0    0  0.10770250653E+02  0.88803242339E+01  0.38187765853E+02  0.50528881484E+02  0.30000065759E+02 0.  0.
        -12    1    1    2    0    0 -0.10770250653E+02 -0.88803242339E+01 -0.38187765853E+02  0.40659118516E+02  0.00000000000E+00 0.  1.
         11    1    3    3    0    0  0.17689558018E+01 -0.31992712637E+01 -0.39898211657E+01  0.54113967183E+01  0.51100000000E-03 0.  1.
        -11    1    3    3    0    0  0.87815299499E+01  0.96481124532E+01  0.30262046419E+02  0.32954404802E+02  0.51100000000E-03 0. -1.
        -12    1    3    3    0    0  0.21976490135E+00  0.24314830444E+01  0.11915540600E+02  0.12163079963E+02  0.00000000000E+00 0.  1.
</event>
<event>
 7    1  0.9865694E-013  0.5052888E+02  0.7816164E-02  0.1300439E+00
        -11   -1    0    0    0    0  0.00000000000E+00  0.00000000000E+00  0.45593999997E+02  0.45594000000E+02  0.51100000000E-03 0.  1.
         11   -1    0    0    0    0 -0.00000000000E+00 -0.00000000000E+00 -0.45593999997E+02  0.45594000000E+02  0.51100000000E-03 0. -1.
    9900012    2    1    2    0    0 -0.24423201323E+01 -0.15812623800E+02 -0.37378604724E+02  0.50528879373E+02  0.30000059342E+02 0.  0.
        -12    1    1    2    0    0  0.24423201323E+01  0.15812623800E+02  0.37378604724E+02  0.40659120627E+02  0.00000000000E+00 0.  1.
         11    1    3    3    0    0  0.45321119052E+01  0.34266697396E+01 -0.51434658872E+01  0.76640293201E+01  0.51100000000E-03 0.  1.
        -11    1    3    3    0    0 -0.13382081492E+02 -0.13544456191E+02 -0.26170334512E+02  0.32363850316E+02  0.51100000000E-03 0. -1.
         12    1    3    3    0    0  0.64076494548E+01 -0.56948373492E+01 -0.60648043247E+01  0.10500999736E+02  0.00000000000E+00 0. -1.
</event>
<event>
 7    1  0.9865694E-013  0.5052887E+02  0.7816164E-02  0.1300439E+00
        -11   -1    0    0    0    0  0.00000000000E+00  0.00000000000E+00  0.45593999997E+02  0.45594000000E+02  0.51100000000E-03 0. -1.
         11   -1    0    0    0    0 -0.00000000000E+00 -0.00000000000E+00 -0.45593999997E+02  0.45594000000E+02  0.51100000000E-03 0.  1.
    9900012    2    1    2    0    0  0.11531766368E+01 -0.22031074478E+02  0.34153580582E+02  0.50528866640E+02  0.30000020639E+02 0.  0.
        -12    1    1    2    0    0 -0.11531766368E+01  0.22031074478E+02 -0.34153580582E+02  0.40659133360E+02  0.00000000000E+00 0.  1.
         11    1    3    3    0    0 -0.72753834681E+01 -0.12772454456E+01  0.13549936024E+02  0.15432541173E+02  0.51100000000E-03 0. -1.
        -11    1    3    3    0    0  0.12775706995E+02 -0.90096248959E+01  0.13755675444E+02  0.20823319552E+02  0.51100000000E-03 0.  1.
        -12    1    3    3    0    0 -0.43471468897E+01 -0.11744204136E+02  0.68479691136E+01  0.14273005915E+02  0.00000000000E+00 0.  1.
</event>
<event>
 7    1  0.9865694E-013  0.5052885E+02  0.7816164E-02  0.1300439E+00
        -11   -1    0    0    0    0  0.00000000000E+00  0.00000000000E+00  0.45593999997E+02  0.45594000000E+02  0.51100000000E-03 0.  1.
         11   -1    0    0    0    0 -0.00000000000E+00 -0.00000000000E+00 -0.45593999997E+02  0.45594000000E+02  0.51100000000E-03 0. -1.
    9900012    2    1    2    0    0 -0.34812527255E+02  0.16152391111E+02 -0.13429630078E+02  0.50528846584E+02  0.29999959678E+02 0.  0.
        -12    1    1    2    0    0  0.34812527255E+02 -0.16152391111E+02  0.13429630078E+02  0.40659153416E+02  0.00000000000E+00 0.  1.
         11    1    3    3    0    0 -0.13500303262E+02 -0.43715288385E+01  0.30529298387E+01  0.14515124299E+02  0.51100000000E-03 0.  1.
        -11    1    3    3    0    0 -0.10334492082E+02  0.17968378573E+02 -0.10052161392E+02  0.23037150519E+02  0.51100000000E-03 0. -1.
         12    1    3    3    0    0 -0.10977731910E+02  0.25555413768E+01 -0.64303985239E+01  0.12976571766E+02  0.00000000000E+00 0. -1.
</event>
<event>
 7    1  0.9865694E-013  0.5052884E+02  0.7816164E-02  0.1300439E+00
        -11   -1    0    0    0    0  0.00000000000E+00  0.00000000000E+00  0.45593999997E+02  0.45594000000E+02  0.51100000000E-03 0.  1.
         11   -1    0    0    0    0 -0.00000000000E+00 -0.00000000000E+00 -0.45593999997E+02  0.45594000000E+02  0.51100000000E-03 0. -1.
    9900012    2    1    2    0    0 -0.38066241282E+02 -0.44977528762E+01 -0.13560919187E+02  0.50528843153E+02  0.29999949248E+02 0.  0.
        -12    1    1    2    0    0  0.38066241282E+02  0.44977528762E+01  0.13560919187E+02  0.40659156847E+02  0.00000000000E+00 0.  1.
         11    1    3    3    0    0  0.34698168432E+01  0.33822849101E+01 -0.34405801619E+01  0.59428168616E+01  0.51100000000E-03 0. -1.
        -11    1    3    3    0    0 -0.91465623131E+00  0.14734304333E+01 -0.29162072737E+00  0.17585892565E+01  0.51100000000E-03 0.  1.
         12    1    3    3    0    0 -0.40621401894E+02 -0.93534682196E+01 -0.98287182982E+01  0.42827437035E+02  0.00000000000E+00 0. -1.
</event>
<event>
 7    1  0.9865694E-013  0.5052886E+02  0.7816164E-02  0.1300439E+00
        -11   -1    0    0    0    0  0.00000000000E+00  0.00000000000E+00  0.45593999997E+02  0.45594000000E+02  0.51100000000E-03 0.  1.
         11   -1    0    0    0    0 -0.00000000000E+00 -0.00000000000E+00 -0.45593999997E+02  0.45594000000E+02  0.51100000000E-03 0. -1.
    9900012    2    1    2    0    0  0.34373114266E+02 -0.10624189120E+02 -0.18941524209E+02  0.50528859353E+02  0.29999998488E+02 0.  0.
        -12    1    1    2    0    0 -0.34373114266E+02  0.10624189120E+02  0.18941524209E+02  0.40659140647E+02  0.00000000000E+00 0.  1.
         11    1    3    3    0    0  0.11609393138E+02 -0.73744752924E+00 -0.13823301500E+02  0.18066695949E+02  0.51100000000E-03 0. -1.
        -11    1    3    3    0    0  0.13453271781E+02 -0.14051984343E+02  0.26603905269E+01  0.19634827822E+02  0.51100000000E-03 0.  1.
        -12    1    3    3    0    0  0.93104493473E+01  0.41652427526E+01 -0.77786132361E+01  0.12827335581E+02  0.00000000000E+00 0.  1.
</event>
<event>
 7    1  0.9865694E-013  0.5052877E+02  0.7816164E-02  0.1300439E+00
        -11   -1    0    0    0    0  0.00000000000E+00  0.00000000000E+00  0.45593999997E+02  0.45594000000E+02  0.51100000000E-03 0. -1.
         11   -1    0    0    0    0 -0.00000000000E+00 -0.00000000000E+00 -0.45593999997E+02  0.45594000000E+02  0.51100000000E-03 0.  1.
    9900012    2    1    2    0    0 -0.87686923155E+01  0.25843683760E+02  0.30139458980E+02  0.50528770509E+02  0.29999728437E+02 0.  0.
        -12    1    1    2    0    0  0.87686923155E+01 -0.25843683760E+02 -0.30139458980E+02  0.40659229491E+02  0.00000000000E+00 0.  1.
         11    1    3    3    0    0  0.72367819374E+01  0.22932908079E+01  0.79572404931E+01  0.10997630293E+02  0.51100000000E-03 0. -1.
        -11    1    3    3    0    0 -0.14864906044E+02  0.79507439608E+01  0.92035449543E+01  0.19206379180E+02  0.51100000000E-03 0.  1.
         12    1    3    3    0    0 -0.11405682094E+01  0.15599648992E+02  0.12978673532E+02  0.20324761036E+02  0.00000000000E+00 0. -1.
</event>
<event>
 7    1  0.9865694E-013  0.5052886E+02  0.7816164E-02  0.1300439E+00
        -11   -1    0    0    0    0  0.00000000000E+00  0.00000000000E+00  0.45593999997E+02  0.45594000000E+02  0.51100000000E-03 0.  1.
         11   -1    0    0    0    0 -0.00000000000E+00 -0.00000000000E+00 -0.45593999997E+02  0.45594000000E+02  0.51100000000E-03 0. -1.
    9900012    2    1    2    0    0  0.17183780591E+02  0.20885565229E+01 -0.36790237600E+02  0.50528856300E+02  0.29999989211E+02 0.  0.
        -12    1    1    2    0    0 -0.17183780591E+02 -0.20885565229E+01  0.36790237600E+02  0.40659143700E+02  0.00000000000E+00 0.  1.
         11    1    3    3    0    0  0.14199410193E+02  0.54607744865E+01 -0.67298429716E+01  0.16635326703E+02  0.51100000000E-03 0. -1.
        -11    1    3    3    0    0 -0.42734518325E+01  0.23914516568E+01 -0.43013014521E+01  0.65178697467E+01  0.51100000000E-03 0.  1.
         12    1    3    3    0    0  0.72578222304E+01 -0.57636696204E+01 -0.25759093176E+02  0.27375659851E+02  0.00000000000E+00 0. -1.
</event>
<event>
 7    1  0.9865694E-013  0.5052886E+02  0.7816164E-02  0.1300439E+00
        -11   -1    0    0    0    0  0.00000000000E+00  0.00000000000E+00  0.45593999997E+02  0.45594000000E+02  0.51100000000E-03 0.  1.
         11   -1    0    0    0    0 -0.00000000000E+00 -0.00000000000E+00 -0.45593999997E+02  0.45594000000E+02  0.51100000000E-03 0. -1.
    9900012    2    1    2    0    0 -0.20672636780E+02 -0.33357823180E+02 -0.10633108121E+02  0.50528864900E+02  0.30000015350E+02 0.  0.
        -12    1    1    2    0    0  0.20672636780E+02  0.33357823180E+02  0.10633108121E+02  0.40659135100E+02  0.00000000000E+00 0.  1.
         11    1    3    3    0    0 -0.15060357830E+02 -0.16897603962E+02 -0.63773713815E+00  0.22643986101E+02  0.51100000000E-03 0. -1.
        -11    1    3    3    0    0  0.44057610363E+01 -0.89696768727E+01  0.23971892360E+01  0.10276786949E+02  0.51100000000E-03 0.  1.
        -12    1    3    3    0    0 -0.10018039986E+02 -0.74905423461E+01 -0.12392560219E+02  0.17608091850E+02  0.00000000000E+00 0.  1.
</event>
<event>
 7    1  0.9865694E-013  0.5052883E+02  0.7816164E-02  0.1300439E+00
        -11   -1    0    0    0    0  0.00000000000E+00  0.00000000000E+00  0.45593999997E+02  0.45594000000E+02  0.51100000000E-03 0. -1.
         11   -1    0    0    0    0 -0.00000000000E+00 -0.00000000000E+00 -0.45593999997E+02  0.45594000000E+02  0.51100000000E-03 0.  1.
    9900012    2    1    2    0    0 -0.16564702305E+02 -0.37015254610E+02  0.29410073834E+01  0.50528831776E+02  0.29999914665E+02 0.  0.
        -12    1    1    2    0    0  0.16564702305E+02  0.37015254610E+02 -0.29410073834E+01  0.40659168224E+02  0.00000000000E+00 0.  1.
         11    1    3    3    0    0 -0.17473071389E+02 -0.33433065859E+02  0.10880125092E+02  0.39261370821E+02  0.51100000000E-03 0. -1.
        -11    1    3    3    0    0  0.29778298586E+01  0.85255100401E+00 -0.32534821863E+01  0.44921554380E+01  0.51100000000E-03 0.  1.
         12    1    3    3    0    0 -0.20694607743E+01 -0.44347397547E+01 -0.46856355224E+01  0.67753055162E+01  0.00000000000E+00 0. -1.
</event>
<event>
 7    1  0.9865694E-013  0.5052887E+02  0.7816164E-02  0.1300439E+00
        -11   -1    0    0    0    0  0.00000000000E+00  0.00000000000E+00  0.45593999997E+02  0.45594000000E+02  0.51100000000E-03 0.  1.
         11   -1    0    0    0    0 -0.00000000000E+00 -0.00000000000E+00 -0.45593999997E+02  0.45594000000E+02  0.51100000000E-03 0. -1.
    9900012    2    1    2    0    0 -0.17028922055E+02 -0.36920462059E+02 -0.24598756940E+00  0.50528865542E+02  0.30000017300E+02 0.  0.
        -12    1    1    2    0    0  0.17028922055E+02  0.36920462059E+02  0.24598756940E+00  0.40659134458E+02  0.00000000000E+00 0.  1.
         11    1    3    3    0    0 -0.13498295085E+01  0.31161564475E+01 -0.12211388806E+00  0.33981440185E+01  0.51100000000E-03 0. -1.
        -11    1    3    3    0    0 -0.19254562121E+02 -0.24598017707E+02  0.89667257818E+00  0.31250674545E+02  0.51100000000E-03 0.  1.
        -12    1    3    3    0    0  0.35754695746E+01 -0.15438600800E+02 -0.10205462595E+01  0.15880046978E+02  0.00000000000E+00 0.  1.
</event>
<event>
 7    1  0.9865694E-013  0.5052887E+02  0.7816164E-02  0.1300439E+00
        -11   -1    0    0    0    0  0.00000000000E+00  0.00000000000E+00  0.45593999997E+02  0.45594000000E+02  0.51100000000E-03 0. -1.
         11   -1    0    0    0    0 -0.00000000000E+00 -0.00000000000E+00 -0.45593999997E+02  0.45594000000E+02  0.51100000000E-03 0.  1.
    9900012    2    1    2    0    0  0.17246743643E+02 -0.35082927519E+02  0.11175991960E+02  0.50528871064E+02  0.30000034086E+02 0.  0.
        -12    1    1    2    0    0 -0.17246743643E+02  0.35082927519E+02 -0.11175991960E+02  0.40659128936E+02  0.00000000000E+00 0.  1.
         11    1    3    3    0    0 -0.21897457137E+01  0.52845864377E+00 -0.26820902517E+01  0.35025509573E+01  0.51100000000E-03 0.  1.
        -11    1    3    3    0    0  0.20979266103E+02 -0.34071574667E+02  0.16773557052E+02  0.43386104030E+02  0.51100000000E-03 0. -1.
         12    1    3    3    0    0 -0.15427767464E+01 -0.15398114958E+01 -0.29154748411E+01  0.36402160761E+01  0.00000000000E+00 0. -1.
</event>
<event>
 7    1  0.9865694E-013  0.5052886E+02  0.7816164E-02  0.1300439E+00
        -11   -1    0    0    0    0  0.00000000000E+00  0.00000000000E+00  0.45593999997E+02  0.45594000000E+02  0.51100000000E-03 0.  1.
         11   -1    0    0    0    0 -0.00000000000E+00 -0.00000000000E+00 -0.45593999997E+02  0.45594000000E+02  0.51100000000E-03 0. -1.
    9900012    2    1    2    0    0  0.58582239734E+01  0.28344016175E+01 -0.40134939468E+02  0.50528856050E+02  0.29999988450E+02 0.  0.
        -12    1    1    2    0    0 -0.58582239734E+01 -0.28344016175E+01  0.40134939468E+02  0.40659143950E+02  0.00000000000E+00 0.  1.
         11    1    3    3    0    0  0.17434692992E+02 -0.11022932682E+00 -0.18118716865E+02  0.25144951209E+02  0.51100000000E-03 0. -1.
        -11    1    3    3    0    0  0.13997791352E+00 -0.27364947597E+00 -0.97052301603E-01  0.32233098259E+00  0.51100000000E-03 0.  1.
         12    1    3    3    0    0 -0.11716446932E+02  0.32182804203E+01 -0.21919170301E+02  0.25061573858E+02  0.00000000000E+00 0. -1.
</event>
<event>
 7    1  0.9865694E-013  0.5052886E+02  0.7816164E-02  0.1300439E+00
        -11   -1    0    0    0    0  0.00000000000E+00  0.00000000000E+00  0.45593999997E+02  0.45594000000E+02  0.51100000000E-03 0.  1.
         11   -1    0    0    0    0 -0.00000000000E+00 -0.00000000000E+00 -0.45593999997E+02  0.45594000000E+02  0.51100000000E-03 0. -1.
    9900012    2    1    2    0    0 -0.72566432265E+01  0.29707421085E+02 -0.26795075960E+02  0.50528857926E+02  0.29999994153E+02 0.  0.
        -12    1    1    2    0    0  0.72566432265E+01 -0.29707421085E+02  0.26795075960E+02  0.40659142074E+02  0.00000000000E+00 0.  1.
         11    1    3    3    0    0  0.20846495531E+01  0.12905063836E+02 -0.94034483981E+01  0.16103144985E+02  0.51100000000E-03 0. -1.
        -11    1    3    3    0    0 -0.58013046894E+01  0.20377912738E+01 -0.18210569302E+02  0.19220628604E+02  0.51100000000E-03 0.  1.
        -12    1    3    3    0    0 -0.35399880902E+01  0.14764565975E+02  0.81894174041E+00  0.15205084337E+02  0.00000000000E+00 0.  1.
</event>
<event>
 7    1  0.9865694E-013  0.5052887E+02  0.7816164E-02  0.1300439E+00
        -11   -1    0    0    0    0  0.00000000000E+00  0.00000000000E+00  0.45593999997E+02  0.45594000000E+02  0.51100000000E-03 0.  1.
         11   -1    0    0    0    0 -0.00000000000E+00 -0.00000000000E+00 -0.45593999997E+02  0.45594000000E+02  0.51100000000E-03 0. -1.
    9900012    2    1    2    0    0 -0.38004806015E+02 -0.12697260578E+02 -0.68977701058E+01  0.50528868937E+02  0.30000027619E+02 0.  0.
        -12    1    1    2    0    0  0.38004806015E+02  0.12697260578E+02  0.68977701058E+01  0.40659131063E+02  0.00000000000E+00 0.  1.
         11    1    3    3    0    0 -0.12911427006E+02 -0.10579630652E+02 -0.14056093360E+02  0.21822174339E+02  0.51100000000E-03 0. -1.
        -11    1    3    3    0    0 -0.75605784293E+01 -0.59616412458E+01  0.42451179205E+01  0.10522572829E+02  0.51100000000E-03 0.  1.
         12    1    3    3    0    0 -0.17532800579E+02  0.38440113193E+01  0.29132053337E+01  0.18184121768E+02  0.00000000000E+00 0. -1.
</event>
<event>
 7    1  0.9865694E-013  0.5052886E+02  0.7816164E-02  0.1300439E+00
        -11   -1    0    0    0    0  0.00000000000E+00  0.00000000000E+00  0.45593999997E+02  0.45594000000E+02  0.51100000000E-03 0.  1.
         11   -1    0    0    0    0 -0.00000000000E+00 -0.00000000000E+00 -0.45593999997E+02  0.45594000000E+02  0.51100000000E-03 0. -1.
    9900012    2    1    2    0    0  0.39325904114E+02 -0.34186944846E+01 -0.97443139623E+01  0.50528857597E+02  0.29999993152E+02 0.  0.
        -12    1    1    2    0    0 -0.39325904114E+02  0.34186944846E+01  0.97443139623E+01  0.40659142403E+02  0.00000000000E+00 0.  1.
         11    1    3    3    0    0  0.22014235423E+02  0.53109736796E+01 -0.85648001924E+01  0.24211336297E+02  0.51100000000E-03 0. -1.
        -11    1    3    3    0    0  0.97885626172E+00  0.42933593629E+01  0.25638553454E+01  0.50955322286E+01  0.51100000000E-03 0.  1.
         12    1    3    3    0    0  0.16332812430E+02 -0.13023027527E+02 -0.37433691152E+01  0.21221989072E+02  0.00000000000E+00 0. -1.
</event>
<event>
 7    1  0.9865694E-013  0.5052886E+02  0.7816164E-02  0.1300439E+00
        -11   -1    0    0    0    0  0.00000000000E+00  0.00000000000E+00  0.45593999997E+02  0.45594000000E+02  0.51100000000E-03 0. -1.
         11   -1    0    0    0    0 -0.00000000000E+00 -0.00000000000E+00 -0.45593999997E+02  0.45594000000E+02  0.51100000000E-03 0.  1.
    9900012    2    1    2    0    0 -0.28682431315E+02  0.27643487784E+02  0.81438001526E+01  0.50528858790E+02  0.29999996779E+02 0.  0.
        -12    1    1    2    0    0  0.28682431315E+02 -0.27643487784E+02 -0.81438001526E+01  0.40659141210E+02  0.00000000000E+00 0.  1.
         11    1    3    3    0    0  0.25639371750E+00  0.22686132535E+00  0.37197435640E+01  0.37354646622E+01  0.51100000000E-03 0. -1.
        -11    1    3    3    0    0 -0.18708977965E+02  0.29168926925E+02  0.84372804974E+01  0.35665667762E+02  0.51100000000E-03 0.  1.
        -12    1    3    3    0    0 -0.10229847067E+02 -0.17523004660E+01 -0.40132239088E+01  0.11127726366E+02  0.00000000000E+00 0.  1.
</event>
<event>
 7    1  0.9865694E-013  0.5052886E+02  0.7816164E-02  0.1300439E+00
        -11   -1    0    0    0    0  0.00000000000E+00  0.00000000000E+00  0.45593999997E+02  0.45594000000E+02  0.51100000000E-03 0.  1.
         11   -1    0    0    0    0 -0.00000000000E+00 -0.00000000000E+00 -0.45593999997E+02  0.45594000000E+02  0.51100000000E-03 0. -1.
    9900012    2    1    2    0    0  0.55955687702E+01  0.16216861167E+02 -0.36862838299E+02  0.50528858058E+02  0.29999994553E+02 0.  0.
        -12    1    1    2    0    0 -0.55955687702E+01 -0.16216861167E+02  0.36862838299E+02  0.40659141942E+02  0.00000000000E+00 0.  1.
         11    1    3    3    0    0  0.65478292494E+01  0.18119383067E+02 -0.32681653520E+02  0.37937798931E+02  0.51100000000E-03 0. -1.
        -11    1    3    3    0    0  0.11973692065E+00 -0.21657443880E+01 -0.81696362476E+01  0.84526766390E+01  0.51100000000E-03 0.  1.
         12    1    3    3    0    0 -0.10719973999E+01  0.26322248786E+00  0.39884514684E+01  0.41383824883E+01  0.00000000000E+00 0. -1.
</event>
<event>
 7    1  0.9865694E-013  0.5052886E+02  0.7816164E-02  0.1300439E+00
        -11   -1    0    0    0    0  0.00000000000E+00  0.00000000000E+00  0.45593999997E+02  0.45594000000E+02  0.51100000000E-03 0. -1.
         11   -1    0    0    0    0 -0.00000000000E+00 -0.00000000000E+00 -0.45593999997E+02  0.45594000000E+02  0.51100000000E-03 0.  1.
    9900012    2    1    2    0    0 -0.11166374398E+02 -0.39044810120E+02 -0.19951969061E+01  0.50528856807E+02  0.29999990750E+02 0.  0.
        -12    1    1    2    0    0  0.11166374398E+02  0.39044810120E+02  0.19951969061E+01  0.40659143193E+02  0.00000000000E+00 0.  1.
         11    1    3    3    0    0 -0.85437718131E+01 -0.38612442352E+02  0.32593747823E+01  0.39680477132E+02  0.51100000000E-03 0. -1.
        -11    1    3    3    0    0 -0.33153172062E+01  0.34092903565E+01 -0.63078499745E+00  0.47971323607E+01  0.51100000000E-03 0.  1.
         12    1    3    3    0    0  0.69271462130E+00 -0.38416581243E+01 -0.46237866909E+01  0.60512473139E+01  0.00000000000E+00 0. -1.
</event>
<event>
 7    1  0.9865694E-013  0.5052883E+02  0.7816164E-02  0.1300439E+00
        -11   -1    0    0    0    0  0.00000000000E+00  0.00000000000E+00  0.45593999997E+02  0.45594000000E+02  0.51100000000E-03 0.  1.
         11   -1    0    0    0    0 -0.00000000000E+00 -0.00000000000E+00 -0.45593999997E+02  0.45594000000E+02  0.51100000000E-03 0. -1.
    9900012    2    1    2    0    0 -0.14465969365E+02 -0.28963324620E+02 -0.24597352221E+02  0.50528829092E+02  0.29999906507E+02 0.  0.
        -12    1    1    2    0    0  0.14465969365E+02  0.28963324620E+02  0.24597352221E+02  0.40659170908E+02  0.00000000000E+00 0.  1.
         11    1    3    3    0    0  0.15673372070E+01 -0.15517286503E+02 -0.22108861437E+02  0.27056320530E+02  0.51100000000E-03 0.  1.
        -11    1    3    3    0    0 -0.10513656211E+02 -0.40180350807E+01 -0.49145440897E+01  0.12281462320E+02  0.51100000000E-03 0. -1.
         12    1    3    3    0    0 -0.55196503602E+01 -0.94280030360E+01  0.24260533060E+01  0.11191046242E+02  0.00000000000E+00 0. -1.
</event>
<event>
 7    1  0.9865694E-013  0.5052885E+02  0.7816164E-02  0.1300439E+00
        -11   -1    0    0    0    0  0.00000000000E+00  0.00000000000E+00  0.45593999997E+02  0.45594000000E+02  0.51100000000E-03 0.  1.
         11   -1    0    0    0    0 -0.00000000000E+00 -0.00000000000E+00 -0.45593999997E+02  0.45594000000E+02  0.51100000000E-03 0. -1.
    9900012    2    1    2    0    0 -0.29171405646E+02 -0.25742676682E+02 -0.11811438203E+02  0.50528851183E+02  0.29999973654E+02 0.  0.
        -12    1    1    2    0    0  0.29171405646E+02  0.25742676682E+02  0.11811438203E+02  0.40659148817E+02  0.00000000000E+00 0.  1.
         11    1    3    3    0    0 -0.21037163626E+02 -0.31396518350E+02 -0.10046424749E+02  0.39105425051E+02  0.51100000000E-03 0. -1.
        -11    1    3    3    0    0 -0.25771407438E+01  0.45503942218E+00  0.16380425252E+01  0.30873773441E+01  0.51100000000E-03 0.  1.
         12    1    3    3    0    0 -0.55571012764E+01  0.51988022457E+01 -0.34030559791E+01  0.83360487872E+01  0.00000000000E+00 0. -1.
</event>
<event>
 7    1  0.9865694E-013  0.5052884E+02  0.7816164E-02  0.1300439E+00
        -11   -1    0    0    0    0  0.00000000000E+00  0.00000000000E+00  0.45593999997E+02  0.45594000000E+02  0.51100000000E-03 0.  1.
         11   -1    0    0    0    0 -0.00000000000E+00 -0.00000000000E+00 -0.45593999997E+02  0.45594000000E+02  0.51100000000E-03 0. -1.
    9900012    2    1    2    0    0  0.20037294622E+02  0.32840189766E+02  0.13160392023E+02  0.50528841648E+02  0.29999944675E+02 0.  0.
        -12    1    1    2    0    0 -0.20037294622E+02 -0.32840189766E+02 -0.13160392023E+02  0.40659158352E+02  0.00000000000E+00 0.  1.
         11    1    3    3    0    0 -0.32038656966E+01  0.15055323578E+02  0.63166692918E+01  0.16638143966E+02  0.51100000000E-03 0. -1.
        -11    1    3    3    0    0  0.21459862104E+02  0.85487160240E+01  0.16817777142E+01  0.23161057914E+02  0.51100000000E-03 0.  1.
        -12    1    3    3    0    0  0.17812982146E+01  0.92361501648E+01  0.51619450171E+01  0.10729639768E+02  0.00000000000E+00 0.  1.
</event>
<event>
 7    1  0.9865694E-013  0.5052886E+02  0.7816164E-02  0.1300439E+00
        -11   -1    0    0    0    0  0.00000000000E+00  0.00000000000E+00  0.45593999997E+02  0.45594000000E+02  0.51100000000E-03 0. -1.
         11   -1    0    0    0    0 -0.00000000000E+00 -0.00000000000E+00 -0.45593999997E+02  0.45594000000E+02  0.51100000000E-03 0.  1.
    9900012    2    1    2    0    0  0.25024144933E+02  0.12491006313E+02  0.29511567350E+02  0.50528859874E+02  0.30000000074E+02 0.  0.
        -12    1    1    2    0    0 -0.25024144933E+02 -0.12491006313E+02 -0.29511567350E+02  0.40659140126E+02  0.00000000000E+00 0.  1.
         11    1    3    3    0    0  0.19482561948E+02 -0.10152982463E+01  0.20075341855E+02  0.27993220634E+02  0.51100000000E-03 0. -1.
        -11    1    3    3    0    0  0.71070025114E+01  0.81753656962E+01  0.12212524450E+02  0.16324577871E+02  0.51100000000E-03 0.  1.
         12    1    3    3    0    0 -0.15654195271E+01  0.53309388627E+01 -0.27762989544E+01  0.62110613697E+01  0.00000000000E+00 0. -1.
</event>
<event>
 7    1  0.9865694E-013  0.5052885E+02  0.7816164E-02  0.1300439E+00
        -11   -1    0    0    0    0  0.00000000000E+00  0.00000000000E+00  0.45593999997E+02  0.45594000000E+02  0.51100000000E-03 0.  1.
         11   -1    0    0    0    0 -0.00000000000E+00 -0.00000000000E+00 -0.45593999997E+02  0.45594000000E+02  0.51100000000E-03 0. -1.
    9900012    2    1    2    0    0  0.21494457755E+02 -0.27730063535E+02 -0.20547460908E+02  0.50528852350E+02  0.29999977204E+02 0.  0.
        -12    1    1    2    0    0 -0.21494457755E+02  0.27730063535E+02  0.20547460908E+02  0.40659147650E+02  0.00000000000E+00 0.  1.
         11    1    3    3    0    0  0.17694857065E+02 -0.21289660865E+02 -0.72376031828E+01  0.28613642313E+02  0.51100000000E-03 0. -1.
        -11    1    3    3    0    0  0.68404165918E+01  0.29950891951E+01 -0.63549424368E+01  0.98054654185E+01  0.51100000000E-03 0.  1.
         12    1    3    3    0    0 -0.30408159018E+01 -0.94354918648E+01 -0.69549152884E+01  0.12109744619E+02  0.00000000000E+00 0. -1.
</event>
<event>
 7    1  0.9865694E-013  0.5052885E+02  0.7816164E-02  0.1300439E+00
        -11   -1    0    0    0    0  0.00000000000E+00  0.00000000000E+00  0.45593999997E+02  0.45594000000E+02  0.51100000000E-03 0.  1.
         11   -1    0    0    0    0 -0.00000000000E+00 -0.00000000000E+00 -0.45593999997E+02  0.45594000000E+02  0.51100000000E-03 0. -1.
    9900012    2    1    2    0    0 -0.33151984481E+01 -0.36953869829E+02 -0.16630912007E+02  0.50528852563E+02  0.29999977851E+02 0.  0.
        -12    1    1    2    0    0  0.33151984481E+01  0.36953869829E+02  0.16630912007E+02  0.40659147437E+02  0.00000000000E+00 0.  1.
         11    1    3    3    0    0  0.12352506561E+02 -0.11918979970E+02 -0.88713895419E+01  0.19322216605E+02  0.51100000000E-03 0. -1.
        -11    1    3    3    0    0 -0.87181177114E+01 -0.17693537403E+02 -0.27210642687E+01  0.19911580381E+02  0.51100000000E-03 0.  1.
         12    1    3    3    0    0 -0.69495872974E+01 -0.73413524563E+01 -0.50384581965E+01  0.11295055577E+02  0.00000000000E+00 0. -1.
</event>
<event>
 7    1  0.9865694E-013  0.5052886E+02  0.7816164E-02  0.1300439E+00
        -11   -1    0    0    0    0  0.00000000000E+00  0.00000000000E+00  0.45593999997E+02  0.45594000000E+02  0.51100000000E-03 0. -1.
         11   -1    0    0    0    0 -0.00000000000E+00 -0.00000000000E+00 -0.45593999997E+02  0.45594000000E+02  0.51100000000E-03 0.  1.
    9900012    2    1    2    0    0 -0.91672190345E+01 -0.11246767001E+02  0.37982076059E+02  0.50528858659E+02  0.29999996381E+02 0.  0.
        -12    1    1    2    0    0  0.91672190345E+01  0.11246767001E+02 -0.37982076059E+02  0.40659141341E+02  0.00000000000E+00 0.  1.
         11    1    3    3    0    0  0.44333194001E+01  0.76663081134E+01  0.15326690839E+02  0.17701244401E+02  0.51100000000E-03 0. -1.
        -11    1    3    3    0    0 -0.49175290525E+01 -0.10702116525E+02  0.12048746361E+02  0.16849026062E+02  0.51100000000E-03 0.  1.
         12    1    3    3    0    0 -0.86830093821E+01 -0.82109585901E+01  0.10606638859E+02  0.15978588197E+02  0.00000000000E+00 0. -1.
</event>
<event>
 7    1  0.9865694E-013  0.5052887E+02  0.7816164E-02  0.1300439E+00
        -11   -1    0    0    0    0  0.00000000000E+00  0.00000000000E+00  0.45593999997E+02  0.45594000000E+02  0.51100000000E-03 0.  1.
         11   -1    0    0    0    0 -0.00000000000E+00 -0.00000000000E+00 -0.45593999997E+02  0.45594000000E+02  0.51100000000E-03 0. -1.
    9900012    2    1    2    0    0 -0.57162261823E+01 -0.90126912152E+01 -0.39233416666E+02  0.50528870300E+02  0.30000031763E+02 0.  0.
        -12    1    1    2    0    0  0.57162261823E+01  0.90126912152E+01  0.39233416666E+02  0.40659129700E+02  0.00000000000E+00 0.  1.
         11    1    3    3    0    0 -0.24857539364E+01  0.43651738036E+00 -0.38633672676E+02  0.38716019743E+02  0.51100000000E-03 0. -1.
        -11    1    3    3    0    0 -0.46621881065E+01 -0.40579065408E+01  0.16177953106E+00  0.61829423669E+01  0.51100000000E-03 0.  1.
         12    1    3    3    0    0  0.14317158606E+01 -0.53913020548E+01 -0.76152352072E+00  0.56299081896E+01  0.00000000000E+00 0. -1.
</event>
<event>
 7    1  0.9865694E-013  0.5052880E+02  0.7816164E-02  0.1300439E+00
        -11   -1    0    0    0    0  0.00000000000E+00  0.00000000000E+00  0.45593999997E+02  0.45594000000E+02  0.51100000000E-03 0.  1.
         11   -1    0    0    0    0 -0.00000000000E+00 -0.00000000000E+00 -0.45593999997E+02  0.45594000000E+02  0.51100000000E-03 0. -1.
    9900012    2    1    2    0    0 -0.26785066130E+02  0.59456455608E+01 -0.30006336877E+02  0.50528797825E+02  0.29999811468E+02 0.  0.
        -12    1    1    2    0    0  0.26785066130E+02 -0.59456455608E+01  0.30006336877E+02  0.40659202175E+02  0.00000000000E+00 0.  1.
         11    1    3    3    0    0 -0.23934963148E+02 -0.70374753100E+01 -0.20880627942E+02  0.32533200629E+02  0.51100000000E-03 0. -1.
        -11    1    3    3    0    0  0.15599659792E+01  0.24721636356E+01 -0.51531910847E+01  0.59245645843E+01  0.51100000000E-03 0.  1.
         12    1    3    3    0    0 -0.44100689610E+01  0.10510957235E+02 -0.39725178509E+01  0.12071032612E+02  0.00000000000E+00 0. -1.
</event>
<event>
 7    1  0.9865694E-013  0.5052885E+02  0.7816164E-02  0.1300439E+00
        -11   -1    0    0    0    0  0.00000000000E+00  0.00000000000E+00  0.45593999997E+02  0.45594000000E+02  0.51100000000E-03 0. -1.
         11   -1    0    0    0    0 -0.00000000000E+00 -0.00000000000E+00 -0.45593999997E+02  0.45594000000E+02  0.51100000000E-03 0.  1.
    9900012    2    1    2    0    0 -0.40060346805E+02 -0.64346374444E+00  0.69225262183E+01  0.50528846037E+02  0.29999958014E+02 0.  0.
        -12    1    1    2    0    0  0.40060346805E+02  0.64346374444E+00 -0.69225262183E+01  0.40659153963E+02  0.00000000000E+00 0.  1.
         11    1    3    3    0    0 -0.10474239162E+02  0.32716456772E+01  0.13709019615E+01  0.11058604066E+02  0.51100000000E-03 0. -1.
        -11    1    3    3    0    0 -0.37602253087E+01 -0.11125123260E+02  0.46830767068E+01  0.12642739799E+02  0.51100000000E-03 0.  1.
        -12    1    3    3    0    0 -0.25825882335E+02  0.72100138380E+01  0.86854754998E+00  0.26827502172E+02  0.00000000000E+00 0.  1.
</event>
<event>
 7    1  0.9865694E-013  0.5052886E+02  0.7816164E-02  0.1300439E+00
        -11   -1    0    0    0    0  0.00000000000E+00  0.00000000000E+00  0.45593999997E+02  0.45594000000E+02  0.51100000000E-03 0. -1.
         11   -1    0    0    0    0 -0.00000000000E+00 -0.00000000000E+00 -0.45593999997E+02  0.45594000000E+02  0.51100000000E-03 0.  1.
    9900012    2    1    2    0    0  0.14237438320E+02 -0.16837453958E+02  0.34160811684E+02  0.50528861290E+02  0.30000004377E+02 0.  0.
        -12    1    1    2    0    0 -0.14237438320E+02  0.16837453958E+02 -0.34160811684E+02  0.40659138710E+02  0.00000000000E+00 0.  1.
         11    1    3    3    0    0  0.11060659072E+02 -0.10358350519E+02  0.11429218719E+02  0.18980533326E+02  0.51100000000E-03 0. -1.
        -11    1    3    3    0    0 -0.48687207095E+01 -0.45545509185E+01  0.22288202723E+02  0.23263971206E+02  0.51100000000E-03 0.  1.
        -12    1    3    3    0    0  0.80454999579E+01 -0.19245525209E+01  0.44339024287E+00  0.82843567575E+01  0.00000000000E+00 0.  1.
</event>
<event>
 7    1  0.9865694E-013  0.5052887E+02  0.7816164E-02  0.1300439E+00
        -11   -1    0    0    0    0  0.00000000000E+00  0.00000000000E+00  0.45593999997E+02  0.45594000000E+02  0.51100000000E-03 0.  1.
         11   -1    0    0    0    0 -0.00000000000E+00 -0.00000000000E+00 -0.45593999997E+02  0.45594000000E+02  0.51100000000E-03 0. -1.
    9900012    2    1    2    0    0  0.25158590169E+02 -0.31448744458E+02 -0.55845018964E+01  0.50528870045E+02  0.30000030988E+02 0.  0.
        -12    1    1    2    0    0 -0.25158590169E+02  0.31448744458E+02  0.55845018964E+01  0.40659129955E+02  0.00000000000E+00 0.  1.
         11    1    3    3    0    0  0.19599024010E+01 -0.20813585755E+02  0.31190046864E+01  0.21137047095E+02  0.51100000000E-03 0. -1.
        -11    1    3    3    0    0  0.12313507028E+02  0.71999947087E+00 -0.42006215520E+01  0.13030198626E+02  0.51100000000E-03 0.  1.
         12    1    3    3    0    0  0.10885180740E+02 -0.11355158174E+02 -0.45028850308E+01  0.16361624324E+02  0.00000000000E+00 0. -1.
</event>
<event>
 7    1  0.9865694E-013  0.5052887E+02  0.7816164E-02  0.1300439E+00
        -11   -1    0    0    0    0  0.00000000000E+00  0.00000000000E+00  0.45593999997E+02  0.45594000000E+02  0.51100000000E-03 0.  1.
         11   -1    0    0    0    0 -0.00000000000E+00 -0.00000000000E+00 -0.45593999997E+02  0.45594000000E+02  0.51100000000E-03 0. -1.
    9900012    2    1    2    0    0 -0.19425187444E+02 -0.34501185314E+00 -0.35717052899E+02  0.50528870543E+02  0.30000032502E+02 0.  0.
        -12    1    1    2    0    0  0.19425187444E+02  0.34501185314E+00  0.35717052899E+02  0.40659129457E+02  0.00000000000E+00 0.  1.
         11    1    3    3    0    0  0.63199707821E+01  0.17647188099E+01 -0.60533698245E+01  0.89274604260E+01  0.51100000000E-03 0.  1.
        -11    1    3    3    0    0 -0.20241302405E+02 -0.69013951398E+01 -0.25182868946E+02  0.33038106279E+02  0.51100000000E-03 0. -1.
         12    1    3    3    0    0 -0.55038558210E+01  0.47916644768E+01 -0.44808141290E+01  0.85633038376E+01  0.00000000000E+00 0. -1.
</event>
<event>
 7    1  0.9865694E-013  0.5052886E+02  0.7816164E-02  0.1300439E+00
        -11   -1    0    0    0    0  0.00000000000E+00  0.00000000000E+00  0.45593999997E+02  0.45594000000E+02  0.51100000000E-03 0.  1.
         11   -1    0    0    0    0 -0.00000000000E+00 -0.00000000000E+00 -0.45593999997E+02  0.45594000000E+02  0.51100000000E-03 0. -1.
    9900012    2    1    2    0    0  0.33719421769E+02 -0.20007716368E+02 -0.10763726441E+02  0.50528856802E+02  0.29999990736E+02 0.  0.
        -12    1    1    2    0    0 -0.33719421769E+02  0.20007716368E+02  0.10763726441E+02  0.40659143198E+02  0.00000000000E+00 0.  1.
         11    1    3    3    0    0  0.12834911854E+02 -0.16989638856E+02  0.62150338529E+01  0.22181285734E+02  0.51100000000E-03 0.  1.
        -11    1    3    3    0    0  0.14558692260E+02  0.16881354547E+01 -0.94022409888E+01  0.17412853227E+02  0.51100000000E-03 0. -1.
         12    1    3    3    0    0  0.63258176545E+01 -0.47062129667E+01 -0.75765193054E+01  0.10934717841E+02  0.00000000000E+00 0. -1.
</event>
<event>
 7    1  0.1300294E-012  0.5052886E+02  0.7816164E-02  0.1300439E+00
        -11   -1    0    0    0    0  0.00000000000E+00  0.00000000000E+00  0.45593999997E+02  0.45594000000E+02  0.51100000000E-03 0.  1.
         11   -1    0    0    0    0 -0.00000000000E+00 -0.00000000000E+00 -0.45593999997E+02  0.45594000000E+02  0.51100000000E-03 0. -1.
    9900012    2    1    2    0    0 -0.43783470488E+01 -0.32273648570E+02 -0.24339423024E+02  0.50528858002E+02  0.29999994382E+02 0.  0.
        -12    1    1    2    0    0  0.43783470488E+01  0.32273648570E+02  0.24339423024E+02  0.40659141998E+02  0.00000000000E+00 0.  1.
         11    1    3    3    0    0 -0.10560563082E+02 -0.21096887077E+02 -0.14116735188E+02  0.27493387379E+02  0.51100000000E-03 0. -1.
        -11    1    3    3    0    0  0.15419128036E+01  0.40107158448E+01 -0.43208739370E+01  0.60937089299E+01  0.51100000000E-03 0.  1.
        -12    1    3    3    0    0  0.46403032291E+01 -0.15187477338E+02 -0.59018138984E+01  0.16941761693E+02  0.00000000000E+00 0.  1.
</event>
<event>
 7    1  0.9865694E-013  0.5052886E+02  0.7816164E-02  0.1300439E+00
        -11   -1    0    0    0    0  0.00000000000E+00  0.00000000000E+00  0.45593999997E+02  0.45594000000E+02  0.51100000000E-03 0. -1.
         11   -1    0    0    0    0 -0.00000000000E+00 -0.00000000000E+00 -0.45593999997E+02  0.45594000000E+02  0.51100000000E-03 0.  1.
    9900012    2    1    2    0    0 -0.33856174643E+02 -0.22514204817E+02 -0.18982162500E+00  0.50528855737E+02  0.29999987498E+02 0.  0.
        -12    1    1    2    0    0  0.33856174643E+02  0.22514204817E+02  0.18982162500E+00  0.40659144263E+02  0.00000000000E+00 0.  1.
         11    1    3    3    0    0 -0.92334305921E+01 -0.23039531135E+01  0.18349614576E+01  0.96918277048E+01  0.51100000000E-03 0. -1.
        -11    1    3    3    0    0 -0.10507453286E+02 -0.58074010542E+01 -0.13149511614E+02  0.17805677115E+02  0.51100000000E-03 0.  1.
        -12    1    3    3    0    0 -0.14115290765E+02 -0.14402850649E+02  0.11124728531E+02  0.23031350917E+02  0.00000000000E+00 0.  1.
</event>
<event>
 7    1  0.9865694E-013  0.5052885E+02  0.7816164E-02  0.1300439E+00
        -11   -1    0    0    0    0  0.00000000000E+00  0.00000000000E+00  0.45593999997E+02  0.45594000000E+02  0.51100000000E-03 0.  1.
         11   -1    0    0    0    0 -0.00000000000E+00 -0.00000000000E+00 -0.45593999997E+02  0.45594000000E+02  0.51100000000E-03 0. -1.
    9900012    2    1    2    0    0  0.13965494840E+02  0.89187522435E+01 -0.37129326526E+02  0.50528854953E+02  0.29999985114E+02 0.  0.
        -12    1    1    2    0    0 -0.13965494840E+02 -0.89187522435E+01  0.37129326526E+02  0.40659145047E+02  0.00000000000E+00 0.  1.
         11    1    3    3    0    0  0.18866851479E+01  0.17618069090E+02 -0.25489946778E+02  0.31043410353E+02  0.51100000000E-03 0. -1.
        -11    1    3    3    0    0  0.88306731391E+01 -0.69334192116E+01 -0.59667616133E+01  0.12714375111E+02  0.51100000000E-03 0.  1.
         12    1    3    3    0    0  0.32481365535E+01 -0.17658976348E+01 -0.56726181341E+01  0.67710694888E+01  0.00000000000E+00 0. -1.
</event>
<event>
 7    1  0.9865694E-013  0.5052886E+02  0.7816164E-02  0.1300439E+00
        -11   -1    0    0    0    0  0.00000000000E+00  0.00000000000E+00  0.45593999997E+02  0.45594000000E+02  0.51100000000E-03 0. -1.
         11   -1    0    0    0    0 -0.00000000000E+00 -0.00000000000E+00 -0.45593999997E+02  0.45594000000E+02  0.51100000000E-03 0.  1.
    9900012    2    1    2    0    0  0.28298418958E+02  0.66499504339E+01  0.28427864989E+02  0.50528857558E+02  0.29999993032E+02 0.  0.
        -12    1    1    2    0    0 -0.28298418958E+02 -0.66499504339E+01 -0.28427864989E+02  0.40659142442E+02  0.00000000000E+00 0.  1.
         11    1    3    3    0    0  0.18263933989E+02 -0.50336689183E+00  0.17529090812E+01  0.18354763782E+02  0.51100000000E-03 0. -1.
        -11    1    3    3    0    0 -0.48040670417E+00 -0.23818886851E+01  0.99272964809E+01  0.10220342460E+02  0.51100000000E-03 0.  1.
         12    1    3    3    0    0  0.10514891673E+02  0.95352060109E+01  0.16747659427E+02  0.21953751316E+02  0.00000000000E+00 0. -1.
</event>
<event>
 7    1  0.9865694E-013  0.5052887E+02  0.7816164E-02  0.1300439E+00
        -11   -1    0    0    0    0  0.00000000000E+00  0.00000000000E+00  0.45593999997E+02  0.45594000000E+02  0.51100000000E-03 0.  1.
         11   -1    0    0    0    0 -0.00000000000E+00 -0.00000000000E+00 -0.45593999997E+02  0.45594000000E+02  0.51100000000E-03 0. -1.
    9900012    2    1    2    0    0  0.16166902842E+02  0.17766612348E+02 -0.32804632959E+02  0.50528865658E+02  0.30000017654E+02 0.  0.
        -12    1    1    2    0    0 -0.16166902842E+02 -0.17766612348E+02  0.32804632959E+02  0.40659134342E+02  0.00000000000E+00 0.  1.
         11    1    3    3    0    0  0.17618355737E+02  0.14959625521E+02 -0.22132517097E+02  0.32000705741E+02  0.51100000000E-03 0. -1.
        -11    1    3    3    0    0 -0.47581838793E+01  0.83057133720E+00 -0.13108462922E+02  0.13970038046E+02  0.51100000000E-03 0.  1.
        -12    1    3    3    0    0  0.33067309850E+01  0.19764154897E+01  0.24363470594E+01  0.45581218708E+01  0.00000000000E+00 0.  1.
</event>
<event>
 7    1  0.9865694E-013  0.5052886E+02  0.7816164E-02  0.1300439E+00
        -11   -1    0    0    0    0  0.00000000000E+00  0.00000000000E+00  0.45593999997E+02  0.45594000000E+02  0.51100000000E-03 0. -1.
         11   -1    0    0    0    0 -0.00000000000E+00 -0.00000000000E+00 -0.45593999997E+02  0.45594000000E+02  0.51100000000E-03 0.  1.
    9900012    2    1    2    0    0  0.28980425659E+02 -0.46143161892E+01  0.28142649941E+02  0.50528859195E+02  0.29999998010E+02 0.  0.
        -12    1    1    2    0    0 -0.28980425659E+02  0.46143161892E+01 -0.28142649941E+02  0.40659140805E+02  0.00000000000E+00 0.  1.
         11    1    3    3    0    0  0.19711761709E+02  0.45978377976E+01  0.18105117044E+02  0.27156747330E+02  0.51100000000E-03 0. -1.
        -11    1    3    3    0    0  0.47094157754E+01 -0.98891702878E+01 -0.13984571606E+01  0.11042190390E+02  0.51100000000E-03 0.  1.
         12    1    3    3    0    0  0.45592481742E+01  0.67701630095E+00  0.11435990058E+02  0.12329921475E+02  0.00000000000E+00 0. -1.
</event>
<event>
 7    1  0.9865694E-013  0.5052886E+02  0.7816164E-02  0.1300439E+00
        -11   -1    0    0    0    0  0.00000000000E+00  0.00000000000E+00  0.45593999997E+02  0.45594000000E+02  0.51100000000E-03 0. -1.
         11   -1    0    0    0    0 -0.00000000000E+00 -0.00000000000E+00 -0.45593999997E+02  0.45594000000E+02  0.51100000000E-03 0.  1.
    9900012    2    1    2    0    0  0.25418865498E+01 -0.38349990657E+02 -0.13265855511E+02  0.50528857202E+02  0.29999991951E+02 0.  0.
        -12    1    1    2    0    0 -0.25418865498E+01  0.38349990657E+02  0.13265855511E+02  0.40659142798E+02  0.00000000000E+00 0.  1.
         11    1    3    3    0    0  0.14278045392E+02 -0.12129002199E+02 -0.77929603433E+01  0.20290527488E+02  0.51100000000E-03 0. -1.
        -11    1    3    3    0    0 -0.62868385045E+01 -0.16811879101E+02 -0.69856619078E+01  0.19260402121E+02  0.51100000000E-03 0.  1.
         12    1    3    3    0    0 -0.54493203378E+01 -0.94091093572E+01  0.15127667401E+01  0.10977927594E+02  0.00000000000E+00 0. -1.
</event>
<event>
 7    1  0.9865694E-013  0.5052885E+02  0.7816164E-02  0.1300439E+00
        -11   -1    0    0    0    0  0.00000000000E+00  0.00000000000E+00  0.45593999997E+02  0.45594000000E+02  0.51100000000E-03 0.  1.
         11   -1    0    0    0    0 -0.00000000000E+00 -0.00000000000E+00 -0.45593999997E+02  0.45594000000E+02  0.51100000000E-03 0. -1.
    9900012    2    1    2    0    0 -0.23372997551E+02 -0.26263885571E+02  0.20422473964E+02  0.50528854134E+02  0.29999982625E+02 0.  0.
        -12    1    1    2    0    0  0.23372997551E+02  0.26263885571E+02 -0.20422473964E+02  0.40659145866E+02  0.00000000000E+00 0.  1.
         11    1    3    3    0    0 -0.16237890246E+02 -0.95528359696E+01  0.81612615678E+01  0.20531243151E+02  0.51100000000E-03 0. -1.
        -11    1    3    3    0    0  0.51212390393E+01 -0.11688915209E+02  0.10712895745E+02  0.16662051601E+02  0.51100000000E-03 0.  1.
        -12    1    3    3    0    0 -0.12256346344E+02 -0.50221343920E+01  0.15483166508E+01  0.13335559381E+02  0.00000000000E+00 0.  1.
</event>
<event>
 7    1  0.9865694E-013  0.5052886E+02  0.7816164E-02  0.1300439E+00
        -11   -1    0    0    0    0  0.00000000000E+00  0.00000000000E+00  0.45593999997E+02  0.45594000000E+02  0.51100000000E-03 0. -1.
         11   -1    0    0    0    0 -0.00000000000E+00 -0.00000000000E+00 -0.45593999997E+02  0.45594000000E+02  0.51100000000E-03 0.  1.
    9900012    2    1    2    0    0  0.86131755678E+01  0.39282660186E+02  0.59876270915E+01  0.50528857574E+02  0.29999993082E+02 0.  0.
        -12    1    1    2    0    0 -0.86131755678E+01 -0.39282660186E+02 -0.59876270915E+01  0.40659142426E+02  0.00000000000E+00 0.  1.
         11    1    3    3    0    0  0.14658236011E+02  0.39785302031E+02  0.84455550161E+01  0.43232644384E+02  0.51100000000E-03 0. -1.
        -11    1    3    3    0    0 -0.35268939451E+01  0.13150037489E+01 -0.13359412344E+01  0.39941150462E+01  0.51100000000E-03 0.  1.
         12    1    3    3    0    0 -0.25181664976E+01 -0.18176455947E+01 -0.11219866903E+01  0.33020981437E+01  0.00000000000E+00 0. -1.
</event>
<event>
 7    1  0.9865694E-013  0.5052894E+02  0.7816164E-02  0.1300439E+00
        -11   -1    0    0    0    0  0.00000000000E+00  0.00000000000E+00  0.45593999997E+02  0.45594000000E+02  0.51100000000E-03 0.  1.
         11   -1    0    0    0    0 -0.00000000000E+00 -0.00000000000E+00 -0.45593999997E+02  0.45594000000E+02  0.51100000000E-03 0. -1.
    9900012    2    1    2    0    0 -0.31382967354E+02 -0.11168400826E+02 -0.23313851631E+02  0.50528935884E+02  0.30000231111E+02 0.  0.
        -12    1    1    2    0    0  0.31382967354E+02  0.11168400826E+02  0.23313851631E+02  0.40659064116E+02  0.00000000000E+00 0.  1.
         11    1    3    3    0    0 -0.26392999288E+01  0.75345955906E+01 -0.87668263410E+01  0.11857203683E+02  0.51100000000E-03 0. -1.
        -11    1    3    3    0    0 -0.18088936524E+02 -0.69297316866E+01 -0.45171530629E+01  0.19890587670E+02  0.51100000000E-03 0.  1.
         12    1    3    3    0    0 -0.10654730901E+02 -0.11773264730E+02 -0.10029872227E+02  0.18781144531E+02  0.00000000000E+00 0. -1.
</event>
<event>
 7    1  0.9865694E-013  0.5052886E+02  0.7816164E-02  0.1300439E+00
        -11   -1    0    0    0    0  0.00000000000E+00  0.00000000000E+00  0.45593999997E+02  0.45594000000E+02  0.51100000000E-03 0. -1.
         11   -1    0    0    0    0 -0.00000000000E+00 -0.00000000000E+00 -0.45593999997E+02  0.45594000000E+02  0.51100000000E-03 0.  1.
    9900012    2    1    2    0    0  0.92950685644E+01  0.39114868093E+02 -0.60658203097E+01  0.50528863492E+02  0.30000011070E+02 0.  0.
        -12    1    1    2    0    0 -0.92950685644E+01 -0.39114868093E+02  0.60658203097E+01  0.40659136508E+02  0.00000000000E+00 0.  1.
         11    1    3    3    0    0  0.12315238146E+02  0.32475358683E+02 -0.35203790666E+01  0.34909985409E+02  0.51100000000E-03 0. -1.
        -11    1    3    3    0    0 -0.31289435059E+00 -0.35063859232E+01  0.21403902736E+01  0.41199412498E+01  0.51100000000E-03 0.  1.
         12    1    3    3    0    0 -0.27072752313E+01  0.10145895333E+02 -0.46858315168E+01  0.11498936833E+02  0.00000000000E+00 0. -1.
</event>
<event>
 7    1  0.9865694E-013  0.5052885E+02  0.7816164E-02  0.1300439E+00
        -11   -1    0    0    0    0  0.00000000000E+00  0.00000000000E+00  0.45593999997E+02  0.45594000000E+02  0.51100000000E-03 0. -1.
         11   -1    0    0    0    0 -0.00000000000E+00 -0.00000000000E+00 -0.45593999997E+02  0.45594000000E+02  0.51100000000E-03 0.  1.
    9900012    2    1    2    0    0 -0.40667043307E+01  0.40154635933E+02  0.49227230262E+01  0.50528854989E+02  0.29999985224E+02 0.  0.
        -12    1    1    2    0    0  0.40667043307E+01 -0.40154635933E+02 -0.49227230262E+01  0.40659145011E+02  0.00000000000E+00 0.  1.
         11    1    3    3    0    0 -0.12478428393E+02  0.11770094546E+02  0.70183807135E+01  0.18533860064E+02  0.51100000000E-03 0.  1.
        -11    1    3    3    0    0  0.26226200364E+01 -0.21160932932E+00  0.58650456260E+00  0.26957192411E+01  0.51100000000E-03 0. -1.
         12    1    3    3    0    0  0.57891040262E+01  0.28596150717E+02 -0.26821622500E+01  0.29299275683E+02  0.00000000000E+00 0. -1.
</event>
<event>
 7    1  0.9865694E-013  0.5052886E+02  0.7816164E-02  0.1300439E+00
        -11   -1    0    0    0    0  0.00000000000E+00  0.00000000000E+00  0.45593999997E+02  0.45594000000E+02  0.51100000000E-03 0. -1.
         11   -1    0    0    0    0 -0.00000000000E+00 -0.00000000000E+00 -0.45593999997E+02  0.45594000000E+02  0.51100000000E-03 0.  1.
    9900012    2    1    2    0    0  0.21455503748E+02 -0.34519582967E+02  0.11069554944E+01  0.50528860809E+02  0.30000002914E+02 0.  0.
        -12    1    1    2    0    0 -0.21455503748E+02  0.34519582967E+02 -0.11069554944E+01  0.40659139191E+02  0.00000000000E+00 0.  1.
         11    1    3    3    0    0  0.20637163544E+02 -0.20078750805E+02  0.50122423232E+01  0.29226209580E+02  0.51100000000E-03 0. -1.
        -11    1    3    3    0    0 -0.23506646569E+01 -0.83761196109E+01 -0.91915460083E+01  0.12655809826E+02  0.51100000000E-03 0.  1.
        -12    1    3    3    0    0  0.31690048610E+01 -0.60647125510E+01  0.52862591795E+01  0.86468414030E+01  0.00000000000E+00 0.  1.
</event>
<event>
 7    1  0.9865694E-013  0.5052887E+02  0.7816164E-02  0.1300439E+00
        -11   -1    0    0    0    0  0.00000000000E+00  0.00000000000E+00  0.45593999997E+02  0.45594000000E+02  0.51100000000E-03 0.  1.
         11   -1    0    0    0    0 -0.00000000000E+00 -0.00000000000E+00 -0.45593999997E+02  0.45594000000E+02  0.51100000000E-03 0. -1.
    9900012    2    1    2    0    0  0.29441508071E+02  0.26281266458E+02  0.97804565191E+01  0.50528871949E+02  0.30000036777E+02 0.  0.
        -12    1    1    2    0    0 -0.29441508071E+02 -0.26281266458E+02 -0.97804565191E+01  0.40659128051E+02  0.00000000000E+00 0.  1.
         11    1    3    3    0    0  0.16464815344E+02 -0.29524777331E+01  0.69798726753E+01  0.18125283223E+02  0.51100000000E-03 0. -1.
        -11    1    3    3    0    0  0.25254441318E+01  0.10259423055E+02  0.18026393064E+01  0.10718355201E+02  0.51100000000E-03 0.  1.
         12    1    3    3    0    0  0.10451248595E+02  0.18974321136E+02  0.99794453733E+00  0.21685233526E+02  0.00000000000E+00 0. -1.
</event>
<event>
 7    1  0.9865694E-013  0.5052886E+02  0.7816164E-02  0.1300439E+00
        -11   -1    0    0    0    0  0.00000000000E+00  0.00000000000E+00  0.45593999997E+02  0.45594000000E+02  0.51100000000E-03 0.  1.
         11   -1    0    0    0    0 -0.00000000000E+00 -0.00000000000E+00 -0.45593999997E+02  0.45594000000E+02  0.51100000000E-03 0. -1.
    9900012    2    1    2    0    0  0.20970649459E+02 -0.32279647471E+02  0.13092832546E+02  0.50528855350E+02  0.29999986322E+02 0.  0.
        -12    1    1    2    0    0 -0.20970649459E+02  0.32279647471E+02 -0.13092832546E+02  0.40659144650E+02  0.00000000000E+00 0.  1.
         11    1    3    3    0    0  0.24846458593E+02 -0.15657532568E+02  0.13133930933E+02  0.32171493169E+02  0.51100000000E-03 0. -1.
        -11    1    3    3    0    0 -0.77776197603E+00 -0.12136061404E+02 -0.24362499936E+01  0.12402589020E+02  0.51100000000E-03 0.  1.
        -12    1    3    3    0    0 -0.30980471574E+01 -0.44860534991E+01  0.23951516060E+01  0.59547731612E+01  0.00000000000E+00 0.  1.
</event>
<event>
 7    1  0.9865694E-013  0.5052887E+02  0.7816164E-02  0.1300439E+00
        -11   -1    0    0    0    0  0.00000000000E+00  0.00000000000E+00  0.45593999997E+02  0.45594000000E+02  0.51100000000E-03 0. -1.
         11   -1    0    0    0    0 -0.00000000000E+00 -0.00000000000E+00 -0.45593999997E+02  0.45594000000E+02  0.51100000000E-03 0.  1.
    9900012    2    1    2    0    0 -0.36502903872E+02 -0.61314051832E+01  0.16825833949E+02  0.50528870537E+02  0.30000032483E+02 0.  0.
        -12    1    1    2    0    0  0.36502903872E+02  0.61314051832E+01 -0.16825833949E+02  0.40659129463E+02  0.00000000000E+00 0.  1.
         11    1    3    3    0    0 -0.31538431993E+02  0.75613019154E+01  0.10630933032E+02  0.34130085213E+02  0.51100000000E-03 0. -1.
        -11    1    3    3    0    0 -0.17864522723E+01 -0.75877244924E+01  0.11824338858E+01  0.78843595078E+01  0.51100000000E-03 0.  1.
         12    1    3    3    0    0 -0.31780196075E+01 -0.61049826063E+01  0.50124670307E+01  0.85144258164E+01  0.00000000000E+00 0. -1.
</event>
<event>
 7    1  0.9865694E-013  0.5052885E+02  0.7816164E-02  0.1300439E+00
        -11   -1    0    0    0    0  0.00000000000E+00  0.00000000000E+00  0.45593999997E+02  0.45594000000E+02  0.51100000000E-03 0. -1.
         11   -1    0    0    0    0 -0.00000000000E+00 -0.00000000000E+00 -0.45593999997E+02  0.45594000000E+02  0.51100000000E-03 0.  1.
    9900012    2    1    2    0    0 -0.38627104411E+02 -0.80583231994E+01  0.98069523452E+01  0.50528854875E+02  0.29999984878E+02 0.  0.
        -12    1    1    2    0    0  0.38627104411E+02  0.80583231994E+01 -0.98069523452E+01  0.40659145125E+02  0.00000000000E+00 0.  1.
         11    1    3    3    0    0 -0.87833489256E+01 -0.35471627003E+01  0.82772615007E+01  0.12579453080E+02  0.51100000000E-03 0. -1.
        -11    1    3    3    0    0 -0.15704337496E+02 -0.22706497680E-01 -0.10465328254E+02  0.18871932268E+02  0.51100000000E-03 0.  1.
        -12    1    3    3    0    0 -0.14139417989E+02 -0.44884540014E+01  0.11995019099E+02  0.19077469528E+02  0.00000000000E+00 0.  1.
</event>
<event>
 7    1  0.9865694E-013  0.5052891E+02  0.7816164E-02  0.1300439E+00
        -11   -1    0    0    0    0  0.00000000000E+00  0.00000000000E+00  0.45593999997E+02  0.45594000000E+02  0.51100000000E-03 0. -1.
         11   -1    0    0    0    0 -0.00000000000E+00 -0.00000000000E+00 -0.45593999997E+02  0.45594000000E+02  0.51100000000E-03 0.  1.
    9900012    2    1    2    0    0  0.58278082170E+00 -0.25509857511E+02  0.31655474292E+02  0.50528911024E+02  0.30000155549E+02 0.  0.
        -12    1    1    2    0    0 -0.58278082170E+00  0.25509857511E+02 -0.31655474292E+02  0.40659088976E+02  0.00000000000E+00 0.  1.
         11    1    3    3    0    0  0.16220099556E+01 -0.12242524440E+02  0.12356032810E+02  0.17469455288E+02  0.51100000000E-03 0. -1.
        -11    1    3    3    0    0 -0.69639314998E+00  0.14560454054E+01 -0.46622387459E+01  0.49337107766E+01  0.51100000000E-03 0.  1.
        -12    1    3    3    0    0 -0.34283598395E+00 -0.14723378476E+02  0.23961680227E+02  0.28125744960E+02  0.00000000000E+00 0.  1.
</event>
<event>
 7    1  0.9865694E-013  0.5052886E+02  0.7816164E-02  0.1300439E+00
        -11   -1    0    0    0    0  0.00000000000E+00  0.00000000000E+00  0.45593999997E+02  0.45594000000E+02  0.51100000000E-03 0.  1.
         11   -1    0    0    0    0 -0.00000000000E+00 -0.00000000000E+00 -0.45593999997E+02  0.45594000000E+02  0.51100000000E-03 0. -1.
    9900012    2    1    2    0    0 -0.33051250502E+02 -0.23663436319E+02 -0.90680551315E+00  0.50528859891E+02  0.30000000125E+02 0.  0.
        -12    1    1    2    0    0  0.33051250502E+02  0.23663436319E+02  0.90680551315E+00  0.40659140109E+02  0.00000000000E+00 0.  1.
         11    1    3    3    0    0 -0.13651755324E+02 -0.11274199140E+02 -0.13997801447E+02  0.22570255543E+02  0.51100000000E-03 0. -1.
        -11    1    3    3    0    0 -0.16397798049E+02 -0.59309421056E+01  0.10637899063E+02  0.20426178102E+02  0.51100000000E-03 0.  1.
         12    1    3    3    0    0 -0.30016971293E+01 -0.64582950727E+01  0.24530968707E+01  0.75324262465E+01  0.00000000000E+00 0. -1.
</event>
<event>
 7    1  0.9865694E-013  0.5052883E+02  0.7816164E-02  0.1300439E+00
        -11   -1    0    0    0    0  0.00000000000E+00  0.00000000000E+00  0.45593999997E+02  0.45594000000E+02  0.51100000000E-03 0. -1.
         11   -1    0    0    0    0 -0.00000000000E+00 -0.00000000000E+00 -0.45593999997E+02  0.45594000000E+02  0.51100000000E-03 0.  1.
    9900012    2    1    2    0    0 -0.50817577617E+01  0.39448706211E+02 -0.84346334149E+01  0.50528834680E+02  0.29999923493E+02 0.  0.
        -12    1    1    2    0    0  0.50817577617E+01 -0.39448706211E+02  0.84346334149E+01  0.40659165320E+02  0.00000000000E+00 0.  1.
         11    1    3    3    0    0  0.48730842439E+01  0.42173379179E+01  0.29542746372E+01  0.70894730449E+01  0.51100000000E-03 0. -1.
        -11    1    3    3    0    0 -0.10839810902E+02  0.37199055230E+02 -0.82246495000E+01  0.39609545189E+02  0.51100000000E-03 0.  1.
        -12    1    3    3    0    0  0.88496889644E+00 -0.19676869365E+01 -0.31642585522E+01  0.38298164463E+01  0.00000000000E+00 0.  1.
</event>
<event>
 7    1  0.9865694E-013  0.5052885E+02  0.7816164E-02  0.1300439E+00
        -11   -1    0    0    0    0  0.00000000000E+00  0.00000000000E+00  0.45593999997E+02  0.45594000000E+02  0.51100000000E-03 0.  1.
         11   -1    0    0    0    0 -0.00000000000E+00 -0.00000000000E+00 -0.45593999997E+02  0.45594000000E+02  0.51100000000E-03 0. -1.
    9900012    2    1    2    0    0 -0.50292980763E+01 -0.36618992769E+02 -0.16938762298E+02  0.50528854181E+02  0.29999982767E+02 0.  0.
        -12    1    1    2    0    0  0.50292980763E+01  0.36618992769E+02  0.16938762298E+02  0.40659145819E+02  0.00000000000E+00 0.  1.
         11    1    3    3    0    0 -0.74959917804E-01 -0.32981543790E+02 -0.19983597690E+02  0.38563350822E+02  0.51100000000E-03 0. -1.
        -11    1    3    3    0    0 -0.10151149869E+01 -0.35638250941E+01  0.59920236137E+01  0.70452576238E+01  0.51100000000E-03 0.  1.
         12    1    3    3    0    0 -0.39392231717E+01 -0.73623885353E-01 -0.29471882220E+01  0.49202457346E+01  0.00000000000E+00 0. -1.
</event>
<event>
 7    1  0.9865694E-013  0.5052886E+02  0.7816164E-02  0.1300439E+00
        -11   -1    0    0    0    0  0.00000000000E+00  0.00000000000E+00  0.45593999997E+02  0.45594000000E+02  0.51100000000E-03 0. -1.
         11   -1    0    0    0    0 -0.00000000000E+00 -0.00000000000E+00 -0.45593999997E+02  0.45594000000E+02  0.51100000000E-03 0.  1.
    9900012    2    1    2    0    0  0.22919085529E+02  0.32554123242E+02 -0.82529011041E+01  0.50528858369E+02  0.29999995499E+02 0.  0.
        -12    1    1    2    0    0 -0.22919085529E+02 -0.32554123242E+02  0.82529011041E+01  0.40659141631E+02  0.00000000000E+00 0.  1.
         11    1    3    3    0    0  0.19570963511E+02  0.35753748306E+02 -0.20626037267E+01  0.40811854468E+02  0.51100000000E-03 0. -1.
        -11    1    3    3    0    0  0.44798856707E+00  0.12264180774E+01 -0.35919906262E+01  0.38219356322E+01  0.51100000000E-03 0.  1.
         12    1    3    3    0    0  0.29001334506E+01 -0.44260431419E+01 -0.25983067512E+01  0.58950682692E+01  0.00000000000E+00 0. -1.
</event>
<event>
 7    1  0.9865694E-013  0.5052886E+02  0.7816164E-02  0.1300439E+00
        -11   -1    0    0    0    0  0.00000000000E+00  0.00000000000E+00  0.45593999997E+02  0.45594000000E+02  0.51100000000E-03 0. -1.
         11   -1    0    0    0    0 -0.00000000000E+00 -0.00000000000E+00 -0.45593999997E+02  0.45594000000E+02  0.51100000000E-03 0.  1.
    9900012    2    1    2    0    0 -0.15849546992E+02  0.15611431342E+02  0.34032941406E+02  0.50528855528E+02  0.29999986864E+02 0.  0.
        -12    1    1    2    0    0  0.15849546992E+02 -0.15611431342E+02 -0.34032941406E+02  0.40659144472E+02  0.00000000000E+00 0.  1.
         11    1    3    3    0    0 -0.41249222531E+01 -0.52027970845E+01  0.11692776368E+00  0.66406139370E+01  0.51100000000E-03 0.  1.
        -11    1    3    3    0    0 -0.80961800259E+01  0.13701606685E+02  0.10295530868E+02  0.18954685777E+02  0.51100000000E-03 0. -1.
         12    1    3    3    0    0 -0.36284447132E+01  0.71126217415E+01  0.23620482774E+02  0.24933555815E+02  0.00000000000E+00 0. -1.
</event>
<event>
 7    1  0.1150731E-012  0.5052886E+02  0.7816164E-02  0.1300439E+00
        -11   -1    0    0    0    0  0.00000000000E+00  0.00000000000E+00  0.45593999997E+02  0.45594000000E+02  0.51100000000E-03 0. -1.
         11   -1    0    0    0    0 -0.00000000000E+00 -0.00000000000E+00 -0.45593999997E+02  0.45594000000E+02  0.51100000000E-03 0.  1.
    9900012    2    1    2    0    0 -0.22136539269E+02 -0.23015097298E+02  0.25168325290E+02  0.50528859916E+02  0.30000000200E+02 0.  0.
        -12    1    1    2    0    0  0.22136539269E+02  0.23015097298E+02 -0.25168325290E+02  0.40659140084E+02  0.00000000000E+00 0.  1.
         11    1    3    3    0    0 -0.72676621259E+01 -0.52610073379E+01  0.20343249885E+02  0.22233868919E+02  0.51100000000E-03 0. -1.
        -11    1    3    3    0    0 -0.16930982870E+02 -0.10706194483E+02  0.11033631297E+01  0.20062357581E+02  0.51100000000E-03 0.  1.
        -12    1    3    3    0    0  0.20621057271E+01 -0.70478954769E+01  0.37217122760E+01  0.82326334152E+01  0.00000000000E+00 0.  1.
</event>
<event>
 7    1  0.9865694E-013  0.5052886E+02  0.7816164E-02  0.1300439E+00
        -11   -1    0    0    0    0  0.00000000000E+00  0.00000000000E+00  0.45593999997E+02  0.45594000000E+02  0.51100000000E-03 0.  1.
         11   -1    0    0    0    0 -0.00000000000E+00 -0.00000000000E+00 -0.45593999997E+02  0.45594000000E+02  0.51100000000E-03 0. -1.
    9900012    2    1    2    0    0 -0.35461080523E+02 -0.14762185022E+02 -0.13332492165E+02  0.50528859750E+02  0.29999999698E+02 0.  0.
        -12    1    1    2    0    0  0.35461080523E+02  0.14762185022E+02  0.13332492165E+02  0.40659140250E+02  0.00000000000E+00 0.  1.
         11    1    3    3    0    0 -0.28329748013E+02 -0.66844220929E+01 -0.16815327521E+02  0.33615641614E+02  0.51100000000E-03 0. -1.
        -11    1    3    3    0    0  0.26784933795E+01 -0.45792045390E+01  0.37469535731E+01  0.64948519871E+01  0.51100000000E-03 0.  1.
         12    1    3    3    0    0 -0.98098258900E+01 -0.34985583897E+01 -0.26411821689E+00  0.10418366150E+02  0.00000000000E+00 0. -1.
</event>
<event>
 7    1  0.9865694E-013  0.5052886E+02  0.7816164E-02  0.1300439E+00
        -11   -1    0    0    0    0  0.00000000000E+00  0.00000000000E+00  0.45593999997E+02  0.45594000000E+02  0.51100000000E-03 0.  1.
         11   -1    0    0    0    0 -0.00000000000E+00 -0.00000000000E+00 -0.45593999997E+02  0.45594000000E+02  0.51100000000E-03 0. -1.
    9900012    2    1    2    0    0 -0.22718683374E+02  0.31754491696E+02  0.11343681026E+02  0.50528863065E+02  0.30000009773E+02 0.  0.
        -12    1    1    2    0    0  0.22718683374E+02 -0.31754491696E+02 -0.11343681026E+02  0.40659136935E+02  0.00000000000E+00 0.  1.
         11    1    3    3    0    0 -0.12938403456E+02 -0.21079533233E+01  0.23852582179E+01  0.13324233871E+02  0.51100000000E-03 0. -1.
        -11    1    3    3    0    0  0.11945472044E+00  0.12045320867E+02  0.43501682342E+01  0.12807341181E+02  0.51100000000E-03 0.  1.
         12    1    3    3    0    0 -0.98997346378E+01  0.21817124152E+02  0.46082545737E+01  0.24397288013E+02  0.00000000000E+00 0. -1.
</event>
<event>
 7    1  0.9865694E-013  0.5052887E+02  0.7816164E-02  0.1300439E+00
        -11   -1    0    0    0    0  0.00000000000E+00  0.00000000000E+00  0.45593999997E+02  0.45594000000E+02  0.51100000000E-03 0.  1.
         11   -1    0    0    0    0 -0.00000000000E+00 -0.00000000000E+00 -0.45593999997E+02  0.45594000000E+02  0.51100000000E-03 0. -1.
    9900012    2    1    2    0    0  0.87666970850E+01  0.25064638759E+02 -0.30790805637E+02  0.50528870574E+02  0.30000032596E+02 0.  0.
        -12    1    1    2    0    0 -0.87666970850E+01 -0.25064638759E+02  0.30790805637E+02  0.40659129426E+02  0.00000000000E+00 0.  1.
         11    1    3    3    0    0  0.98189313358E+01  0.10066843863E+01 -0.93864283725E+01  0.13620934765E+02  0.51100000000E-03 0. -1.
        -11    1    3    3    0    0 -0.29803403218E+01  0.16063122747E+02 -0.28115053342E+01  0.16577421492E+02  0.51100000000E-03 0.  1.
        -12    1    3    3    0    0  0.19281060710E+01  0.79948316260E+01 -0.18592871930E+02  0.20330514316E+02  0.00000000000E+00 0.  1.
</event>
<event>
 7    1  0.9865694E-013  0.5052886E+02  0.7816164E-02  0.1300439E+00
        -11   -1    0    0    0    0  0.00000000000E+00  0.00000000000E+00  0.45593999997E+02  0.45594000000E+02  0.51100000000E-03 0. -1.
         11   -1    0    0    0    0 -0.00000000000E+00 -0.00000000000E+00 -0.45593999997E+02  0.45594000000E+02  0.51100000000E-03 0.  1.
    9900012    2    1    2    0    0  0.15668825380E+02  0.37622072335E+01  0.37329600238E+02  0.50528863930E+02  0.30000012400E+02 0.  0.
        -12    1    1    2    0    0 -0.15668825380E+02 -0.37622072335E+01 -0.37329600238E+02  0.40659136070E+02  0.00000000000E+00 0.  1.
         11    1    3    3    0    0  0.49270279126E+01 -0.38639532821E+01  0.23495310511E+02  0.24315331692E+02  0.51100000000E-03 0. -1.
        -11    1    3    3    0    0 -0.38700385923E+01  0.60169259002E+01  0.22565142753E+01  0.75014967126E+01  0.51100000000E-03 0.  1.
         12    1    3    3    0    0  0.14611836060E+02  0.16092346154E+01  0.11577775452E+02  0.18712035525E+02  0.00000000000E+00 0. -1.
</event>
<event>
 7    1  0.9865694E-013  0.5052886E+02  0.7816164E-02  0.1300439E+00
        -11   -1    0    0    0    0  0.00000000000E+00  0.00000000000E+00  0.45593999997E+02  0.45594000000E+02  0.51100000000E-03 0.  1.
         11   -1    0    0    0    0 -0.00000000000E+00 -0.00000000000E+00 -0.45593999997E+02  0.45594000000E+02  0.51100000000E-03 0. -1.
    9900012    2    1    2    0    0  0.25443248603E+02  0.30924978008E+02 -0.70322387519E+01  0.50528861468E+02  0.30000004919E+02 0.  0.
        -12    1    1    2    0    0 -0.25443248603E+02 -0.30924978008E+02  0.70322387519E+01  0.40659138532E+02  0.00000000000E+00 0.  1.
         11    1    3    3    0    0  0.81142699698E+01  0.12985359612E+01 -0.90961726753E+01  0.12258382046E+02  0.51100000000E-03 0. -1.
        -11    1    3    3    0    0  0.19447199218E+02  0.20873507900E+02  0.46398624783E+01  0.28903723178E+02  0.51100000000E-03 0.  1.
         12    1    3    3    0    0 -0.21182205843E+01  0.87529341462E+01 -0.25759285549E+01  0.93667562438E+01  0.00000000000E+00 0. -1.
</event>
<event>
 7    1  0.9865694E-013  0.5052885E+02  0.7816164E-02  0.1300439E+00
        -11   -1    0    0    0    0  0.00000000000E+00  0.00000000000E+00  0.45593999997E+02  0.45594000000E+02  0.51100000000E-03 0.  1.
         11   -1    0    0    0    0 -0.00000000000E+00 -0.00000000000E+00 -0.45593999997E+02  0.45594000000E+02  0.51100000000E-03 0. -1.
    9900012    2    1    2    0    0 -0.20363730129E+02  0.47043287633E+01 -0.34876275666E+02  0.50528845825E+02  0.29999957371E+02 0.  0.
        -12    1    1    2    0    0  0.20363730129E+02 -0.47043287633E+01  0.34876275666E+02  0.40659154175E+02  0.00000000000E+00 0.  1.
         11    1    3    3    0    0 -0.15708130530E+02 -0.90457117693E+01 -0.22860559902E+02  0.29174911575E+02  0.51100000000E-03 0. -1.
        -11    1    3    3    0    0  0.16182960805E+01  0.39157426866E+01  0.47462888408E+00  0.42634722739E+01  0.51100000000E-03 0.  1.
         12    1    3    3    0    0 -0.62738956793E+01  0.98342978459E+01 -0.12490344648E+02  0.17090461976E+02  0.00000000000E+00 0. -1.
</event>
<event>
 7    1  0.9865694E-013  0.5052884E+02  0.7816164E-02  0.1300439E+00
        -11   -1    0    0    0    0  0.00000000000E+00  0.00000000000E+00  0.45593999997E+02  0.45594000000E+02  0.51100000000E-03 0.  1.
         11   -1    0    0    0    0 -0.00000000000E+00 -0.00000000000E+00 -0.45593999997E+02  0.45594000000E+02  0.51100000000E-03 0. -1.
    9900012    2    1    2    0    0  0.89772939201E+01  0.22183832827E+02 -0.32870244883E+02  0.50528840593E+02  0.29999941466E+02 0.  0.
        -12    1    1    2    0    0 -0.89772939201E+01 -0.22183832827E+02  0.32870244883E+02  0.40659159407E+02  0.00000000000E+00 0.  1.
         11    1    3    3    0    0  0.14151367786E+01  0.10596155769E+02 -0.11649321515E+02  0.15811003169E+02  0.51100000000E-03 0. -1.
        -11    1    3    3    0    0  0.10411482012E+02  0.49699055652E+01  0.78389509035E+00  0.11563451508E+02  0.51100000000E-03 0.  1.
        -12    1    3    3    0    0 -0.28493248702E+01  0.66177714928E+01 -0.22004818458E+02  0.23154385916E+02  0.00000000000E+00 0.  1.
</event>
<event>
 7    1  0.9865694E-013  0.5052886E+02  0.7816164E-02  0.1300439E+00
        -11   -1    0    0    0    0  0.00000000000E+00  0.00000000000E+00  0.45593999997E+02  0.45594000000E+02  0.51100000000E-03 0.  1.
         11   -1    0    0    0    0 -0.00000000000E+00 -0.00000000000E+00 -0.45593999997E+02  0.45594000000E+02  0.51100000000E-03 0. -1.
    9900012    2    1    2    0    0  0.10460784388E+02  0.38919336658E+02 -0.53872607743E+01  0.50528863824E+02  0.30000012080E+02 0.  0.
        -12    1    1    2    0    0 -0.10460784388E+02 -0.38919336658E+02  0.53872607743E+01  0.40659136176E+02  0.00000000000E+00 0.  1.
         11    1    3    3    0    0  0.43048758023E+01  0.28877129386E+02 -0.12881051053E+02  0.31911471821E+02  0.51100000000E-03 0. -1.
        -11    1    3    3    0    0  0.89928723971E+01  0.10701239669E+02  0.52147158298E+01  0.14919167063E+02  0.51100000000E-03 0.  1.
         12    1    3    3    0    0 -0.28369638114E+01 -0.65903239712E+00  0.22790744489E+01  0.36982249405E+01  0.00000000000E+00 0. -1.
</event>
<event>
 7    1  0.9865694E-013  0.5052886E+02  0.7816164E-02  0.1300439E+00
        -11   -1    0    0    0    0  0.00000000000E+00  0.00000000000E+00  0.45593999997E+02  0.45594000000E+02  0.51100000000E-03 0.  1.
         11   -1    0    0    0    0 -0.00000000000E+00 -0.00000000000E+00 -0.45593999997E+02  0.45594000000E+02  0.51100000000E-03 0. -1.
    9900012    2    1    2    0    0 -0.10474929717E+02 -0.35292622788E+02 -0.17258979645E+02  0.50528858910E+02  0.29999997142E+02 0.  0.
        -12    1    1    2    0    0  0.10474929717E+02  0.35292622788E+02  0.17258979645E+02  0.40659141090E+02  0.00000000000E+00 0.  1.
         11    1    3    3    0    0  0.10083077013E+02 -0.92083243346E+01 -0.24260699464E+01  0.13868939929E+02  0.51100000000E-03 0. -1.
        -11    1    3    3    0    0 -0.69154880325E+01 -0.63955752174E+01 -0.26435043048E+01  0.97834284563E+01  0.51100000000E-03 0.  1.
         12    1    3    3    0    0 -0.13642518697E+02 -0.19688723236E+02 -0.12189405394E+02  0.26876490525E+02  0.00000000000E+00 0. -1.
</event>
<event>
 7    1  0.9865694E-013  0.5052885E+02  0.7816164E-02  0.1300439E+00
        -11   -1    0    0    0    0  0.00000000000E+00  0.00000000000E+00  0.45593999997E+02  0.45594000000E+02  0.51100000000E-03 0.  1.
         11   -1    0    0    0    0 -0.00000000000E+00 -0.00000000000E+00 -0.45593999997E+02  0.45594000000E+02  0.51100000000E-03 0. -1.
    9900012    2    1    2    0    0 -0.17221028707E+02 -0.22617744373E+02 -0.29069582397E+02  0.50528845914E+02  0.29999957639E+02 0.  0.
        -12    1    1    2    0    0  0.17221028707E+02  0.22617744373E+02  0.29069582397E+02  0.40659154086E+02  0.00000000000E+00 0.  1.
         11    1    3    3    0    0 -0.34063228712E+01 -0.19184700322E+02 -0.35816012442E+01  0.19811199602E+02  0.51100000000E-03 0.  1.
        -11    1    3    3    0    0 -0.14177509596E+02 -0.53770512455E+00 -0.20322837290E+02  0.24785250068E+02  0.51100000000E-03 0. -1.
         12    1    3    3    0    0  0.36280375996E+00 -0.28953389269E+01 -0.51651438633E+01  0.59323962442E+01  0.00000000000E+00 0. -1.
</event>
<event>
 7    1  0.9865694E-013  0.5052886E+02  0.7816164E-02  0.1300439E+00
        -11   -1    0    0    0    0  0.00000000000E+00  0.00000000000E+00  0.45593999997E+02  0.45594000000E+02  0.51100000000E-03 0.  1.
         11   -1    0    0    0    0 -0.00000000000E+00 -0.00000000000E+00 -0.45593999997E+02  0.45594000000E+02  0.51100000000E-03 0. -1.
    9900012    2    1    2    0    0 -0.38734839556E+01 -0.26052286427E+02 -0.30974834436E+02  0.50528857432E+02  0.29999992651E+02 0.  0.
        -12    1    1    2    0    0  0.38734839556E+01  0.26052286427E+02  0.30974834436E+02  0.40659142568E+02  0.00000000000E+00 0.  1.
         11    1    3    3    0    0  0.71171920171E+01  0.99782606548E+00 -0.99402376321E+01  0.12266148683E+02  0.51100000000E-03 0.  1.
        -11    1    3    3    0    0 -0.12314954251E+02 -0.23376035099E+02 -0.21834745262E+02  0.34276131871E+02  0.51100000000E-03 0. -1.
         12    1    3    3    0    0  0.13242782782E+01 -0.36740773932E+01  0.80014845811E+00  0.39865768780E+01  0.00000000000E+00 0. -1.
</event>
<event>
 7    1  0.9865694E-013  0.5052886E+02  0.7816164E-02  0.1300439E+00
        -11   -1    0    0    0    0  0.00000000000E+00  0.00000000000E+00  0.45593999997E+02  0.45594000000E+02  0.51100000000E-03 0.  1.
         11   -1    0    0    0    0 -0.00000000000E+00 -0.00000000000E+00 -0.45593999997E+02  0.45594000000E+02  0.51100000000E-03 0. -1.
    9900012    2    1    2    0    0 -0.20064530896E+02 -0.21960130805E+02 -0.27718813157E+02  0.50528863906E+02  0.30000012330E+02 0.  0.
        -12    1    1    2    0    0  0.20064530896E+02  0.21960130805E+02  0.27718813157E+02  0.40659136094E+02  0.00000000000E+00 0.  1.
         11    1    3    3    0    0  0.33106908018E+00  0.21471075310E+01  0.20683415936E+01  0.29996190916E+01  0.51100000000E-03 0.  1.
        -11    1    3    3    0    0 -0.18781200788E+02 -0.24317585792E+02 -0.17958609617E+02  0.35589185737E+02  0.51100000000E-03 0. -1.
        -12    1    3    3    0    0 -0.16143991883E+01  0.21034745640E+00 -0.11828545134E+02  0.11940059078E+02  0.00000000000E+00 0.  1.
</event>
<event>
 7    1  0.9865694E-013  0.5052886E+02  0.7816164E-02  0.1300439E+00
        -11   -1    0    0    0    0  0.00000000000E+00  0.00000000000E+00  0.45593999997E+02  0.45594000000E+02  0.51100000000E-03 0.  1.
         11   -1    0    0    0    0 -0.00000000000E+00 -0.00000000000E+00 -0.45593999997E+02  0.45594000000E+02  0.51100000000E-03 0. -1.
    9900012    2    1    2    0    0 -0.26383938981E+02  0.35430020537E+00 -0.30934250415E+02  0.50528860640E+02  0.30000002400E+02 0.  0.
        -12    1    1    2    0    0  0.26383938981E+02 -0.35430020537E+00  0.30934250415E+02  0.40659139360E+02  0.00000000000E+00 0.  1.
         11    1    3    3    0    0  0.15102787706E+00 -0.40975925761E+01 -0.15925065013E+02  0.16444475372E+02  0.51100000000E-03 0. -1.
        -11    1    3    3    0    0 -0.23227319662E+02  0.88438859637E+01 -0.13894982986E+02  0.28474431514E+02  0.51100000000E-03 0.  1.
         12    1    3    3    0    0 -0.33076471961E+01 -0.43919931822E+01 -0.11142024161E+01  0.56099537530E+01  0.00000000000E+00 0. -1.
</event>
<event>
 7    1  0.9865694E-013  0.5052887E+02  0.7816164E-02  0.1300439E+00
        -11   -1    0    0    0    0  0.00000000000E+00  0.00000000000E+00  0.45593999997E+02  0.45594000000E+02  0.51100000000E-03 0.  1.
         11   -1    0    0    0    0 -0.00000000000E+00 -0.00000000000E+00 -0.45593999997E+02  0.45594000000E+02  0.51100000000E-03 0. -1.
    9900012    2    1    2    0    0 -0.93577934386E+01 -0.35322115421E+02 -0.17831006405E+02  0.50528869104E+02  0.30000028128E+02 0.  0.
        -12    1    1    2    0    0  0.93577934386E+01  0.35322115421E+02  0.17831006405E+02  0.40659130896E+02  0.00000000000E+00 0.  1.
         11    1    3    3    0    0 -0.44540661021E+01 -0.91429627474E+01 -0.34013026108E+00  0.10175861708E+02  0.51100000000E-03 0. -1.
        -11    1    3    3    0    0  0.36065231616E+01  0.30797903092E+01  0.80554255576E+00  0.48105110678E+01  0.51100000000E-03 0.  1.
        -12    1    3    3    0    0 -0.85102504981E+01 -0.29258942982E+02 -0.18296418700E+02  0.35542496328E+02  0.00000000000E+00 0.  1.
</event>
<event>
 7    1  0.9865694E-013  0.5052887E+02  0.7816164E-02  0.1300439E+00
        -11   -1    0    0    0    0  0.00000000000E+00  0.00000000000E+00  0.45593999997E+02  0.45594000000E+02  0.51100000000E-03 0. -1.
         11   -1    0    0    0    0 -0.00000000000E+00 -0.00000000000E+00 -0.45593999997E+02  0.45594000000E+02  0.51100000000E-03 0.  1.
    9900012    2    1    2    0    0 -0.38134822677E+02  0.13801649869E+02  0.29007514566E+01  0.50528873119E+02  0.30000040333E+02 0.  0.
        -12    1    1    2    0    0  0.38134822677E+02 -0.13801649869E+02 -0.29007514566E+01  0.40659126881E+02  0.00000000000E+00 0.  1.
         11    1    3    3    0    0 -0.57730937467E+01  0.11543554134E+02  0.57840949304E+01  0.14143479341E+02  0.51100000000E-03 0. -1.
        -11    1    3    3    0    0 -0.30185157160E+02  0.48187060407E+01  0.18008209470E+01  0.30620362457E+02  0.51100000000E-03 0.  1.
        -12    1    3    3    0    0 -0.21765717705E+01 -0.25606103054E+01 -0.46841644208E+01  0.57650313208E+01  0.00000000000E+00 0.  1.
</event>
<event>
 7    1  0.9865694E-013  0.5052888E+02  0.7816164E-02  0.1300439E+00
        -11   -1    0    0    0    0  0.00000000000E+00  0.00000000000E+00  0.45593999997E+02  0.45594000000E+02  0.51100000000E-03 0.  1.
         11   -1    0    0    0    0 -0.00000000000E+00 -0.00000000000E+00 -0.45593999997E+02  0.45594000000E+02  0.51100000000E-03 0. -1.
    9900012    2    1    2    0    0 -0.38336757538E+02 -0.79455054030E+01 -0.10969337566E+02  0.50528875547E+02  0.30000047713E+02 0.  0.
        -12    1    1    2    0    0  0.38336757538E+02  0.79455054030E+01  0.10969337566E+02  0.40659124453E+02  0.00000000000E+00 0.  1.
         11    1    3    3    0    0 -0.22649047787E+02  0.18918625652E+01 -0.98326186116E+00  0.22749182705E+02  0.51100000000E-03 0. -1.
        -11    1    3    3    0    0  0.33891990009E+01 -0.10716303654E+01  0.14890445854E+01  0.38538702036E+01  0.51100000000E-03 0.  1.
         12    1    3    3    0    0 -0.19076908752E+02 -0.87657376028E+01 -0.11475120290E+02  0.23925822639E+02  0.00000000000E+00 0. -1.
</event>
<event>
 7    1  0.9865694E-013  0.5052884E+02  0.7816164E-02  0.1300439E+00
        -11   -1    0    0    0    0  0.00000000000E+00  0.00000000000E+00  0.45593999997E+02  0.45594000000E+02  0.51100000000E-03 0.  1.
         11   -1    0    0    0    0 -0.00000000000E+00 -0.00000000000E+00 -0.45593999997E+02  0.45594000000E+02  0.51100000000E-03 0. -1.
    9900012    2    1    2    0    0  0.43946807087E+01  0.28441026095E+02 -0.28722153076E+02  0.50528840378E+02  0.29999940812E+02 0.  0.
        -12    1    1    2    0    0 -0.43946807087E+01 -0.28441026095E+02  0.28722153076E+02  0.40659159622E+02  0.00000000000E+00 0.  1.
         11    1    3    3    0    0 -0.98344891659E+00  0.45026530575E+01  0.41422401201E+01  0.61967095947E+01  0.51100000000E-03 0. -1.
        -11    1    3    3    0    0  0.71044552214E+00  0.10437458180E+02 -0.26880323590E+02  0.28844359287E+02  0.51100000000E-03 0.  1.
         12    1    3    3    0    0  0.46676841032E+01  0.13500914857E+02 -0.59840696060E+01  0.15487771496E+02  0.00000000000E+00 0. -1.
</event>
<event>
 7    1  0.9865694E-013  0.5052885E+02  0.7816164E-02  0.1300439E+00
        -11   -1    0    0    0    0  0.00000000000E+00  0.00000000000E+00  0.45593999997E+02  0.45594000000E+02  0.51100000000E-03 0. -1.
         11   -1    0    0    0    0 -0.00000000000E+00 -0.00000000000E+00 -0.45593999997E+02  0.45594000000E+02  0.51100000000E-03 0.  1.
    9900012    2    1    2    0    0  0.21287513699E+02 -0.22393539559E+02  0.26429862043E+02  0.50528850217E+02  0.29999970720E+02 0.  0.
        -12    1    1    2    0    0 -0.21287513699E+02  0.22393539559E+02 -0.26429862043E+02  0.40659149783E+02  0.00000000000E+00 0.  1.
         11    1    3    3    0    0  0.11647985877E+02 -0.19407043915E+02  0.46954481755E+01  0.23116145058E+02  0.51100000000E-03 0. -1.
        -11    1    3    3    0    0  0.79922793223E+00  0.31978958045E+01  0.13344709281E+02  0.13745783678E+02  0.51100000000E-03 0.  1.
         12    1    3    3    0    0  0.88402998893E+01 -0.61843914479E+01  0.83897045873E+01  0.13666921481E+02  0.00000000000E+00 0. -1.
</event>
<event>
 7    1  0.9865694E-013  0.5052886E+02  0.7816164E-02  0.1300439E+00
        -11   -1    0    0    0    0  0.00000000000E+00  0.00000000000E+00  0.45593999997E+02  0.45594000000E+02  0.51100000000E-03 0.  1.
         11   -1    0    0    0    0 -0.00000000000E+00 -0.00000000000E+00 -0.45593999997E+02  0.45594000000E+02  0.51100000000E-03 0. -1.
    9900012    2    1    2    0    0 -0.86216581752E+01 -0.83092913994E+01 -0.38855998718E+02  0.50528856506E+02  0.29999989837E+02 0.  0.
        -12    1    1    2    0    0  0.86216581752E+01  0.83092913994E+01  0.38855998718E+02  0.40659143494E+02  0.00000000000E+00 0.  1.
         11    1    3    3    0    0 -0.81411192217E+00 -0.80419306540E+01 -0.31644553836E+02  0.32660575846E+02  0.51100000000E-03 0. -1.
        -11    1    3    3    0    0 -0.69859652836E+01  0.64875630643E+01 -0.38997079777E+01  0.10300480961E+02  0.51100000000E-03 0.  1.
         12    1    3    3    0    0 -0.82158096935E+00 -0.67549238097E+01 -0.33117369048E+01  0.75677996994E+01  0.00000000000E+00 0. -1.
</event>
<event>
 7    1  0.9865694E-013  0.5052887E+02  0.7816164E-02  0.1300439E+00
        -11   -1    0    0    0    0  0.00000000000E+00  0.00000000000E+00  0.45593999997E+02  0.45594000000E+02  0.51100000000E-03 0.  1.
         11   -1    0    0    0    0 -0.00000000000E+00 -0.00000000000E+00 -0.45593999997E+02  0.45594000000E+02  0.51100000000E-03 0. -1.
    9900012    2    1    2    0    0 -0.97358114972E+01 -0.39201600881E+02  0.46490432054E+01  0.50528866464E+02  0.30000020105E+02 0.  0.
        -12    1    1    2    0    0  0.97358114972E+01  0.39201600881E+02 -0.46490432054E+01  0.40659133536E+02  0.00000000000E+00 0.  1.
         11    1    3    3    0    0 -0.65391718376E+01 -0.35026853499E+02  0.10859806340E+02  0.37250189642E+02  0.51100000000E-03 0. -1.
        -11    1    3    3    0    0  0.28544479838E+01  0.16565247863E+01 -0.13118815143E+01  0.35514758944E+01  0.51100000000E-03 0.  1.
         12    1    3    3    0    0 -0.60510876434E+01 -0.58312721681E+01 -0.48988816200E+01  0.97272009280E+01  0.00000000000E+00 0. -1.
</event>
<event>
 7    1  0.9865694E-013  0.5052886E+02  0.7816164E-02  0.1300439E+00
        -11   -1    0    0    0    0  0.00000000000E+00  0.00000000000E+00  0.45593999997E+02  0.45594000000E+02  0.51100000000E-03 0. -1.
         11   -1    0    0    0    0 -0.00000000000E+00 -0.00000000000E+00 -0.45593999997E+02  0.45594000000E+02  0.51100000000E-03 0.  1.
    9900012    2    1    2    0    0  0.10344178633E+01  0.22590992440E+02  0.33789678607E+02  0.50528864002E+02  0.30000012620E+02 0.  0.
        -12    1    1    2    0    0 -0.10344178633E+01 -0.22590992440E+02 -0.33789678607E+02  0.40659135998E+02  0.00000000000E+00 0.  1.
         11    1    3    3    0    0 -0.11748211368E+00  0.12085375201E+02  0.17816856016E+02  0.21529292937E+02  0.51100000000E-03 0. -1.
        -11    1    3    3    0    0  0.16446978373E+01  0.11638650181E+01 -0.53489818819E+01  0.57158744029E+01  0.51100000000E-03 0.  1.
        -12    1    3    3    0    0 -0.49279786037E+00  0.93417522213E+01  0.21321804473E+02  0.23283696662E+02  0.00000000000E+00 0.  1.
</event>
<event>
 7    1  0.9865694E-013  0.5052886E+02  0.7816164E-02  0.1300439E+00
        -11   -1    0    0    0    0  0.00000000000E+00  0.00000000000E+00  0.45593999997E+02  0.45594000000E+02  0.51100000000E-03 0.  1.
         11   -1    0    0    0    0 -0.00000000000E+00 -0.00000000000E+00 -0.45593999997E+02  0.45594000000E+02  0.51100000000E-03 0. -1.
    9900012    2    1    2    0    0  0.19228774686E+02  0.35651852254E+02  0.35163893924E+01  0.50528864011E+02  0.30000012647E+02 0.  0.
        -12    1    1    2    0    0 -0.19228774686E+02 -0.35651852254E+02 -0.35163893924E+01  0.40659135989E+02  0.00000000000E+00 0.  1.
         11    1    3    3    0    0 -0.46289080029E+01 -0.11027682322E+01 -0.18699857802E+01  0.51127032138E+01  0.51100000000E-03 0. -1.
        -11    1    3    3    0    0  0.97046572837E+01  0.12056989649E+02  0.68227015651E+01  0.16914509431E+02  0.51100000000E-03 0.  1.
         12    1    3    3    0    0  0.14153025405E+02  0.24697630837E+02 -0.14363263924E+01  0.28501651366E+02  0.00000000000E+00 0. -1.
</event>
<event>
 7    1  0.9865694E-013  0.5052886E+02  0.7816164E-02  0.1300439E+00
        -11   -1    0    0    0    0  0.00000000000E+00  0.00000000000E+00  0.45593999997E+02  0.45594000000E+02  0.51100000000E-03 0. -1.
         11   -1    0    0    0    0 -0.00000000000E+00 -0.00000000000E+00 -0.45593999997E+02  0.45594000000E+02  0.51100000000E-03 0.  1.
    9900012    2    1    2    0    0 -0.24198975849E+02  0.11374352271E+02  0.30630041356E+02  0.50528858898E+02  0.29999997106E+02 0.  0.
        -12    1    1    2    0    0  0.24198975849E+02 -0.11374352271E+02 -0.30630041356E+02  0.40659141102E+02  0.00000000000E+00 0.  1.
         11    1    3    3    0    0 -0.12228938494E+02  0.81354102094E+01  0.43452401323E+01  0.15317080272E+02  0.51100000000E-03 0.  1.
        -11    1    3    3    0    0  0.34127998970E+01 -0.12710975269E+01  0.15425404268E+02  0.15849479144E+02  0.51100000000E-03 0. -1.
         12    1    3    3    0    0 -0.15382837252E+02  0.45100395883E+01  0.10859396955E+02  0.19362299482E+02  0.00000000000E+00 0. -1.
</event>
<event>
 7    1  0.9865694E-013  0.5052886E+02  0.7816164E-02  0.1300439E+00
        -11   -1    0    0    0    0  0.00000000000E+00  0.00000000000E+00  0.45593999997E+02  0.45594000000E+02  0.51100000000E-03 0. -1.
         11   -1    0    0    0    0 -0.00000000000E+00 -0.00000000000E+00 -0.45593999997E+02  0.45594000000E+02  0.51100000000E-03 0.  1.
    9900012    2    1    2    0    0  0.17314399178E+02  0.29568913559E+02  0.21887357986E+02  0.50528861942E+02  0.30000006360E+02 0.  0.
        -12    1    1    2    0    0 -0.17314399178E+02 -0.29568913559E+02 -0.21887357986E+02  0.40659138058E+02  0.00000000000E+00 0.  1.
         11    1    3    3    0    0  0.16605097863E+02  0.16762179400E+02  0.16212010431E+02  0.28627420697E+02  0.51100000000E-03 0. -1.
        -11    1    3    3    0    0 -0.68288279039E+01  0.64038413749E+01  0.73089880359E+01  0.11877010620E+02  0.51100000000E-03 0.  1.
         12    1    3    3    0    0  0.75381292195E+01  0.64028927847E+01 -0.16336404816E+01  0.10024430626E+02  0.00000000000E+00 0. -1.
</event>
<event>
 7    1  0.9865694E-013  0.5052885E+02  0.7816164E-02  0.1300439E+00
        -11   -1    0    0    0    0  0.00000000000E+00  0.00000000000E+00  0.45593999997E+02  0.45594000000E+02  0.51100000000E-03 0. -1.
         11   -1    0    0    0    0 -0.00000000000E+00 -0.00000000000E+00 -0.45593999997E+02  0.45594000000E+02  0.51100000000E-03 0.  1.
    9900012    2    1    2    0    0 -0.96115506366E+00 -0.18642591898E+02  0.36120586699E+02  0.50528845616E+02  0.29999956735E+02 0.  0.
        -12    1    1    2    0    0  0.96115506366E+00  0.18642591898E+02 -0.36120586699E+02  0.40659154384E+02  0.00000000000E+00 0.  1.
         11    1    3    3    0    0 -0.57692190145E+00 -0.31825099373E+01  0.29480391816E+02  0.29657287642E+02  0.51100000000E-03 0. -1.
        -11    1    3    3    0    0 -0.54272456939E+01 -0.48488446293E+01 -0.19285876667E+00  0.72803492242E+01  0.51100000000E-03 0.  1.
         12    1    3    3    0    0  0.50430125317E+01 -0.10611237332E+02  0.68330536493E+01  0.13591208750E+02  0.00000000000E+00 0. -1.
</event>
<event>
 7    1  0.9865694E-013  0.5052886E+02  0.7816164E-02  0.1300439E+00
        -11   -1    0    0    0    0  0.00000000000E+00  0.00000000000E+00  0.45593999997E+02  0.45594000000E+02  0.51100000000E-03 0.  1.
         11   -1    0    0    0    0 -0.00000000000E+00 -0.00000000000E+00 -0.45593999997E+02  0.45594000000E+02  0.51100000000E-03 0. -1.
    9900012    2    1    2    0    0  0.33308607613E+01  0.13385560198E+02 -0.38247850475E+02  0.50528856856E+02  0.29999990901E+02 0.  0.
        -12    1    1    2    0    0 -0.33308607613E+01 -0.13385560198E+02  0.38247850475E+02  0.40659143144E+02  0.00000000000E+00 0.  1.
         11    1    3    3    0    0  0.12211068274E+02  0.36650300019E+01 -0.30493075910E+02  0.33051025884E+02  0.51100000000E-03 0. -1.
        -11    1    3    3    0    0  0.17752977985E-02  0.36479533596E+01  0.79674572449E+00  0.37339484298E+01  0.51100000000E-03 0.  1.
         12    1    3    3    0    0 -0.88819828102E+01  0.60725768362E+01 -0.85515202896E+01  0.13743882542E+02  0.00000000000E+00 0. -1.
</event>
<event>
 7    1  0.9865694E-013  0.5052887E+02  0.7816164E-02  0.1300439E+00
        -11   -1    0    0    0    0  0.00000000000E+00  0.00000000000E+00  0.45593999997E+02  0.45594000000E+02  0.51100000000E-03 0.  1.
         11   -1    0    0    0    0 -0.00000000000E+00 -0.00000000000E+00 -0.45593999997E+02  0.45594000000E+02  0.51100000000E-03 0. -1.
    9900012    2    1    2    0    0 -0.76483028678E+01  0.27401822706E+02 -0.29048386454E+02  0.50528865972E+02  0.30000018607E+02 0.  0.
        -12    1    1    2    0    0  0.76483028678E+01 -0.27401822706E+02  0.29048386454E+02  0.40659134028E+02  0.00000000000E+00 0.  1.
         11    1    3    3    0    0 -0.98595585640E+01  0.14481325628E+02 -0.23349987701E+02  0.29191464727E+02  0.51100000000E-03 0. -1.
        -11    1    3    3    0    0  0.90818810796E+01  0.66002320119E+01 -0.30974341011E+01  0.11646361012E+02  0.51100000000E-03 0.  1.
         12    1    3    3    0    0 -0.68706253834E+01  0.63202650656E+01 -0.26009646518E+01  0.96910402320E+01  0.00000000000E+00 0. -1.
</event>
<event>
 7    1  0.9865694E-013  0.5052886E+02  0.7816164E-02  0.1300439E+00
        -11   -1    0    0    0    0  0.00000000000E+00  0.00000000000E+00  0.45593999997E+02  0.45594000000E+02  0.51100000000E-03 0. -1.
         11   -1    0    0    0    0 -0.00000000000E+00 -0.00000000000E+00 -0.45593999997E+02  0.45594000000E+02  0.51100000000E-03 0.  1.
    9900012    2    1    2    0    0  0.20608346452E+02  0.24109541285E+02  0.25439958521E+02  0.50528863093E+02  0.30000009856E+02 0.  0.
        -12    1    1    2    0    0 -0.20608346452E+02 -0.24109541285E+02 -0.25439958521E+02  0.40659136907E+02  0.00000000000E+00 0.  1.
         11    1    3    3    0    0  0.17044785111E+01 -0.42173531674E+01  0.22485271430E+00  0.45543247290E+01  0.51100000000E-03 0.  1.
        -11    1    3    3    0    0  0.89313926995E+01  0.25129232083E+02  0.23117347492E+02  0.35293906499E+02  0.51100000000E-03 0. -1.
         12    1    3    3    0    0  0.99724752418E+01  0.31976623690E+01  0.20977583157E+01  0.10680631865E+02  0.00000000000E+00 0. -1.
</event>
<event>
 7    1  0.9865694E-013  0.5052888E+02  0.7816164E-02  0.1300439E+00
        -11   -1    0    0    0    0  0.00000000000E+00  0.00000000000E+00  0.45593999997E+02  0.45594000000E+02  0.51100000000E-03 0. -1.
         11   -1    0    0    0    0 -0.00000000000E+00 -0.00000000000E+00 -0.45593999997E+02  0.45594000000E+02  0.51100000000E-03 0.  1.
    9900012    2    1    2    0    0 -0.54666164013E+01 -0.17349159090E+02  0.36363264382E+02  0.50528877868E+02  0.30000054767E+02 0.  0.
        -12    1    1    2    0    0  0.54666164013E+01  0.17349159090E+02 -0.36363264382E+02  0.40659122132E+02  0.00000000000E+00 0.  1.
         11    1    3    3    0    0 -0.38445554215E+01 -0.19274741688E+02  0.27276822686E+02  0.33620251778E+02  0.51100000000E-03 0. -1.
        -11    1    3    3    0    0 -0.27512155305E+01 -0.15293776136E+01 -0.29629869611E+01  0.43229011986E+01  0.51100000000E-03 0.  1.
        -12    1    3    3    0    0  0.11291545507E+01  0.34549602112E+01  0.12049428658E+02  0.12585724891E+02  0.00000000000E+00 0.  1.
</event>
<event>
 7    1  0.9865694E-013  0.5052886E+02  0.7816164E-02  0.1300439E+00
        -11   -1    0    0    0    0  0.00000000000E+00  0.00000000000E+00  0.45593999997E+02  0.45594000000E+02  0.51100000000E-03 0. -1.
         11   -1    0    0    0    0 -0.00000000000E+00 -0.00000000000E+00 -0.45593999997E+02  0.45594000000E+02  0.51100000000E-03 0.  1.
    9900012    2    1    2    0    0 -0.14802751365E+01  0.40193926651E+02 -0.59516703408E+01  0.50528864078E+02  0.30000012850E+02 0.  0.
        -12    1    1    2    0    0  0.14802751365E+01 -0.40193926651E+02  0.59516703408E+01  0.40659135922E+02  0.00000000000E+00 0.  1.
         11    1    3    3    0    0  0.58759604299E+00  0.23792534754E+02  0.80218247751E+01  0.25115327035E+02  0.51100000000E-03 0. -1.
        -11    1    3    3    0    0  0.52088041370E+01  0.44392174284E+01 -0.69315100539E+01  0.97408482076E+01  0.51100000000E-03 0.  1.
         12    1    3    3    0    0 -0.72766753165E+01  0.11962174469E+02 -0.70419850619E+01  0.15672688834E+02  0.00000000000E+00 0. -1.
</event>
<event>
 7    1  0.9865694E-013  0.5052886E+02  0.7816164E-02  0.1300439E+00
        -11   -1    0    0    0    0  0.00000000000E+00  0.00000000000E+00  0.45593999997E+02  0.45594000000E+02  0.51100000000E-03 0.  1.
         11   -1    0    0    0    0 -0.00000000000E+00 -0.00000000000E+00 -0.45593999997E+02  0.45594000000E+02  0.51100000000E-03 0. -1.
    9900012    2    1    2    0    0 -0.28816402628E+02 -0.22228764706E+02 -0.18129048704E+02  0.50528862679E+02  0.30000008600E+02 0.  0.
        -12    1    1    2    0    0  0.28816402628E+02  0.22228764706E+02  0.18129048704E+02  0.40659137321E+02  0.00000000000E+00 0.  1.
         11    1    3    3    0    0 -0.21397050414E+02 -0.22082122527E+02 -0.22440597079E+02  0.38066183145E+02  0.51100000000E-03 0. -1.
        -11    1    3    3    0    0 -0.62217234756E+01 -0.15870507485E+01 -0.12960703557E+01  0.65504482070E+01  0.51100000000E-03 0.  1.
         12    1    3    3    0    0 -0.11976287389E+01  0.14404085696E+01  0.56076187305E+01  0.59122313275E+01  0.00000000000E+00 0. -1.
</event>
<event>
 7    1  0.9865694E-013  0.5052886E+02  0.7816164E-02  0.1300439E+00
        -11   -1    0    0    0    0  0.00000000000E+00  0.00000000000E+00  0.45593999997E+02  0.45594000000E+02  0.51100000000E-03 0.  1.
         11   -1    0    0    0    0 -0.00000000000E+00 -0.00000000000E+00 -0.45593999997E+02  0.45594000000E+02  0.51100000000E-03 0. -1.
    9900012    2    1    2    0    0 -0.20931737143E+02  0.13648371480E+02 -0.32074136100E+02  0.50528857480E+02  0.29999992797E+02 0.  0.
        -12    1    1    2    0    0  0.20931737143E+02 -0.13648371480E+02  0.32074136100E+02  0.40659142520E+02  0.00000000000E+00 0.  1.
         11    1    3    3    0    0 -0.12779660194E+01  0.73407543475E+01  0.99834536324E+00  0.75177500133E+01  0.51100000000E-03 0.  1.
        -11    1    3    3    0    0 -0.19832133990E+02 -0.11313563622E+00 -0.18654802842E+02  0.27227339341E+02  0.51100000000E-03 0. -1.
         12    1    3    3    0    0  0.17836286573E+00  0.64207527690E+01 -0.14417678621E+02  0.15783768126E+02  0.00000000000E+00 0. -1.
</event>
<event>
 7    1  0.9865694E-013  0.5052885E+02  0.7816164E-02  0.1300439E+00
        -11   -1    0    0    0    0  0.00000000000E+00  0.00000000000E+00  0.45593999997E+02  0.45594000000E+02  0.51100000000E-03 0. -1.
         11   -1    0    0    0    0 -0.00000000000E+00 -0.00000000000E+00 -0.45593999997E+02  0.45594000000E+02  0.51100000000E-03 0.  1.
    9900012    2    1    2    0    0 -0.30445324148E+02 -0.12352871388E+02 -0.23951100566E+02  0.50528850816E+02  0.29999972541E+02 0.  0.
        -12    1    1    2    0    0  0.30445324148E+02  0.12352871388E+02  0.23951100566E+02  0.40659149184E+02  0.00000000000E+00 0.  1.
         11    1    3    3    0    0 -0.24397815113E+02 -0.14139308907E+02 -0.91833889705E+01  0.29656501343E+02  0.51100000000E-03 0. -1.
        -11    1    3    3    0    0  0.35375614995E+01  0.31715339158E+01 -0.29466736740E+01  0.55906935835E+01  0.51100000000E-03 0.  1.
         12    1    3    3    0    0 -0.95850705343E+01 -0.13850963961E+01 -0.11821037922E+02  0.15281655889E+02  0.00000000000E+00 0. -1.
</event>
<event>
 7    1  0.9865694E-013  0.5052887E+02  0.7816164E-02  0.1300439E+00
        -11   -1    0    0    0    0  0.00000000000E+00  0.00000000000E+00  0.45593999997E+02  0.45594000000E+02  0.51100000000E-03 0. -1.
         11   -1    0    0    0    0 -0.00000000000E+00 -0.00000000000E+00 -0.45593999997E+02  0.45594000000E+02  0.51100000000E-03 0.  1.
    9900012    2    1    2    0    0 -0.27888117694E+02  0.12418631413E+02  0.26855078915E+02  0.50528870912E+02  0.30000033623E+02 0.  0.
        -12    1    1    2    0    0  0.27888117694E+02 -0.12418631413E+02 -0.26855078915E+02  0.40659129088E+02  0.00000000000E+00 0.  1.
         11    1    3    3    0    0 -0.92591709446E+01  0.17211440138E+02  0.91317318960E+01  0.21572075605E+02  0.51100000000E-03 0. -1.
        -11    1    3    3    0    0 -0.50000236883E+01 -0.46914116517E+01  0.33636006275E+00  0.68645989338E+01  0.51100000000E-03 0.  1.
         12    1    3    3    0    0 -0.13628923061E+02 -0.10139707355E+00  0.17386986957E+02  0.22092196373E+02  0.00000000000E+00 0. -1.
</event>
<event>
 7    1  0.9865694E-013  0.5052886E+02  0.7816164E-02  0.1300439E+00
        -11   -1    0    0    0    0  0.00000000000E+00  0.00000000000E+00  0.45593999997E+02  0.45594000000E+02  0.51100000000E-03 0. -1.
         11   -1    0    0    0    0 -0.00000000000E+00 -0.00000000000E+00 -0.45593999997E+02  0.45594000000E+02  0.51100000000E-03 0.  1.
    9900012    2    1    2    0    0 -0.65692614603E+01 -0.32951626828E+02  0.22895437633E+02  0.50528856242E+02  0.29999989034E+02 0.  0.
        -12    1    1    2    0    0  0.65692614603E+01  0.32951626828E+02 -0.22895437633E+02  0.40659143758E+02  0.00000000000E+00 0.  1.
         11    1    3    3    0    0 -0.69868389490E+01 -0.14790177339E+02  0.16941078472E+02  0.23549212392E+02  0.51100000000E-03 0. -1.
        -11    1    3    3    0    0  0.25181583404E+01  0.31364539946E+01  0.36908858997E+01  0.54590387499E+01  0.51100000000E-03 0.  1.
        -12    1    3    3    0    0 -0.21005808517E+01 -0.21297903483E+02  0.22634732611E+01  0.21520605101E+02  0.00000000000E+00 0.  1.
</event>
<event>
 7    1  0.9865694E-013  0.5052886E+02  0.7816164E-02  0.1300439E+00
        -11   -1    0    0    0    0  0.00000000000E+00  0.00000000000E+00  0.45593999997E+02  0.45594000000E+02  0.51100000000E-03 0. -1.
         11   -1    0    0    0    0 -0.00000000000E+00 -0.00000000000E+00 -0.45593999997E+02  0.45594000000E+02  0.51100000000E-03 0.  1.
    9900012    2    1    2    0    0  0.35666469429E+02  0.20861267931E+01  0.19409181755E+02  0.50528864459E+02  0.30000014010E+02 0.  0.
        -12    1    1    2    0    0 -0.35666469429E+02 -0.20861267931E+01 -0.19409181755E+02  0.40659135541E+02  0.00000000000E+00 0.  1.
         11    1    3    3    0    0  0.20410684591E+02  0.11061709960E+02  0.10244722403E+02  0.25375417437E+02  0.51100000000E-03 0. -1.
        -11    1    3    3    0    0  0.10388140999E+02 -0.40721909298E+01  0.13095423039E+02  0.17204252882E+02  0.51100000000E-03 0.  1.
         12    1    3    3    0    0  0.48676438384E+01 -0.49033922374E+01 -0.39309636865E+01  0.79491941401E+01  0.00000000000E+00 0. -1.
</event>
<event>
 7    1  0.9865694E-013  0.5052886E+02  0.7816164E-02  0.1300439E+00
        -11   -1    0    0    0    0  0.00000000000E+00  0.00000000000E+00  0.45593999997E+02  0.45594000000E+02  0.51100000000E-03 0.  1.
         11   -1    0    0    0    0 -0.00000000000E+00 -0.00000000000E+00 -0.45593999997E+02  0.45594000000E+02  0.51100000000E-03 0. -1.
    9900012    2    1    2    0    0 -0.31652214188E+02 -0.73107193427E+01 -0.24451101398E+02  0.50528860315E+02  0.30000001414E+02 0.  0.
        -12    1    1    2    0    0  0.31652214188E+02  0.73107193427E+01  0.24451101398E+02  0.40659139685E+02  0.00000000000E+00 0.  1.
         11    1    3    3    0    0 -0.13241179886E+02 -0.73829160067E+01  0.23117353017E+01  0.15335593040E+02  0.51100000000E-03 0. -1.
        -11    1    3    3    0    0 -0.60179429930E+01  0.55713074706E+01 -0.51633883341E+01  0.96910104813E+01  0.51100000000E-03 0.  1.
         12    1    3    3    0    0 -0.12393091310E+02 -0.54991108067E+01 -0.21599448366E+02  0.25502256794E+02  0.00000000000E+00 0. -1.
</event>
<event>
 7    1  0.9865694E-013  0.5052885E+02  0.7816164E-02  0.1300439E+00
        -11   -1    0    0    0    0  0.00000000000E+00  0.00000000000E+00  0.45593999997E+02  0.45594000000E+02  0.51100000000E-03 0. -1.
         11   -1    0    0    0    0 -0.00000000000E+00 -0.00000000000E+00 -0.45593999997E+02  0.45594000000E+02  0.51100000000E-03 0.  1.
    9900012    2    1    2    0    0 -0.13692676183E+01  0.22782038490E+02  0.33649221284E+02  0.50528852633E+02  0.29999978062E+02 0.  0.
        -12    1    1    2    0    0  0.13692676183E+01 -0.22782038490E+02 -0.33649221284E+02  0.40659147367E+02  0.00000000000E+00 0.  1.
         11    1    3    3    0    0  0.15374558328E+01  0.90400682869E+01  0.93601737932E+01  0.13103414012E+02  0.51100000000E-03 0. -1.
        -11    1    3    3    0    0  0.78666687426E+00  0.78365971039E+01 -0.36144442245E+01  0.86657547999E+01  0.51100000000E-03 0.  1.
        -12    1    3    3    0    0 -0.36933903254E+01  0.59053730996E+01  0.27903491716E+02  0.28759683821E+02  0.00000000000E+00 0.  1.
</event>
<event>
 7    1  0.9865694E-013  0.5052886E+02  0.7816164E-02  0.1300439E+00
        -11   -1    0    0    0    0  0.00000000000E+00  0.00000000000E+00  0.45593999997E+02  0.45594000000E+02  0.51100000000E-03 0. -1.
         11   -1    0    0    0    0 -0.00000000000E+00 -0.00000000000E+00 -0.45593999997E+02  0.45594000000E+02  0.51100000000E-03 0.  1.
    9900012    2    1    2    0    0  0.28174697672E+02 -0.29168794801E+02  0.29212495125E+01  0.50528857391E+02  0.29999992525E+02 0.  0.
        -12    1    1    2    0    0 -0.28174697672E+02  0.29168794801E+02 -0.29212495125E+01  0.40659142609E+02  0.00000000000E+00 0.  1.
         11    1    3    3    0    0  0.12922500724E+02 -0.27230240066E+02 -0.14082946672E+01  0.30173834578E+02  0.51100000000E-03 0. -1.
        -11    1    3    3    0    0  0.94543625985E+01  0.48756885913E+01  0.57771689257E+00  0.10653218690E+02  0.51100000000E-03 0.  1.
        -12    1    3    3    0    0  0.57978343489E+01 -0.68142433264E+01  0.37518272872E+01  0.97018041230E+01  0.00000000000E+00 0.  1.
</event>
<event>
 7    1  0.9865694E-013  0.5052886E+02  0.7816164E-02  0.1300439E+00
        -11   -1    0    0    0    0  0.00000000000E+00  0.00000000000E+00  0.45593999997E+02  0.45594000000E+02  0.51100000000E-03 0.  1.
         11   -1    0    0    0    0 -0.00000000000E+00 -0.00000000000E+00 -0.45593999997E+02  0.45594000000E+02  0.51100000000E-03 0. -1.
    9900012    2    1    2    0    0 -0.31703398430E+02  0.64372401577E+00 -0.25448880073E+02  0.50528863885E+02  0.30000012266E+02 0.  0.
        -12    1    1    2    0    0  0.31703398430E+02 -0.64372401577E+00  0.25448880073E+02  0.40659136115E+02  0.00000000000E+00 0.  1.
         11    1    3    3    0    0 -0.54871922178E+01  0.54803840748E+01 -0.22185177083E+02  0.23501616338E+02  0.51100000000E-03 0. -1.
        -11    1    3    3    0    0 -0.54182732278E+01 -0.19882980045E+01  0.70702405439E-01  0.57720024963E+01  0.51100000000E-03 0.  1.
         12    1    3    3    0    0 -0.20797932985E+02 -0.28483620545E+01 -0.33344053953E+01  0.21255245051E+02  0.00000000000E+00 0. -1.
</event>
<event>
 7    1  0.9865694E-013  0.5052885E+02  0.7816164E-02  0.1300439E+00
        -11   -1    0    0    0    0  0.00000000000E+00  0.00000000000E+00  0.45593999997E+02  0.45594000000E+02  0.51100000000E-03 0.  1.
         11   -1    0    0    0    0 -0.00000000000E+00 -0.00000000000E+00 -0.45593999997E+02  0.45594000000E+02  0.51100000000E-03 0. -1.
    9900012    2    1    2    0    0 -0.28324279060E+02 -0.90616420218E+00 -0.29156142595E+02  0.50528848892E+02  0.29999966691E+02 0.  0.
        -12    1    1    2    0    0  0.28324279060E+02  0.90616420218E+00  0.29156142595E+02  0.40659151108E+02  0.00000000000E+00 0.  1.
         11    1    3    3    0    0 -0.10351489355E+02 -0.86215388429E+01 -0.10102205310E+02  0.16838610877E+02  0.51100000000E-03 0. -1.
        -11    1    3    3    0    0 -0.11408622583E+02  0.97666409576E+01 -0.18116005956E+01  0.15126990508E+02  0.51100000000E-03 0.  1.
        -12    1    3    3    0    0 -0.65641671223E+01 -0.20512663169E+01 -0.17242336689E+02  0.18563247507E+02  0.00000000000E+00 0.  1.
</event>
<event>
 7    1  0.9865694E-013  0.5052887E+02  0.7816164E-02  0.1300439E+00
        -11   -1    0    0    0    0  0.00000000000E+00  0.00000000000E+00  0.45593999997E+02  0.45594000000E+02  0.51100000000E-03 0. -1.
         11   -1    0    0    0    0 -0.00000000000E+00 -0.00000000000E+00 -0.45593999997E+02  0.45594000000E+02  0.51100000000E-03 0.  1.
    9900012    2    1    2    0    0 -0.21782626731E+02 -0.23172024889E+02  0.25332566314E+02  0.50528874569E+02  0.30000044739E+02 0.  0.
        -12    1    1    2    0    0  0.21782626731E+02  0.23172024889E+02 -0.25332566314E+02  0.40659125431E+02  0.00000000000E+00 0.  1.
         11    1    3    3    0    0 -0.76865735377E+01  0.55530204285E+01  0.17990443259E+01  0.96517360810E+01  0.51100000000E-03 0. -1.
        -11    1    3    3    0    0 -0.38061694004E+01 -0.93650647711E+01  0.23244156099E+01  0.10372765873E+02  0.51100000000E-03 0.  1.
         12    1    3    3    0    0 -0.10289883793E+02 -0.19359980547E+02  0.21209106378E+02  0.30504372615E+02  0.00000000000E+00 0. -1.
</event>
<event>
 7    1  0.9865694E-013  0.5052886E+02  0.7816164E-02  0.1300439E+00
        -11   -1    0    0    0    0  0.00000000000E+00  0.00000000000E+00  0.45593999997E+02  0.45594000000E+02  0.51100000000E-03 0.  1.
         11   -1    0    0    0    0 -0.00000000000E+00 -0.00000000000E+00 -0.45593999997E+02  0.45594000000E+02  0.51100000000E-03 0. -1.
    9900012    2    1    2    0    0  0.17500224752E+02 -0.35476259448E+02 -0.93990942130E+01  0.50528858066E+02  0.29999994576E+02 0.  0.
        -12    1    1    2    0    0 -0.17500224752E+02  0.35476259448E+02  0.93990942130E+01  0.40659141934E+02  0.00000000000E+00 0.  1.
         11    1    3    3    0    0  0.32458488649E+00 -0.54884345931E+01 -0.61129639482E+01  0.82217150355E+01  0.51100000000E-03 0. -1.
        -11    1    3    3    0    0  0.14358559284E+02 -0.11301688135E+02  0.83759027138E+01  0.20101047882E+02  0.51100000000E-03 0.  1.
        -12    1    3    3    0    0  0.28170805812E+01 -0.18686136720E+02 -0.11662032979E+02  0.22206095148E+02  0.00000000000E+00 0.  1.
</event>
<event>
 7    1  0.9865694E-013  0.5052886E+02  0.7816164E-02  0.1300439E+00
        -11   -1    0    0    0    0  0.00000000000E+00  0.00000000000E+00  0.45593999997E+02  0.45594000000E+02  0.51100000000E-03 0. -1.
         11   -1    0    0    0    0 -0.00000000000E+00 -0.00000000000E+00 -0.45593999997E+02  0.45594000000E+02  0.51100000000E-03 0.  1.
    9900012    2    1    2    0    0 -0.35521118191E+02 -0.19295533544E+02 -0.43701252494E+01  0.50528862688E+02  0.30000008625E+02 0.  0.
        -12    1    1    2    0    0  0.35521118191E+02  0.19295533544E+02  0.43701252494E+01  0.40659137312E+02  0.00000000000E+00 0.  1.
         11    1    3    3    0    0 -0.16132851739E+02 -0.39074547433E+01  0.97000658290E+00  0.16627628238E+02  0.51100000000E-03 0. -1.
        -11    1    3    3    0    0 -0.27173745451E+01  0.33575864660E+01 -0.75704804586E+01  0.87160590826E+01  0.51100000000E-03 0.  1.
        -12    1    3    3    0    0 -0.16670891907E+02 -0.18745665266E+02  0.22303486263E+01  0.25185175367E+02  0.00000000000E+00 0.  1.
</event>
<event>
 7    1  0.9865694E-013  0.5052885E+02  0.7816164E-02  0.1300439E+00
        -11   -1    0    0    0    0  0.00000000000E+00  0.00000000000E+00  0.45593999997E+02  0.45594000000E+02  0.51100000000E-03 0. -1.
         11   -1    0    0    0    0 -0.00000000000E+00 -0.00000000000E+00 -0.45593999997E+02  0.45594000000E+02  0.51100000000E-03 0.  1.
    9900012    2    1    2    0    0  0.24548552508E+02 -0.30042234730E+02  0.12165501851E+02  0.50528846872E+02  0.29999960553E+02 0.  0.
        -12    1    1    2    0    0 -0.24548552508E+02  0.30042234730E+02 -0.12165501851E+02  0.40659153128E+02  0.00000000000E+00 0.  1.
         11    1    3    3    0    0  0.20938668519E+02 -0.23836162276E+02 -0.16184445874E+01  0.31768063122E+02  0.51100000000E-03 0. -1.
        -11    1    3    3    0    0 -0.22586238388E+01 -0.56353484968E+01  0.10172587387E+02  0.11846521377E+02  0.51100000000E-03 0.  1.
        -12    1    3    3    0    0  0.58685078280E+01 -0.57072395658E+00  0.36113590512E+01  0.69142623727E+01  0.00000000000E+00 0.  1.
</event>
<event>
 7    1  0.9865694E-013  0.5052883E+02  0.7816164E-02  0.1300439E+00
        -11   -1    0    0    0    0  0.00000000000E+00  0.00000000000E+00  0.45593999997E+02  0.45594000000E+02  0.51100000000E-03 0.  1.
         11   -1    0    0    0    0 -0.00000000000E+00 -0.00000000000E+00 -0.45593999997E+02  0.45594000000E+02  0.51100000000E-03 0. -1.
    9900012    2    1    2    0    0 -0.89360867109E+01 -0.37640510972E+02  0.12510266865E+02  0.50528825279E+02  0.29999894917E+02 0.  0.
        -12    1    1    2    0    0  0.89360867109E+01  0.37640510972E+02 -0.12510266865E+02  0.40659174721E+02  0.00000000000E+00 0.  1.
         11    1    3    3    0    0  0.69846501264E+01 -0.77904980785E+01  0.75120646895E+01  0.12880540123E+02  0.51100000000E-03 0.  1.
        -11    1    3    3    0    0 -0.57192248336E+01 -0.54989878272E+01 -0.50437096213E+01  0.94014576969E+01  0.51100000000E-03 0. -1.
        -12    1    3    3    0    0 -0.10201512004E+02 -0.24351025067E+02  0.10041911797E+02  0.28246827459E+02  0.00000000000E+00 0.  1.
</event>
<event>
 7    1  0.9865694E-013  0.5052886E+02  0.7816164E-02  0.1300439E+00
        -11   -1    0    0    0    0  0.00000000000E+00  0.00000000000E+00  0.45593999997E+02  0.45594000000E+02  0.51100000000E-03 0.  1.
         11   -1    0    0    0    0 -0.00000000000E+00 -0.00000000000E+00 -0.45593999997E+02  0.45594000000E+02  0.51100000000E-03 0. -1.
    9900012    2    1    2    0    0 -0.55203908206E+01  0.11839843516E+02 -0.38503365272E+02  0.50528859004E+02  0.29999997427E+02 0.  0.
        -12    1    1    2    0    0  0.55203908206E+01 -0.11839843516E+02  0.38503365272E+02  0.40659140996E+02  0.00000000000E+00 0.  1.
         11    1    3    3    0    0  0.49795923417E+01  0.35723375837E+01 -0.23877516989E+02  0.24651445262E+02  0.51100000000E-03 0. -1.
        -11    1    3    3    0    0 -0.14794127942E+02  0.53975716239E+01 -0.86081129755E+01  0.17947133762E+02  0.51100000000E-03 0.  1.
        -12    1    3    3    0    0  0.42941447796E+01  0.28699343082E+01 -0.60177353076E+01  0.79302799796E+01  0.00000000000E+00 0.  1.
</event>
<event>
 7    1  0.9865694E-013  0.5052886E+02  0.7816164E-02  0.1300439E+00
        -11   -1    0    0    0    0  0.00000000000E+00  0.00000000000E+00  0.45593999997E+02  0.45594000000E+02  0.51100000000E-03 0.  1.
         11   -1    0    0    0    0 -0.00000000000E+00 -0.00000000000E+00 -0.45593999997E+02  0.45594000000E+02  0.51100000000E-03 0. -1.
    9900012    2    1    2    0    0 -0.25017396814E+02 -0.18464769690E+02 -0.26198245363E+02  0.50528856832E+02  0.29999990825E+02 0.  0.
        -12    1    1    2    0    0  0.25017396814E+02  0.18464769690E+02  0.26198245363E+02  0.40659143168E+02  0.00000000000E+00 0.  1.
         11    1    3    3    0    0 -0.19417603604E+02 -0.29403755986E+01 -0.20350830098E+02  0.28281538578E+02  0.51100000000E-03 0. -1.
        -11    1    3    3    0    0  0.99198527974E+00 -0.14186875189E+02 -0.61950012845E+01  0.15512237221E+02  0.51100000000E-03 0.  1.
        -12    1    3    3    0    0 -0.65917784893E+01 -0.13375189023E+01  0.34758601948E+00  0.67350810320E+01  0.00000000000E+00 0.  1.
</event>
<event>
 7    1  0.9865694E-013  0.5052891E+02  0.7816164E-02  0.1300439E+00
        -11   -1    0    0    0    0  0.00000000000E+00  0.00000000000E+00  0.45593999997E+02  0.45594000000E+02  0.51100000000E-03 0. -1.
         11   -1    0    0    0    0 -0.00000000000E+00 -0.00000000000E+00 -0.45593999997E+02  0.45594000000E+02  0.51100000000E-03 0.  1.
    9900012    2    1    2    0    0  0.14193947362E+02  0.13762215121E+02  0.35528794806E+02  0.50528905481E+02  0.30000138698E+02 0.  0.
        -12    1    1    2    0    0 -0.14193947362E+02 -0.13762215121E+02 -0.35528794806E+02  0.40659094519E+02  0.00000000000E+00 0.  1.
         11    1    3    3    0    0  0.14521146105E+02 -0.24235400442E+01  0.74743976700E+01  0.16510719286E+02  0.51100000000E-03 0. -1.
        -11    1    3    3    0    0  0.17375542247E+01  0.11296185429E+02  0.99552476538E+01  0.15156841889E+02  0.51100000000E-03 0.  1.
         12    1    3    3    0    0 -0.20647529680E+01  0.48895697365E+01  0.18099149482E+02  0.18861344306E+02  0.00000000000E+00 0. -1.
</event>
<event>
 7    1  0.9865694E-013  0.5052886E+02  0.7816164E-02  0.1300439E+00
        -11   -1    0    0    0    0  0.00000000000E+00  0.00000000000E+00  0.45593999997E+02  0.45594000000E+02  0.51100000000E-03 0.  1.
         11   -1    0    0    0    0 -0.00000000000E+00 -0.00000000000E+00 -0.45593999997E+02  0.45594000000E+02  0.51100000000E-03 0. -1.
    9900012    2    1    2    0    0  0.75029329516E+01 -0.26205196894E+02 -0.30168846696E+02  0.50528860092E+02  0.30000000734E+02 0.  0.
        -12    1    1    2    0    0 -0.75029329516E+01  0.26205196894E+02  0.30168846696E+02  0.40659139908E+02  0.00000000000E+00 0.  1.
         11    1    3    3    0    0 -0.10364249067E+02 -0.11354861319E+02 -0.10703653929E+02  0.18732825254E+02  0.51100000000E-03 0. -1.
        -11    1    3    3    0    0  0.59216288584E+01 -0.22501413864E+01 -0.93639562692E+00  0.64035663209E+01  0.51100000000E-03 0.  1.
         12    1    3    3    0    0  0.11945553161E+02 -0.12600194188E+02 -0.18528797140E+02  0.25392468516E+02  0.00000000000E+00 0. -1.
</event>
<event>
 7    1  0.9865694E-013  0.5052887E+02  0.7816164E-02  0.1300439E+00
        -11   -1    0    0    0    0  0.00000000000E+00  0.00000000000E+00  0.45593999997E+02  0.45594000000E+02  0.51100000000E-03 0. -1.
         11   -1    0    0    0    0 -0.00000000000E+00 -0.00000000000E+00 -0.45593999997E+02  0.45594000000E+02  0.51100000000E-03 0.  1.
    9900012    2    1    2    0    0  0.31541744974E+01  0.19509316897E+02  0.35533123049E+02  0.50528867002E+02  0.30000021738E+02 0.  0.
        -12    1    1    2    0    0 -0.31541744974E+01 -0.19509316897E+02 -0.35533123049E+02  0.40659132998E+02  0.00000000000E+00 0.  1.
         11    1    3    3    0    0  0.60007126883E+01 -0.33146826225E+00 -0.24752920522E+01  0.64996534509E+01  0.51100000000E-03 0.  1.
        -11    1    3    3    0    0 -0.24298844353E+01  0.59928367347E+01  0.48206401391E+01  0.80657920943E+01  0.51100000000E-03 0. -1.
         12    1    3    3    0    0 -0.41665375560E+00  0.13847948425E+02  0.33187774962E+02  0.35963421457E+02  0.00000000000E+00 0. -1.
</event>
<event>
 7    1  0.9865694E-013  0.5052886E+02  0.7816164E-02  0.1300439E+00
        -11   -1    0    0    0    0  0.00000000000E+00  0.00000000000E+00  0.45593999997E+02  0.45594000000E+02  0.51100000000E-03 0. -1.
         11   -1    0    0    0    0 -0.00000000000E+00 -0.00000000000E+00 -0.45593999997E+02  0.45594000000E+02  0.51100000000E-03 0.  1.
    9900012    2    1    2    0    0  0.60547969893E+01 -0.19072750702E+02  0.35393998726E+02  0.50528861645E+02  0.30000005456E+02 0.  0.
        -12    1    1    2    0    0 -0.60547969893E+01  0.19072750702E+02 -0.35393998726E+02  0.40659138355E+02  0.00000000000E+00 0.  1.
         11    1    3    3    0    0  0.13556757745E+01 -0.23426917404E+01  0.13477433882E+02  0.13746537226E+02  0.51100000000E-03 0. -1.
        -11    1    3    3    0    0  0.13663349262E+02 -0.14342993423E+02  0.11804806750E+02  0.23059966090E+02  0.51100000000E-03 0.  1.
        -12    1    3    3    0    0 -0.89642280471E+01 -0.23870655385E+01  0.10111758093E+02  0.13722358329E+02  0.00000000000E+00 0.  1.
</event>
<event>
 7    1  0.9865694E-013  0.5052886E+02  0.7816164E-02  0.1300439E+00
        -11   -1    0    0    0    0  0.00000000000E+00  0.00000000000E+00  0.45593999997E+02  0.45594000000E+02  0.51100000000E-03 0.  1.
         11   -1    0    0    0    0 -0.00000000000E+00 -0.00000000000E+00 -0.45593999997E+02  0.45594000000E+02  0.51100000000E-03 0. -1.
    9900012    2    1    2    0    0  0.21936962184E+02  0.10125055312E+02 -0.32701969123E+02  0.50528857861E+02  0.29999993955E+02 0.  0.
        -12    1    1    2    0    0 -0.21936962184E+02 -0.10125055312E+02  0.32701969123E+02  0.40659142139E+02  0.00000000000E+00 0.  1.
         11    1    3    3    0    0  0.43165504198E+01  0.10636580859E+02 -0.23727782387E+02  0.26358625101E+02  0.51100000000E-03 0. -1.
        -11    1    3    3    0    0  0.94927768770E+01  0.27085769005E+01  0.20683735849E+01  0.10085998771E+02  0.51100000000E-03 0.  1.
         12    1    3    3    0    0  0.81276348870E+01 -0.32201024479E+01 -0.11042560321E+02  0.14084233989E+02  0.00000000000E+00 0. -1.
</event>
<event>
 7    1  0.9865694E-013  0.5052885E+02  0.7816164E-02  0.1300439E+00
        -11   -1    0    0    0    0  0.00000000000E+00  0.00000000000E+00  0.45593999997E+02  0.45594000000E+02  0.51100000000E-03 0. -1.
         11   -1    0    0    0    0 -0.00000000000E+00 -0.00000000000E+00 -0.45593999997E+02  0.45594000000E+02  0.51100000000E-03 0.  1.
    9900012    2    1    2    0    0 -0.36529746560E+02 -0.10534199478E+02  0.14414395720E+02  0.50528849168E+02  0.29999967532E+02 0.  0.
        -12    1    1    2    0    0  0.36529746560E+02  0.10534199478E+02 -0.14414395720E+02  0.40659150832E+02  0.00000000000E+00 0.  1.
         11    1    3    3    0    0  0.25754473739E+01  0.20628400506E+01  0.42845828027E+01  0.54079467734E+01  0.51100000000E-03 0. -1.
        -11    1    3    3    0    0 -0.15708627439E+02 -0.58887232145E+01 -0.36258177464E+01  0.17163466774E+02  0.51100000000E-03 0.  1.
         12    1    3    3    0    0 -0.23396566495E+02 -0.67083163139E+01  0.13755630664E+02  0.27957435621E+02  0.00000000000E+00 0. -1.
</event>
<event>
 7    1  0.9865694E-013  0.5052884E+02  0.7816164E-02  0.1300439E+00
        -11   -1    0    0    0    0  0.00000000000E+00  0.00000000000E+00  0.45593999997E+02  0.45594000000E+02  0.51100000000E-03 0.  1.
         11   -1    0    0    0    0 -0.00000000000E+00 -0.00000000000E+00 -0.45593999997E+02  0.45594000000E+02  0.51100000000E-03 0. -1.
    9900012    2    1    2    0    0 -0.13709568569E+02 -0.35490904862E+02  0.14339130556E+02  0.50528840351E+02  0.29999940731E+02 0.  0.
        -12    1    1    2    0    0  0.13709568569E+02  0.35490904862E+02 -0.14339130556E+02  0.40659159649E+02  0.00000000000E+00 0.  1.
         11    1    3    3    0    0 -0.13546782691E+02 -0.23164325179E+02  0.19495849795E+02  0.33169103723E+02  0.51100000000E-03 0. -1.
        -11    1    3    3    0    0  0.51091059694E+01 -0.56801944049E+01 -0.43817413008E+00  0.76524224343E+01  0.51100000000E-03 0.  1.
         12    1    3    3    0    0 -0.52718918475E+01 -0.66463852776E+01 -0.47185451090E+01  0.97073141937E+01  0.00000000000E+00 0. -1.
</event>
<event>
 7    1  0.9865694E-013  0.5052886E+02  0.7816164E-02  0.1300439E+00
        -11   -1    0    0    0    0  0.00000000000E+00  0.00000000000E+00  0.45593999997E+02  0.45594000000E+02  0.51100000000E-03 0. -1.
         11   -1    0    0    0    0 -0.00000000000E+00 -0.00000000000E+00 -0.45593999997E+02  0.45594000000E+02  0.51100000000E-03 0.  1.
    9900012    2    1    2    0    0 -0.12125986501E+02  0.16672250356E+02  0.35045145668E+02  0.50528859386E+02  0.29999998590E+02 0.  0.
        -12    1    1    2    0    0  0.12125986501E+02 -0.16672250356E+02 -0.35045145668E+02  0.40659140614E+02  0.00000000000E+00 0.  1.
         11    1    3    3    0    0 -0.80512436596E+01  0.92677575615E+01  0.15579532672E+02  0.19835213466E+02  0.51100000000E-03 0. -1.
        -11    1    3    3    0    0  0.46630997468E+01 -0.58868407545E+01  0.40026324876E+01  0.85100211756E+01  0.51100000000E-03 0.  1.
        -12    1    3    3    0    0 -0.87378425880E+01  0.13291333549E+02  0.15462980509E+02  0.22183624745E+02  0.00000000000E+00 0.  1.
</event>
<event>
 7    1  0.9865694E-013  0.5052886E+02  0.7816164E-02  0.1300439E+00
        -11   -1    0    0    0    0  0.00000000000E+00  0.00000000000E+00  0.45593999997E+02  0.45594000000E+02  0.51100000000E-03 0. -1.
         11   -1    0    0    0    0 -0.00000000000E+00 -0.00000000000E+00 -0.45593999997E+02  0.45594000000E+02  0.51100000000E-03 0.  1.
    9900012    2    1    2    0    0  0.15599881784E+02 -0.34901506091E+02  0.13845354274E+02  0.50528864814E+02  0.30000015090E+02 0.  0.
        -12    1    1    2    0    0 -0.15599881784E+02  0.34901506091E+02 -0.13845354274E+02  0.40659135186E+02  0.00000000000E+00 0.  1.
         11    1    3    3    0    0  0.77310004397E+01 -0.31069397124E+02  0.17025559317E+02  0.36262176931E+02  0.51100000000E-03 0. -1.
        -11    1    3    3    0    0  0.59993541102E+01 -0.74678643484E+01 -0.34199762675E+01  0.10171405291E+02  0.51100000000E-03 0.  1.
         12    1    3    3    0    0  0.18695272345E+01  0.36357553813E+01  0.23977122418E+00  0.40952825926E+01  0.00000000000E+00 0. -1.
</event>
<event>
 7    1  0.9865694E-013  0.5052878E+02  0.7816164E-02  0.1300439E+00
        -11   -1    0    0    0    0  0.00000000000E+00  0.00000000000E+00  0.45593999997E+02  0.45594000000E+02  0.51100000000E-03 0.  1.
         11   -1    0    0    0    0 -0.00000000000E+00 -0.00000000000E+00 -0.45593999997E+02  0.45594000000E+02  0.51100000000E-03 0. -1.
    9900012    2    1    2    0    0  0.13772101930E+01  0.12077228389E+02 -0.38799692334E+02  0.50528778676E+02  0.29999753263E+02 0.  0.
        -12    1    1    2    0    0 -0.13772101930E+01 -0.12077228389E+02  0.38799692334E+02  0.40659221324E+02  0.00000000000E+00 0.  1.
         11    1    3    3    0    0  0.30934024214E+01  0.99714713869E+01 -0.13663380621E+02  0.17195561939E+02  0.51100000000E-03 0. -1.
        -11    1    3    3    0    0 -0.51103034827E+00 -0.75836101816E+01 -0.21682810900E+02  0.22976435411E+02  0.51100000000E-03 0.  1.
        -12    1    3    3    0    0 -0.12051618802E+01  0.96893671835E+01 -0.34535008130E+01  0.10356781326E+02  0.00000000000E+00 0.  1.
</event>
<event>
 7    1  0.9865694E-013  0.5052886E+02  0.7816164E-02  0.1300439E+00
        -11   -1    0    0    0    0  0.00000000000E+00  0.00000000000E+00  0.45593999997E+02  0.45594000000E+02  0.51100000000E-03 0.  1.
         11   -1    0    0    0    0 -0.00000000000E+00 -0.00000000000E+00 -0.45593999997E+02  0.45594000000E+02  0.51100000000E-03 0. -1.
    9900012    2    1    2    0    0 -0.33381013347E+02 -0.18619408391E+02 -0.13863301640E+02  0.50528861380E+02  0.30000004652E+02 0.  0.
        -12    1    1    2    0    0  0.33381013347E+02  0.18619408391E+02  0.13863301640E+02  0.40659138620E+02  0.00000000000E+00 0.  1.
         11    1    3    3    0    0 -0.12298322478E+02 -0.97214293971E+00 -0.12080356831E+02  0.17266407243E+02  0.51100000000E-03 0. -1.
        -11    1    3    3    0    0 -0.20536034402E+02 -0.14109740491E+02  0.51657394538E+01  0.25445988880E+02  0.51100000000E-03 0.  1.
        -12    1    3    3    0    0 -0.54665646700E+00 -0.35375249606E+01 -0.69486842628E+01  0.78164652576E+01  0.00000000000E+00 0.  1.
</event>
<event>
 7    1  0.9865694E-013  0.5052886E+02  0.7816164E-02  0.1300439E+00
        -11   -1    0    0    0    0  0.00000000000E+00  0.00000000000E+00  0.45593999997E+02  0.45594000000E+02  0.51100000000E-03 0.  1.
         11   -1    0    0    0    0 -0.00000000000E+00 -0.00000000000E+00 -0.45593999997E+02  0.45594000000E+02  0.51100000000E-03 0. -1.
    9900012    2    1    2    0    0  0.51342098826E+01 -0.13372117902E+02 -0.38052485802E+02  0.50528864200E+02  0.30000013221E+02 0.  0.
        -12    1    1    2    0    0 -0.51342098826E+01  0.13372117902E+02  0.38052485802E+02  0.40659135800E+02  0.00000000000E+00 0.  1.
         11    1    3    3    0    0  0.81824919776E+01 -0.10563753438E+02 -0.11487437258E+02  0.17621216663E+02  0.51100000000E-03 0. -1.
        -11    1    3    3    0    0  0.33529944168E+01  0.37026118426E+01 -0.22258879007E+02  0.22812487829E+02  0.51100000000E-03 0.  1.
        -12    1    3    3    0    0 -0.64012765118E+01 -0.65109763062E+01 -0.43061695368E+01  0.10095159708E+02  0.00000000000E+00 0.  1.
</event>
<event>
 7    1  0.9865694E-013  0.5052882E+02  0.7816164E-02  0.1300439E+00
        -11   -1    0    0    0    0  0.00000000000E+00  0.00000000000E+00  0.45593999997E+02  0.45594000000E+02  0.51100000000E-03 0.  1.
         11   -1    0    0    0    0 -0.00000000000E+00 -0.00000000000E+00 -0.45593999997E+02  0.45594000000E+02  0.51100000000E-03 0. -1.
    9900012    2    1    2    0    0 -0.25235839559E+02  0.31260000536E+02 -0.62556624011E+01  0.50528824605E+02  0.29999892869E+02 0.  0.
        -12    1    1    2    0    0  0.25235839559E+02 -0.31260000536E+02  0.62556624011E+01  0.40659175395E+02  0.00000000000E+00 0.  1.
         11    1    3    3    0    0 -0.11529600075E+02  0.71767039476E+01  0.61015663357E+01  0.14888447516E+02  0.51100000000E-03 0. -1.
        -11    1    3    3    0    0 -0.15985880859E+02  0.25823017154E+02 -0.10150725651E+02  0.32022083525E+02  0.51100000000E-03 0.  1.
        -12    1    3    3    0    0  0.22796413754E+01 -0.17397205654E+01 -0.22065030862E+01  0.36182935640E+01  0.00000000000E+00 0.  1.
</event>
<event>
 7    1  0.9865694E-013  0.5052886E+02  0.7816164E-02  0.1300439E+00
        -11   -1    0    0    0    0  0.00000000000E+00  0.00000000000E+00  0.45593999997E+02  0.45594000000E+02  0.51100000000E-03 0.  1.
         11   -1    0    0    0    0 -0.00000000000E+00 -0.00000000000E+00 -0.45593999997E+02  0.45594000000E+02  0.51100000000E-03 0. -1.
    9900012    2    1    2    0    0 -0.26433912950E+02  0.10403970497E+02 -0.29089030298E+02  0.50528855400E+02  0.29999986473E+02 0.  0.
        -12    1    1    2    0    0  0.26433912950E+02 -0.10403970497E+02  0.29089030298E+02  0.40659144600E+02  0.00000000000E+00 0.  1.
         11    1    3    3    0    0 -0.51874012377E+00  0.96652692588E+01 -0.13166690861E+02  0.16341611599E+02  0.51100000000E-03 0. -1.
        -11    1    3    3    0    0 -0.18764321040E+02  0.75017416399E+01 -0.12524790955E+02  0.23774908211E+02  0.51100000000E-03 0.  1.
         12    1    3    3    0    0 -0.71508517862E+01 -0.67630404016E+01 -0.33975484823E+01  0.10412335590E+02  0.00000000000E+00 0. -1.
</event>
<event>
 7    1  0.9865694E-013  0.5052886E+02  0.7816164E-02  0.1300439E+00
        -11   -1    0    0    0    0  0.00000000000E+00  0.00000000000E+00  0.45593999997E+02  0.45594000000E+02  0.51100000000E-03 0.  1.
         11   -1    0    0    0    0 -0.00000000000E+00 -0.00000000000E+00 -0.45593999997E+02  0.45594000000E+02  0.51100000000E-03 0. -1.
    9900012    2    1    2    0    0 -0.13959059932E+02 -0.10215489826E+01 -0.38174168157E+02  0.50528855506E+02  0.29999986795E+02 0.  0.
        -12    1    1    2    0    0  0.13959059932E+02  0.10215489826E+01  0.38174168157E+02  0.40659144494E+02  0.00000000000E+00 0.  1.
         11    1    3    3    0    0 -0.10495258387E+02 -0.10681937217E+02 -0.29712904889E+02  0.33273276793E+02  0.51100000000E-03 0. -1.
        -11    1    3    3    0    0 -0.49036588655E+01  0.10546930530E+02 -0.97116727181E+01  0.15152564176E+02  0.51100000000E-03 0.  1.
         12    1    3    3    0    0  0.14398573210E+01 -0.88654229541E+00  0.12504094501E+01  0.21030145362E+01  0.00000000000E+00 0. -1.
</event>
<event>
 7    1  0.9865694E-013  0.5052885E+02  0.7816164E-02  0.1300439E+00
        -11   -1    0    0    0    0  0.00000000000E+00  0.00000000000E+00  0.45593999997E+02  0.45594000000E+02  0.51100000000E-03 0.  1.
         11   -1    0    0    0    0 -0.00000000000E+00 -0.00000000000E+00 -0.45593999997E+02  0.45594000000E+02  0.51100000000E-03 0. -1.
    9900012    2    1    2    0    0  0.17337609513E+02  0.77722176475E+01 -0.35946720036E+02  0.50528846638E+02  0.29999959840E+02 0.  0.
        -12    1    1    2    0    0 -0.17337609513E+02 -0.77722176475E+01  0.35946720036E+02  0.40659153362E+02  0.00000000000E+00 0.  1.
         11    1    3    3    0    0 -0.61692469865E+01 -0.25571543810E+01 -0.15248436162E+02  0.16646724980E+02  0.51100000000E-03 0. -1.
        -11    1    3    3    0    0  0.10594030700E+02  0.10528748686E+01 -0.59526691044E+01  0.12197389134E+02  0.51100000000E-03 0.  1.
         12    1    3    3    0    0  0.12912825800E+02  0.92764971599E+01 -0.14745614769E+02  0.21684732523E+02  0.00000000000E+00 0. -1.
</event>
<event>
 7    1  0.9865694E-013  0.5052886E+02  0.7816164E-02  0.1300439E+00
        -11   -1    0    0    0    0  0.00000000000E+00  0.00000000000E+00  0.45593999997E+02  0.45594000000E+02  0.51100000000E-03 0.  1.
         11   -1    0    0    0    0 -0.00000000000E+00 -0.00000000000E+00 -0.45593999997E+02  0.45594000000E+02  0.51100000000E-03 0. -1.
    9900012    2    1    2    0    0 -0.11156440327E+02  0.10619023378E+01 -0.39084168931E+02  0.50528855169E+02  0.29999985772E+02 0.  0.
        -12    1    1    2    0    0  0.11156440327E+02 -0.10619023378E+01  0.39084168931E+02  0.40659144831E+02  0.00000000000E+00 0.  1.
         11    1    3    3    0    0 -0.41773164379E+01  0.11601621905E+02 -0.22655806687E+02  0.25794053197E+02  0.51100000000E-03 0. -1.
        -11    1    3    3    0    0 -0.39150675001E+01 -0.13584550168E+02 -0.11932749004E+02  0.18500223129E+02  0.51100000000E-03 0.  1.
        -12    1    3    3    0    0 -0.30640563887E+01  0.30448306003E+01 -0.44956132402E+01  0.62345788425E+01  0.00000000000E+00 0.  1.
</event>
<event>
 7    1  0.9865694E-013  0.5052888E+02  0.7816164E-02  0.1300439E+00
        -11   -1    0    0    0    0  0.00000000000E+00  0.00000000000E+00  0.45593999997E+02  0.45594000000E+02  0.51100000000E-03 0.  1.
         11   -1    0    0    0    0 -0.00000000000E+00 -0.00000000000E+00 -0.45593999997E+02  0.45594000000E+02  0.51100000000E-03 0. -1.
    9900012    2    1    2    0    0  0.12000105205E+02 -0.37775110224E+02 -0.90665747100E+01  0.50528877354E+02  0.30000053206E+02 0.  0.
        -12    1    1    2    0    0 -0.12000105205E+02  0.37775110224E+02  0.90665747100E+01  0.40659122646E+02  0.00000000000E+00 0.  1.
         11    1    3    3    0    0  0.13540266650E+02 -0.10871791155E+02 -0.10199440541E+02  0.20138601031E+02  0.51100000000E-03 0. -1.
        -11    1    3    3    0    0 -0.84427121257E+00 -0.21755797343E+02  0.66965218591E+01  0.22778738270E+02  0.51100000000E-03 0.  1.
        -12    1    3    3    0    0 -0.69589023281E+00 -0.51475217264E+01 -0.55636560282E+01  0.76115380535E+01  0.00000000000E+00 0.  1.
</event>
<event>
 7    1  0.9865694E-013  0.5052886E+02  0.7816164E-02  0.1300439E+00
        -11   -1    0    0    0    0  0.00000000000E+00  0.00000000000E+00  0.45593999997E+02  0.45594000000E+02  0.51100000000E-03 0. -1.
         11   -1    0    0    0    0 -0.00000000000E+00 -0.00000000000E+00 -0.45593999997E+02  0.45594000000E+02  0.51100000000E-03 0.  1.
    9900012    2    1    2    0    0 -0.30869179189E+02 -0.13723369034E+02  0.22625836169E+02  0.50528861497E+02  0.30000005008E+02 0.  0.
        -12    1    1    2    0    0  0.30869179189E+02  0.13723369034E+02 -0.22625836169E+02  0.40659138503E+02  0.00000000000E+00 0.  1.
         11    1    3    3    0    0 -0.78907928778E+01 -0.62297275124E+01  0.21901154813E+02  0.24098437698E+02  0.51100000000E-03 0. -1.
        -11    1    3    3    0    0 -0.11648676471E+02 -0.13301231436E+01 -0.44402026856E+01  0.12536996900E+02  0.51100000000E-03 0.  1.
        -12    1    3    3    0    0 -0.11329709839E+02 -0.61635183779E+01  0.51648840421E+01  0.13893426899E+02  0.00000000000E+00 0.  1.
</event>
<event>
 7    1  0.9865694E-013  0.5052887E+02  0.7816164E-02  0.1300439E+00
        -11   -1    0    0    0    0  0.00000000000E+00  0.00000000000E+00  0.45593999997E+02  0.45594000000E+02  0.51100000000E-03 0.  1.
         11   -1    0    0    0    0 -0.00000000000E+00 -0.00000000000E+00 -0.45593999997E+02  0.45594000000E+02  0.51100000000E-03 0. -1.
    9900012    2    1    2    0    0  0.21429106636E+02 -0.15994276796E+02 -0.30629088659E+02  0.50528873429E+02  0.30000041275E+02 0.  0.
        -12    1    1    2    0    0 -0.21429106636E+02  0.15994276796E+02  0.30629088659E+02  0.40659126571E+02  0.00000000000E+00 0.  1.
         11    1    3    3    0    0  0.45499315740E+01 -0.92087640821E+01 -0.23813893718E+02  0.25934624491E+02  0.51100000000E-03 0. -1.
        -11    1    3    3    0    0  0.13713971618E+02  0.14135675673E+01 -0.76482966134E+01  0.15766027786E+02  0.51100000000E-03 0.  1.
         12    1    3    3    0    0  0.31652034438E+01 -0.81990802814E+01  0.83310167222E+00  0.88282211514E+01  0.00000000000E+00 0. -1.
</event>
<event>
 7    1  0.9865694E-013  0.5052886E+02  0.7816164E-02  0.1300439E+00
        -11   -1    0    0    0    0  0.00000000000E+00  0.00000000000E+00  0.45593999997E+02  0.45594000000E+02  0.51100000000E-03 0.  1.
         11   -1    0    0    0    0 -0.00000000000E+00 -0.00000000000E+00 -0.45593999997E+02  0.45594000000E+02  0.51100000000E-03 0. -1.
    9900012    2    1    2    0    0 -0.13897198482E+02 -0.37376058549E+02  0.79412858716E+01  0.50528857122E+02  0.29999991707E+02 0.  0.
        -12    1    1    2    0    0  0.13897198482E+02  0.37376058549E+02 -0.79412858716E+01  0.40659142878E+02  0.00000000000E+00 0.  1.
         11    1    3    3    0    0 -0.11751654584E+02 -0.16750241594E+02 -0.71469616106E+01  0.21673740781E+02  0.51100000000E-03 0. -1.
        -11    1    3    3    0    0 -0.77185723078E+01 -0.12359745180E+02  0.80069322975E+01  0.16626804397E+02  0.51100000000E-03 0.  1.
         12    1    3    3    0    0  0.55730284097E+01 -0.82660717751E+01  0.70813151847E+01  0.12228311944E+02  0.00000000000E+00 0. -1.
</event>
<event>
 7    1  0.9865694E-013  0.5052885E+02  0.7816164E-02  0.1300439E+00
        -11   -1    0    0    0    0  0.00000000000E+00  0.00000000000E+00  0.45593999997E+02  0.45594000000E+02  0.51100000000E-03 0. -1.
         11   -1    0    0    0    0 -0.00000000000E+00 -0.00000000000E+00 -0.45593999997E+02  0.45594000000E+02  0.51100000000E-03 0.  1.
    9900012    2    1    2    0    0  0.32541539848E+02  0.62366382187E+01  0.23565199670E+02  0.50528854566E+02  0.29999983938E+02 0.  0.
        -12    1    1    2    0    0 -0.32541539848E+02 -0.62366382187E+01 -0.23565199670E+02  0.40659145434E+02  0.00000000000E+00 0.  1.
         11    1    3    3    0    0  0.11316154114E+02 -0.80230617561E+00  0.60513011870E+01  0.12857576966E+02  0.51100000000E-03 0. -1.
        -11    1    3    3    0    0  0.16018447770E+01  0.12302223690E+02  0.31812946613E+01  0.12807468540E+02  0.51100000000E-03 0.  1.
        -12    1    3    3    0    0  0.19623540957E+02 -0.52632792961E+01  0.14332603822E+02  0.24863809060E+02  0.00000000000E+00 0.  1.
</event>
<event>
 7    1  0.9865694E-013  0.5052888E+02  0.7816164E-02  0.1300439E+00
        -11   -1    0    0    0    0  0.00000000000E+00  0.00000000000E+00  0.45593999997E+02  0.45594000000E+02  0.51100000000E-03 0.  1.
         11   -1    0    0    0    0 -0.00000000000E+00 -0.00000000000E+00 -0.45593999997E+02  0.45594000000E+02  0.51100000000E-03 0. -1.
    9900012    2    1    2    0    0  0.18534813429E+02 -0.36188276041E+02  0.18266294701E+00  0.50528880514E+02  0.30000062809E+02 0.  0.
        -12    1    1    2    0    0 -0.18534813429E+02  0.36188276041E+02 -0.18266294701E+00  0.40659119486E+02  0.00000000000E+00 0.  1.
         11    1    3    3    0    0 -0.25089181308E+01 -0.18937089907E+02  0.82122805042E+01  0.20793017955E+02  0.51100000000E-03 0.  1.
        -11    1    3    3    0    0  0.15222644765E+01  0.93202505748E+00 -0.13398919916E+01  0.22318760392E+01  0.51100000000E-03 0. -1.
         12    1    3    3    0    0  0.19521467084E+02 -0.18183211191E+02 -0.66897255656E+01  0.27503986519E+02  0.00000000000E+00 0. -1.
</event>
<event>
 7    1  0.9865694E-013  0.5052886E+02  0.7816164E-02  0.1300439E+00
        -11   -1    0    0    0    0  0.00000000000E+00  0.00000000000E+00  0.45593999997E+02  0.45594000000E+02  0.51100000000E-03 0.  1.
         11   -1    0    0    0    0 -0.00000000000E+00 -0.00000000000E+00 -0.45593999997E+02  0.45594000000E+02  0.51100000000E-03 0. -1.
    9900012    2    1    2    0    0 -0.15224965943E+02  0.20306262453E+02 -0.31765103611E+02  0.50528859697E+02  0.29999999535E+02 0.  0.
        -12    1    1    2    0    0  0.15224965943E+02 -0.20306262453E+02  0.31765103611E+02  0.40659140303E+02  0.00000000000E+00 0.  1.
         11    1    3    3    0    0  0.46904207925E+01  0.66292580096E+01  0.16483238298E+01  0.82863792261E+01  0.51100000000E-03 0. -1.
        -11    1    3    3    0    0 -0.13498959722E+02  0.44712729417E+01 -0.14921689025E+02  0.20612399155E+02  0.51100000000E-03 0.  1.
        -12    1    3    3    0    0 -0.64164270131E+01  0.92057315017E+01 -0.18491738416E+02  0.21630081316E+02  0.00000000000E+00 0.  1.
</event>
<event>
 7    1  0.9865694E-013  0.5052886E+02  0.7816164E-02  0.1300439E+00
        -11   -1    0    0    0    0  0.00000000000E+00  0.00000000000E+00  0.45593999997E+02  0.45594000000E+02  0.51100000000E-03 0.  1.
         11   -1    0    0    0    0 -0.00000000000E+00 -0.00000000000E+00 -0.45593999997E+02  0.45594000000E+02  0.51100000000E-03 0. -1.
    9900012    2    1    2    0    0  0.59254047765E+01  0.27772721633E+02 -0.29098647441E+02  0.50528858696E+02  0.29999996494E+02 0.  0.
        -12    1    1    2    0    0 -0.59254047765E+01 -0.27772721633E+02  0.29098647441E+02  0.40659141304E+02  0.00000000000E+00 0.  1.
         11    1    3    3    0    0 -0.39004421693E+01  0.17634938092E+02 -0.10723353491E+02  0.21004637606E+02  0.51100000000E-03 0. -1.
        -11    1    3    3    0    0  0.15270240102E+02  0.80867306721E+01 -0.13332696247E+02  0.21825128527E+02  0.51100000000E-03 0.  1.
        -12    1    3    3    0    0 -0.54443931561E+01  0.20510528694E+01 -0.50425977027E+01  0.76990925636E+01  0.00000000000E+00 0.  1.
</event>
<event>
 7    1  0.1107050E-012  0.5052887E+02  0.7816164E-02  0.1300439E+00
        -11   -1    0    0    0    0  0.00000000000E+00  0.00000000000E+00  0.45593999997E+02  0.45594000000E+02  0.51100000000E-03 0.  1.
         11   -1    0    0    0    0 -0.00000000000E+00 -0.00000000000E+00 -0.45593999997E+02  0.45594000000E+02  0.51100000000E-03 0. -1.
    9900012    2    1    2    0    0  0.34593850976E+02 -0.11830206322E+02 -0.17789795679E+02  0.50528866496E+02  0.30000020202E+02 0.  0.
        -12    1    1    2    0    0 -0.34593850976E+02  0.11830206322E+02  0.17789795679E+02  0.40659133504E+02  0.00000000000E+00 0.  1.
         11    1    3    3    0    0  0.22663991526E+02 -0.72103711725E+00 -0.10954031133E+02  0.25182676680E+02  0.51100000000E-03 0. -1.
        -11    1    3    3    0    0  0.81966475516E+01 -0.77940429053E+01  0.51007062771E+01  0.12407632356E+02  0.51100000000E-03 0.  1.
        -12    1    3    3    0    0  0.37332118985E+01 -0.33151262996E+01 -0.11936470823E+02  0.12938557461E+02  0.00000000000E+00 0.  1.
</event>
<event>
 7    1  0.1438868E-012  0.5052887E+02  0.7816164E-02  0.1300439E+00
        -11   -1    0    0    0    0  0.00000000000E+00  0.00000000000E+00  0.45593999997E+02  0.45594000000E+02  0.51100000000E-03 0.  1.
         11   -1    0    0    0    0 -0.00000000000E+00 -0.00000000000E+00 -0.45593999997E+02  0.45594000000E+02  0.51100000000E-03 0. -1.
    9900012    2    1    2    0    0 -0.28213699885E+02 -0.28301468066E+02 -0.74952749335E+01  0.50528866927E+02  0.30000021512E+02 0.  0.
        -12    1    1    2    0    0  0.28213699885E+02  0.28301468066E+02  0.74952749335E+01  0.40659133073E+02  0.00000000000E+00 0.  1.
         11    1    3    3    0    0 -0.18621268024E+02 -0.19477256328E+02 -0.90457398478E+01  0.28424295005E+02  0.51100000000E-03 0. -1.
        -11    1    3    3    0    0 -0.87692821919E+01 -0.65702091491E+01  0.90618657320E+01  0.14219190175E+02  0.51100000000E-03 0.  1.
        -12    1    3    3    0    0 -0.82314966889E+00 -0.22540025891E+01 -0.75114008177E+01  0.78853817469E+01  0.00000000000E+00 0.  1.
</event>
<event>
 7    1  0.9865694E-013  0.5052886E+02  0.7816164E-02  0.1300439E+00
        -11   -1    0    0    0    0  0.00000000000E+00  0.00000000000E+00  0.45593999997E+02  0.45594000000E+02  0.51100000000E-03 0. -1.
         11   -1    0    0    0    0 -0.00000000000E+00 -0.00000000000E+00 -0.45593999997E+02  0.45594000000E+02  0.51100000000E-03 0.  1.
    9900012    2    1    2    0    0 -0.40505821938E+02  0.31167647212E+01 -0.16523420907E+01  0.50528855056E+02  0.29999985428E+02 0.  0.
        -12    1    1    2    0    0  0.40505821938E+02 -0.31167647212E+01  0.16523420907E+01  0.40659144944E+02  0.00000000000E+00 0.  1.
         11    1    3    3    0    0 -0.26134360438E+02  0.10489046131E+02 -0.15730267159E+01  0.28204597100E+02  0.51100000000E-03 0. -1.
        -11    1    3    3    0    0 -0.94636723015E+01 -0.63816717749E+01 -0.72915536492E+01  0.13544503791E+02  0.51100000000E-03 0.  1.
         12    1    3    3    0    0 -0.49077891980E+01 -0.99060963517E+00  0.72122382745E+01  0.87797541645E+01  0.00000000000E+00 0. -1.
</event>
<event>
 7    1  0.9865694E-013  0.5052886E+02  0.7816164E-02  0.1300439E+00
        -11   -1    0    0    0    0  0.00000000000E+00  0.00000000000E+00  0.45593999997E+02  0.45594000000E+02  0.51100000000E-03 0.  1.
         11   -1    0    0    0    0 -0.00000000000E+00 -0.00000000000E+00 -0.45593999997E+02  0.45594000000E+02  0.51100000000E-03 0. -1.
    9900012    2    1    2    0    0  0.28907465064E+02 -0.27838254666E+02 -0.65234694257E+01  0.50528860651E+02  0.30000002434E+02 0.  0.
        -12    1    1    2    0    0 -0.28907465064E+02  0.27838254666E+02  0.65234694257E+01  0.40659139349E+02  0.00000000000E+00 0.  1.
         11    1    3    3    0    0  0.23135388762E+02 -0.29291567807E+02  0.42180143112E+01  0.37563729883E+02  0.51100000000E-03 0. -1.
        -11    1    3    3    0    0  0.11298540877E+01  0.87951431396E+00 -0.64837390993E+01  0.66399539649E+01  0.51100000000E-03 0.  1.
         12    1    3    3    0    0  0.46422222147E+01  0.57379882700E+00 -0.42577446376E+01  0.63251768025E+01  0.00000000000E+00 0. -1.
</event>
<event>
 7    1  0.9865694E-013  0.5052886E+02  0.7816164E-02  0.1300439E+00
        -11   -1    0    0    0    0  0.00000000000E+00  0.00000000000E+00  0.45593999997E+02  0.45594000000E+02  0.51100000000E-03 0. -1.
         11   -1    0    0    0    0 -0.00000000000E+00 -0.00000000000E+00 -0.45593999997E+02  0.45594000000E+02  0.51100000000E-03 0.  1.
    9900012    2    1    2    0    0 -0.28676668595E+02  0.20134119377E+02  0.20625983283E+02  0.50528864850E+02  0.30000015197E+02 0.  0.
        -12    1    1    2    0    0  0.28676668595E+02 -0.20134119377E+02 -0.20625983283E+02  0.40659135150E+02  0.00000000000E+00 0.  1.
         11    1    3    3    0    0 -0.44984476510E+01  0.17009755567E+02  0.61760197621E+01  0.18647011451E+02  0.51100000000E-03 0. -1.
        -11    1    3    3    0    0 -0.17794647619E+02  0.65255224672E+01  0.43282896748E+01  0.19441348182E+02  0.51100000000E-03 0.  1.
         12    1    3    3    0    0 -0.63835733248E+01 -0.34011586565E+01  0.10121673846E+02  0.12440505217E+02  0.00000000000E+00 0. -1.
</event>
<event>
 7    1  0.9865694E-013  0.5052883E+02  0.7816164E-02  0.1300439E+00
        -11   -1    0    0    0    0  0.00000000000E+00  0.00000000000E+00  0.45593999997E+02  0.45594000000E+02  0.51100000000E-03 0.  1.
         11   -1    0    0    0    0 -0.00000000000E+00 -0.00000000000E+00 -0.45593999997E+02  0.45594000000E+02  0.51100000000E-03 0. -1.
    9900012    2    1    2    0    0 -0.53420578397E+00  0.23623194842E+02 -0.33088180773E+02  0.50528826161E+02  0.29999897600E+02 0.  0.
        -12    1    1    2    0    0  0.53420578397E+00 -0.23623194842E+02  0.33088180773E+02  0.40659173839E+02  0.00000000000E+00 0.  1.
         11    1    3    3    0    0  0.66797318826E+01  0.35846329830E+01 -0.13464895117E+02  0.15452242957E+02  0.51100000000E-03 0. -1.
        -11    1    3    3    0    0 -0.10579987275E+02  0.33153091619E+01 -0.12162846746E+02  0.16457893146E+02  0.51100000000E-03 0.  1.
        -12    1    3    3    0    0  0.33660496087E+01  0.16723252697E+02 -0.74604389103E+01  0.18618690058E+02  0.00000000000E+00 0.  1.
</event>
<event>
 7    1  0.9865694E-013  0.5052887E+02  0.7816164E-02  0.1300439E+00
        -11   -1    0    0    0    0  0.00000000000E+00  0.00000000000E+00  0.45593999997E+02  0.45594000000E+02  0.51100000000E-03 0.  1.
         11   -1    0    0    0    0 -0.00000000000E+00 -0.00000000000E+00 -0.45593999997E+02  0.45594000000E+02  0.51100000000E-03 0. -1.
    9900012    2    1    2    0    0 -0.26878964185E+02  0.25214556736E+02 -0.17173015881E+02  0.50528867428E+02  0.30000023035E+02 0.  0.
        -12    1    1    2    0    0  0.26878964185E+02 -0.25214556736E+02  0.17173015881E+02  0.40659132572E+02  0.00000000000E+00 0.  1.
         11    1    3    3    0    0 -0.12651354523E+02  0.10992426594E+02  0.26612829122E+01  0.16969756648E+02  0.51100000000E-03 0. -1.
        -11    1    3    3    0    0  0.15451004543E+01 -0.71775187376E+00 -0.92267257329E+01  0.93826953045E+01  0.51100000000E-03 0.  1.
        -12    1    3    3    0    0 -0.15772710116E+02  0.14939882016E+02 -0.10607573060E+02  0.24176415476E+02  0.00000000000E+00 0.  1.
</event>
<event>
 7    1  0.9865694E-013  0.5052887E+02  0.7816164E-02  0.1300439E+00
        -11   -1    0    0    0    0  0.00000000000E+00  0.00000000000E+00  0.45593999997E+02  0.45594000000E+02  0.51100000000E-03 0.  1.
         11   -1    0    0    0    0 -0.00000000000E+00 -0.00000000000E+00 -0.45593999997E+02  0.45594000000E+02  0.51100000000E-03 0. -1.
    9900012    2    1    2    0    0  0.12887610117E+02  0.38405252120E+01 -0.38370885465E+02  0.50528868433E+02  0.30000026089E+02 0.  0.
        -12    1    1    2    0    0 -0.12887610117E+02 -0.38405252120E+01  0.38370885465E+02  0.40659131567E+02  0.00000000000E+00 0.  1.
         11    1    3    3    0    0 -0.10942894613E+01 -0.52446844411E+00 -0.84923730167E+01  0.85786325420E+01  0.51100000000E-03 0. -1.
        -11    1    3    3    0    0  0.15687339816E+02 -0.75489747636E+01 -0.17900335462E+02  0.24970015226E+02  0.51100000000E-03 0.  1.
        -12    1    3    3    0    0 -0.17054402377E+01  0.11913968420E+02 -0.11978176986E+02  0.16980220664E+02  0.00000000000E+00 0.  1.
</event>
<event>
 7    1  0.9865694E-013  0.5052886E+02  0.7816164E-02  0.1300439E+00
        -11   -1    0    0    0    0  0.00000000000E+00  0.00000000000E+00  0.45593999997E+02  0.45594000000E+02  0.51100000000E-03 0. -1.
         11   -1    0    0    0    0 -0.00000000000E+00 -0.00000000000E+00 -0.45593999997E+02  0.45594000000E+02  0.51100000000E-03 0.  1.
    9900012    2    1    2    0    0  0.70613443139E+01 -0.40026205900E+02  0.10980174279E+01  0.50528863455E+02  0.30000010959E+02 0.  0.
        -12    1    1    2    0    0 -0.70613443139E+01  0.40026205900E+02 -0.10980174279E+01  0.40659136545E+02  0.00000000000E+00 0.  1.
         11    1    3    3    0    0 -0.33814873191E+01 -0.13971566739E+02  0.10849111444E+02  0.18009507295E+02  0.51100000000E-03 0. -1.
        -11    1    3    3    0    0  0.11212601747E+02 -0.10515403286E+02 -0.61027122321E+01  0.16539021769E+02  0.51100000000E-03 0.  1.
        -12    1    3    3    0    0 -0.76977011458E+00 -0.15539235876E+02 -0.36483817841E+01  0.15980334392E+02  0.00000000000E+00 0.  1.
</event>
<event>
 7    1  0.9865694E-013  0.5052886E+02  0.7816164E-02  0.1300439E+00
        -11   -1    0    0    0    0  0.00000000000E+00  0.00000000000E+00  0.45593999997E+02  0.45594000000E+02  0.51100000000E-03 0.  1.
         11   -1    0    0    0    0 -0.00000000000E+00 -0.00000000000E+00 -0.45593999997E+02  0.45594000000E+02  0.51100000000E-03 0. -1.
    9900012    2    1    2    0    0  0.16756992784E+02  0.25323358657E+02 -0.27038790842E+02  0.50528861900E+02  0.30000006232E+02 0.  0.
        -12    1    1    2    0    0 -0.16756992784E+02 -0.25323358657E+02  0.27038790842E+02  0.40659138100E+02  0.00000000000E+00 0.  1.
         11    1    3    3    0    0 -0.59953326384E+01  0.22692350586E+01 -0.77924839234E+00  0.64576055558E+01  0.51100000000E-03 0. -1.
        -11    1    3    3    0    0  0.14800745615E+02  0.22842604200E+02 -0.18169934139E+02  0.32726031599E+02  0.51100000000E-03 0.  1.
         12    1    3    3    0    0  0.79515798070E+01  0.21151939833E+00 -0.80896083115E+01  0.11345224745E+02  0.00000000000E+00 0. -1.
</event>
<event>
 7    1  0.9865694E-013  0.5052887E+02  0.7816164E-02  0.1300439E+00
        -11   -1    0    0    0    0  0.00000000000E+00  0.00000000000E+00  0.45593999997E+02  0.45594000000E+02  0.51100000000E-03 0. -1.
         11   -1    0    0    0    0 -0.00000000000E+00 -0.00000000000E+00 -0.45593999997E+02  0.45594000000E+02  0.51100000000E-03 0.  1.
    9900012    2    1    2    0    0 -0.31045194560E+02  0.25272080358E+02 -0.71191727556E+01  0.50528870993E+02  0.30000033869E+02 0.  0.
        -12    1    1    2    0    0  0.31045194560E+02 -0.25272080358E+02  0.71191727556E+01  0.40659129007E+02  0.00000000000E+00 0.  1.
         11    1    3    3    0    0 -0.95372002187E+01  0.24283472179E+02  0.84644740725E+00  0.26102905634E+02  0.51100000000E-03 0. -1.
        -11    1    3    3    0    0 -0.13559720321E+02  0.44434871806E+01 -0.35734028075E+01  0.14709853888E+02  0.51100000000E-03 0.  1.
         12    1    3    3    0    0 -0.79482740203E+01 -0.34548790011E+01 -0.43922173554E+01  0.97161114707E+01  0.00000000000E+00 0. -1.
</event>
<event>
 7    1  0.9865694E-013  0.5052888E+02  0.7816164E-02  0.1300439E+00
        -11   -1    0    0    0    0  0.00000000000E+00  0.00000000000E+00  0.45593999997E+02  0.45594000000E+02  0.51100000000E-03 0.  1.
         11   -1    0    0    0    0 -0.00000000000E+00 -0.00000000000E+00 -0.45593999997E+02  0.45594000000E+02  0.51100000000E-03 0. -1.
    9900012    2    1    2    0    0 -0.49270558978E+01 -0.14713573607E+02 -0.37581896471E+02  0.50528879615E+02  0.30000060079E+02 0.  0.
        -12    1    1    2    0    0  0.49270558978E+01  0.14713573607E+02  0.37581896471E+02  0.40659120385E+02  0.00000000000E+00 0.  1.
         11    1    3    3    0    0 -0.63989312546E+01  0.47314308336E+01 -0.10307590046E+02  0.13022256784E+02  0.51100000000E-03 0. -1.
        -11    1    3    3    0    0 -0.26679315158E+01 -0.20653484331E+02 -0.19067444153E+02  0.28235645918E+02  0.51100000000E-03 0.  1.
         12    1    3    3    0    0  0.41398068727E+01  0.12084798903E+01 -0.82068622714E+01  0.92709769135E+01  0.00000000000E+00 0. -1.
</event>
<event>
 7    1  0.9865694E-013  0.5052887E+02  0.7816164E-02  0.1300439E+00
        -11   -1    0    0    0    0  0.00000000000E+00  0.00000000000E+00  0.45593999997E+02  0.45594000000E+02  0.51100000000E-03 0.  1.
         11   -1    0    0    0    0 -0.00000000000E+00 -0.00000000000E+00 -0.45593999997E+02  0.45594000000E+02  0.51100000000E-03 0. -1.
    9900012    2    1    2    0    0  0.27033959330E+02 -0.13607856456E+02 -0.27150626205E+02  0.50528865507E+02  0.30000017196E+02 0.  0.
        -12    1    1    2    0    0 -0.27033959330E+02  0.13607856456E+02  0.27150626205E+02  0.40659134493E+02  0.00000000000E+00 0.  1.
         11    1    3    3    0    0  0.17348335601E+02 -0.17577383055E+02 -0.22558229597E+02  0.33448510669E+02  0.51100000000E-03 0. -1.
        -11    1    3    3    0    0  0.18464333464E+01  0.52641814468E+01  0.27875915269E+01  0.62363121466E+01  0.51100000000E-03 0.  1.
        -12    1    3    3    0    0  0.78391903825E+01 -0.12946548476E+01 -0.73799881346E+01  0.10844042692E+02  0.00000000000E+00 0.  1.
</event>
<event>
 7    1  0.9865694E-013  0.5052889E+02  0.7816164E-02  0.1300439E+00
        -11   -1    0    0    0    0  0.00000000000E+00  0.00000000000E+00  0.45593999997E+02  0.45594000000E+02  0.51100000000E-03 0. -1.
         11   -1    0    0    0    0 -0.00000000000E+00 -0.00000000000E+00 -0.45593999997E+02  0.45594000000E+02  0.51100000000E-03 0.  1.
    9900012    2    1    2    0    0  0.34555701929E+02 -0.21320925219E+02 -0.21177061405E+01  0.50528891952E+02  0.30000097577E+02 0.  0.
        -12    1    1    2    0    0 -0.34555701929E+02  0.21320925219E+02  0.21177061405E+01  0.40659108048E+02  0.00000000000E+00 0.  1.
         11    1    3    3    0    0  0.14013048641E+02 -0.92085651050E+01 -0.82946057700E+01  0.18707316447E+02  0.51100000000E-03 0. -1.
        -11    1    3    3    0    0  0.35652523291E-01  0.21062568397E+01  0.65337476117E+01  0.68649433422E+01  0.51100000000E-03 0.  1.
        -12    1    3    3    0    0  0.20507000764E+02 -0.14218616953E+02 -0.35684798216E+00  0.24956632162E+02  0.00000000000E+00 0.  1.
</event>
<event>
 7    1  0.9865694E-013  0.5052885E+02  0.7816164E-02  0.1300439E+00
        -11   -1    0    0    0    0  0.00000000000E+00  0.00000000000E+00  0.45593999997E+02  0.45594000000E+02  0.51100000000E-03 0.  1.
         11   -1    0    0    0    0 -0.00000000000E+00 -0.00000000000E+00 -0.45593999997E+02  0.45594000000E+02  0.51100000000E-03 0. -1.
    9900012    2    1    2    0    0  0.39861068795E+02 -0.72102078028E+01  0.35034594887E+01  0.50528854283E+02  0.29999983079E+02 0.  0.
        -12    1    1    2    0    0 -0.39861068795E+02  0.72102078028E+01 -0.35034594887E+01  0.40659145717E+02  0.00000000000E+00 0.  1.
         11    1    3    3    0    0  0.67238770474E+01  0.57995472979E+01  0.45862315900E+00  0.88913219980E+01  0.51100000000E-03 0. -1.
        -11    1    3    3    0    0  0.14229538666E+02 -0.88851370753E+01  0.11684849834E+02  0.20444098107E+02  0.51100000000E-03 0.  1.
        -12    1    3    3    0    0  0.18907653082E+02 -0.41246180253E+01 -0.86400135043E+01  0.21193434178E+02  0.00000000000E+00 0.  1.
</event>
<event>
 7    1  0.9865694E-013  0.5052886E+02  0.7816164E-02  0.1300439E+00
        -11   -1    0    0    0    0  0.00000000000E+00  0.00000000000E+00  0.45593999997E+02  0.45594000000E+02  0.51100000000E-03 0.  1.
         11   -1    0    0    0    0 -0.00000000000E+00 -0.00000000000E+00 -0.45593999997E+02  0.45594000000E+02  0.51100000000E-03 0. -1.
    9900012    2    1    2    0    0  0.14450216508E+01  0.22286590009E+02 -0.33976248426E+02  0.50528860328E+02  0.30000001453E+02 0.  0.
        -12    1    1    2    0    0 -0.14450216508E+01 -0.22286590009E+02  0.33976248426E+02  0.40659139672E+02  0.00000000000E+00 0.  1.
         11    1    3    3    0    0  0.66941951344E+01  0.23950126474E+02 -0.19180127462E+02  0.31405383238E+02  0.51100000000E-03 0. -1.
        -11    1    3    3    0    0  0.68929834345E+00 -0.21830636633E+01  0.80148986840E+00  0.24255484812E+01  0.51100000000E-03 0.  1.
         12    1    3    3    0    0 -0.59384718270E+01  0.51952719801E+00 -0.15597610832E+02  0.16697928609E+02  0.00000000000E+00 0. -1.
</event>
<event>
 7    1  0.9865694E-013  0.5052886E+02  0.7816164E-02  0.1300439E+00
        -11   -1    0    0    0    0  0.00000000000E+00  0.00000000000E+00  0.45593999997E+02  0.45594000000E+02  0.51100000000E-03 0.  1.
         11   -1    0    0    0    0 -0.00000000000E+00 -0.00000000000E+00 -0.45593999997E+02  0.45594000000E+02  0.51100000000E-03 0. -1.
    9900012    2    1    2    0    0 -0.18830955678E+02  0.24332006670E+02 -0.26580332348E+02  0.50528861937E+02  0.30000006343E+02 0.  0.
        -12    1    1    2    0    0  0.18830955678E+02 -0.24332006670E+02  0.26580332348E+02  0.40659138063E+02  0.00000000000E+00 0.  1.
         11    1    3    3    0    0  0.18616346971E+01  0.12554516614E+02 -0.74345494978E+01  0.14708980171E+02  0.51100000000E-03 0. -1.
        -11    1    3    3    0    0 -0.11209205226E+02 -0.21696437094E+01 -0.14246289761E+02  0.18256790732E+02  0.51100000000E-03 0.  1.
         12    1    3    3    0    0 -0.94833851484E+01  0.13947133765E+02 -0.48994930893E+01  0.17563091034E+02  0.00000000000E+00 0. -1.
</event>
<event>
 7    1  0.9865694E-013  0.5052886E+02  0.7816164E-02  0.1300439E+00
        -11   -1    0    0    0    0  0.00000000000E+00  0.00000000000E+00  0.45593999997E+02  0.45594000000E+02  0.51100000000E-03 0. -1.
         11   -1    0    0    0    0 -0.00000000000E+00 -0.00000000000E+00 -0.45593999997E+02  0.45594000000E+02  0.51100000000E-03 0.  1.
    9900012    2    1    2    0    0  0.13396262397E+02  0.17234112007E+02 -0.34302927897E+02  0.50528864186E+02  0.30000013179E+02 0.  0.
        -12    1    1    2    0    0 -0.13396262397E+02 -0.17234112007E+02  0.34302927897E+02  0.40659135814E+02  0.00000000000E+00 0.  1.
         11    1    3    3    0    0  0.29054348366E+01  0.10834960562E+02  0.22092941694E+01  0.11433236766E+02  0.51100000000E-03 0. -1.
        -11    1    3    3    0    0  0.68031392095E+01  0.74247493962E+01 -0.24519639964E+02  0.26507024558E+02  0.51100000000E-03 0.  1.
         12    1    3    3    0    0  0.36876883512E+01 -0.10255979507E+01 -0.11992582102E+02  0.12588602861E+02  0.00000000000E+00 0. -1.
</event>
<event>
 7    1  0.9865694E-013  0.5052886E+02  0.7816164E-02  0.1300439E+00
        -11   -1    0    0    0    0  0.00000000000E+00  0.00000000000E+00  0.45593999997E+02  0.45594000000E+02  0.51100000000E-03 0.  1.
         11   -1    0    0    0    0 -0.00000000000E+00 -0.00000000000E+00 -0.45593999997E+02  0.45594000000E+02  0.51100000000E-03 0. -1.
    9900012    2    1    2    0    0  0.87820732082E+01  0.31651170703E+02  0.23963388345E+02  0.50528863294E+02  0.30000010468E+02 0.  0.
        -12    1    1    2    0    0 -0.87820732082E+01 -0.31651170703E+02 -0.23963388345E+02  0.40659136706E+02  0.00000000000E+00 0.  1.
         11    1    3    3    0    0  0.86729727674E+01  0.97980775893E+01  0.50661017731E+01  0.14031684450E+02  0.51100000000E-03 0. -1.
        -11    1    3    3    0    0 -0.19658982132E+01  0.25183188554E+02  0.20220667922E+02  0.32356346409E+02  0.51100000000E-03 0.  1.
        -12    1    3    3    0    0  0.20749986540E+01 -0.33300954397E+01 -0.13233813498E+01  0.41408324342E+01  0.00000000000E+00 0.  1.
</event>
<event>
 7    1  0.9865694E-013  0.5052886E+02  0.7816164E-02  0.1300439E+00
        -11   -1    0    0    0    0  0.00000000000E+00  0.00000000000E+00  0.45593999997E+02  0.45594000000E+02  0.51100000000E-03 0. -1.
         11   -1    0    0    0    0 -0.00000000000E+00 -0.00000000000E+00 -0.45593999997E+02  0.45594000000E+02  0.51100000000E-03 0.  1.
    9900012    2    1    2    0    0 -0.33050286750E+01 -0.30118279096E+02  0.27113312929E+02  0.50528859721E+02  0.29999999607E+02 0.  0.
        -12    1    1    2    0    0  0.33050286750E+01  0.30118279096E+02 -0.27113312929E+02  0.40659140279E+02  0.00000000000E+00 0.  1.
         11    1    3    3    0    0 -0.78071480385E+01 -0.34748151444E+01 -0.30698884458E+01  0.90802046295E+01  0.51100000000E-03 0. -1.
        -11    1    3    3    0    0 -0.66088268060E-01  0.68516652399E+00  0.56487344087E+00  0.89045105990E+00  0.51100000000E-03 0.  1.
         12    1    3    3    0    0  0.45682076315E+01 -0.27328630475E+02  0.29618327934E+02  0.40558204031E+02  0.00000000000E+00 0. -1.
</event>
<event>
 7    1  0.9865694E-013  0.5052886E+02  0.7816164E-02  0.1300439E+00
        -11   -1    0    0    0    0  0.00000000000E+00  0.00000000000E+00  0.45593999997E+02  0.45594000000E+02  0.51100000000E-03 0.  1.
         11   -1    0    0    0    0 -0.00000000000E+00 -0.00000000000E+00 -0.45593999997E+02  0.45594000000E+02  0.51100000000E-03 0. -1.
    9900012    2    1    2    0    0  0.22415413735E+02 -0.31610816803E+02 -0.12307356725E+02  0.50528861526E+02  0.30000005096E+02 0.  0.
        -12    1    1    2    0    0 -0.22415413735E+02  0.31610816803E+02  0.12307356725E+02  0.40659138474E+02  0.00000000000E+00 0.  1.
         11    1    3    3    0    0  0.13438908415E+02 -0.16735896034E+02 -0.54698397172E+01  0.22149799598E+02  0.51100000000E-03 0. -1.
        -11    1    3    3    0    0 -0.25160579686E+01 -0.15014519569E+01 -0.10038804136E+02  0.10457652433E+02  0.51100000000E-03 0.  1.
        -12    1    3    3    0    0  0.11492563289E+02 -0.13373468812E+02  0.32012871278E+01  0.17921409495E+02  0.00000000000E+00 0.  1.
</event>
<event>
 7    1  0.1041257E-012  0.5052886E+02  0.7816164E-02  0.1300439E+00
        -11   -1    0    0    0    0  0.00000000000E+00  0.00000000000E+00  0.45593999997E+02  0.45594000000E+02  0.51100000000E-03 0.  1.
         11   -1    0    0    0    0 -0.00000000000E+00 -0.00000000000E+00 -0.45593999997E+02  0.45594000000E+02  0.51100000000E-03 0. -1.
    9900012    2    1    2    0    0 -0.28577366582E+02  0.17063056477E+02 -0.23352773835E+02  0.50528858065E+02  0.29999994575E+02 0.  0.
        -12    1    1    2    0    0  0.28577366582E+02 -0.17063056477E+02  0.23352773835E+02  0.40659141935E+02  0.00000000000E+00 0.  1.
         11    1    3    3    0    0 -0.13691867353E+02  0.25883682053E+01 -0.22211945022E+02  0.26220934070E+02  0.51100000000E-03 0. -1.
        -11    1    3    3    0    0 -0.13058345683E+02  0.15120061874E+02 -0.44547482338E+01  0.20469036254E+02  0.51100000000E-03 0.  1.
        -12    1    3    3    0    0 -0.18271535458E+01 -0.64537360305E+00  0.33139194206E+01  0.38388877418E+01  0.00000000000E+00 0.  1.
</event>
<event>
 7    1  0.9865694E-013  0.5052888E+02  0.7816164E-02  0.1300439E+00
        -11   -1    0    0    0    0  0.00000000000E+00  0.00000000000E+00  0.45593999997E+02  0.45594000000E+02  0.51100000000E-03 0. -1.
         11   -1    0    0    0    0 -0.00000000000E+00 -0.00000000000E+00 -0.45593999997E+02  0.45594000000E+02  0.51100000000E-03 0.  1.
    9900012    2    1    2    0    0  0.33916554287E+02  0.11069402154E+02  0.19501280924E+02  0.50528877083E+02  0.30000052380E+02 0.  0.
        -12    1    1    2    0    0 -0.33916554287E+02 -0.11069402154E+02 -0.19501280924E+02  0.40659122917E+02  0.00000000000E+00 0.  1.
         11    1    3    3    0    0  0.12897366498E+02  0.63629171619E+01  0.34793186347E+01  0.14796433213E+02  0.51100000000E-03 0. -1.
        -11    1    3    3    0    0  0.19840328213E+02 -0.21443897002E+01  0.19550437957E+02  0.27936654334E+02  0.51100000000E-03 0.  1.
        -12    1    3    3    0    0  0.11788595753E+01  0.68508746927E+01 -0.35284756679E+01  0.77957895362E+01  0.00000000000E+00 0.  1.
</event>
<event>
 7    1  0.9865694E-013  0.5052885E+02  0.7816164E-02  0.1300439E+00
        -11   -1    0    0    0    0  0.00000000000E+00  0.00000000000E+00  0.45593999997E+02  0.45594000000E+02  0.51100000000E-03 0. -1.
         11   -1    0    0    0    0 -0.00000000000E+00 -0.00000000000E+00 -0.45593999997E+02  0.45594000000E+02  0.51100000000E-03 0.  1.
    9900012    2    1    2    0    0  0.27577317752E+02  0.23044931324E+02 -0.19015488799E+02  0.50528854308E+02  0.29999983155E+02 0.  0.
        -12    1    1    2    0    0 -0.27577317752E+02 -0.23044931324E+02  0.19015488799E+02  0.40659145692E+02  0.00000000000E+00 0.  1.
         11    1    3    3    0    0  0.21903980981E+02  0.17715338500E+01 -0.12384496945E+02  0.25224957480E+02  0.51100000000E-03 0. -1.
        -11    1    3    3    0    0 -0.12882071372E+01  0.67357939653E+01  0.18325533835E+01  0.70984963292E+01  0.51100000000E-03 0.  1.
         12    1    3    3    0    0  0.69615439080E+01  0.14537603509E+02 -0.84635452372E+01  0.18205400499E+02  0.00000000000E+00 0. -1.
</event>
<event>
 7    1  0.9865694E-013  0.5052894E+02  0.7816164E-02  0.1300439E+00
        -11   -1    0    0    0    0  0.00000000000E+00  0.00000000000E+00  0.45593999997E+02  0.45594000000E+02  0.51100000000E-03 0.  1.
         11   -1    0    0    0    0 -0.00000000000E+00 -0.00000000000E+00 -0.45593999997E+02  0.45594000000E+02  0.51100000000E-03 0. -1.
    9900012    2    1    2    0    0 -0.14412407952E+02  0.61665537396E+01 -0.37515535159E+02  0.50528938694E+02  0.30000239654E+02 0.  0.
        -12    1    1    2    0    0  0.14412407952E+02 -0.61665537396E+01  0.37515535159E+02  0.40659061306E+02  0.00000000000E+00 0.  1.
         11    1    3    3    0    0 -0.29869061419E+01 -0.18644108688E+01 -0.28427839520E+02  0.28645064082E+02  0.51100000000E-03 0. -1.
        -11    1    3    3    0    0 -0.64797969514E+01  0.10694505976E+02 -0.17247375636E+01  0.12622794720E+02  0.51100000000E-03 0.  1.
        -12    1    3    3    0    0 -0.49457048584E+01 -0.26635413679E+01 -0.73629580752E+01  0.92610798928E+01  0.00000000000E+00 0.  1.
</event>
<event>
 7    1  0.9865694E-013  0.5052885E+02  0.7816164E-02  0.1300439E+00
        -11   -1    0    0    0    0  0.00000000000E+00  0.00000000000E+00  0.45593999997E+02  0.45594000000E+02  0.51100000000E-03 0.  1.
         11   -1    0    0    0    0 -0.00000000000E+00 -0.00000000000E+00 -0.45593999997E+02  0.45594000000E+02  0.51100000000E-03 0. -1.
    9900012    2    1    2    0    0  0.28354460457E+02  0.14611097132E+02 -0.25213223636E+02  0.50528853018E+02  0.29999979232E+02 0.  0.
        -12    1    1    2    0    0 -0.28354460457E+02 -0.14611097132E+02  0.25213223636E+02  0.40659146982E+02  0.00000000000E+00 0.  1.
         11    1    3    3    0    0  0.16276426673E+02  0.14167059818E+02 -0.12735100623E+02  0.25056145698E+02  0.51100000000E-03 0.  1.
        -11    1    3    3    0    0  0.22035299274E+01 -0.48148130148E+01 -0.13239663311E+02  0.14259265526E+02  0.51100000000E-03 0. -1.
        -12    1    3    3    0    0  0.98745038576E+01  0.52588503286E+01  0.76154029844E+00  0.11213441793E+02  0.00000000000E+00 0.  1.
</event>
<event>
 7    1  0.9865694E-013  0.5052886E+02  0.7816164E-02  0.1300439E+00
        -11   -1    0    0    0    0  0.00000000000E+00  0.00000000000E+00  0.45593999997E+02  0.45594000000E+02  0.51100000000E-03 0.  1.
         11   -1    0    0    0    0 -0.00000000000E+00 -0.00000000000E+00 -0.45593999997E+02  0.45594000000E+02  0.51100000000E-03 0. -1.
    9900012    2    1    2    0    0  0.88006166901E+01 -0.38171605831E+02  0.10892351204E+02  0.50528860061E+02  0.30000000642E+02 0.  0.
        -12    1    1    2    0    0 -0.88006166901E+01  0.38171605831E+02 -0.10892351204E+02  0.40659139939E+02  0.00000000000E+00 0.  1.
         11    1    3    3    0    0 -0.36475602322E+01 -0.43527765216E+01  0.17080276635E+01  0.59303219015E+01  0.51100000000E-03 0.  1.
        -11    1    3    3    0    0  0.17232899901E+02 -0.13457939999E+02  0.28146918719E+00  0.21867057717E+02  0.51100000000E-03 0. -1.
         12    1    3    3    0    0 -0.47847229790E+01 -0.20360889310E+02  0.89028543530E+01  0.22731480443E+02  0.00000000000E+00 0. -1.
</event>
<event>
 7    1  0.9865694E-013  0.5052886E+02  0.7816164E-02  0.1300439E+00
        -11   -1    0    0    0    0  0.00000000000E+00  0.00000000000E+00  0.45593999997E+02  0.45594000000E+02  0.51100000000E-03 0. -1.
         11   -1    0    0    0    0 -0.00000000000E+00 -0.00000000000E+00 -0.45593999997E+02  0.45594000000E+02  0.51100000000E-03 0.  1.
    9900012    2    1    2    0    0 -0.18101153193E+02 -0.32241383346E+02  0.16911737471E+02  0.50528863127E+02  0.30000009961E+02 0.  0.
        -12    1    1    2    0    0  0.18101153193E+02  0.32241383346E+02 -0.16911737471E+02  0.40659136873E+02  0.00000000000E+00 0.  1.
         11    1    3    3    0    0 -0.64372405873E+01 -0.12850892268E+02 -0.46690455838E+01  0.15112362006E+02  0.51100000000E-03 0. -1.
        -11    1    3    3    0    0  0.26138759122E+01 -0.22425408979E+01  0.93638912513E+01  0.99771637548E+01  0.51100000000E-03 0.  1.
        -12    1    3    3    0    0 -0.14277788518E+02 -0.17147950179E+02  0.12216891804E+02  0.25439337367E+02  0.00000000000E+00 0.  1.
</event>
<event>
 7    1  0.9865694E-013  0.5052886E+02  0.7816164E-02  0.1300439E+00
        -11   -1    0    0    0    0  0.00000000000E+00  0.00000000000E+00  0.45593999997E+02  0.45594000000E+02  0.51100000000E-03 0.  1.
         11   -1    0    0    0    0 -0.00000000000E+00 -0.00000000000E+00 -0.45593999997E+02  0.45594000000E+02  0.51100000000E-03 0. -1.
    9900012    2    1    2    0    0 -0.15070170901E+02 -0.36272677580E+02 -0.10504691383E+02  0.50528859197E+02  0.29999998016E+02 0.  0.
        -12    1    1    2    0    0  0.15070170901E+02  0.36272677580E+02  0.10504691383E+02  0.40659140803E+02  0.00000000000E+00 0.  1.
         11    1    3    3    0    0 -0.35138768491E+01 -0.75076928586E+01 -0.75837065605E+01  0.11235007255E+02  0.51100000000E-03 0. -1.
        -11    1    3    3    0    0 -0.14582143078E+02 -0.27502151231E+02  0.42415429073E+01  0.31416522812E+02  0.51100000000E-03 0.  1.
        -12    1    3    3    0    0  0.30258490261E+01 -0.12628334903E+01 -0.71625277294E+01  0.78773291303E+01  0.00000000000E+00 0.  1.
</event>
<event>
 7    1  0.9865694E-013  0.5052886E+02  0.7816164E-02  0.1300439E+00
        -11   -1    0    0    0    0  0.00000000000E+00  0.00000000000E+00  0.45593999997E+02  0.45594000000E+02  0.51100000000E-03 0.  1.
         11   -1    0    0    0    0 -0.00000000000E+00 -0.00000000000E+00 -0.45593999997E+02  0.45594000000E+02  0.51100000000E-03 0. -1.
    9900012    2    1    2    0    0  0.30138052186E+02  0.23663353096E+02 -0.13598121393E+02  0.50528863576E+02  0.30000011325E+02 0.  0.
        -12    1    1    2    0    0 -0.30138052186E+02 -0.23663353096E+02  0.13598121393E+02  0.40659136424E+02  0.00000000000E+00 0.  1.
         11    1    3    3    0    0  0.15103052648E+02  0.19118194660E+01 -0.11905260746E+02  0.19325953707E+02  0.51100000000E-03 0. -1.
        -11    1    3    3    0    0  0.99753198235E+01  0.23204596204E+02 -0.37817363733E+01  0.25539417002E+02  0.51100000000E-03 0.  1.
        -12    1    3    3    0    0  0.50596797145E+01 -0.14530625735E+01  0.20888757266E+01  0.56634928672E+01  0.00000000000E+00 0.  1.
</event>
<event>
 7    1  0.9865694E-013  0.5052885E+02  0.7816164E-02  0.1300439E+00
        -11   -1    0    0    0    0  0.00000000000E+00  0.00000000000E+00  0.45593999997E+02  0.45594000000E+02  0.51100000000E-03 0.  1.
         11   -1    0    0    0    0 -0.00000000000E+00 -0.00000000000E+00 -0.45593999997E+02  0.45594000000E+02  0.51100000000E-03 0. -1.
    9900012    2    1    2    0    0 -0.12211025467E+02 -0.27503874982E+02 -0.27342165481E+02  0.50528852257E+02  0.29999976921E+02 0.  0.
        -12    1    1    2    0    0  0.12211025467E+02  0.27503874982E+02  0.27342165481E+02  0.40659147743E+02  0.00000000000E+00 0.  1.
         11    1    3    3    0    0 -0.98897218044E+01 -0.52178217174E+01 -0.23212320883E+02  0.25765172266E+02  0.51100000000E-03 0. -1.
        -11    1    3    3    0    0 -0.28007115668E+01 -0.23200676223E+02 -0.41287247752E+01  0.23731028865E+02  0.51100000000E-03 0.  1.
        -12    1    3    3    0    0  0.47940790410E+00  0.91462295866E+00 -0.11198230574E-02  0.10326511265E+01  0.00000000000E+00 0.  1.
</event>
<event>
 7    1  0.9865694E-013  0.5052885E+02  0.7816164E-02  0.1300439E+00
        -11   -1    0    0    0    0  0.00000000000E+00  0.00000000000E+00  0.45593999997E+02  0.45594000000E+02  0.51100000000E-03 0.  1.
         11   -1    0    0    0    0 -0.00000000000E+00 -0.00000000000E+00 -0.45593999997E+02  0.45594000000E+02  0.51100000000E-03 0. -1.
    9900012    2    1    2    0    0  0.18412202150E+02  0.68012998707E+01 -0.35607573701E+02  0.50528853762E+02  0.29999981496E+02 0.  0.
        -12    1    1    2    0    0 -0.18412202150E+02 -0.68012998707E+01  0.35607573701E+02  0.40659146238E+02  0.00000000000E+00 0.  1.
         11    1    3    3    0    0  0.95279620558E+01  0.87717684032E+01 -0.10657922981E+02  0.16772516341E+02  0.51100000000E-03 0. -1.
        -11    1    3    3    0    0 -0.22813928119E+01 -0.77684805924E+01 -0.17119184508E+02  0.18937278642E+02  0.51100000000E-03 0.  1.
        -12    1    3    3    0    0  0.11165632906E+02  0.57980120599E+01 -0.78304662108E+01  0.14819058780E+02  0.00000000000E+00 0.  1.
</event>
<event>
 7    1  0.9865694E-013  0.5052886E+02  0.7816164E-02  0.1300439E+00
        -11   -1    0    0    0    0  0.00000000000E+00  0.00000000000E+00  0.45593999997E+02  0.45594000000E+02  0.51100000000E-03 0.  1.
         11   -1    0    0    0    0 -0.00000000000E+00 -0.00000000000E+00 -0.45593999997E+02  0.45594000000E+02  0.51100000000E-03 0. -1.
    9900012    2    1    2    0    0 -0.27845418352E+01  0.65660177453E+01 -0.40028731569E+02  0.50528860643E+02  0.30000002409E+02 0.  0.
        -12    1    1    2    0    0  0.27845418352E+01 -0.65660177453E+01  0.40028731569E+02  0.40659139357E+02  0.00000000000E+00 0.  1.
         11    1    3    3    0    0  0.61220217961E+01  0.32872005053E+01  0.12574631804E+01  0.70615899021E+01  0.51100000000E-03 0.  1.
        -11    1    3    3    0    0 -0.76964431886E+01  0.20327813288E+01 -0.40926490871E+02  0.41693465831E+02  0.51100000000E-03 0. -1.
        -12    1    3    3    0    0 -0.12101204427E+01  0.12460359111E+01 -0.35970387812E+00  0.17738049097E+01  0.00000000000E+00 0.  1.
</event>
<event>
 7    1  0.9865694E-013  0.5052886E+02  0.7816164E-02  0.1300439E+00
        -11   -1    0    0    0    0  0.00000000000E+00  0.00000000000E+00  0.45593999997E+02  0.45594000000E+02  0.51100000000E-03 0.  1.
         11   -1    0    0    0    0 -0.00000000000E+00 -0.00000000000E+00 -0.45593999997E+02  0.45594000000E+02  0.51100000000E-03 0. -1.
    9900012    2    1    2    0    0  0.17162503461E+01 -0.66329642106E+01 -0.40077720309E+02  0.50528863332E+02  0.30000010583E+02 0.  0.
        -12    1    1    2    0    0 -0.17162503461E+01  0.66329642106E+01  0.40077720309E+02  0.40659136668E+02  0.00000000000E+00 0.  1.
         11    1    3    3    0    0  0.16299915733E+01  0.52269440230E+01  0.22002052588E+01  0.59007389190E+01  0.51100000000E-03 0. -1.
        -11    1    3    3    0    0 -0.38603649055E+01 -0.45227862666E+01 -0.18588519928E+02  0.19516431185E+02  0.51100000000E-03 0.  1.
         12    1    3    3    0    0  0.39466236783E+01 -0.73371219670E+01 -0.23689405639E+02  0.25111693228E+02  0.00000000000E+00 0. -1.
</event>
<event>
 7    1  0.9865694E-013  0.5052886E+02  0.7816164E-02  0.1300439E+00
        -11   -1    0    0    0    0  0.00000000000E+00  0.00000000000E+00  0.45593999997E+02  0.45594000000E+02  0.51100000000E-03 0.  1.
         11   -1    0    0    0    0 -0.00000000000E+00 -0.00000000000E+00 -0.45593999997E+02  0.45594000000E+02  0.51100000000E-03 0. -1.
    9900012    2    1    2    0    0  0.79703543901E+01 -0.22893282802E+02 -0.32642556025E+02  0.50528863137E+02  0.30000009991E+02 0.  0.
        -12    1    1    2    0    0 -0.79703543901E+01  0.22893282802E+02  0.32642556025E+02  0.40659136863E+02  0.00000000000E+00 0.  1.
         11    1    3    3    0    0 -0.17834413604E+01 -0.23931052184E+01  0.52860213005E+01  0.60703901953E+01  0.51100000000E-03 0.  1.
        -11    1    3    3    0    0  0.80854370213E+01 -0.16731365880E+02 -0.34092356854E+02  0.38827846864E+02  0.51100000000E-03 0. -1.
        -12    1    3    3    0    0  0.16683587291E+01 -0.37688117043E+01 -0.38362204723E+01  0.56306260774E+01  0.00000000000E+00 0.  1.
</event>
<event>
 7    1  0.9865694E-013  0.5052888E+02  0.7816164E-02  0.1300439E+00
        -11   -1    0    0    0    0  0.00000000000E+00  0.00000000000E+00  0.45593999997E+02  0.45594000000E+02  0.51100000000E-03 0. -1.
         11   -1    0    0    0    0 -0.00000000000E+00 -0.00000000000E+00 -0.45593999997E+02  0.45594000000E+02  0.51100000000E-03 0.  1.
    9900012    2    1    2    0    0  0.24601355115E+02  0.23442117281E+02  0.22324979370E+02  0.50528877531E+02  0.30000053743E+02 0.  0.
        -12    1    1    2    0    0 -0.24601355115E+02 -0.23442117281E+02 -0.22324979370E+02  0.40659122469E+02  0.00000000000E+00 0.  1.
         11    1    3    3    0    0  0.24082932594E+02  0.13202686358E+02  0.23144857273E+02  0.35916333163E+02  0.51100000000E-03 0. -1.
        -11    1    3    3    0    0  0.53365104901E+01  0.68419333745E+01 -0.14168171499E+00  0.86781605472E+01  0.51100000000E-03 0.  1.
         12    1    3    3    0    0 -0.48180879691E+01  0.33974975477E+01 -0.67819618859E+00  0.59343838210E+01  0.00000000000E+00 0. -1.
</event>
<event>
 7    1  0.9865694E-013  0.5052885E+02  0.7816164E-02  0.1300439E+00
        -11   -1    0    0    0    0  0.00000000000E+00  0.00000000000E+00  0.45593999997E+02  0.45594000000E+02  0.51100000000E-03 0.  1.
         11   -1    0    0    0    0 -0.00000000000E+00 -0.00000000000E+00 -0.45593999997E+02  0.45594000000E+02  0.51100000000E-03 0. -1.
    9900012    2    1    2    0    0 -0.57574975338E+01  0.11671531660E+02 -0.38520030051E+02  0.50528854113E+02  0.29999982562E+02 0.  0.
        -12    1    1    2    0    0  0.57574975338E+01 -0.11671531660E+02  0.38520030051E+02  0.40659145887E+02  0.00000000000E+00 0.  1.
         11    1    3    3    0    0 -0.14428659557E+02  0.12981573203E+02 -0.26682941047E+02  0.32995254244E+02  0.51100000000E-03 0. -1.
        -11    1    3    3    0    0  0.18906557803E+01 -0.26915805521E-01  0.15680803784E+01  0.24564568130E+01  0.51100000000E-03 0.  1.
         12    1    3    3    0    0  0.67805062431E+01 -0.12831257371E+01 -0.13405169382E+02  0.15077143056E+02  0.00000000000E+00 0. -1.
</event>
<event>
 7    1  0.9865694E-013  0.5052886E+02  0.7816164E-02  0.1300439E+00
        -11   -1    0    0    0    0  0.00000000000E+00  0.00000000000E+00  0.45593999997E+02  0.45594000000E+02  0.51100000000E-03 0. -1.
         11   -1    0    0    0    0 -0.00000000000E+00 -0.00000000000E+00 -0.45593999997E+02  0.45594000000E+02  0.51100000000E-03 0.  1.
    9900012    2    1    2    0    0  0.26604997587E+02  0.38823598649E+01  0.30500277716E+02  0.50528861354E+02  0.30000004570E+02 0.  0.
        -12    1    1    2    0    0 -0.26604997587E+02 -0.38823598649E+01 -0.30500277716E+02  0.40659138646E+02  0.00000000000E+00 0.  1.
         11    1    3    3    0    0  0.11884245230E+02 -0.68379671796E+01 -0.24250767886E+00  0.13713201307E+02  0.51100000000E-03 0. -1.
        -11    1    3    3    0    0  0.16619384186E+01  0.14157099074E+01  0.11787757956E+02  0.11988223878E+02  0.51100000000E-03 0.  1.
         12    1    3    3    0    0  0.13058813938E+02  0.93046171371E+01  0.18955027439E+02  0.24827436169E+02  0.00000000000E+00 0. -1.
</event>
<event>
 7    1  0.9865694E-013  0.5052887E+02  0.7816164E-02  0.1300439E+00
        -11   -1    0    0    0    0  0.00000000000E+00  0.00000000000E+00  0.45593999997E+02  0.45594000000E+02  0.51100000000E-03 0.  1.
         11   -1    0    0    0    0 -0.00000000000E+00 -0.00000000000E+00 -0.45593999997E+02  0.45594000000E+02  0.51100000000E-03 0. -1.
    9900012    2    1    2    0    0  0.12034853020E+02 -0.26868224400E+02 -0.28043288319E+02  0.50528865856E+02  0.30000018256E+02 0.  0.
        -12    1    1    2    0    0 -0.12034853020E+02  0.26868224400E+02  0.28043288319E+02  0.40659134144E+02  0.00000000000E+00 0.  1.
         11    1    3    3    0    0  0.25982059656E+01 -0.10512070183E+02 -0.83382591871E+01  0.13666779442E+02  0.51100000000E-03 0. -1.
        -11    1    3    3    0    0 -0.75724240056E+00  0.59247577564E+01 -0.71947583294E+01  0.93509741848E+01  0.51100000000E-03 0.  1.
        -12    1    3    3    0    0  0.10193889455E+02 -0.22280911973E+02 -0.12510270802E+02  0.27511112229E+02  0.00000000000E+00 0.  1.
</event>
<event>
 7    1  0.9865694E-013  0.5052885E+02  0.7816164E-02  0.1300439E+00
        -11   -1    0    0    0    0  0.00000000000E+00  0.00000000000E+00  0.45593999997E+02  0.45594000000E+02  0.51100000000E-03 0. -1.
         11   -1    0    0    0    0 -0.00000000000E+00 -0.00000000000E+00 -0.45593999997E+02  0.45594000000E+02  0.51100000000E-03 0.  1.
    9900012    2    1    2    0    0  0.18546940402E+02 -0.34621264073E+02  0.10514062460E+02  0.50528850554E+02  0.29999971743E+02 0.  0.
        -12    1    1    2    0    0 -0.18546940402E+02  0.34621264073E+02 -0.10514062460E+02  0.40659149446E+02  0.00000000000E+00 0.  1.
         11    1    3    3    0    0  0.11307013402E+02 -0.48526029955E+01  0.83834541973E+01  0.14888875460E+02  0.51100000000E-03 0. -1.
        -11    1    3    3    0    0 -0.51261399421E+01 -0.16971341184E+02  0.20246175105E+01  0.17843845118E+02  0.51100000000E-03 0.  1.
         12    1    3    3    0    0  0.12366066941E+02 -0.12797319894E+02  0.10599075212E+00  0.17796129976E+02  0.00000000000E+00 0. -1.
</event>
<event>
 7    1  0.9865694E-013  0.5052887E+02  0.7816164E-02  0.1300439E+00
        -11   -1    0    0    0    0  0.00000000000E+00  0.00000000000E+00  0.45593999997E+02  0.45594000000E+02  0.51100000000E-03 0. -1.
         11   -1    0    0    0    0 -0.00000000000E+00 -0.00000000000E+00 -0.45593999997E+02  0.45594000000E+02  0.51100000000E-03 0.  1.
    9900012    2    1    2    0    0 -0.18038777380E+02  0.30141430647E+02  0.20475882453E+02  0.50528867040E+02  0.30000021856E+02 0.  0.
        -12    1    1    2    0    0  0.18038777380E+02 -0.30141430647E+02 -0.20475882453E+02  0.40659132960E+02  0.00000000000E+00 0.  1.
         11    1    3    3    0    0 -0.10428101729E+01  0.22416820178E+01  0.46900774392E+01  0.53018315677E+01  0.51100000000E-03 0. -1.
        -11    1    3    3    0    0 -0.38066821973E+01  0.30085123497E+01  0.16346890060E+02  0.17051767967E+02  0.51100000000E-03 0.  1.
        -12    1    3    3    0    0 -0.13189285010E+02  0.24891236279E+02 -0.56108504635E+00  0.28175267505E+02  0.00000000000E+00 0.  1.
</event>
<event>
 7    1  0.9865694E-013  0.5052885E+02  0.7816164E-02  0.1300439E+00
        -11   -1    0    0    0    0  0.00000000000E+00  0.00000000000E+00  0.45593999997E+02  0.45594000000E+02  0.51100000000E-03 0.  1.
         11   -1    0    0    0    0 -0.00000000000E+00 -0.00000000000E+00 -0.45593999997E+02  0.45594000000E+02  0.51100000000E-03 0. -1.
    9900012    2    1    2    0    0  0.94313491351E+01 -0.27178077189E+02 -0.28732698881E+02  0.50528853290E+02  0.29999980060E+02 0.  0.
        -12    1    1    2    0    0 -0.94313491351E+01  0.27178077189E+02  0.28732698881E+02  0.40659146710E+02  0.00000000000E+00 0.  1.
         11    1    3    3    0    0  0.13406779607E+02 -0.55079633687E+01 -0.21654151068E+02  0.26057276500E+02  0.51100000000E-03 0. -1.
        -11    1    3    3    0    0 -0.86433189397E+00 -0.53206950072E+01  0.17043355407E+01  0.56534613184E+01  0.51100000000E-03 0.  1.
         12    1    3    3    0    0 -0.31110985775E+01 -0.16349418813E+02 -0.87828833543E+01  0.18818115471E+02  0.00000000000E+00 0. -1.
</event>
<event>
 7    1  0.9865694E-013  0.5052884E+02  0.7816164E-02  0.1300439E+00
        -11   -1    0    0    0    0  0.00000000000E+00  0.00000000000E+00  0.45593999997E+02  0.45594000000E+02  0.51100000000E-03 0. -1.
         11   -1    0    0    0    0 -0.00000000000E+00 -0.00000000000E+00 -0.45593999997E+02  0.45594000000E+02  0.51100000000E-03 0.  1.
    9900012    2    1    2    0    0 -0.42305436161E+01 -0.30403295607E+02  0.26662884081E+02  0.50528840262E+02  0.29999940462E+02 0.  0.
        -12    1    1    2    0    0  0.42305436161E+01  0.30403295607E+02 -0.26662884081E+02  0.40659159738E+02  0.00000000000E+00 0.  1.
         11    1    3    3    0    0  0.16052270068E+01 -0.33650902595E+02  0.25891978739E+02  0.42489464135E+02  0.51100000000E-03 0. -1.
        -11    1    3    3    0    0 -0.63886625638E+01  0.22300596132E+01  0.10512557244E+01  0.68478693103E+01  0.51100000000E-03 0.  1.
        -12    1    3    3    0    0  0.55289194082E+00  0.10175473748E+01 -0.28035038265E+00  0.11915068171E+01  0.00000000000E+00 0.  1.
</event>
<event>
 7    1  0.9865694E-013  0.5052886E+02  0.7816164E-02  0.1300439E+00
        -11   -1    0    0    0    0  0.00000000000E+00  0.00000000000E+00  0.45593999997E+02  0.45594000000E+02  0.51100000000E-03 0.  1.
         11   -1    0    0    0    0 -0.00000000000E+00 -0.00000000000E+00 -0.45593999997E+02  0.45594000000E+02  0.51100000000E-03 0. -1.
    9900012    2    1    2    0    0 -0.83263258949E+01 -0.29499953975E+02 -0.26713117022E+02  0.50528860702E+02  0.30000002591E+02 0.  0.
        -12    1    1    2    0    0  0.83263258949E+01  0.29499953975E+02  0.26713117022E+02  0.40659139298E+02  0.00000000000E+00 0.  1.
         11    1    3    3    0    0  0.75885512602E+01 -0.45863460743E+01 -0.48623766722E+01  0.10112536166E+02  0.51100000000E-03 0.  1.
        -11    1    3    3    0    0 -0.18836116862E+02 -0.24695555245E+02 -0.20260967456E+02  0.37083372956E+02  0.51100000000E-03 0. -1.
         12    1    3    3    0    0  0.29212397064E+01 -0.21805265498E+00 -0.15897728938E+01  0.33329515802E+01  0.00000000000E+00 0. -1.
</event>
<event>
 7    1  0.9865694E-013  0.5052885E+02  0.7816164E-02  0.1300439E+00
        -11   -1    0    0    0    0  0.00000000000E+00  0.00000000000E+00  0.45593999997E+02  0.45594000000E+02  0.51100000000E-03 0. -1.
         11   -1    0    0    0    0 -0.00000000000E+00 -0.00000000000E+00 -0.45593999997E+02  0.45594000000E+02  0.51100000000E-03 0.  1.
    9900012    2    1    2    0    0  0.33434617574E+02 -0.14479230971E+02  0.18045630430E+02  0.50528849007E+02  0.29999967042E+02 0.  0.
        -12    1    1    2    0    0 -0.33434617574E+02  0.14479230971E+02 -0.18045630430E+02  0.40659150993E+02  0.00000000000E+00 0.  1.
         11    1    3    3    0    0  0.20772942007E+01 -0.43919032428E+01 -0.67365843024E+01  0.83057530432E+01  0.51100000000E-03 0.  1.
        -11    1    3    3    0    0  0.24275567409E+02 -0.11279321423E+02  0.21470760092E+02  0.34315008436E+02  0.51100000000E-03 0. -1.
        -12    1    3    3    0    0  0.70817559644E+01  0.11919936948E+01  0.33114546404E+01  0.79080875275E+01  0.00000000000E+00 0.  1.
</event>
<event>
 7    1  0.9865694E-013  0.5052886E+02  0.7816164E-02  0.1300439E+00
        -11   -1    0    0    0    0  0.00000000000E+00  0.00000000000E+00  0.45593999997E+02  0.45594000000E+02  0.51100000000E-03 0. -1.
         11   -1    0    0    0    0 -0.00000000000E+00 -0.00000000000E+00 -0.45593999997E+02  0.45594000000E+02  0.51100000000E-03 0.  1.
    9900012    2    1    2    0    0  0.16385819530E+02 -0.37063226520E+02  0.33148294788E+01  0.50528856671E+02  0.29999990337E+02 0.  0.
        -12    1    1    2    0    0 -0.16385819530E+02  0.37063226520E+02 -0.33148294788E+01  0.40659143329E+02  0.00000000000E+00 0.  1.
         11    1    3    3    0    0  0.24361075168E+02 -0.28452809177E+02  0.68073181978E+01  0.38070512404E+02  0.51100000000E-03 0. -1.
        -11    1    3    3    0    0 -0.71024009031E+01 -0.79720177714E+01 -0.38017352017E+01  0.11333594167E+02  0.51100000000E-03 0.  1.
         12    1    3    3    0    0 -0.87285473429E+00 -0.63839957166E+00  0.30924648269E+00  0.11247500999E+01  0.00000000000E+00 0. -1.
</event>
<event>
 7    1  0.9865694E-013  0.5052884E+02  0.7816164E-02  0.1300439E+00
        -11   -1    0    0    0    0  0.00000000000E+00  0.00000000000E+00  0.45593999997E+02  0.45594000000E+02  0.51100000000E-03 0.  1.
         11   -1    0    0    0    0 -0.00000000000E+00 -0.00000000000E+00 -0.45593999997E+02  0.45594000000E+02  0.51100000000E-03 0. -1.
    9900012    2    1    2    0    0 -0.97077438031E+01  0.39789957101E+01 -0.39282238931E+02  0.50528843688E+02  0.29999950873E+02 0.  0.
        -12    1    1    2    0    0  0.97077438031E+01 -0.39789957101E+01  0.39282238931E+02  0.40659156312E+02  0.00000000000E+00 0.  1.
         11    1    3    3    0    0 -0.81896746673E+01  0.12786432620E+02 -0.79410583904E+01  0.17135461444E+02  0.51100000000E-03 0. -1.
        -11    1    3    3    0    0  0.11828939496E+01 -0.11283819647E+01 -0.15472644393E+02  0.15558766299E+02  0.51100000000E-03 0.  1.
         12    1    3    3    0    0 -0.27009630853E+01 -0.76790549447E+01 -0.15868536147E+02  0.17834615944E+02  0.00000000000E+00 0. -1.
</event>
<event>
 7    1  0.9865694E-013  0.5052889E+02  0.7816164E-02  0.1300439E+00
        -11   -1    0    0    0    0  0.00000000000E+00  0.00000000000E+00  0.45593999997E+02  0.45594000000E+02  0.51100000000E-03 0.  1.
         11   -1    0    0    0    0 -0.00000000000E+00 -0.00000000000E+00 -0.45593999997E+02  0.45594000000E+02  0.51100000000E-03 0. -1.
    9900012    2    1    2    0    0  0.36890900218E+02  0.12855937396E+02 -0.11267193880E+02  0.50528889051E+02  0.30000088759E+02 0.  0.
        -12    1    1    2    0    0 -0.36890900218E+02 -0.12855937396E+02  0.11267193880E+02  0.40659110949E+02  0.00000000000E+00 0.  1.
         11    1    3    3    0    0  0.14592195058E+02 -0.58317628831E+01 -0.45569586030E+01  0.16361769064E+02  0.51100000000E-03 0. -1.
        -11    1    3    3    0    0  0.10658212727E+02  0.15041060191E+02  0.28698732626E+01  0.18656558177E+02  0.51100000000E-03 0.  1.
         12    1    3    3    0    0  0.11640492433E+02  0.36466400881E+01 -0.95801085395E+01  0.15510561809E+02  0.00000000000E+00 0. -1.
</event>
<event>
 7    1  0.9865694E-013  0.5052886E+02  0.7816164E-02  0.1300439E+00
        -11   -1    0    0    0    0  0.00000000000E+00  0.00000000000E+00  0.45593999997E+02  0.45594000000E+02  0.51100000000E-03 0. -1.
         11   -1    0    0    0    0 -0.00000000000E+00 -0.00000000000E+00 -0.45593999997E+02  0.45594000000E+02  0.51100000000E-03 0.  1.
    9900012    2    1    2    0    0  0.23213726437E+02  0.32639354791E+02 -0.69972068938E+01  0.50528862275E+02  0.30000007370E+02 0.  0.
        -12    1    1    2    0    0 -0.23213726437E+02 -0.32639354791E+02  0.69972068938E+01  0.40659137725E+02  0.00000000000E+00 0.  1.
         11    1    3    3    0    0  0.24221521958E+02  0.17218263302E+02 -0.77799781073E+00  0.29728033873E+02  0.51100000000E-03 0. -1.
        -11    1    3    3    0    0 -0.12920801294E+01  0.31994458694E+00  0.28765870888E+01  0.31696354901E+01  0.51100000000E-03 0.  1.
         12    1    3    3    0    0  0.28428460864E+00  0.15101146901E+02 -0.90957961718E+01  0.17631192911E+02  0.00000000000E+00 0. -1.
</event>
<event>
 7    1  0.9865694E-013  0.5052885E+02  0.7816164E-02  0.1300439E+00
        -11   -1    0    0    0    0  0.00000000000E+00  0.00000000000E+00  0.45593999997E+02  0.45594000000E+02  0.51100000000E-03 0. -1.
         11   -1    0    0    0    0 -0.00000000000E+00 -0.00000000000E+00 -0.45593999997E+02  0.45594000000E+02  0.51100000000E-03 0.  1.
    9900012    2    1    2    0    0  0.25049408475E+02  0.26414036058E+02  0.18110555440E+02  0.50528851163E+02  0.29999973595E+02 0.  0.
        -12    1    1    2    0    0 -0.25049408475E+02 -0.26414036058E+02 -0.18110555440E+02  0.40659148837E+02  0.00000000000E+00 0.  1.
         11    1    3    3    0    0  0.95206628688E+01  0.16328402427E+02  0.32507349291E+01  0.19178817094E+02  0.51100000000E-03 0. -1.
        -11    1    3    3    0    0  0.15344181709E+02  0.30420968335E+01  0.84729617370E+00  0.15665764474E+02  0.51100000000E-03 0.  1.
        -12    1    3    3    0    0  0.18456389664E+00  0.70435367972E+01  0.14012524337E+02  0.15684269595E+02  0.00000000000E+00 0.  1.
</event>
<event>
 7    1  0.9865694E-013  0.5052886E+02  0.7816164E-02  0.1300439E+00
        -11   -1    0    0    0    0  0.00000000000E+00  0.00000000000E+00  0.45593999997E+02  0.45594000000E+02  0.51100000000E-03 0. -1.
         11   -1    0    0    0    0 -0.00000000000E+00 -0.00000000000E+00 -0.45593999997E+02  0.45594000000E+02  0.51100000000E-03 0.  1.
    9900012    2    1    2    0    0  0.32175260606E+02  0.38438151548E+01 -0.24558973312E+02  0.50528862280E+02  0.30000007386E+02 0.  0.
        -12    1    1    2    0    0 -0.32175260606E+02 -0.38438151548E+01  0.24558973312E+02  0.40659137720E+02  0.00000000000E+00 0.  1.
         11    1    3    3    0    0  0.99531297109E+01  0.58379584429E+01 -0.34785576726E+01  0.12051842746E+02  0.51100000000E-03 0. -1.
        -11    1    3    3    0    0  0.18930242434E+02 -0.14514398317E+01 -0.26206329333E+02  0.32360971147E+02  0.51100000000E-03 0.  1.
        -12    1    3    3    0    0  0.32918884607E+01 -0.54270345636E+00  0.51259136937E+01  0.61160483872E+01  0.00000000000E+00 0.  1.
</event>
<event>
 7    1  0.9865694E-013  0.5052886E+02  0.7816164E-02  0.1300439E+00
        -11   -1    0    0    0    0  0.00000000000E+00  0.00000000000E+00  0.45593999997E+02  0.45594000000E+02  0.51100000000E-03 0.  1.
         11   -1    0    0    0    0 -0.00000000000E+00 -0.00000000000E+00 -0.45593999997E+02  0.45594000000E+02  0.51100000000E-03 0. -1.
    9900012    2    1    2    0    0  0.38188151161E+02  0.12695910789E+02 -0.58004095326E+01  0.50528858462E+02  0.29999995782E+02 0.  0.
        -12    1    1    2    0    0 -0.38188151161E+02 -0.12695910789E+02  0.58004095326E+01  0.40659141538E+02  0.00000000000E+00 0.  1.
         11    1    3    3    0    0  0.20906761605E+02  0.13179008437E+02 -0.84775936199E+01  0.26127543667E+02  0.51100000000E-03 0. -1.
        -11    1    3    3    0    0  0.10520762369E+02 -0.28493755707E+01  0.95373306941E+01  0.14483302766E+02  0.51100000000E-03 0.  1.
        -12    1    3    3    0    0  0.67606271862E+01  0.23662779226E+01 -0.68601466069E+01  0.99180120299E+01  0.00000000000E+00 0.  1.
</event>
<event>
 7    1  0.9865694E-013  0.5052886E+02  0.7816164E-02  0.1300439E+00
        -11   -1    0    0    0    0  0.00000000000E+00  0.00000000000E+00  0.45593999997E+02  0.45594000000E+02  0.51100000000E-03 0.  1.
         11   -1    0    0    0    0 -0.00000000000E+00 -0.00000000000E+00 -0.45593999997E+02  0.45594000000E+02  0.51100000000E-03 0. -1.
    9900012    2    1    2    0    0  0.85851498879E+01  0.39719832251E+02  0.13401134603E+01  0.50528858632E+02  0.29999996299E+02 0.  0.
        -12    1    1    2    0    0 -0.85851498879E+01 -0.39719832251E+02 -0.13401134603E+01  0.40659141368E+02  0.00000000000E+00 0.  1.
         11    1    3    3    0    0  0.16629638441E+02  0.37617129236E+02  0.60476802723E+00  0.41133429607E+02  0.51100000000E-03 0. -1.
        -11    1    3    3    0    0 -0.41368864379E+01  0.10408861315E+01 -0.17867639429E+01  0.46249107005E+01  0.51100000000E-03 0.  1.
         12    1    3    3    0    0 -0.39076021150E+01  0.10618168841E+01  0.25221093760E+01  0.47705183250E+01  0.00000000000E+00 0. -1.
</event>
<event>
 7    1  0.9865694E-013  0.5052886E+02  0.7816164E-02  0.1300439E+00
        -11   -1    0    0    0    0  0.00000000000E+00  0.00000000000E+00  0.45593999997E+02  0.45594000000E+02  0.51100000000E-03 0.  1.
         11   -1    0    0    0    0 -0.00000000000E+00 -0.00000000000E+00 -0.45593999997E+02  0.45594000000E+02  0.51100000000E-03 0. -1.
    9900012    2    1    2    0    0  0.34280481662E+02 -0.13208097875E+02 -0.17422992117E+02  0.50528856787E+02  0.29999990691E+02 0.  0.
        -12    1    1    2    0    0 -0.34280481662E+02  0.13208097875E+02  0.17422992117E+02  0.40659143213E+02  0.00000000000E+00 0.  1.
         11    1    3    3    0    0  0.12559477668E+02 -0.18916207541E+02 -0.46516192830E+01  0.23177595847E+02  0.51100000000E-03 0. -1.
        -11    1    3    3    0    0  0.68547222132E+00 -0.17189899850E+01 -0.64211411975E+00  0.19588541392E+01  0.51100000000E-03 0.  1.
         12    1    3    3    0    0  0.21035531773E+02  0.74270996508E+01 -0.12129258715E+02  0.25392406801E+02  0.00000000000E+00 0. -1.
</event>
<event>
 7    1  0.9865694E-013  0.5052885E+02  0.7816164E-02  0.1300439E+00
        -11   -1    0    0    0    0  0.00000000000E+00  0.00000000000E+00  0.45593999997E+02  0.45594000000E+02  0.51100000000E-03 0. -1.
         11   -1    0    0    0    0 -0.00000000000E+00 -0.00000000000E+00 -0.45593999997E+02  0.45594000000E+02  0.51100000000E-03 0.  1.
    9900012    2    1    2    0    0 -0.38560818330E+02 -0.22141512064E+01  0.12701455286E+02  0.50528854138E+02  0.29999982639E+02 0.  0.
        -12    1    1    2    0    0  0.38560818330E+02  0.22141512064E+01 -0.12701455286E+02  0.40659145862E+02  0.00000000000E+00 0.  1.
         11    1    3    3    0    0 -0.19628305839E+01  0.85660088179E+01  0.25759326785E+00  0.87917896655E+01  0.51100000000E-03 0. -1.
        -11    1    3    3    0    0 -0.15757015569E+02 -0.46981302755E+01 -0.52000055865E+00  0.16450725472E+02  0.51100000000E-03 0.  1.
         12    1    3    3    0    0 -0.20840972177E+02 -0.60820297488E+01  0.12963862577E+02  0.25286339000E+02  0.00000000000E+00 0. -1.
</event>
<event>
 7    1  0.9865694E-013  0.5052886E+02  0.7816164E-02  0.1300439E+00
        -11   -1    0    0    0    0  0.00000000000E+00  0.00000000000E+00  0.45593999997E+02  0.45594000000E+02  0.51100000000E-03 0. -1.
         11   -1    0    0    0    0 -0.00000000000E+00 -0.00000000000E+00 -0.45593999997E+02  0.45594000000E+02  0.51100000000E-03 0.  1.
    9900012    2    1    2    0    0  0.40054204329E+02 -0.36750122448E+00  0.69778969635E+01  0.50528863417E+02  0.30000010844E+02 0.  0.
        -12    1    1    2    0    0 -0.40054204329E+02  0.36750122448E+00 -0.69778969635E+01  0.40659136583E+02  0.00000000000E+00 0.  1.
         11    1    3    3    0    0  0.14160946447E+01 -0.76855985602E+00  0.57162526751E+01  0.59389858732E+01  0.51100000000E-03 0. -1.
        -11    1    3    3    0    0  0.38643057994E+02 -0.50500828486E+01  0.23051190271E+01  0.39039759757E+02  0.51100000000E-03 0.  1.
        -12    1    3    3    0    0 -0.49483094025E-02  0.54511414801E+01 -0.10434747386E+01  0.55501177872E+01  0.00000000000E+00 0.  1.
</event>
<event>
 7    1  0.9865694E-013  0.5052890E+02  0.7816164E-02  0.1300439E+00
        -11   -1    0    0    0    0  0.00000000000E+00  0.00000000000E+00  0.45593999997E+02  0.45594000000E+02  0.51100000000E-03 0. -1.
         11   -1    0    0    0    0 -0.00000000000E+00 -0.00000000000E+00 -0.45593999997E+02  0.45594000000E+02  0.51100000000E-03 0.  1.
    9900012    2    1    2    0    0 -0.86757704162E+00  0.14329569442E+02  0.38040416192E+02  0.50528898751E+02  0.30000118243E+02 0.  0.
        -12    1    1    2    0    0  0.86757704162E+00 -0.14329569442E+02 -0.38040416192E+02  0.40659101249E+02  0.00000000000E+00 0.  1.
         11    1    3    3    0    0 -0.68386700769E+01  0.34288049384E+01  0.44627892569E+01  0.88566697996E+01  0.51100000000E-03 0. -1.
        -11    1    3    3    0    0  0.10646154795E+02  0.87227936099E+01  0.33815635417E+02  0.36509244572E+02  0.51100000000E-03 0.  1.
        -12    1    3    3    0    0 -0.46750617594E+01  0.21779708938E+01 -0.23800848182E+00  0.51629843797E+01  0.00000000000E+00 0.  1.
</event>
<event>
 7    1  0.9865694E-013  0.5052886E+02  0.7816164E-02  0.1300439E+00
        -11   -1    0    0    0    0  0.00000000000E+00  0.00000000000E+00  0.45593999997E+02  0.45594000000E+02  0.51100000000E-03 0.  1.
         11   -1    0    0    0    0 -0.00000000000E+00 -0.00000000000E+00 -0.45593999997E+02  0.45594000000E+02  0.51100000000E-03 0. -1.
    9900012    2    1    2    0    0  0.37760354254E+02  0.59521900754E+01 -0.13852542404E+02  0.50528857718E+02  0.29999993519E+02 0.  0.
        -12    1    1    2    0    0 -0.37760354254E+02 -0.59521900754E+01  0.13852542404E+02  0.40659142282E+02  0.00000000000E+00 0.  1.
         11    1    3    3    0    0  0.78612522393E+01  0.49753700285E+01 -0.44584255929E+01  0.10316547519E+02  0.51100000000E-03 0. -1.
        -11    1    3    3    0    0  0.18298608655E+02  0.72077988439E+00  0.74401847225E+01  0.19766510853E+02  0.51100000000E-03 0.  1.
        -12    1    3    3    0    0  0.11600493360E+02  0.25604016251E+00 -0.16834301534E+02  0.20445799346E+02  0.00000000000E+00 0.  1.
</event>
<event>
 7    1  0.9865694E-013  0.5052887E+02  0.7816164E-02  0.1300439E+00
        -11   -1    0    0    0    0  0.00000000000E+00  0.00000000000E+00  0.45593999997E+02  0.45594000000E+02  0.51100000000E-03 0.  1.
         11   -1    0    0    0    0 -0.00000000000E+00 -0.00000000000E+00 -0.45593999997E+02  0.45594000000E+02  0.51100000000E-03 0. -1.
    9900012    2    1    2    0    0  0.36932319154E+02 -0.12340268227E+02 -0.11699862861E+02  0.50528865615E+02  0.30000017522E+02 0.  0.
        -12    1    1    2    0    0 -0.36932319154E+02  0.12340268227E+02  0.11699862861E+02  0.40659134385E+02  0.00000000000E+00 0.  1.
         11    1    3    3    0    0  0.20136429188E+02  0.57636834453E+01 -0.45413381553E+01  0.21431742342E+02  0.51100000000E-03 0. -1.
        -11    1    3    3    0    0  0.44716090060E+01 -0.87275480567E+01 -0.92380928209E+01  0.13472480893E+02  0.51100000000E-03 0.  1.
        -12    1    3    3    0    0  0.12324280960E+02 -0.93764036157E+01  0.20795681153E+01  0.15624642379E+02  0.00000000000E+00 0.  1.
</event>
<event>
 7    1  0.9865694E-013  0.5052887E+02  0.7816164E-02  0.1300439E+00
        -11   -1    0    0    0    0  0.00000000000E+00  0.00000000000E+00  0.45593999997E+02  0.45594000000E+02  0.51100000000E-03 0.  1.
         11   -1    0    0    0    0 -0.00000000000E+00 -0.00000000000E+00 -0.45593999997E+02  0.45594000000E+02  0.51100000000E-03 0. -1.
    9900012    2    1    2    0    0 -0.30348545245E+02 -0.12233827346E+02 -0.24134300145E+02  0.50528866051E+02  0.30000018848E+02 0.  0.
        -12    1    1    2    0    0  0.30348545245E+02  0.12233827346E+02  0.24134300145E+02  0.40659133949E+02  0.00000000000E+00 0.  1.
         11    1    3    3    0    0 -0.22511558780E+02 -0.35429354995E+01 -0.21852450138E+01  0.22893186032E+02  0.51100000000E-03 0. -1.
        -11    1    3    3    0    0  0.74325249108E+00 -0.75992957301E+01 -0.13695596904E+02  0.15680277252E+02  0.51100000000E-03 0.  1.
         12    1    3    3    0    0 -0.85802389554E+01 -0.10915961167E+01 -0.82534582270E+01  0.11955402767E+02  0.00000000000E+00 0. -1.
</event>
<event>
 7    1  0.9865694E-013  0.5052886E+02  0.7816164E-02  0.1300439E+00
        -11   -1    0    0    0    0  0.00000000000E+00  0.00000000000E+00  0.45593999997E+02  0.45594000000E+02  0.51100000000E-03 0. -1.
         11   -1    0    0    0    0 -0.00000000000E+00 -0.00000000000E+00 -0.45593999997E+02  0.45594000000E+02  0.51100000000E-03 0.  1.
    9900012    2    1    2    0    0 -0.30864443840E+02 -0.22201712137E+02  0.14409557843E+02  0.50528864832E+02  0.30000015143E+02 0.  0.
        -12    1    1    2    0    0  0.30864443840E+02  0.22201712137E+02 -0.14409557843E+02  0.40659135168E+02  0.00000000000E+00 0.  1.
         11    1    3    3    0    0 -0.14327414058E+02 -0.12395182961E+02 -0.67552052222E+01  0.20113382412E+02  0.51100000000E-03 0.  1.
        -11    1    3    3    0    0 -0.86327541626E+01 -0.80257882265E+01  0.18405113139E+02  0.21856026881E+02  0.51100000000E-03 0. -1.
         12    1    3    3    0    0 -0.79042756196E+01 -0.17807409502E+01  0.27596499268E+01  0.85594555388E+01  0.00000000000E+00 0. -1.
</event>
<event>
 7    1  0.9865694E-013  0.5052886E+02  0.7816164E-02  0.1300439E+00
        -11   -1    0    0    0    0  0.00000000000E+00  0.00000000000E+00  0.45593999997E+02  0.45594000000E+02  0.51100000000E-03 0.  1.
         11   -1    0    0    0    0 -0.00000000000E+00 -0.00000000000E+00 -0.45593999997E+02  0.45594000000E+02  0.51100000000E-03 0. -1.
    9900012    2    1    2    0    0 -0.40367705835E+02 -0.48141871408E+01  0.66165372002E+00  0.50528857635E+02  0.29999993267E+02 0.  0.
        -12    1    1    2    0    0  0.40367705835E+02  0.48141871408E+01 -0.66165372002E+00  0.40659142365E+02  0.00000000000E+00 0.  1.
         11    1    3    3    0    0 -0.16469454466E+02  0.79690139464E+01  0.84358272138E+01  0.20147240375E+02  0.51100000000E-03 0. -1.
        -11    1    3    3    0    0 -0.15354534113E+02 -0.45078487324E+01 -0.91074803535E+01  0.18412729745E+02  0.51100000000E-03 0.  1.
         12    1    3    3    0    0 -0.85437172562E+01 -0.82753523548E+01  0.13333068597E+01  0.11968887514E+02  0.00000000000E+00 0. -1.
</event>
<event>
 7    1  0.9865694E-013  0.5052885E+02  0.7816164E-02  0.1300439E+00
        -11   -1    0    0    0    0  0.00000000000E+00  0.00000000000E+00  0.45593999997E+02  0.45594000000E+02  0.51100000000E-03 0. -1.
         11   -1    0    0    0    0 -0.00000000000E+00 -0.00000000000E+00 -0.45593999997E+02  0.45594000000E+02  0.51100000000E-03 0.  1.
    9900012    2    1    2    0    0 -0.34086028175E+02  0.11574768241E+02  0.18903273809E+02  0.50528851739E+02  0.29999975347E+02 0.  0.
        -12    1    1    2    0    0  0.34086028175E+02 -0.11574768241E+02 -0.18903273809E+02  0.40659148261E+02  0.00000000000E+00 0.  1.
         11    1    3    3    0    0 -0.20946547281E+02  0.18440900610E+02  0.20672654248E+02  0.34730149614E+02  0.51100000000E-03 0.  1.
        -11    1    3    3    0    0 -0.54859206486E+01 -0.44968767495E+01 -0.29834749066E+01  0.76953459079E+01  0.51100000000E-03 0. -1.
         12    1    3    3    0    0 -0.76535602445E+01 -0.23692556193E+01  0.12140944685E+01  0.81033562173E+01  0.00000000000E+00 0. -1.
</event>
<event>
 7    1  0.9865694E-013  0.5052881E+02  0.7816164E-02  0.1300439E+00
        -11   -1    0    0    0    0  0.00000000000E+00  0.00000000000E+00  0.45593999997E+02  0.45594000000E+02  0.51100000000E-03 0. -1.
         11   -1    0    0    0    0 -0.00000000000E+00 -0.00000000000E+00 -0.45593999997E+02  0.45594000000E+02  0.51100000000E-03 0.  1.
    9900012    2    1    2    0    0  0.27318828033E+02  0.18126205827E+02  0.24047699925E+02  0.50528811930E+02  0.29999854343E+02 0.  0.
        -12    1    1    2    0    0 -0.27318828033E+02 -0.18126205827E+02 -0.24047699925E+02  0.40659188070E+02  0.00000000000E+00 0.  1.
         11    1    3    3    0    0  0.38546194778E+01  0.10539124170E+02  0.54230325489E+01  0.12463567382E+02  0.51100000000E-03 0.  1.
        -11    1    3    3    0    0  0.27838406677E+02  0.69490871325E+01  0.15177463164E+02  0.32459545386E+02  0.51100000000E-03 0. -1.
        -12    1    3    3    0    0 -0.43741981216E+01  0.63799452422E+00  0.34472042121E+01  0.56056991625E+01  0.00000000000E+00 0.  1.
</event>
<event>
 7    1  0.9865694E-013  0.5052886E+02  0.7816164E-02  0.1300439E+00
        -11   -1    0    0    0    0  0.00000000000E+00  0.00000000000E+00  0.45593999997E+02  0.45594000000E+02  0.51100000000E-03 0. -1.
         11   -1    0    0    0    0 -0.00000000000E+00 -0.00000000000E+00 -0.45593999997E+02  0.45594000000E+02  0.51100000000E-03 0.  1.
    9900012    2    1    2    0    0 -0.37490146711E+02 -0.19633132394E+00  0.15735828130E+02  0.50528856707E+02  0.29999990446E+02 0.  0.
        -12    1    1    2    0    0  0.37490146711E+02  0.19633132394E+00 -0.15735828130E+02  0.40659143293E+02  0.00000000000E+00 0.  1.
         11    1    3    3    0    0 -0.39725745328E+01  0.83541190603E+01  0.33071660191E+01  0.98239503781E+01  0.51100000000E-03 0. -1.
        -11    1    3    3    0    0 -0.12699775873E+02 -0.89315913741E+01  0.12421783998E+02  0.19883620134E+02  0.51100000000E-03 0.  1.
         12    1    3    3    0    0 -0.20817796306E+02  0.38114098983E+00  0.68781131589E-02  0.20821286194E+02  0.00000000000E+00 0. -1.
</event>
<event>
 7    1  0.9865694E-013  0.5052885E+02  0.7816164E-02  0.1300439E+00
        -11   -1    0    0    0    0  0.00000000000E+00  0.00000000000E+00  0.45593999997E+02  0.45594000000E+02  0.51100000000E-03 0. -1.
         11   -1    0    0    0    0 -0.00000000000E+00 -0.00000000000E+00 -0.45593999997E+02  0.45594000000E+02  0.51100000000E-03 0.  1.
    9900012    2    1    2    0    0 -0.28710692735E+02 -0.27915588920E+02 -0.70414613341E+01  0.50528853922E+02  0.29999981982E+02 0.  0.
        -12    1    1    2    0    0  0.28710692735E+02  0.27915588920E+02  0.70414613341E+01  0.40659146078E+02  0.00000000000E+00 0.  1.
         11    1    3    3    0    0 -0.26184382950E+02 -0.30467351471E+02 -0.41238145438E+01  0.40384245230E+02  0.51100000000E-03 0. -1.
        -11    1    3    3    0    0  0.22099889142E+01 -0.15104778237E+01 -0.28423364761E+01  0.39044168786E+01  0.51100000000E-03 0.  1.
         12    1    3    3    0    0 -0.47362986988E+01  0.40622403751E+01 -0.75310314129E-01  0.62401918138E+01  0.00000000000E+00 0. -1.
</event>
<event>
 7    1  0.9865694E-013  0.5052886E+02  0.7816164E-02  0.1300439E+00
        -11   -1    0    0    0    0  0.00000000000E+00  0.00000000000E+00  0.45593999997E+02  0.45594000000E+02  0.51100000000E-03 0. -1.
         11   -1    0    0    0    0 -0.00000000000E+00 -0.00000000000E+00 -0.45593999997E+02  0.45594000000E+02  0.51100000000E-03 0.  1.
    9900012    2    1    2    0    0  0.22728370965E+02  0.17880325013E+02  0.28581126546E+02  0.50528860020E+02  0.30000000517E+02 0.  0.
        -12    1    1    2    0    0 -0.22728370965E+02 -0.17880325013E+02 -0.28581126546E+02  0.40659139980E+02  0.00000000000E+00 0.  1.
         11    1    3    3    0    0  0.97973564761E+01  0.12648050860E+02  0.30314118070E+02  0.34276918460E+02  0.51100000000E-03 0. -1.
        -11    1    3    3    0    0  0.36237357236E+01  0.28860101291E+01 -0.42952138508E+01  0.63173869080E+01  0.51100000000E-03 0.  1.
         12    1    3    3    0    0  0.93072787650E+01  0.23462640235E+01  0.25622223266E+01  0.99345546517E+01  0.00000000000E+00 0. -1.
</event>
<event>
 7    1  0.9865694E-013  0.5052887E+02  0.7816164E-02  0.1300439E+00
        -11   -1    0    0    0    0  0.00000000000E+00  0.00000000000E+00  0.45593999997E+02  0.45594000000E+02  0.51100000000E-03 0. -1.
         11   -1    0    0    0    0 -0.00000000000E+00 -0.00000000000E+00 -0.45593999997E+02  0.45594000000E+02  0.51100000000E-03 0.  1.
    9900012    2    1    2    0    0  0.25616527005E+02 -0.11096442621E+02  0.29560576539E+02  0.50528865972E+02  0.30000018608E+02 0.  0.
        -12    1    1    2    0    0 -0.25616527005E+02  0.11096442621E+02 -0.29560576539E+02  0.40659134028E+02  0.00000000000E+00 0.  1.
         11    1    3    3    0    0  0.54349636488E+01 -0.62674249731E+01  0.21305084361E+02  0.22863203309E+02  0.51100000000E-03 0. -1.
        -11    1    3    3    0    0  0.16086527323E+02 -0.10481648587E+02  0.76194761788E+01  0.20656663233E+02  0.51100000000E-03 0.  1.
         12    1    3    3    0    0  0.40950360334E+01  0.56526309397E+01  0.63601599868E+00  0.70089994298E+01  0.00000000000E+00 0. -1.
</event>
<event>
 7    1  0.9865694E-013  0.5052889E+02  0.7816164E-02  0.1300439E+00
        -11   -1    0    0    0    0  0.00000000000E+00  0.00000000000E+00  0.45593999997E+02  0.45594000000E+02  0.51100000000E-03 0.  1.
         11   -1    0    0    0    0 -0.00000000000E+00 -0.00000000000E+00 -0.45593999997E+02  0.45594000000E+02  0.51100000000E-03 0. -1.
    9900012    2    1    2    0    0 -0.17927028516E+02  0.82365432417E+01 -0.35551996080E+02  0.50528887599E+02  0.30000084346E+02 0.  0.
        -12    1    1    2    0    0  0.17927028516E+02 -0.82365432417E+01  0.35551996080E+02  0.40659112401E+02  0.00000000000E+00 0.  1.
         11    1    3    3    0    0 -0.79691052451E+01  0.14385888467E+02 -0.53935874715E+01  0.17307547818E+02  0.51100000000E-03 0. -1.
        -11    1    3    3    0    0 -0.26168717754E+01 -0.60341119619E+01 -0.14992898452E+02  0.16372096057E+02  0.51100000000E-03 0.  1.
         12    1    3    3    0    0 -0.73410514956E+01 -0.11523326353E+00 -0.15165510156E+02  0.16849243724E+02  0.00000000000E+00 0. -1.
</event>
<event>
 7    1  0.9865694E-013  0.5052884E+02  0.7816164E-02  0.1300439E+00
        -11   -1    0    0    0    0  0.00000000000E+00  0.00000000000E+00  0.45593999997E+02  0.45594000000E+02  0.51100000000E-03 0. -1.
         11   -1    0    0    0    0 -0.00000000000E+00 -0.00000000000E+00 -0.45593999997E+02  0.45594000000E+02  0.51100000000E-03 0.  1.
    9900012    2    1    2    0    0  0.38181892797E+01 -0.29603117337E+02  0.27608773685E+02  0.50528837320E+02  0.29999931518E+02 0.  0.
        -12    1    1    2    0    0 -0.38181892797E+01  0.29603117337E+02 -0.27608773685E+02  0.40659162680E+02  0.00000000000E+00 0.  1.
         11    1    3    3    0    0  0.38329671393E+01  0.36687590435E+01  0.49333952868E+01  0.72449858059E+01  0.51100000000E-03 0. -1.
        -11    1    3    3    0    0 -0.25638503442E+01 -0.86811458615E+01 -0.93287060948E+00  0.90997730681E+01  0.51100000000E-03 0.  1.
         12    1    3    3    0    0  0.25490724846E+01 -0.24590730519E+02  0.23608249008E+02  0.34184078446E+02  0.00000000000E+00 0. -1.
</event>
<event>
 7    1  0.9865694E-013  0.5052885E+02  0.7816164E-02  0.1300439E+00
        -11   -1    0    0    0    0  0.00000000000E+00  0.00000000000E+00  0.45593999997E+02  0.45594000000E+02  0.51100000000E-03 0.  1.
         11   -1    0    0    0    0 -0.00000000000E+00 -0.00000000000E+00 -0.45593999997E+02  0.45594000000E+02  0.51100000000E-03 0. -1.
    9900012    2    1    2    0    0 -0.76702176523E+01 -0.29712691274E+02 -0.26673768185E+02  0.50528853787E+02  0.29999981570E+02 0.  0.
        -12    1    1    2    0    0  0.76702176523E+01  0.29712691274E+02  0.26673768185E+02  0.40659146213E+02  0.00000000000E+00 0.  1.
         11    1    3    3    0    0 -0.69292487290E+01 -0.26778128942E+01 -0.14808794563E+02  0.16567605938E+02  0.51100000000E-03 0.  1.
        -11    1    3    3    0    0  0.60630606750E+00 -0.26207577041E+02 -0.15177141681E+02  0.30291093266E+02  0.51100000000E-03 0. -1.
        -12    1    3    3    0    0 -0.13472749908E+01 -0.82730133902E+00  0.33121680588E+01  0.36701545820E+01  0.00000000000E+00 0.  1.
</event>
<event>
 7    1  0.9865694E-013  0.5052887E+02  0.7816164E-02  0.1300439E+00
        -11   -1    0    0    0    0  0.00000000000E+00  0.00000000000E+00  0.45593999997E+02  0.45594000000E+02  0.51100000000E-03 0.  1.
         11   -1    0    0    0    0 -0.00000000000E+00 -0.00000000000E+00 -0.45593999997E+02  0.45594000000E+02  0.51100000000E-03 0. -1.
    9900012    2    1    2    0    0 -0.17710473884E+02  0.22492540106E+02 -0.28871953627E+02  0.50528868776E+02  0.30000027132E+02 0.  0.
        -12    1    1    2    0    0  0.17710473884E+02 -0.22492540106E+02  0.28871953627E+02  0.40659131224E+02  0.00000000000E+00 0.  1.
         11    1    3    3    0    0 -0.15218994348E+02  0.20213610678E+02 -0.25123971995E+02  0.35657002324E+02  0.51100000000E-03 0. -1.
        -11    1    3    3    0    0 -0.42815860664E+01  0.16739486600E+01  0.44863537545E+01  0.64235078915E+01  0.51100000000E-03 0.  1.
         12    1    3    3    0    0  0.17901065305E+01  0.60498076758E+00 -0.82343353866E+01  0.84483585612E+01  0.00000000000E+00 0. -1.
</event>
<event>
 7    1  0.9865694E-013  0.5052886E+02  0.7816164E-02  0.1300439E+00
        -11   -1    0    0    0    0  0.00000000000E+00  0.00000000000E+00  0.45593999997E+02  0.45594000000E+02  0.51100000000E-03 0.  1.
         11   -1    0    0    0    0 -0.00000000000E+00 -0.00000000000E+00 -0.45593999997E+02  0.45594000000E+02  0.51100000000E-03 0. -1.
    9900012    2    1    2    0    0  0.27714064009E+01 -0.54282279014E+01 -0.40199741083E+02  0.50528861609E+02  0.30000005346E+02 0.  0.
        -12    1    1    2    0    0 -0.27714064009E+01  0.54282279014E+01  0.40199741083E+02  0.40659138391E+02  0.00000000000E+00 0.  1.
         11    1    3    3    0    0  0.12820459166E+01  0.10193114601E+02 -0.23682269891E+02  0.25814591502E+02  0.51100000000E-03 0. -1.
        -11    1    3    3    0    0 -0.40794954883E+01 -0.71052815996E+01 -0.78742503357E+01  0.11363587843E+02  0.51100000000E-03 0.  1.
         12    1    3    3    0    0  0.55688559727E+01 -0.85160609025E+01 -0.86432208566E+01  0.13350682264E+02  0.00000000000E+00 0. -1.
</event>
<event>
 7    1  0.9865694E-013  0.5052886E+02  0.7816164E-02  0.1300439E+00
        -11   -1    0    0    0    0  0.00000000000E+00  0.00000000000E+00  0.45593999997E+02  0.45594000000E+02  0.51100000000E-03 0. -1.
         11   -1    0    0    0    0 -0.00000000000E+00 -0.00000000000E+00 -0.45593999997E+02  0.45594000000E+02  0.51100000000E-03 0.  1.
    9900012    2    1    2    0    0  0.12188049207E+02  0.25168889031E+02  0.29515146673E+02  0.50528863245E+02  0.30000010320E+02 0.  0.
        -12    1    1    2    0    0 -0.12188049207E+02 -0.25168889031E+02 -0.29515146673E+02  0.40659136755E+02  0.00000000000E+00 0.  1.
         11    1    3    3    0    0  0.94982277752E+01  0.20759737714E+02  0.42143599563E+01  0.23215164676E+02  0.51100000000E-03 0. -1.
        -11    1    3    3    0    0  0.48425440798E+01 -0.51165754162E+00  0.10685973220E+02  0.11743170378E+02  0.51100000000E-03 0.  1.
        -12    1    3    3    0    0 -0.21527226477E+01  0.49208088584E+01  0.14614813497E+02  0.15570528192E+02  0.00000000000E+00 0.  1.
</event>
<event>
 7    1  0.9865694E-013  0.5052886E+02  0.7816164E-02  0.1300439E+00
        -11   -1    0    0    0    0  0.00000000000E+00  0.00000000000E+00  0.45593999997E+02  0.45594000000E+02  0.51100000000E-03 0.  1.
         11   -1    0    0    0    0 -0.00000000000E+00 -0.00000000000E+00 -0.45593999997E+02  0.45594000000E+02  0.51100000000E-03 0. -1.
    9900012    2    1    2    0    0  0.38991666967E+02 -0.11482352839E+02  0.98559885005E+00  0.50528856813E+02  0.29999990769E+02 0.  0.
        -12    1    1    2    0    0 -0.38991666967E+02  0.11482352839E+02 -0.98559885005E+00  0.40659143187E+02  0.00000000000E+00 0.  1.
         11    1    3    3    0    0  0.16812559701E+02 -0.11255105435E+02  0.69463505590E+01  0.21391384911E+02  0.51100000000E-03 0. -1.
        -11    1    3    3    0    0  0.18507436884E+02  0.69396554883E+01 -0.12434354524E+01  0.19804801698E+02  0.51100000000E-03 0.  1.
         12    1    3    3    0    0  0.36716703818E+01 -0.71669028930E+01 -0.47173162566E+01  0.93326702039E+01  0.00000000000E+00 0. -1.
</event>
<event>
 7    1  0.9865694E-013  0.5052884E+02  0.7816164E-02  0.1300439E+00
        -11   -1    0    0    0    0  0.00000000000E+00  0.00000000000E+00  0.45593999997E+02  0.45594000000E+02  0.51100000000E-03 0.  1.
         11   -1    0    0    0    0 -0.00000000000E+00 -0.00000000000E+00 -0.45593999997E+02  0.45594000000E+02  0.51100000000E-03 0. -1.
    9900012    2    1    2    0    0  0.17950039821E+02 -0.19888033121E+02 -0.30584789213E+02  0.50528842087E+02  0.29999946007E+02 0.  0.
        -12    1    1    2    0    0 -0.17950039821E+02  0.19888033121E+02  0.30584789213E+02  0.40659157913E+02  0.00000000000E+00 0.  1.
         11    1    3    3    0    0  0.17689111784E+02  0.19227315099E+01 -0.12251094603E+02  0.21603029681E+02  0.51100000000E-03 0. -1.
        -11    1    3    3    0    0 -0.14475775365E+01 -0.50274563736E+01 -0.63760495833E+01  0.82477152510E+01  0.51100000000E-03 0.  1.
         12    1    3    3    0    0  0.17085055735E+01 -0.16783308257E+02 -0.11957645027E+02  0.20678097155E+02  0.00000000000E+00 0. -1.
</event>
<event>
 7    1  0.9865694E-013  0.5052886E+02  0.7816164E-02  0.1300439E+00
        -11   -1    0    0    0    0  0.00000000000E+00  0.00000000000E+00  0.45593999997E+02  0.45594000000E+02  0.51100000000E-03 0.  1.
         11   -1    0    0    0    0 -0.00000000000E+00 -0.00000000000E+00 -0.45593999997E+02  0.45594000000E+02  0.51100000000E-03 0. -1.
    9900012    2    1    2    0    0  0.38668174500E+02  0.55595625573E+01 -0.11270714466E+02  0.50528862533E+02  0.30000008156E+02 0.  0.
        -12    1    1    2    0    0 -0.38668174500E+02 -0.55595625573E+01  0.11270714466E+02  0.40659137467E+02  0.00000000000E+00 0.  1.
         11    1    3    3    0    0  0.22825273641E+01  0.20362854647E+01 -0.50992395052E+01  0.59463125930E+01  0.51100000000E-03 0. -1.
        -11    1    3    3    0    0  0.35590642056E+02  0.33586805663E+00  0.21288061391E+01  0.35655832975E+02  0.51100000000E-03 0.  1.
        -12    1    3    3    0    0  0.79500508022E+00  0.31874090360E+01 -0.83002811001E+01  0.89267169654E+01  0.00000000000E+00 0.  1.
</event>
<event>
 7    1  0.9865694E-013  0.5052885E+02  0.7816164E-02  0.1300439E+00
        -11   -1    0    0    0    0  0.00000000000E+00  0.00000000000E+00  0.45593999997E+02  0.45594000000E+02  0.51100000000E-03 0. -1.
         11   -1    0    0    0    0 -0.00000000000E+00 -0.00000000000E+00 -0.45593999997E+02  0.45594000000E+02  0.51100000000E-03 0.  1.
    9900012    2    1    2    0    0 -0.67223903217E+01  0.91995228571E+01  0.39030044213E+02  0.50528854612E+02  0.29999984077E+02 0.  0.
        -12    1    1    2    0    0  0.67223903217E+01 -0.91995228571E+01 -0.39030044213E+02  0.40659145388E+02  0.00000000000E+00 0.  1.
         11    1    3    3    0    0 -0.14107752405E+02  0.32181461343E+00  0.28229040415E+02  0.31559641404E+02  0.51100000000E-03 0. -1.
        -11    1    3    3    0    0  0.39746314978E+01  0.79489328606E+01  0.12262247593E+02  0.15144171997E+02  0.51100000000E-03 0.  1.
         12    1    3    3    0    0  0.34107305853E+01  0.92877538304E+00 -0.14612437945E+01  0.38250412108E+01  0.00000000000E+00 0. -1.
</event>
<event>
 7    1  0.9865694E-013  0.5052886E+02  0.7816164E-02  0.1300439E+00
        -11   -1    0    0    0    0  0.00000000000E+00  0.00000000000E+00  0.45593999997E+02  0.45594000000E+02  0.51100000000E-03 0.  1.
         11   -1    0    0    0    0 -0.00000000000E+00 -0.00000000000E+00 -0.45593999997E+02  0.45594000000E+02  0.51100000000E-03 0. -1.
    9900012    2    1    2    0    0  0.38286122682E+02  0.12639270568E+02  0.52524014770E+01  0.50528855004E+02  0.29999985269E+02 0.  0.
        -12    1    1    2    0    0 -0.38286122682E+02 -0.12639270568E+02 -0.52524014770E+01  0.40659144996E+02  0.00000000000E+00 0.  1.
         11    1    3    3    0    0  0.14048916629E+02 -0.30529578648E+01 -0.38445155595E+01  0.14881965943E+02  0.51100000000E-03 0. -1.
        -11    1    3    3    0    0  0.28682991456E+01  0.79609145087E+01  0.97539338879E+01  0.12912882186E+02  0.51100000000E-03 0.  1.
         12    1    3    3    0    0  0.21368906908E+02  0.77313139246E+01 -0.65701685148E+00  0.22734006875E+02  0.00000000000E+00 0. -1.
</event>
<event>
 7    1  0.9865694E-013  0.5052887E+02  0.7816164E-02  0.1300439E+00
        -11   -1    0    0    0    0  0.00000000000E+00  0.00000000000E+00  0.45593999997E+02  0.45594000000E+02  0.51100000000E-03 0.  1.
         11   -1    0    0    0    0 -0.00000000000E+00 -0.00000000000E+00 -0.45593999997E+02  0.45594000000E+02  0.51100000000E-03 0. -1.
    9900012    2    1    2    0    0  0.25378142656E+02  0.31299177864E+02 -0.54292344741E+01  0.50528865152E+02  0.30000016116E+02 0.  0.
        -12    1    1    2    0    0 -0.25378142656E+02 -0.31299177864E+02  0.54292344741E+01  0.40659134848E+02  0.00000000000E+00 0.  1.
         11    1    3    3    0    0  0.14005939220E+02  0.23656995841E+02  0.34621418052E+01  0.27709316336E+02  0.51100000000E-03 0. -1.
        -11    1    3    3    0    0  0.68888832455E+01 -0.42599643760E+01 -0.50017458380E+01  0.95195310044E+01  0.51100000000E-03 0.  1.
        -12    1    3    3    0    0  0.44833201901E+01  0.11902146399E+02 -0.38896304413E+01  0.13300017812E+02  0.00000000000E+00 0.  1.
</event>
<event>
 7    1  0.9865694E-013  0.5052885E+02  0.7816164E-02  0.1300439E+00
        -11   -1    0    0    0    0  0.00000000000E+00  0.00000000000E+00  0.45593999997E+02  0.45594000000E+02  0.51100000000E-03 0. -1.
         11   -1    0    0    0    0 -0.00000000000E+00 -0.00000000000E+00 -0.45593999997E+02  0.45594000000E+02  0.51100000000E-03 0.  1.
    9900012    2    1    2    0    0 -0.39774408481E+02  0.83239712674E+01  0.13689906998E+01  0.50528853388E+02  0.29999980358E+02 0.  0.
        -12    1    1    2    0    0  0.39774408481E+02 -0.83239712674E+01 -0.13689906998E+01  0.40659146612E+02  0.00000000000E+00 0.  1.
         11    1    3    3    0    0 -0.11379185096E+02 -0.57359979747E+01  0.48556315569E+01  0.13636886899E+02  0.51100000000E-03 0. -1.
        -11    1    3    3    0    0 -0.18224137401E+02  0.17489678033E+02  0.95176627884E+00  0.25276745855E+02  0.51100000000E-03 0.  1.
         12    1    3    3    0    0 -0.10171085984E+02 -0.34297087906E+01 -0.44384071359E+01  0.11615220634E+02  0.00000000000E+00 0. -1.
</event>
<event>
 7    1  0.9865694E-013  0.5052885E+02  0.7816164E-02  0.1300439E+00
        -11   -1    0    0    0    0  0.00000000000E+00  0.00000000000E+00  0.45593999997E+02  0.45594000000E+02  0.51100000000E-03 0.  1.
         11   -1    0    0    0    0 -0.00000000000E+00 -0.00000000000E+00 -0.45593999997E+02  0.45594000000E+02  0.51100000000E-03 0. -1.
    9900012    2    1    2    0    0  0.34553683441E+02 -0.18490719227E+02 -0.10830624175E+02  0.50528853958E+02  0.29999982091E+02 0.  0.
        -12    1    1    2    0    0 -0.34553683441E+02  0.18490719227E+02  0.10830624175E+02  0.40659146042E+02  0.00000000000E+00 0.  1.
         11    1    3    3    0    0  0.90081013978E+01 -0.97240289857E+01 -0.13365196064E+02  0.18823684459E+02  0.51100000000E-03 0. -1.
        -11    1    3    3    0    0  0.14036408210E+02  0.35785870459E+01 -0.77345128526E+00  0.14506042460E+02  0.51100000000E-03 0.  1.
         12    1    3    3    0    0  0.11509173833E+02 -0.12345277287E+02  0.33080231741E+01  0.17199127040E+02  0.00000000000E+00 0. -1.
</event>
<event>
 7    1  0.9865694E-013  0.5052886E+02  0.7816164E-02  0.1300439E+00
        -11   -1    0    0    0    0  0.00000000000E+00  0.00000000000E+00  0.45593999997E+02  0.45594000000E+02  0.51100000000E-03 0.  1.
         11   -1    0    0    0    0 -0.00000000000E+00 -0.00000000000E+00 -0.45593999997E+02  0.45594000000E+02  0.51100000000E-03 0. -1.
    9900012    2    1    2    0    0  0.19005670557E+02 -0.31060965520E+01 -0.35809249040E+02  0.50528859995E+02  0.30000000441E+02 0.  0.
        -12    1    1    2    0    0 -0.19005670557E+02  0.31060965520E+01  0.35809249040E+02  0.40659140005E+02  0.00000000000E+00 0.  1.
         11    1    3    3    0    0  0.16694770820E+02 -0.10320637910E+02 -0.12124320061E+02  0.23070112197E+02  0.51100000000E-03 0. -1.
        -11    1    3    3    0    0 -0.32594015904E+01  0.63076956175E+01 -0.75442144173E+01  0.10359821145E+02  0.51100000000E-03 0.  1.
        -12    1    3    3    0    0  0.55703013281E+01  0.90684574070E+00 -0.16140714562E+02  0.17098926652E+02  0.00000000000E+00 0.  1.
</event>
<event>
 7    1  0.9865694E-013  0.5052888E+02  0.7816164E-02  0.1300439E+00
        -11   -1    0    0    0    0  0.00000000000E+00  0.00000000000E+00  0.45593999997E+02  0.45594000000E+02  0.51100000000E-03 0.  1.
         11   -1    0    0    0    0 -0.00000000000E+00 -0.00000000000E+00 -0.45593999997E+02  0.45594000000E+02  0.51100000000E-03 0. -1.
    9900012    2    1    2    0    0 -0.12022024684E+02 -0.23590476761E+02 -0.30856508298E+02  0.50528883240E+02  0.30000071098E+02 0.  0.
        -12    1    1    2    0    0  0.12022024684E+02  0.23590476761E+02  0.30856508298E+02  0.40659116760E+02  0.00000000000E+00 0.  1.
         11    1    3    3    0    0  0.24140628374E+01 -0.41787701761E+01 -0.17795508013E+02  0.18438273381E+02  0.51100000000E-03 0. -1.
        -11    1    3    3    0    0 -0.96966171645E+01 -0.15384604696E+02 -0.63668061144E+00  0.18196587827E+02  0.51100000000E-03 0.  1.
         12    1    3    3    0    0 -0.47394703574E+01 -0.40271018892E+01 -0.12424319674E+02  0.13894022033E+02  0.00000000000E+00 0. -1.
</event>
<event>
 7    1  0.9865694E-013  0.5052886E+02  0.7816164E-02  0.1300439E+00
        -11   -1    0    0    0    0  0.00000000000E+00  0.00000000000E+00  0.45593999997E+02  0.45594000000E+02  0.51100000000E-03 0.  1.
         11   -1    0    0    0    0 -0.00000000000E+00 -0.00000000000E+00 -0.45593999997E+02  0.45594000000E+02  0.51100000000E-03 0. -1.
    9900012    2    1    2    0    0 -0.23441430709E+02 -0.20917908998E+02 -0.25809024040E+02  0.50528864342E+02  0.30000013654E+02 0.  0.
        -12    1    1    2    0    0  0.23441430709E+02  0.20917908998E+02  0.25809024040E+02  0.40659135658E+02  0.00000000000E+00 0.  1.
         11    1    3    3    0    0 -0.23674208847E+02 -0.24673451189E+02 -0.20607545073E+02  0.39923906025E+02  0.51100000000E-03 0. -1.
        -11    1    3    3    0    0 -0.75061662199E+00  0.46075692811E+01 -0.69824762670E+01  0.83992913435E+01  0.51100000000E-03 0.  1.
        -12    1    3    3    0    0  0.98339476004E+00 -0.85202709059E+00  0.17809972996E+01  0.22056669736E+01  0.00000000000E+00 0.  1.
</event>
<event>
 7    1  0.9865694E-013  0.5052886E+02  0.7816164E-02  0.1300439E+00
        -11   -1    0    0    0    0  0.00000000000E+00  0.00000000000E+00  0.45593999997E+02  0.45594000000E+02  0.51100000000E-03 0.  1.
         11   -1    0    0    0    0 -0.00000000000E+00 -0.00000000000E+00 -0.45593999997E+02  0.45594000000E+02  0.51100000000E-03 0. -1.
    9900012    2    1    2    0    0  0.25936428509E+02  0.31190908892E+02  0.27558291134E+01  0.50528859387E+02  0.29999998594E+02 0.  0.
        -12    1    1    2    0    0 -0.25936428509E+02 -0.31190908892E+02 -0.27558291134E+01  0.40659140613E+02  0.00000000000E+00 0.  1.
         11    1    3    3    0    0  0.26301819160E+01  0.13034752416E+02 -0.18546983899E+01  0.13426188359E+02  0.51100000000E-03 0. -1.
        -11    1    3    3    0    0  0.23292030025E+02  0.22121395790E+02  0.63969735865E+01  0.32753566000E+02  0.51100000000E-03 0.  1.
        -12    1    3    3    0    0  0.14216567279E-01 -0.39652393151E+01 -0.17864460833E+01  0.43491050281E+01  0.00000000000E+00 0.  1.
</event>
<event>
 7    1  0.9865694E-013  0.5052886E+02  0.7816164E-02  0.1300439E+00
        -11   -1    0    0    0    0  0.00000000000E+00  0.00000000000E+00  0.45593999997E+02  0.45594000000E+02  0.51100000000E-03 0. -1.
         11   -1    0    0    0    0 -0.00000000000E+00 -0.00000000000E+00 -0.45593999997E+02  0.45594000000E+02  0.51100000000E-03 0.  1.
    9900012    2    1    2    0    0 -0.94006204782E+00  0.40431514926E+02  0.41922273768E+01  0.50528857286E+02  0.29999992207E+02 0.  0.
        -12    1    1    2    0    0  0.94006204782E+00 -0.40431514926E+02 -0.41922273768E+01  0.40659142714E+02  0.00000000000E+00 0.  1.
         11    1    3    3    0    0  0.76231787376E+01  0.30553477205E+02  0.23659330682E+01  0.31578876847E+02  0.51100000000E-03 0. -1.
        -11    1    3    3    0    0  0.41557714835E+00 -0.75664478724E+00  0.46659008665E+01  0.47450866017E+01  0.51100000000E-03 0.  1.
         12    1    3    3    0    0 -0.89788179338E+01  0.10634682508E+02 -0.28396065579E+01  0.14204893837E+02  0.00000000000E+00 0. -1.
</event>
<event>
 7    1  0.9865694E-013  0.5052885E+02  0.7816164E-02  0.1300439E+00
        -11   -1    0    0    0    0  0.00000000000E+00  0.00000000000E+00  0.45593999997E+02  0.45594000000E+02  0.51100000000E-03 0. -1.
         11   -1    0    0    0    0 -0.00000000000E+00 -0.00000000000E+00 -0.45593999997E+02  0.45594000000E+02  0.51100000000E-03 0.  1.
    9900012    2    1    2    0    0  0.79797846448E+01  0.39864681918E+02  0.54438811241E+00  0.50528853602E+02  0.29999981010E+02 0.  0.
        -12    1    1    2    0    0 -0.79797846448E+01 -0.39864681918E+02 -0.54438811241E+00  0.40659146398E+02  0.00000000000E+00 0.  1.
         11    1    3    3    0    0  0.54224556135E+01  0.54138607932E+01 -0.32413033326E+01  0.83197933342E+01  0.51100000000E-03 0. -1.
        -11    1    3    3    0    0 -0.80475900976E+01  0.28047848333E+02 -0.24895568904E+00  0.29180601119E+02  0.51100000000E-03 0.  1.
        -12    1    3    3    0    0  0.10604919129E+02  0.64029727911E+01  0.40346471340E+01  0.13028459149E+02  0.00000000000E+00 0.  1.
</event>
<event>
 7    1  0.1408721E-012  0.5052886E+02  0.7816164E-02  0.1300439E+00
        -11   -1    0    0    0    0  0.00000000000E+00  0.00000000000E+00  0.45593999997E+02  0.45594000000E+02  0.51100000000E-03 0.  1.
         11   -1    0    0    0    0 -0.00000000000E+00 -0.00000000000E+00 -0.45593999997E+02  0.45594000000E+02  0.51100000000E-03 0. -1.
    9900012    2    1    2    0    0  0.37407387238E+02  0.12871830330E+02 -0.93898284025E+01  0.50528861870E+02  0.30000006141E+02 0.  0.
        -12    1    1    2    0    0 -0.37407387238E+02 -0.12871830330E+02  0.93898284025E+01  0.40659138130E+02  0.00000000000E+00 0.  1.
         11    1    3    3    0    0  0.22551597546E+02  0.90386255176E+01 -0.10280646334E+02  0.26381110523E+02  0.51100000000E-03 0. -1.
        -11    1    3    3    0    0  0.10887567669E+02 -0.25798046391E+01  0.80227648080E+01  0.13768052772E+02  0.51100000000E-03 0.  1.
        -12    1    3    3    0    0  0.39682220234E+01  0.64130094515E+01 -0.71319468769E+01  0.10379698575E+02  0.00000000000E+00 0.  1.
</event>
<event>
 7    1  0.9865694E-013  0.5052885E+02  0.7816164E-02  0.1300439E+00
        -11   -1    0    0    0    0  0.00000000000E+00  0.00000000000E+00  0.45593999997E+02  0.45594000000E+02  0.51100000000E-03 0.  1.
         11   -1    0    0    0    0 -0.00000000000E+00 -0.00000000000E+00 -0.45593999997E+02  0.45594000000E+02  0.51100000000E-03 0. -1.
    9900012    2    1    2    0    0  0.60778637586E+01  0.28294237275E+02 -0.28559805969E+02  0.50528845953E+02  0.29999957758E+02 0.  0.
        -12    1    1    2    0    0 -0.60778637586E+01 -0.28294237275E+02  0.28559805969E+02  0.40659154047E+02  0.00000000000E+00 0.  1.
         11    1    3    3    0    0 -0.11773152764E+02  0.84052963913E+01 -0.10912499289E+02  0.18120120706E+02  0.51100000000E-03 0. -1.
        -11    1    3    3    0    0  0.83909880538E+01  0.12285376559E+02 -0.79168917065E+01  0.16852784111E+02  0.51100000000E-03 0.  1.
         12    1    3    3    0    0  0.94600284686E+01  0.76035643247E+01 -0.97304149736E+01  0.15555941136E+02  0.00000000000E+00 0. -1.
</event>
<event>
 7    1  0.9865694E-013  0.5052885E+02  0.7816164E-02  0.1300439E+00
        -11   -1    0    0    0    0  0.00000000000E+00  0.00000000000E+00  0.45593999997E+02  0.45594000000E+02  0.51100000000E-03 0.  1.
         11   -1    0    0    0    0 -0.00000000000E+00 -0.00000000000E+00 -0.45593999997E+02  0.45594000000E+02  0.51100000000E-03 0. -1.
    9900012    2    1    2    0    0  0.63718166373E+01 -0.10201672936E+02 -0.38839311082E+02  0.50528852649E+02  0.29999978113E+02 0.  0.
        -12    1    1    2    0    0 -0.63718166373E+01  0.10201672936E+02  0.38839311082E+02  0.40659147351E+02  0.00000000000E+00 0.  1.
         11    1    3    3    0    0 -0.37611075524E+00 -0.81034050137E+01 -0.17704529951E+02  0.19474522155E+02  0.51100000000E-03 0. -1.
        -11    1    3    3    0    0 -0.33325740004E+01  0.54938574460E+01  0.15063191282E-01  0.64256319740E+01  0.51100000000E-03 0.  1.
        -12    1    3    3    0    0  0.10080501393E+02 -0.75921253684E+01 -0.21149844323E+02  0.24628698520E+02  0.00000000000E+00 0.  1.
</event>
<event>
 7    1  0.9865694E-013  0.5052889E+02  0.7816164E-02  0.1300439E+00
        -11   -1    0    0    0    0  0.00000000000E+00  0.00000000000E+00  0.45593999997E+02  0.45594000000E+02  0.51100000000E-03 0.  1.
         11   -1    0    0    0    0 -0.00000000000E+00 -0.00000000000E+00 -0.45593999997E+02  0.45594000000E+02  0.51100000000E-03 0. -1.
    9900012    2    1    2    0    0  0.22839896457E+02  0.28433625445E+00 -0.33636613605E+02  0.50528886728E+02  0.30000081699E+02 0.  0.
        -12    1    1    2    0    0 -0.22839896457E+02 -0.28433625445E+00  0.33636613605E+02  0.40659113272E+02  0.00000000000E+00 0.  1.
         11    1    3    3    0    0  0.26144411274E+02 -0.64182578903E+00 -0.32362705338E+02  0.41608735601E+02  0.51100000000E-03 0. -1.
        -11    1    3    3    0    0 -0.82898167567E+00 -0.13114304655E+01  0.30716265513E+01  0.34412135092E+01  0.51100000000E-03 0.  1.
         12    1    3    3    0    0 -0.24755331421E+01  0.22375925090E+01 -0.43455348177E+01  0.54789376183E+01  0.00000000000E+00 0. -1.
</event>
<event>
 7    1  0.9865694E-013  0.5052886E+02  0.7816164E-02  0.1300439E+00
        -11   -1    0    0    0    0  0.00000000000E+00  0.00000000000E+00  0.45593999997E+02  0.45594000000E+02  0.51100000000E-03 0. -1.
         11   -1    0    0    0    0 -0.00000000000E+00 -0.00000000000E+00 -0.45593999997E+02  0.45594000000E+02  0.51100000000E-03 0.  1.
    9900012    2    1    2    0    0 -0.36377362068E+02 -0.16816190444E+02 -0.68606868956E+01  0.50528858878E+02  0.29999997047E+02 0.  0.
        -12    1    1    2    0    0  0.36377362068E+02  0.16816190444E+02  0.68606868956E+01  0.40659141122E+02  0.00000000000E+00 0.  1.
         11    1    3    3    0    0 -0.39963272665E+02 -0.17501201210E+02 -0.32371026450E+01  0.43747388947E+02  0.51100000000E-03 0. -1.
        -11    1    3    3    0    0  0.43444573895E+01 -0.24475960042E+00 -0.20705055791E+01  0.48188391637E+01  0.51100000000E-03 0.  1.
         12    1    3    3    0    0 -0.75854679229E+00  0.92977036614E+00 -0.15530786715E+01  0.19626307676E+01  0.00000000000E+00 0. -1.
</event>
<event>
 7    1  0.9865694E-013  0.5052886E+02  0.7816164E-02  0.1300439E+00
        -11   -1    0    0    0    0  0.00000000000E+00  0.00000000000E+00  0.45593999997E+02  0.45594000000E+02  0.51100000000E-03 0. -1.
         11   -1    0    0    0    0 -0.00000000000E+00 -0.00000000000E+00 -0.45593999997E+02  0.45594000000E+02  0.51100000000E-03 0.  1.
    9900012    2    1    2    0    0  0.11858862633E+02  0.34248476007E+02  0.18427551890E+02  0.50528863260E+02  0.30000010366E+02 0.  0.
        -12    1    1    2    0    0 -0.11858862633E+02 -0.34248476007E+02 -0.18427551890E+02  0.40659136740E+02  0.00000000000E+00 0.  1.
         11    1    3    3    0    0 -0.17131108742E+01  0.25991667433E+02  0.86444325172E+01  0.27444994783E+02  0.51100000000E-03 0. -1.
        -11    1    3    3    0    0 -0.13619894580E+01 -0.22411283889E+01  0.16580617585E+01  0.31027150684E+01  0.51100000000E-03 0.  1.
         12    1    3    3    0    0  0.14933962965E+02  0.10497936963E+02  0.81250576139E+01  0.19981153409E+02  0.00000000000E+00 0. -1.
</event>
<event>
 7    1  0.9865694E-013  0.5052886E+02  0.7816164E-02  0.1300439E+00
        -11   -1    0    0    0    0  0.00000000000E+00  0.00000000000E+00  0.45593999997E+02  0.45594000000E+02  0.51100000000E-03 0.  1.
         11   -1    0    0    0    0 -0.00000000000E+00 -0.00000000000E+00 -0.45593999997E+02  0.45594000000E+02  0.51100000000E-03 0. -1.
    9900012    2    1    2    0    0 -0.36550420153E+02  0.40328263957E+01 -0.17348461743E+02  0.50528855556E+02  0.29999986947E+02 0.  0.
        -12    1    1    2    0    0  0.36550420153E+02 -0.40328263957E+01  0.17348461743E+02  0.40659144444E+02  0.00000000000E+00 0.  1.
         11    1    3    3    0    0 -0.35406425994E+02  0.85685799832E+01 -0.10175415712E+02  0.37822938143E+02  0.51100000000E-03 0. -1.
        -11    1    3    3    0    0  0.75695917457E+00  0.25300988314E+01 -0.28405902389E+00  0.26561395066E+01  0.51100000000E-03 0.  1.
         12    1    3    3    0    0 -0.19009533340E+01 -0.70658524189E+01 -0.68889870066E+01  0.10049777906E+02  0.00000000000E+00 0. -1.
</event>
<event>
 7    1  0.9865694E-013  0.5052887E+02  0.7816164E-02  0.1300439E+00
        -11   -1    0    0    0    0  0.00000000000E+00  0.00000000000E+00  0.45593999997E+02  0.45594000000E+02  0.51100000000E-03 0. -1.
         11   -1    0    0    0    0 -0.00000000000E+00 -0.00000000000E+00 -0.45593999997E+02  0.45594000000E+02  0.51100000000E-03 0.  1.
    9900012    2    1    2    0    0  0.31268178013E+02  0.41721945735E+01  0.25652654794E+02  0.50528869884E+02  0.30000030499E+02 0.  0.
        -12    1    1    2    0    0 -0.31268178013E+02 -0.41721945735E+01 -0.25652654794E+02  0.40659130116E+02  0.00000000000E+00 0.  1.
         11    1    3    3    0    0  0.55017036474E+01  0.29125511036E+01  0.14843641894E+02  0.16096130028E+02  0.51100000000E-03 0. -1.
        -11    1    3    3    0    0  0.14948099150E+02 -0.30664939314E+01 -0.38205628893E+01  0.15730408586E+02  0.51100000000E-03 0.  1.
        -12    1    3    3    0    0  0.10818375216E+02  0.43261374013E+01  0.14629575789E+02  0.18702331269E+02  0.00000000000E+00 0.  1.
</event>
<event>
 7    1  0.9865694E-013  0.5052887E+02  0.7816164E-02  0.1300439E+00
        -11   -1    0    0    0    0  0.00000000000E+00  0.00000000000E+00  0.45593999997E+02  0.45594000000E+02  0.51100000000E-03 0.  1.
         11   -1    0    0    0    0 -0.00000000000E+00 -0.00000000000E+00 -0.45593999997E+02  0.45594000000E+02  0.51100000000E-03 0. -1.
    9900012    2    1    2    0    0  0.13225559780E+02  0.18401809149E+02 -0.33758302322E+02  0.50528868344E+02  0.30000025817E+02 0.  0.
        -12    1    1    2    0    0 -0.13225559780E+02 -0.18401809149E+02  0.33758302322E+02  0.40659131656E+02  0.00000000000E+00 0.  1.
         11    1    3    3    0    0 -0.44183679611E+01 -0.28494211039E+00 -0.17022199926E+02  0.17588588859E+02  0.51100000000E-03 0. -1.
        -11    1    3    3    0    0  0.17581028500E+02  0.19728153349E+02 -0.17458201633E+02  0.31671460373E+02  0.51100000000E-03 0.  1.
         12    1    3    3    0    0  0.62899241137E-01 -0.10414020904E+01  0.72209923755E+00  0.12688191114E+01  0.00000000000E+00 0. -1.
</event>
<event>
 7    1  0.9865694E-013  0.5052887E+02  0.7816164E-02  0.1300439E+00
        -11   -1    0    0    0    0  0.00000000000E+00  0.00000000000E+00  0.45593999997E+02  0.45594000000E+02  0.51100000000E-03 0.  1.
         11   -1    0    0    0    0 -0.00000000000E+00 -0.00000000000E+00 -0.45593999997E+02  0.45594000000E+02  0.51100000000E-03 0. -1.
    9900012    2    1    2    0    0 -0.15829825434E+02 -0.32115945097E+02 -0.19265183042E+02  0.50528873344E+02  0.30000041017E+02 0.  0.
        -12    1    1    2    0    0  0.15829825434E+02  0.32115945097E+02  0.19265183042E+02  0.40659126656E+02  0.00000000000E+00 0.  1.
         11    1    3    3    0    0 -0.61273503489E+01 -0.24883117568E+02 -0.10325031245E+02  0.27628250626E+02  0.51100000000E-03 0. -1.
        -11    1    3    3    0    0  0.22082284953E+01  0.38047881870E+01 -0.75268806504E-01  0.43998127107E+01  0.51100000000E-03 0.  1.
        -12    1    3    3    0    0 -0.11910703581E+02 -0.11037615717E+02 -0.88648829907E+01  0.18500810008E+02  0.00000000000E+00 0.  1.
</event>
<event>
 7    1  0.9865694E-013  0.5052886E+02  0.7816164E-02  0.1300439E+00
        -11   -1    0    0    0    0  0.00000000000E+00  0.00000000000E+00  0.45593999997E+02  0.45594000000E+02  0.51100000000E-03 0. -1.
         11   -1    0    0    0    0 -0.00000000000E+00 -0.00000000000E+00 -0.45593999997E+02  0.45594000000E+02  0.51100000000E-03 0.  1.
    9900012    2    1    2    0    0  0.24750865152E+02  0.21929985227E+02  0.23656632746E+02  0.50528857723E+02  0.29999993535E+02 0.  0.
        -12    1    1    2    0    0 -0.24750865152E+02 -0.21929985227E+02 -0.23656632746E+02  0.40659142277E+02  0.00000000000E+00 0.  1.
         11    1    3    3    0    0  0.12500850489E+02  0.53341727851E+01 -0.88736091168E+00  0.13620281638E+02  0.51100000000E-03 0. -1.
        -11    1    3    3    0    0  0.14712607448E+00  0.33348241624E+01  0.17183451962E+02  0.17504677085E+02  0.51100000000E-03 0.  1.
         12    1    3    3    0    0  0.12102888589E+02  0.13260988279E+02  0.73605416957E+01  0.19403899000E+02  0.00000000000E+00 0. -1.
</event>
<event>
 7    1  0.9865694E-013  0.5052887E+02  0.7816164E-02  0.1300439E+00
        -11   -1    0    0    0    0  0.00000000000E+00  0.00000000000E+00  0.45593999997E+02  0.45594000000E+02  0.51100000000E-03 0.  1.
         11   -1    0    0    0    0 -0.00000000000E+00 -0.00000000000E+00 -0.45593999997E+02  0.45594000000E+02  0.51100000000E-03 0. -1.
    9900012    2    1    2    0    0 -0.19008157652E+02  0.34561830793E+02  0.98658233521E+01  0.50528872174E+02  0.30000037462E+02 0.  0.
        -12    1    1    2    0    0  0.19008157652E+02 -0.34561830793E+02 -0.98658233521E+01  0.40659127826E+02  0.00000000000E+00 0.  1.
         11    1    3    3    0    0 -0.14732235729E+02  0.35178795292E+02  0.16045425047E+02  0.41376830147E+02  0.51100000000E-03 0. -1.
        -11    1    3    3    0    0 -0.24110058354E+01 -0.24069530077E+01 -0.13313262718E+01  0.36577044471E+01  0.51100000000E-03 0.  1.
         12    1    3    3    0    0 -0.18649160877E+01  0.17899885087E+01 -0.48482754228E+01  0.54943375807E+01  0.00000000000E+00 0. -1.
</event>
<event>
 7    1  0.9865694E-013  0.5052888E+02  0.7816164E-02  0.1300439E+00
        -11   -1    0    0    0    0  0.00000000000E+00  0.00000000000E+00  0.45593999997E+02  0.45594000000E+02  0.51100000000E-03 0. -1.
         11   -1    0    0    0    0 -0.00000000000E+00 -0.00000000000E+00 -0.45593999997E+02  0.45594000000E+02  0.51100000000E-03 0.  1.
    9900012    2    1    2    0    0  0.15869942113E+01  0.35438921654E+02  0.19867771912E+02  0.50528879505E+02  0.30000059745E+02 0.  0.
        -12    1    1    2    0    0 -0.15869942113E+01 -0.35438921654E+02 -0.19867771912E+02  0.40659120495E+02  0.00000000000E+00 0.  1.
         11    1    3    3    0    0 -0.88192002063E+00  0.17104526841E+02  0.18907383484E+02  0.25511404740E+02  0.51100000000E-03 0. -1.
        -11    1    3    3    0    0  0.76700355470E+01  0.71564652702E+01 -0.46470548373E+01  0.11473428406E+02  0.51100000000E-03 0.  1.
        -12    1    3    3    0    0 -0.52011213151E+01  0.11177929543E+02  0.56074432657E+01  0.13544046359E+02  0.00000000000E+00 0.  1.
</event>
<event>
 7    1  0.9865694E-013  0.5052885E+02  0.7816164E-02  0.1300439E+00
        -11   -1    0    0    0    0  0.00000000000E+00  0.00000000000E+00  0.45593999997E+02  0.45594000000E+02  0.51100000000E-03 0.  1.
         11   -1    0    0    0    0 -0.00000000000E+00 -0.00000000000E+00 -0.45593999997E+02  0.45594000000E+02  0.51100000000E-03 0. -1.
    9900012    2    1    2    0    0  0.23224045293E+00  0.59420549449E+01 -0.40221936138E+02  0.50528854666E+02  0.29999984243E+02 0.  0.
        -12    1    1    2    0    0 -0.23224045293E+00 -0.59420549449E+01  0.40221936138E+02  0.40659145334E+02  0.00000000000E+00 0.  1.
         11    1    3    3    0    0  0.29605606388E+01  0.54333817156E+01 -0.40373613140E+02  0.40845014315E+02  0.51100000000E-03 0. -1.
        -11    1    3    3    0    0 -0.42983726506E+01  0.11339199193E+01 -0.35014234674E+01  0.56587762269E+01  0.51100000000E-03 0.  1.
         12    1    3    3    0    0  0.15700524647E+01 -0.62524669006E+00  0.36531004694E+01  0.40250641243E+01  0.00000000000E+00 0. -1.
</event>
<event>
 7    1  0.9865694E-013  0.5052886E+02  0.7816164E-02  0.1300439E+00
        -11   -1    0    0    0    0  0.00000000000E+00  0.00000000000E+00  0.45593999997E+02  0.45594000000E+02  0.51100000000E-03 0.  1.
         11   -1    0    0    0    0 -0.00000000000E+00 -0.00000000000E+00 -0.45593999997E+02  0.45594000000E+02  0.51100000000E-03 0. -1.
    9900012    2    1    2    0    0 -0.18209507403E+02  0.15231356998E+02 -0.33008869965E+02  0.50528857212E+02  0.29999991983E+02 0.  0.
        -12    1    1    2    0    0  0.18209507403E+02 -0.15231356998E+02  0.33008869965E+02  0.40659142788E+02  0.00000000000E+00 0.  1.
         11    1    3    3    0    0  0.14570869929E+01 -0.12250945436E+00 -0.10903076901E+02  0.11000690762E+02  0.51100000000E-03 0. -1.
        -11    1    3    3    0    0 -0.20043718954E+02  0.81643002902E+01 -0.23761734325E+02  0.32140729412E+02  0.51100000000E-03 0.  1.
        -12    1    3    3    0    0  0.37712455811E+00  0.71895661626E+01  0.16559412611E+01  0.73874370385E+01  0.00000000000E+00 0.  1.
</event>
<event>
 7    1  0.9865694E-013  0.5052886E+02  0.7816164E-02  0.1300439E+00
        -11   -1    0    0    0    0  0.00000000000E+00  0.00000000000E+00  0.45593999997E+02  0.45594000000E+02  0.51100000000E-03 0. -1.
         11   -1    0    0    0    0 -0.00000000000E+00 -0.00000000000E+00 -0.45593999997E+02  0.45594000000E+02  0.51100000000E-03 0.  1.
    9900012    2    1    2    0    0 -0.23131041597E+01  0.20771914199E+02  0.34876107111E+02  0.50528859360E+02  0.29999998510E+02 0.  0.
        -12    1    1    2    0    0  0.23131041597E+01 -0.20771914199E+02 -0.34876107111E+02  0.40659140640E+02  0.00000000000E+00 0.  1.
         11    1    3    3    0    0  0.78459614408E+01  0.67273668469E+01  0.20440459703E+01  0.10535402214E+02  0.51100000000E-03 0. -1.
        -11    1    3    3    0    0  0.55712519994E+00  0.39830479450E+01  0.20247172371E+02  0.20642748090E+02  0.51100000000E-03 0.  1.
         12    1    3    3    0    0 -0.10716190800E+02  0.10061499407E+02  0.12584888770E+02  0.19350709055E+02  0.00000000000E+00 0. -1.
</event>
<event>
 7    1  0.9865694E-013  0.5052885E+02  0.7816164E-02  0.1300439E+00
        -11   -1    0    0    0    0  0.00000000000E+00  0.00000000000E+00  0.45593999997E+02  0.45594000000E+02  0.51100000000E-03 0.  1.
         11   -1    0    0    0    0 -0.00000000000E+00 -0.00000000000E+00 -0.45593999997E+02  0.45594000000E+02  0.51100000000E-03 0. -1.
    9900012    2    1    2    0    0  0.18219549681E+02  0.30180804553E+02  0.20256692254E+02  0.50528849306E+02  0.29999967951E+02 0.  0.
        -12    1    1    2    0    0 -0.18219549681E+02 -0.30180804553E+02 -0.20256692254E+02  0.40659150694E+02  0.00000000000E+00 0.  1.
         11    1    3    3    0    0  0.13652621011E+02  0.22009534402E+02 -0.23084084744E+01  0.26002738606E+02  0.51100000000E-03 0. -1.
        -11    1    3    3    0    0  0.45683186489E+01  0.72251721236E+01  0.18942194686E+02  0.20781707997E+02  0.51100000000E-03 0.  1.
         12    1    3    3    0    0 -0.13899785203E-02  0.94609802725E+00  0.36229060425E+01  0.37444027030E+01  0.00000000000E+00 0. -1.
</event>
<event>
 7    1  0.9865694E-013  0.5052886E+02  0.7816164E-02  0.1300439E+00
        -11   -1    0    0    0    0  0.00000000000E+00  0.00000000000E+00  0.45593999997E+02  0.45594000000E+02  0.51100000000E-03 0. -1.
         11   -1    0    0    0    0 -0.00000000000E+00 -0.00000000000E+00 -0.45593999997E+02  0.45594000000E+02  0.51100000000E-03 0.  1.
    9900012    2    1    2    0    0  0.11248223251E+02  0.39024993118E+02  0.19216940553E+01  0.50528861762E+02  0.30000005812E+02 0.  0.
        -12    1    1    2    0    0 -0.11248223251E+02 -0.39024993118E+02 -0.19216940553E+01  0.40659138238E+02  0.00000000000E+00 0.  1.
         11    1    3    3    0    0  0.10400388215E+02  0.15904282085E+02  0.82600574989E+01  0.20720589128E+02  0.51100000000E-03 0. -1.
        -11    1    3    3    0    0  0.62256192749E+01  0.76995793703E+01 -0.88550334924E+01  0.13283579196E+02  0.51100000000E-03 0.  1.
         12    1    3    3    0    0 -0.53777842391E+01  0.15421131663E+02  0.25166700489E+01  0.16524693438E+02  0.00000000000E+00 0. -1.
</event>
<event>
 7    1  0.9865694E-013  0.5052886E+02  0.7816164E-02  0.1300439E+00
        -11   -1    0    0    0    0  0.00000000000E+00  0.00000000000E+00  0.45593999997E+02  0.45594000000E+02  0.51100000000E-03 0.  1.
         11   -1    0    0    0    0 -0.00000000000E+00 -0.00000000000E+00 -0.45593999997E+02  0.45594000000E+02  0.51100000000E-03 0. -1.
    9900012    2    1    2    0    0 -0.10663275573E+02  0.13407432119E+02 -0.36874122981E+02  0.50528860466E+02  0.30000001873E+02 0.  0.
        -12    1    1    2    0    0  0.10663275573E+02 -0.13407432119E+02  0.36874122981E+02  0.40659139534E+02  0.00000000000E+00 0.  1.
         11    1    3    3    0    0 -0.16973962012E+02  0.86386650588E+00 -0.15945218713E+02  0.23304755991E+02  0.51100000000E-03 0. -1.
        -11    1    3    3    0    0  0.32596232650E+01 -0.61072148120E+00 -0.16980000854E+01  0.37257655735E+01  0.51100000000E-03 0.  1.
         12    1    3    3    0    0  0.30510631740E+01  0.13154287094E+02 -0.19230904184E+02  0.23498338902E+02  0.00000000000E+00 0. -1.
</event>
<event>
 7    1  0.9865694E-013  0.5052886E+02  0.7816164E-02  0.1300439E+00
        -11   -1    0    0    0    0  0.00000000000E+00  0.00000000000E+00  0.45593999997E+02  0.45594000000E+02  0.51100000000E-03 0.  1.
         11   -1    0    0    0    0 -0.00000000000E+00 -0.00000000000E+00 -0.45593999997E+02  0.45594000000E+02  0.51100000000E-03 0. -1.
    9900012    2    1    2    0    0  0.80094050078E+01  0.35204652785E+02 -0.18698865395E+02  0.50528859412E+02  0.29999998669E+02 0.  0.
        -12    1    1    2    0    0 -0.80094050078E+01 -0.35204652785E+02  0.18698865395E+02  0.40659140588E+02  0.00000000000E+00 0.  1.
         11    1    3    3    0    0  0.12572056140E+02  0.68021268795E+01  0.19654657223E+01  0.14428741506E+02  0.51100000000E-03 0.  1.
        -11    1    3    3    0    0 -0.15503597763E+01  0.18799787005E+02 -0.16987911989E+02  0.25385522663E+02  0.51100000000E-03 0. -1.
         12    1    3    3    0    0 -0.30122913562E+01  0.96027389008E+01 -0.36764191280E+01  0.10714595243E+02  0.00000000000E+00 0. -1.
</event>
<event>
 7    1  0.9865694E-013  0.5052885E+02  0.7816164E-02  0.1300439E+00
        -11   -1    0    0    0    0  0.00000000000E+00  0.00000000000E+00  0.45593999997E+02  0.45594000000E+02  0.51100000000E-03 0.  1.
         11   -1    0    0    0    0 -0.00000000000E+00 -0.00000000000E+00 -0.45593999997E+02  0.45594000000E+02  0.51100000000E-03 0. -1.
    9900012    2    1    2    0    0  0.18614384561E+02 -0.31898934787E+02 -0.17003800978E+02  0.50528848498E+02  0.29999965495E+02 0.  0.
        -12    1    1    2    0    0 -0.18614384561E+02  0.31898934787E+02  0.17003800978E+02  0.40659151502E+02  0.00000000000E+00 0.  1.
         11    1    3    3    0    0  0.14907171041E+01 -0.20171169823E+02 -0.18785401093E+02  0.27604159542E+02  0.51100000000E-03 0. -1.
        -11    1    3    3    0    0  0.18037789618E+02 -0.11927926622E+02  0.90717028379E+00  0.21643942478E+02  0.51100000000E-03 0.  1.
         12    1    3    3    0    0 -0.91412216057E+00  0.20016165792E+00  0.87442983080E+00  0.12807464787E+01  0.00000000000E+00 0. -1.
</event>
<event>
 7    1  0.9865694E-013  0.5052886E+02  0.7816164E-02  0.1300439E+00
        -11   -1    0    0    0    0  0.00000000000E+00  0.00000000000E+00  0.45593999997E+02  0.45594000000E+02  0.51100000000E-03 0.  1.
         11   -1    0    0    0    0 -0.00000000000E+00 -0.00000000000E+00 -0.45593999997E+02  0.45594000000E+02  0.51100000000E-03 0. -1.
    9900012    2    1    2    0    0  0.38686512128E+01 -0.21963402642E+02 -0.33997177738E+02  0.50528860659E+02  0.30000002458E+02 0.  0.
        -12    1    1    2    0    0 -0.38686512128E+01  0.21963402642E+02  0.33997177738E+02  0.40659139341E+02  0.00000000000E+00 0.  1.
         11    1    3    3    0    0 -0.81984474032E+01 -0.19904460060E+02 -0.27446396312E+02  0.34881323668E+02  0.51100000000E-03 0. -1.
        -11    1    3    3    0    0  0.69566941181E+00 -0.27165570135E+01 -0.15910498976E+01  0.32241398816E+01  0.51100000000E-03 0.  1.
         12    1    3    3    0    0  0.11371429204E+02  0.65761443145E+00 -0.49597315286E+01  0.12423397109E+02  0.00000000000E+00 0. -1.
</event>
<event>
 7    1  0.9865694E-013  0.5052885E+02  0.7816164E-02  0.1300439E+00
        -11   -1    0    0    0    0  0.00000000000E+00  0.00000000000E+00  0.45593999997E+02  0.45594000000E+02  0.51100000000E-03 0. -1.
         11   -1    0    0    0    0 -0.00000000000E+00 -0.00000000000E+00 -0.45593999997E+02  0.45594000000E+02  0.51100000000E-03 0.  1.
    9900012    2    1    2    0    0 -0.14923235504E+02 -0.35752402197E+02  0.12338115068E+02  0.50528852146E+02  0.29999976584E+02 0.  0.
        -12    1    1    2    0    0  0.14923235504E+02  0.35752402197E+02 -0.12338115068E+02  0.40659147854E+02  0.00000000000E+00 0.  1.
         11    1    3    3    0    0 -0.14355731704E+02 -0.12738563307E+02  0.10936788069E+02  0.22090073821E+02  0.51100000000E-03 0. -1.
        -11    1    3    3    0    0  0.63836910683E+01 -0.76443342550E+01  0.50708749751E+01  0.11175917463E+02  0.51100000000E-03 0.  1.
         12    1    3    3    0    0 -0.69511948679E+01 -0.15369504635E+02 -0.36695479758E+01  0.17262860863E+02  0.00000000000E+00 0. -1.
</event>
<event>
 7    1  0.9865694E-013  0.5052886E+02  0.7816164E-02  0.1300439E+00
        -11   -1    0    0    0    0  0.00000000000E+00  0.00000000000E+00  0.45593999997E+02  0.45594000000E+02  0.51100000000E-03 0.  1.
         11   -1    0    0    0    0 -0.00000000000E+00 -0.00000000000E+00 -0.45593999997E+02  0.45594000000E+02  0.51100000000E-03 0. -1.
    9900012    2    1    2    0    0  0.31188375139E+02  0.16842479146E+02 -0.19919379531E+02  0.50528861685E+02  0.30000005578E+02 0.  0.
        -12    1    1    2    0    0 -0.31188375139E+02 -0.16842479146E+02  0.19919379531E+02  0.40659138315E+02  0.00000000000E+00 0.  1.
         11    1    3    3    0    0  0.15593341656E+00 -0.35834821437E+01 -0.28246527572E+01  0.45655583409E+01  0.51100000000E-03 0. -1.
        -11    1    3    3    0    0  0.10177121045E+02  0.16692366903E+02 -0.14071284014E+01  0.19600737644E+02  0.51100000000E-03 0.  1.
        -12    1    3    3    0    0  0.20855320677E+02  0.37335943867E+01 -0.15687598373E+02  0.26362565700E+02  0.00000000000E+00 0.  1.
</event>
<event>
 7    1  0.9865694E-013  0.5052883E+02  0.7816164E-02  0.1300439E+00
        -11   -1    0    0    0    0  0.00000000000E+00  0.00000000000E+00  0.45593999997E+02  0.45594000000E+02  0.51100000000E-03 0.  1.
         11   -1    0    0    0    0 -0.00000000000E+00 -0.00000000000E+00 -0.45593999997E+02  0.45594000000E+02  0.51100000000E-03 0. -1.
    9900012    2    1    2    0    0 -0.20514166093E+02  0.12106338209E+02 -0.32951081903E+02  0.50528828416E+02  0.29999904453E+02 0.  0.
        -12    1    1    2    0    0  0.20514166093E+02 -0.12106338209E+02  0.32951081903E+02  0.40659171584E+02  0.00000000000E+00 0.  1.
         11    1    3    3    0    0 -0.11192159331E+02  0.13989266127E+02 -0.43629771962E+01  0.18439077188E+02  0.51100000000E-03 0. -1.
        -11    1    3    3    0    0 -0.91283502014E+01 -0.55806972898E+01 -0.18901250888E+02  0.21719305814E+02  0.51100000000E-03 0.  1.
        -12    1    3    3    0    0 -0.19365656068E+00  0.36977693714E+01 -0.96868538189E+01  0.10370445415E+02  0.00000000000E+00 0.  1.
</event>
<event>
 7    1  0.9865694E-013  0.5052886E+02  0.7816164E-02  0.1300439E+00
        -11   -1    0    0    0    0  0.00000000000E+00  0.00000000000E+00  0.45593999997E+02  0.45594000000E+02  0.51100000000E-03 0.  1.
         11   -1    0    0    0    0 -0.00000000000E+00 -0.00000000000E+00 -0.45593999997E+02  0.45594000000E+02  0.51100000000E-03 0. -1.
    9900012    2    1    2    0    0 -0.16709609350E+02 -0.33762790561E+02 -0.15298003343E+02  0.50528856165E+02  0.29999988799E+02 0.  0.
        -12    1    1    2    0    0  0.16709609350E+02  0.33762790561E+02  0.15298003343E+02  0.40659143835E+02  0.00000000000E+00 0.  1.
         11    1    3    3    0    0  0.32010238426E-01 -0.14937450590E+02 -0.79735156706E+01  0.16932377482E+02  0.51100000000E-03 0. -1.
        -11    1    3    3    0    0 -0.18719832455E+02 -0.92965852221E+01 -0.10459309690E+02  0.23372115510E+02  0.51100000000E-03 0.  1.
        -12    1    3    3    0    0  0.19782128665E+01 -0.95287547486E+01  0.31348220178E+01  0.10224363173E+02  0.00000000000E+00 0.  1.
</event>
<event>
 7    1  0.9865694E-013  0.5052889E+02  0.7816164E-02  0.1300439E+00
        -11   -1    0    0    0    0  0.00000000000E+00  0.00000000000E+00  0.45593999997E+02  0.45594000000E+02  0.51100000000E-03 0.  1.
         11   -1    0    0    0    0 -0.00000000000E+00 -0.00000000000E+00 -0.45593999997E+02  0.45594000000E+02  0.51100000000E-03 0. -1.
    9900012    2    1    2    0    0  0.28016657363E+02 -0.37613999725E+01 -0.29224681084E+02  0.50528890270E+02  0.30000092465E+02 0.  0.
        -12    1    1    2    0    0 -0.28016657363E+02  0.37613999725E+01  0.29224681084E+02  0.40659109730E+02  0.00000000000E+00 0.  1.
         11    1    3    3    0    0  0.15824473853E+02 -0.13180906409E+02 -0.21933034219E+02  0.30086679060E+02  0.51100000000E-03 0. -1.
        -11    1    3    3    0    0  0.12254613817E+02  0.86346127947E+01 -0.97353323720E+01  0.17874808938E+02  0.51100000000E-03 0.  1.
        -12    1    3    3    0    0 -0.62430306775E-01  0.78489364208E+00  0.24436855071E+01  0.25674022728E+01  0.00000000000E+00 0.  1.
</event>
<event>
 7    1  0.9865694E-013  0.5052887E+02  0.7816164E-02  0.1300439E+00
        -11   -1    0    0    0    0  0.00000000000E+00  0.00000000000E+00  0.45593999997E+02  0.45594000000E+02  0.51100000000E-03 0. -1.
         11   -1    0    0    0    0 -0.00000000000E+00 -0.00000000000E+00 -0.45593999997E+02  0.45594000000E+02  0.51100000000E-03 0.  1.
    9900012    2    1    2    0    0 -0.15560756141E+02 -0.37283754666E+02 -0.45770865452E+01  0.50528865541E+02  0.30000017299E+02 0.  0.
        -12    1    1    2    0    0  0.15560756141E+02  0.37283754666E+02  0.45770865452E+01  0.40659134459E+02  0.00000000000E+00 0.  1.
         11    1    3    3    0    0 -0.10945463398E+02 -0.36131153233E+02 -0.78594595442E+00  0.37760841016E+02  0.51100000000E-03 0. -1.
        -11    1    3    3    0    0 -0.33312509743E+01 -0.23459704140E+01 -0.75730918935E+01  0.85995657638E+01  0.51100000000E-03 0.  1.
         12    1    3    3    0    0 -0.12840417688E+01  0.11933689807E+01  0.37819513028E+01  0.41684587613E+01  0.00000000000E+00 0. -1.
</event>
<event>
 7    1  0.9865694E-013  0.5052886E+02  0.7816164E-02  0.1300439E+00
        -11   -1    0    0    0    0  0.00000000000E+00  0.00000000000E+00  0.45593999997E+02  0.45594000000E+02  0.51100000000E-03 0. -1.
         11   -1    0    0    0    0 -0.00000000000E+00 -0.00000000000E+00 -0.45593999997E+02  0.45594000000E+02  0.51100000000E-03 0.  1.
    9900012    2    1    2    0    0 -0.21368026245E+02  0.28027492465E+02  0.20273952608E+02  0.50528855471E+02  0.29999986689E+02 0.  0.
        -12    1    1    2    0    0  0.21368026245E+02 -0.28027492465E+02 -0.20273952608E+02  0.40659144529E+02  0.00000000000E+00 0.  1.
         11    1    3    3    0    0 -0.16972395315E+02  0.45592762742E+01  0.11090378356E+02  0.20780897363E+02  0.51100000000E-03 0. -1.
        -11    1    3    3    0    0 -0.47823512506E+01  0.18133005828E+02 -0.41705575517E+00  0.18757684282E+02  0.51100000000E-03 0.  1.
         12    1    3    3    0    0  0.38672032079E+00  0.53352103628E+01  0.96006300078E+01  0.10990273826E+02  0.00000000000E+00 0. -1.
</event>
<event>
 7    1  0.9865694E-013  0.5052886E+02  0.7816164E-02  0.1300439E+00
        -11   -1    0    0    0    0  0.00000000000E+00  0.00000000000E+00  0.45593999997E+02  0.45594000000E+02  0.51100000000E-03 0. -1.
         11   -1    0    0    0    0 -0.00000000000E+00 -0.00000000000E+00 -0.45593999997E+02  0.45594000000E+02  0.51100000000E-03 0.  1.
    9900012    2    1    2    0    0  0.23509667878E+02  0.30163357527E+01  0.33035779032E+02  0.50528862511E+02  0.30000008088E+02 0.  0.
        -12    1    1    2    0    0 -0.23509667878E+02 -0.30163357527E+01 -0.33035779032E+02  0.40659137489E+02  0.00000000000E+00 0.  1.
         11    1    3    3    0    0  0.54228170237E+01 -0.10609987501E+02  0.28504274804E+01  0.12251682184E+02  0.51100000000E-03 0. -1.
        -11    1    3    3    0    0  0.82124886566E+01  0.90442762856E+01  0.19585708198E+02  0.23083411129E+02  0.51100000000E-03 0.  1.
         12    1    3    3    0    0  0.98743621980E+01  0.45820469681E+01  0.10599643353E+02  0.15193769198E+02  0.00000000000E+00 0. -1.
</event>
<event>
 7    1  0.9865694E-013  0.5052887E+02  0.7816164E-02  0.1300439E+00
        -11   -1    0    0    0    0  0.00000000000E+00  0.00000000000E+00  0.45593999997E+02  0.45594000000E+02  0.51100000000E-03 0.  1.
         11   -1    0    0    0    0 -0.00000000000E+00 -0.00000000000E+00 -0.45593999997E+02  0.45594000000E+02  0.51100000000E-03 0. -1.
    9900012    2    1    2    0    0 -0.10592324727E+02  0.34127767304E+02 -0.19397506582E+02  0.50528866882E+02  0.30000021375E+02 0.  0.
        -12    1    1    2    0    0  0.10592324727E+02 -0.34127767304E+02  0.19397506582E+02  0.40659133118E+02  0.00000000000E+00 0.  1.
         11    1    3    3    0    0 -0.84782924875E+01  0.30681677602E+01 -0.96708886440E+01  0.13221996231E+02  0.51100000000E-03 0. -1.
        -11    1    3    3    0    0 -0.64931318864E+01  0.30550727970E+02 -0.10239065295E+02  0.32868620287E+02  0.51100000000E-03 0.  1.
        -12    1    3    3    0    0  0.43790996474E+01  0.50887157398E+00  0.51244735628E+00  0.44382503640E+01  0.00000000000E+00 0.  1.
</event>
<event>
 7    1  0.9865694E-013  0.5052886E+02  0.7816164E-02  0.1300439E+00
        -11   -1    0    0    0    0  0.00000000000E+00  0.00000000000E+00  0.45593999997E+02  0.45594000000E+02  0.51100000000E-03 0. -1.
         11   -1    0    0    0    0 -0.00000000000E+00 -0.00000000000E+00 -0.45593999997E+02  0.45594000000E+02  0.51100000000E-03 0.  1.
    9900012    2    1    2    0    0 -0.70578862269E+01 -0.37992397218E+02  0.12646330754E+02  0.50528859750E+02  0.29999999696E+02 0.  0.
        -12    1    1    2    0    0  0.70578862269E+01  0.37992397218E+02 -0.12646330754E+02  0.40659140250E+02  0.00000000000E+00 0.  1.
         11    1    3    3    0    0 -0.11022827105E+01 -0.61727930349E+01  0.24906641501E+01  0.67469851930E+01  0.51100000000E-03 0. -1.
        -11    1    3    3    0    0 -0.41616548776E+01 -0.35007633031E+02  0.25548547150E+01  0.35346584341E+02  0.51100000000E-03 0.  1.
        -12    1    3    3    0    0 -0.17939486387E+01  0.31880288480E+01  0.76008118888E+01  0.84352902157E+01  0.00000000000E+00 0.  1.
</event>
<event>
 7    1  0.9865694E-013  0.5052886E+02  0.7816164E-02  0.1300439E+00
        -11   -1    0    0    0    0  0.00000000000E+00  0.00000000000E+00  0.45593999997E+02  0.45594000000E+02  0.51100000000E-03 0.  1.
         11   -1    0    0    0    0 -0.00000000000E+00 -0.00000000000E+00 -0.45593999997E+02  0.45594000000E+02  0.51100000000E-03 0. -1.
    9900012    2    1    2    0    0  0.23347642420E+02  0.20641159443E+02 -0.26115047514E+02  0.50528861097E+02  0.30000003789E+02 0.  0.
        -12    1    1    2    0    0 -0.23347642420E+02 -0.20641159443E+02  0.26115047514E+02  0.40659138903E+02  0.00000000000E+00 0.  1.
         11    1    3    3    0    0  0.46709198126E+00  0.56219760113E+01 -0.21082260560E+02  0.21823989089E+02  0.51100000000E-03 0. -1.
        -11    1    3    3    0    0  0.16390149015E+02  0.80179110912E+01 -0.80559425726E+00  0.18263977260E+02  0.51100000000E-03 0.  1.
         12    1    3    3    0    0  0.64904014241E+01  0.70012723401E+01 -0.42271926969E+01  0.10440894747E+02  0.00000000000E+00 0. -1.
</event>
<event>
 7    1  0.9865694E-013  0.5052884E+02  0.7816164E-02  0.1300439E+00
        -11   -1    0    0    0    0  0.00000000000E+00  0.00000000000E+00  0.45593999997E+02  0.45594000000E+02  0.51100000000E-03 0. -1.
         11   -1    0    0    0    0 -0.00000000000E+00 -0.00000000000E+00 -0.45593999997E+02  0.45594000000E+02  0.51100000000E-03 0.  1.
    9900012    2    1    2    0    0 -0.33374760902E+02  0.23046190994E+02 -0.28575115539E+01  0.50528844120E+02  0.29999952186E+02 0.  0.
        -12    1    1    2    0    0  0.33374760902E+02 -0.23046190994E+02  0.28575115539E+01  0.40659155880E+02  0.00000000000E+00 0.  1.
         11    1    3    3    0    0 -0.15032258791E+02  0.23251412445E+02  0.55958621541E+01  0.28247312413E+02  0.51100000000E-03 0. -1.
        -11    1    3    3    0    0 -0.75670133458E+01  0.33507323401E+01 -0.70050441696E+01  0.10842404819E+02  0.51100000000E-03 0.  1.
         12    1    3    3    0    0 -0.10775488765E+02 -0.35559537904E+01 -0.14483295384E+01  0.11439126887E+02  0.00000000000E+00 0. -1.
</event>
<event>
 7    1  0.9865694E-013  0.5052886E+02  0.7816164E-02  0.1300439E+00
        -11   -1    0    0    0    0  0.00000000000E+00  0.00000000000E+00  0.45593999997E+02  0.45594000000E+02  0.51100000000E-03 0.  1.
         11   -1    0    0    0    0 -0.00000000000E+00 -0.00000000000E+00 -0.45593999997E+02  0.45594000000E+02  0.51100000000E-03 0. -1.
    9900012    2    1    2    0    0  0.20532642969E+01  0.14776272219E+01 -0.40580369480E+02  0.50528860024E+02  0.30000000529E+02 0.  0.
        -12    1    1    2    0    0 -0.20532642969E+01 -0.14776272219E+01  0.40580369480E+02  0.40659139976E+02  0.00000000000E+00 0.  1.
         11    1    3    3    0    0 -0.47715149582E+01  0.11046306771E+01 -0.32198879502E+02  0.32569240172E+02  0.51100000000E-03 0. -1.
        -11    1    3    3    0    0  0.31812851393E+01 -0.68906817474E+01 -0.27486249454E+01  0.80719891869E+01  0.51100000000E-03 0.  1.
         12    1    3    3    0    0  0.36434941157E+01  0.72636782921E+01 -0.56328650321E+01  0.98876306652E+01  0.00000000000E+00 0. -1.
</event>
<event>
 7    1  0.9865694E-013  0.5052884E+02  0.7816164E-02  0.1300439E+00
        -11   -1    0    0    0    0  0.00000000000E+00  0.00000000000E+00  0.45593999997E+02  0.45594000000E+02  0.51100000000E-03 0. -1.
         11   -1    0    0    0    0 -0.00000000000E+00 -0.00000000000E+00 -0.45593999997E+02  0.45594000000E+02  0.51100000000E-03 0.  1.
    9900012    2    1    2    0    0 -0.91332080621E+01 -0.34237119533E+02  0.19939203019E+02  0.50528835468E+02  0.29999925887E+02 0.  0.
        -12    1    1    2    0    0  0.91332080621E+01  0.34237119533E+02 -0.19939203019E+02  0.40659164532E+02  0.00000000000E+00 0.  1.
         11    1    3    3    0    0  0.11674237603E+01 -0.13577036449E+02  0.12583107991E+02  0.18548137479E+02  0.51100000000E-03 0. -1.
        -11    1    3    3    0    0  0.60989785721E+00 -0.17283608030E+01 -0.60660653675E+01  0.63369042730E+01  0.51100000000E-03 0.  1.
         12    1    3    3    0    0 -0.10910529680E+02 -0.18931722282E+02  0.13422160395E+02  0.25643793715E+02  0.00000000000E+00 0. -1.
</event>
<event>
 7    1  0.9865694E-013  0.5052886E+02  0.7816164E-02  0.1300439E+00
        -11   -1    0    0    0    0  0.00000000000E+00  0.00000000000E+00  0.45593999997E+02  0.45594000000E+02  0.51100000000E-03 0.  1.
         11   -1    0    0    0    0 -0.00000000000E+00 -0.00000000000E+00 -0.45593999997E+02  0.45594000000E+02  0.51100000000E-03 0. -1.
    9900012    2    1    2    0    0 -0.12267870324E+02 -0.38152198400E+02 -0.68610986391E+01  0.50528861303E+02  0.30000004416E+02 0.  0.
        -12    1    1    2    0    0  0.12267870324E+02  0.38152198400E+02  0.68610986391E+01  0.40659138697E+02  0.00000000000E+00 0.  1.
         11    1    3    3    0    0 -0.75941734110E+01 -0.95207802774E+01 -0.12268871058E+01  0.12240178884E+02  0.51100000000E-03 0. -1.
        -11    1    3    3    0    0  0.67992498226E+01 -0.89038311264E+00  0.23091435739E+01  0.72356564694E+01  0.51100000000E-03 0.  1.
        -12    1    3    3    0    0 -0.11472946736E+02 -0.27741035010E+02 -0.79433551072E+01  0.31053025949E+02  0.00000000000E+00 0.  1.
</event>
<event>
 7    1  0.9865694E-013  0.5052886E+02  0.7816164E-02  0.1300439E+00
        -11   -1    0    0    0    0  0.00000000000E+00  0.00000000000E+00  0.45593999997E+02  0.45594000000E+02  0.51100000000E-03 0.  1.
         11   -1    0    0    0    0 -0.00000000000E+00 -0.00000000000E+00 -0.45593999997E+02  0.45594000000E+02  0.51100000000E-03 0. -1.
    9900012    2    1    2    0    0  0.86231070184E+01  0.38201954379E+02 -0.10927862644E+02  0.50528862343E+02  0.30000007578E+02 0.  0.
        -12    1    1    2    0    0 -0.86231070184E+01 -0.38201954379E+02  0.10927862644E+02  0.40659137657E+02  0.00000000000E+00 0.  1.
         11    1    3    3    0    0  0.92502982395E+01  0.40221810283E+01 -0.10841527340E+02  0.14808263675E+02  0.51100000000E-03 0. -1.
        -11    1    3    3    0    0 -0.10998942226E+01  0.26206448242E+02 -0.44726555330E+01  0.26608125536E+02  0.51100000000E-03 0.  1.
        -12    1    3    3    0    0  0.47270300151E+00  0.79733251086E+01  0.43863202297E+01  0.91124731315E+01  0.00000000000E+00 0.  1.
</event>
<event>
 7    1  0.9865694E-013  0.5052889E+02  0.7816164E-02  0.1300439E+00
        -11   -1    0    0    0    0  0.00000000000E+00  0.00000000000E+00  0.45593999997E+02  0.45594000000E+02  0.51100000000E-03 0. -1.
         11   -1    0    0    0    0 -0.00000000000E+00 -0.00000000000E+00 -0.45593999997E+02  0.45594000000E+02  0.51100000000E-03 0.  1.
    9900012    2    1    2    0    0  0.22048498853E+02 -0.12924878361E+02  0.31622376547E+02  0.50528886867E+02  0.30000082121E+02 0.  0.
        -12    1    1    2    0    0 -0.22048498853E+02  0.12924878361E+02 -0.31622376547E+02  0.40659113133E+02  0.00000000000E+00 0.  1.
         11    1    3    3    0    0 -0.20653295991E+01 -0.98084868947E+01  0.79655553728E+01  0.12803205621E+02  0.51100000000E-03 0. -1.
        -11    1    3    3    0    0  0.23625852869E+02  0.22014796513E+01  0.16989615587E+02  0.29183462346E+02  0.51100000000E-03 0.  1.
        -12    1    3    3    0    0  0.48797558241E+00 -0.53178711174E+01  0.66672055872E+01  0.85422188998E+01  0.00000000000E+00 0.  1.
</event>
<event>
 7    1  0.9865694E-013  0.5052887E+02  0.7816164E-02  0.1300439E+00
        -11   -1    0    0    0    0  0.00000000000E+00  0.00000000000E+00  0.45593999997E+02  0.45594000000E+02  0.51100000000E-03 0.  1.
         11   -1    0    0    0    0 -0.00000000000E+00 -0.00000000000E+00 -0.45593999997E+02  0.45594000000E+02  0.51100000000E-03 0. -1.
    9900012    2    1    2    0    0 -0.21826503753E+02  0.64476574419E+01 -0.33692674629E+02  0.50528869706E+02  0.30000029959E+02 0.  0.
        -12    1    1    2    0    0  0.21826503753E+02 -0.64476574419E+01  0.33692674629E+02  0.40659130294E+02  0.00000000000E+00 0.  1.
         11    1    3    3    0    0 -0.31785819274E+01 -0.91193541676E+01 -0.14015912817E+02  0.17020922885E+02  0.51100000000E-03 0. -1.
        -11    1    3    3    0    0 -0.51513543540E+01  0.66597806182E+01 -0.51590187985E+00  0.84353591846E+01  0.51100000000E-03 0.  1.
         12    1    3    3    0    0 -0.13496567472E+02  0.89072309913E+01 -0.19160859933E+02  0.25072587637E+02  0.00000000000E+00 0. -1.
</event>
<event>
 7    1  0.9865694E-013  0.5052886E+02  0.7816164E-02  0.1300439E+00
        -11   -1    0    0    0    0  0.00000000000E+00  0.00000000000E+00  0.45593999997E+02  0.45594000000E+02  0.51100000000E-03 0.  1.
         11   -1    0    0    0    0 -0.00000000000E+00 -0.00000000000E+00 -0.45593999997E+02  0.45594000000E+02  0.51100000000E-03 0. -1.
    9900012    2    1    2    0    0  0.28509761062E+02  0.28048712921E+02 -0.73231679466E+01  0.50528861284E+02  0.30000004358E+02 0.  0.
        -12    1    1    2    0    0 -0.28509761062E+02 -0.28048712921E+02  0.73231679466E+01  0.40659138716E+02  0.00000000000E+00 0.  1.
         11    1    3    3    0    0  0.87800206988E+01  0.34291908651E+01 -0.68902707337E+01  0.11675784535E+02  0.51100000000E-03 0. -1.
        -11    1    3    3    0    0  0.35834284846E+00  0.18186984851E+02  0.19867074507E+01  0.18298683950E+02  0.51100000000E-03 0.  1.
        -12    1    3    3    0    0  0.19371397515E+02  0.64325372052E+01 -0.24196046637E+01  0.20554392798E+02  0.00000000000E+00 0.  1.
</event>
<event>
 7    1  0.9865694E-013  0.5052886E+02  0.7816164E-02  0.1300439E+00
        -11   -1    0    0    0    0  0.00000000000E+00  0.00000000000E+00  0.45593999997E+02  0.45594000000E+02  0.51100000000E-03 0. -1.
         11   -1    0    0    0    0 -0.00000000000E+00 -0.00000000000E+00 -0.45593999997E+02  0.45594000000E+02  0.51100000000E-03 0.  1.
    9900012    2    1    2    0    0  0.21083262405E+02  0.67440583995E+01  0.34105414228E+02  0.50528861335E+02  0.30000004514E+02 0.  0.
        -12    1    1    2    0    0 -0.21083262405E+02 -0.67440583995E+01 -0.34105414228E+02  0.40659138665E+02  0.00000000000E+00 0.  1.
         11    1    3    3    0    0  0.91932319839E+01  0.39524204449E+01  0.36437505455E+02  0.37786623900E+02  0.51100000000E-03 0. -1.
        -11    1    3    3    0    0  0.46742920670E+01  0.11819976183E+01 -0.23166896919E+01  0.53491285353E+01  0.51100000000E-03 0.  1.
         12    1    3    3    0    0  0.72157383536E+01  0.16096403363E+01 -0.15401535493E-01  0.73931089000E+01  0.00000000000E+00 0. -1.
</event>
<event>
 7    1  0.9865694E-013  0.5052886E+02  0.7816164E-02  0.1300439E+00
        -11   -1    0    0    0    0  0.00000000000E+00  0.00000000000E+00  0.45593999997E+02  0.45594000000E+02  0.51100000000E-03 0. -1.
         11   -1    0    0    0    0 -0.00000000000E+00 -0.00000000000E+00 -0.45593999997E+02  0.45594000000E+02  0.51100000000E-03 0.  1.
    9900012    2    1    2    0    0 -0.34170309778E+02  0.18149299214E+02  0.12496349296E+02  0.50528857387E+02  0.29999992513E+02 0.  0.
        -12    1    1    2    0    0  0.34170309778E+02 -0.18149299214E+02 -0.12496349296E+02  0.40659142613E+02  0.00000000000E+00 0.  1.
         11    1    3    3    0    0 -0.20093504280E+02  0.70221263820E+01  0.27397453483E+01  0.21460786985E+02  0.51100000000E-03 0. -1.
        -11    1    3    3    0    0 -0.11787081330E+01  0.70082147357E+01 -0.52653453574E+01  0.88446757227E+01  0.51100000000E-03 0.  1.
        -12    1    3    3    0    0 -0.12898097366E+02  0.41189580963E+01  0.15021949305E+02  0.20223394680E+02  0.00000000000E+00 0.  1.
</event>
<event>
 7    1  0.9865694E-013  0.5052886E+02  0.7816164E-02  0.1300439E+00
        -11   -1    0    0    0    0  0.00000000000E+00  0.00000000000E+00  0.45593999997E+02  0.45594000000E+02  0.51100000000E-03 0.  1.
         11   -1    0    0    0    0 -0.00000000000E+00 -0.00000000000E+00 -0.45593999997E+02  0.45594000000E+02  0.51100000000E-03 0. -1.
    9900012    2    1    2    0    0 -0.12395329727E+01 -0.31488878049E+02 -0.25692021306E+02  0.50528857836E+02  0.29999993877E+02 0.  0.
        -12    1    1    2    0    0  0.12395329727E+01  0.31488878049E+02  0.25692021306E+02  0.40659142164E+02  0.00000000000E+00 0.  1.
         11    1    3    3    0    0  0.23299126051E+01 -0.12450232618E+02 -0.79782604357E+01  0.14969616723E+02  0.51100000000E-03 0. -1.
        -11    1    3    3    0    0 -0.64634323400E+01 -0.10361966844E+02 -0.22225983820E+02  0.25360218286E+02  0.51100000000E-03 0.  1.
        -12    1    3    3    0    0  0.28939867623E+01 -0.86766785860E+01  0.45122229494E+01  0.10199022826E+02  0.00000000000E+00 0.  1.
</event>
<event>
 7    1  0.9865694E-013  0.5052886E+02  0.7816164E-02  0.1300439E+00
        -11   -1    0    0    0    0  0.00000000000E+00  0.00000000000E+00  0.45593999997E+02  0.45594000000E+02  0.51100000000E-03 0.  1.
         11   -1    0    0    0    0 -0.00000000000E+00 -0.00000000000E+00 -0.45593999997E+02  0.45594000000E+02  0.51100000000E-03 0. -1.
    9900012    2    1    2    0    0  0.33185435600E+02  0.14752105342E+02 -0.18282998244E+02  0.50528858681E+02  0.29999996448E+02 0.  0.
        -12    1    1    2    0    0 -0.33185435600E+02 -0.14752105342E+02  0.18282998244E+02  0.40659141319E+02  0.00000000000E+00 0.  1.
         11    1    3    3    0    0  0.12070515864E+02  0.15546864680E+02 -0.15159774974E+02  0.24843935520E+02  0.51100000000E-03 0. -1.
        -11    1    3    3    0    0  0.21576768659E+02 -0.42568455748E+01 -0.29278446704E+01  0.22186706711E+02  0.51100000000E-03 0.  1.
         12    1    3    3    0    0 -0.46184892225E+00  0.34620862370E+01 -0.19537859918E+00  0.34982164508E+01  0.00000000000E+00 0. -1.
</event>
<event>
 7    1  0.9865694E-013  0.5052888E+02  0.7816164E-02  0.1300439E+00
        -11   -1    0    0    0    0  0.00000000000E+00  0.00000000000E+00  0.45593999997E+02  0.45594000000E+02  0.51100000000E-03 0. -1.
         11   -1    0    0    0    0 -0.00000000000E+00 -0.00000000000E+00 -0.45593999997E+02  0.45594000000E+02  0.51100000000E-03 0.  1.
    9900012    2    1    2    0    0  0.57343353573E+00 -0.10373930296E+02  0.39309243341E+02  0.50528882107E+02  0.30000067651E+02 0.  0.
        -12    1    1    2    0    0 -0.57343353573E+00  0.10373930296E+02 -0.39309243341E+02  0.40659117893E+02  0.00000000000E+00 0.  1.
         11    1    3    3    0    0 -0.70737347163E+01  0.29428250022E+01  0.24076993785E+02  0.25266570242E+02  0.51100000000E-03 0. -1.
        -11    1    3    3    0    0  0.55026672777E+01 -0.45305820583E+01 -0.46831337132E+00  0.71431672688E+01  0.51100000000E-03 0.  1.
         12    1    3    3    0    0  0.21445009744E+01 -0.87861732399E+01  0.15700562928E+02  0.18119144596E+02  0.00000000000E+00 0. -1.
</event>
<event>
 7    1  0.9865694E-013  0.5052886E+02  0.7816164E-02  0.1300439E+00
        -11   -1    0    0    0    0  0.00000000000E+00  0.00000000000E+00  0.45593999997E+02  0.45594000000E+02  0.51100000000E-03 0.  1.
         11   -1    0    0    0    0 -0.00000000000E+00 -0.00000000000E+00 -0.45593999997E+02  0.45594000000E+02  0.51100000000E-03 0. -1.
    9900012    2    1    2    0    0  0.26842139521E+02 -0.27503536759E+02 -0.13274825789E+02  0.50528856034E+02  0.29999988401E+02 0.  0.
        -12    1    1    2    0    0 -0.26842139521E+02  0.27503536759E+02  0.13274825789E+02  0.40659143966E+02  0.00000000000E+00 0.  1.
         11    1    3    3    0    0  0.89318504661E+01 -0.63500875851E+00 -0.23174483123E+01  0.92494192149E+01  0.51100000000E-03 0. -1.
        -11    1    3    3    0    0  0.25415451173E+01 -0.22099634753E+02 -0.11770257896E+02  0.25167285889E+02  0.51100000000E-03 0.  1.
        -12    1    3    3    0    0  0.15368743937E+02 -0.47688932471E+01  0.81288041960E+00  0.16112150930E+02  0.00000000000E+00 0.  1.
</event>
<event>
 7    1  0.9865694E-013  0.5052887E+02  0.7816164E-02  0.1300439E+00
        -11   -1    0    0    0    0  0.00000000000E+00  0.00000000000E+00  0.45593999997E+02  0.45594000000E+02  0.51100000000E-03 0. -1.
         11   -1    0    0    0    0 -0.00000000000E+00 -0.00000000000E+00 -0.45593999997E+02  0.45594000000E+02  0.51100000000E-03 0.  1.
    9900012    2    1    2    0    0 -0.19664917755E+02  0.34520175600E+02  0.86494910065E+01  0.50528865621E+02  0.30000017541E+02 0.  0.
        -12    1    1    2    0    0  0.19664917755E+02 -0.34520175600E+02 -0.86494910065E+01  0.40659134379E+02  0.00000000000E+00 0.  1.
         11    1    3    3    0    0 -0.84342576217E+01  0.31964961407E+02  0.47265986113E+01  0.33395152254E+02  0.51100000000E-03 0. -1.
        -11    1    3    3    0    0 -0.65274211726E+01 -0.29051967439E-01  0.80499132006E+01  0.10363839731E+02  0.51100000000E-03 0.  1.
         12    1    3    3    0    0 -0.47032389608E+01  0.25842661612E+01 -0.41270208053E+01  0.67698736356E+01  0.00000000000E+00 0. -1.
</event>
<event>
 7    1  0.9865694E-013  0.5052886E+02  0.7816164E-02  0.1300439E+00
        -11   -1    0    0    0    0  0.00000000000E+00  0.00000000000E+00  0.45593999997E+02  0.45594000000E+02  0.51100000000E-03 0.  1.
         11   -1    0    0    0    0 -0.00000000000E+00 -0.00000000000E+00 -0.45593999997E+02  0.45594000000E+02  0.51100000000E-03 0. -1.
    9900012    2    1    2    0    0  0.23332809656E+02  0.32391575038E+02 -0.77156680033E+01  0.50528859913E+02  0.30000000193E+02 0.  0.
        -12    1    1    2    0    0 -0.23332809656E+02 -0.32391575038E+02  0.77156680033E+01  0.40659140087E+02  0.00000000000E+00 0.  1.
         11    1    3    3    0    0  0.17323533986E+02  0.72976117376E+00 -0.42394368018E+01  0.17849655621E+02  0.51100000000E-03 0. -1.
        -11    1    3    3    0    0  0.28754074695E+01  0.17866462044E+02 -0.39580783374E+01  0.18524168496E+02  0.51100000000E-03 0.  1.
         12    1    3    3    0    0  0.31338682001E+01  0.13795351820E+02  0.48184713589E+00  0.14155035797E+02  0.00000000000E+00 0. -1.
</event>
<event>
 7    1  0.9865694E-013  0.5052885E+02  0.7816164E-02  0.1300439E+00
        -11   -1    0    0    0    0  0.00000000000E+00  0.00000000000E+00  0.45593999997E+02  0.45594000000E+02  0.51100000000E-03 0. -1.
         11   -1    0    0    0    0 -0.00000000000E+00 -0.00000000000E+00 -0.45593999997E+02  0.45594000000E+02  0.51100000000E-03 0.  1.
    9900012    2    1    2    0    0  0.40092958465E+01 -0.24001191849E+02  0.32573525993E+02  0.50528852702E+02  0.29999978274E+02 0.  0.
        -12    1    1    2    0    0 -0.40092958465E+01  0.24001191849E+02 -0.32573525993E+02  0.40659147298E+02  0.00000000000E+00 0.  1.
         11    1    3    3    0    0  0.12272767187E+01 -0.22336900378E+02  0.23629209006E+02  0.32538943516E+02  0.51100000000E-03 0. -1.
        -11    1    3    3    0    0 -0.51387259626E+00  0.21399830670E+01 -0.37421795104E+01  0.43413707883E+01  0.51100000000E-03 0.  1.
        -12    1    3    3    0    0  0.32958917240E+01 -0.38042745379E+01  0.12686496497E+02  0.13648538398E+02  0.00000000000E+00 0.  1.
</event>
<event>
 7    1  0.9865694E-013  0.5052887E+02  0.7816164E-02  0.1300439E+00
        -11   -1    0    0    0    0  0.00000000000E+00  0.00000000000E+00  0.45593999997E+02  0.45594000000E+02  0.51100000000E-03 0. -1.
         11   -1    0    0    0    0 -0.00000000000E+00 -0.00000000000E+00 -0.45593999997E+02  0.45594000000E+02  0.51100000000E-03 0.  1.
    9900012    2    1    2    0    0  0.65605835658E+01 -0.38660330175E+02 -0.10747199783E+02  0.50528872007E+02  0.30000036953E+02 0.  0.
        -12    1    1    2    0    0 -0.65605835658E+01  0.38660330175E+02  0.10747199783E+02  0.40659127993E+02  0.00000000000E+00 0.  1.
         11    1    3    3    0    0 -0.58940445230E+01 -0.22929407348E+02 -0.39803013406E+01  0.24007088145E+02  0.51100000000E-03 0. -1.
        -11    1    3    3    0    0  0.16228071366E+02 -0.12317300720E+02 -0.41179482208E+01  0.20785179699E+02  0.51100000000E-03 0.  1.
        -12    1    3    3    0    0 -0.37734432772E+01 -0.34136221063E+01 -0.26489502211E+01  0.57366041632E+01  0.00000000000E+00 0.  1.
</event>
<event>
 7    1  0.9865694E-013  0.5052887E+02  0.7816164E-02  0.1300439E+00
        -11   -1    0    0    0    0  0.00000000000E+00  0.00000000000E+00  0.45593999997E+02  0.45594000000E+02  0.51100000000E-03 0.  1.
         11   -1    0    0    0    0 -0.00000000000E+00 -0.00000000000E+00 -0.45593999997E+02  0.45594000000E+02  0.51100000000E-03 0. -1.
    9900012    2    1    2    0    0 -0.21030500317E+02  0.34177335458E+02 -0.65415942122E+01  0.50528872397E+02  0.30000038137E+02 0.  0.
        -12    1    1    2    0    0  0.21030500317E+02 -0.34177335458E+02  0.65415942122E+01  0.40659127603E+02  0.00000000000E+00 0.  1.
         11    1    3    3    0    0 -0.57304949258E+01  0.36490884110E+01 -0.12769113804E+02  0.14463909773E+02  0.51100000000E-03 0. -1.
        -11    1    3    3    0    0 -0.19194758498E+01  0.19709809404E+01  0.34408224436E+01  0.44054980144E+01  0.51100000000E-03 0.  1.
         12    1    3    3    0    0 -0.13380529542E+02  0.28557266107E+02  0.27866971483E+01  0.31659464609E+02  0.00000000000E+00 0. -1.
</event>
<event>
 7    1  0.9865694E-013  0.5052886E+02  0.7816164E-02  0.1300439E+00
        -11   -1    0    0    0    0  0.00000000000E+00  0.00000000000E+00  0.45593999997E+02  0.45594000000E+02  0.51100000000E-03 0.  1.
         11   -1    0    0    0    0 -0.00000000000E+00 -0.00000000000E+00 -0.45593999997E+02  0.45594000000E+02  0.51100000000E-03 0. -1.
    9900012    2    1    2    0    0  0.33055573243E+02  0.14242119387E+02 -0.18911812200E+02  0.50528861694E+02  0.30000005606E+02 0.  0.
        -12    1    1    2    0    0 -0.33055573243E+02 -0.14242119387E+02  0.18911812200E+02  0.40659138306E+02  0.00000000000E+00 0.  1.
         11    1    3    3    0    0  0.31908566800E+02  0.19396097717E+01 -0.15729036990E+02  0.35627536067E+02  0.51100000000E-03 0. -1.
        -11    1    3    3    0    0  0.94291312691E-01  0.63117585674E+01  0.22940681718E+01  0.67163930873E+01  0.51100000000E-03 0.  1.
         12    1    3    3    0    0  0.10527151307E+01  0.59907510477E+01 -0.54768433816E+01  0.81849325403E+01  0.00000000000E+00 0. -1.
</event>
<event>
 7    1  0.9865694E-013  0.5052886E+02  0.7816164E-02  0.1300439E+00
        -11   -1    0    0    0    0  0.00000000000E+00  0.00000000000E+00  0.45593999997E+02  0.45594000000E+02  0.51100000000E-03 0. -1.
         11   -1    0    0    0    0 -0.00000000000E+00 -0.00000000000E+00 -0.45593999997E+02  0.45594000000E+02  0.51100000000E-03 0.  1.
    9900012    2    1    2    0    0 -0.85904231887E+00  0.35824864758E+02  0.19209539406E+02  0.50528864583E+02  0.30000014387E+02 0.  0.
        -12    1    1    2    0    0  0.85904231887E+00 -0.35824864758E+02 -0.19209539406E+02  0.40659135417E+02  0.00000000000E+00 0.  1.
         11    1    3    3    0    0  0.19291105083E+01  0.37265682186E+02  0.14102376107E+02  0.39891472124E+02  0.51100000000E-03 0. -1.
        -11    1    3    3    0    0 -0.39931907670E+01  0.24735653685E+01  0.93209990363E+00  0.47888316556E+01  0.51100000000E-03 0.  1.
         12    1    3    3    0    0  0.12050379399E+01 -0.39143827961E+01  0.41750633955E+01  0.58485608031E+01  0.00000000000E+00 0. -1.
</event>
<event>
 7    1  0.9865694E-013  0.5052883E+02  0.7816164E-02  0.1300439E+00
        -11   -1    0    0    0    0  0.00000000000E+00  0.00000000000E+00  0.45593999997E+02  0.45594000000E+02  0.51100000000E-03 0.  1.
         11   -1    0    0    0    0 -0.00000000000E+00 -0.00000000000E+00 -0.45593999997E+02  0.45594000000E+02  0.51100000000E-03 0. -1.
    9900012    2    1    2    0    0 -0.32946024105E+02 -0.19864784468E+02  0.13157416681E+02  0.50528833997E+02  0.29999921418E+02 0.  0.
        -12    1    1    2    0    0  0.32946024105E+02  0.19864784468E+02 -0.13157416681E+02  0.40659166003E+02  0.00000000000E+00 0.  1.
         11    1    3    3    0    0 -0.15929687958E+02 -0.10805821297E+01  0.80850760784E+01  0.17896677671E+02  0.51100000000E-03 0. -1.
        -11    1    3    3    0    0 -0.68179757869E+01 -0.19895778866E+02 -0.33770762570E+00  0.21034278148E+02  0.51100000000E-03 0.  1.
        -12    1    3    3    0    0 -0.10198360360E+02  0.11115765274E+01  0.54100482285E+01  0.11597878178E+02  0.00000000000E+00 0.  1.
</event>
<event>
 7    1  0.9865694E-013  0.5052886E+02  0.7816164E-02  0.1300439E+00
        -11   -1    0    0    0    0  0.00000000000E+00  0.00000000000E+00  0.45593999997E+02  0.45594000000E+02  0.51100000000E-03 0. -1.
         11   -1    0    0    0    0 -0.00000000000E+00 -0.00000000000E+00 -0.45593999997E+02  0.45594000000E+02  0.51100000000E-03 0.  1.
    9900012    2    1    2    0    0  0.11215494325E+02  0.13576040885E+02  0.36647910705E+02  0.50528861321E+02  0.30000004471E+02 0.  0.
        -12    1    1    2    0    0 -0.11215494325E+02 -0.13576040885E+02 -0.36647910705E+02  0.40659138679E+02  0.00000000000E+00 0.  1.
         11    1    3    3    0    0 -0.20419455445E+01  0.76110781337E+00  0.19341137932E+01  0.29136957865E+01  0.51100000000E-03 0. -1.
        -11    1    3    3    0    0  0.34655268936E+01 -0.75649263041E+01  0.33932911958E+01  0.89862345862E+01  0.51100000000E-03 0.  1.
        -12    1    3    3    0    0  0.97919129760E+01  0.20379859375E+02  0.31320505716E+02  0.38628930948E+02  0.00000000000E+00 0.  1.
</event>
<event>
 7    1  0.9865694E-013  0.5052887E+02  0.7816164E-02  0.1300439E+00
        -11   -1    0    0    0    0  0.00000000000E+00  0.00000000000E+00  0.45593999997E+02  0.45594000000E+02  0.51100000000E-03 0.  1.
         11   -1    0    0    0    0 -0.00000000000E+00 -0.00000000000E+00 -0.45593999997E+02  0.45594000000E+02  0.51100000000E-03 0. -1.
    9900012    2    1    2    0    0  0.12959068420E+02 -0.10786845847E+02 -0.36998259008E+02  0.50528872276E+02  0.30000037770E+02 0.  0.
        -12    1    1    2    0    0 -0.12959068420E+02  0.10786845847E+02  0.36998259008E+02  0.40659127724E+02  0.00000000000E+00 0.  1.
         11    1    3    3    0    0  0.24440668821E+01 -0.15734750558E+02 -0.29432708519E+02  0.33464013045E+02  0.51100000000E-03 0. -1.
        -11    1    3    3    0    0  0.70006614378E+01  0.29357040235E+01  0.93531616600E+00  0.76486884674E+01  0.51100000000E-03 0.  1.
        -12    1    3    3    0    0  0.35143401004E+01  0.20122006882E+01 -0.85008666558E+01  0.94161707637E+01  0.00000000000E+00 0.  1.
</event>
<event>
 7    1  0.9865694E-013  0.5052884E+02  0.7816164E-02  0.1300439E+00
        -11   -1    0    0    0    0  0.00000000000E+00  0.00000000000E+00  0.45593999997E+02  0.45594000000E+02  0.51100000000E-03 0.  1.
         11   -1    0    0    0    0 -0.00000000000E+00 -0.00000000000E+00 -0.45593999997E+02  0.45594000000E+02  0.51100000000E-03 0. -1.
    9900012    2    1    2    0    0 -0.23632169932E+02 -0.16135057829E+02 -0.28885084048E+02  0.50528835876E+02  0.29999927128E+02 0.  0.
        -12    1    1    2    0    0  0.23632169932E+02  0.16135057829E+02  0.28885084048E+02  0.40659164124E+02  0.00000000000E+00 0.  1.
         11    1    3    3    0    0 -0.13884755085E+02 -0.22647040821E+01 -0.19083443795E+02  0.23708503447E+02  0.51100000000E-03 0. -1.
        -11    1    3    3    0    0 -0.98057209056E+01 -0.14953200590E+02 -0.95454459541E+00  0.17907024488E+02  0.51100000000E-03 0.  1.
        -12    1    3    3    0    0  0.58306058967E-01  0.10828468433E+01 -0.88470956571E+01  0.89133079408E+01  0.00000000000E+00 0.  1.
</event>
<event>
 7    1  0.9865694E-013  0.5052885E+02  0.7816164E-02  0.1300439E+00
        -11   -1    0    0    0    0  0.00000000000E+00  0.00000000000E+00  0.45593999997E+02  0.45594000000E+02  0.51100000000E-03 0. -1.
         11   -1    0    0    0    0 -0.00000000000E+00 -0.00000000000E+00 -0.45593999997E+02  0.45594000000E+02  0.51100000000E-03 0.  1.
    9900012    2    1    2    0    0  0.10238140654E+02 -0.14581609857E+02  0.36547552380E+02  0.50528850291E+02  0.29999970945E+02 0.  0.
        -12    1    1    2    0    0 -0.10238140654E+02  0.14581609857E+02 -0.36547552380E+02  0.40659149709E+02  0.00000000000E+00 0.  1.
         11    1    3    3    0    0  0.70617789077E+01 -0.18457740021E+02  0.10655012939E+02  0.22451863821E+02  0.51100000000E-03 0. -1.
        -11    1    3    3    0    0  0.34312750137E+01  0.49932999898E+01  0.74665792761E+01  0.96154302741E+01  0.51100000000E-03 0.  1.
         12    1    3    3    0    0 -0.25491326756E+00 -0.11171698254E+01  0.18425960165E+02  0.18461556196E+02  0.00000000000E+00 0. -1.
</event>
<event>
 7    1  0.9865694E-013  0.5052888E+02  0.7816164E-02  0.1300439E+00
        -11   -1    0    0    0    0  0.00000000000E+00  0.00000000000E+00  0.45593999997E+02  0.45594000000E+02  0.51100000000E-03 0. -1.
         11   -1    0    0    0    0 -0.00000000000E+00 -0.00000000000E+00 -0.45593999997E+02  0.45594000000E+02  0.51100000000E-03 0.  1.
    9900012    2    1    2    0    0  0.13356501193E+02 -0.17261214803E+02  0.34304790968E+02  0.50528876252E+02  0.30000049855E+02 0.  0.
        -12    1    1    2    0    0 -0.13356501193E+02  0.17261214803E+02 -0.34304790968E+02  0.40659123748E+02  0.00000000000E+00 0.  1.
         11    1    3    3    0    0 -0.20586211102E+01 -0.57085876977E+01  0.29349202164E+02  0.29970011049E+02  0.51100000000E-03 0. -1.
        -11    1    3    3    0    0  0.63784910335E+01 -0.63585671554E+01 -0.26174316151E-01  0.90065092844E+01  0.51100000000E-03 0.  1.
         12    1    3    3    0    0  0.90366312698E+01 -0.51940599496E+01  0.49817631207E+01  0.11552355918E+02  0.00000000000E+00 0. -1.
</event>
<event>
 7    1  0.9865694E-013  0.5052885E+02  0.7816164E-02  0.1300439E+00
        -11   -1    0    0    0    0  0.00000000000E+00  0.00000000000E+00  0.45593999997E+02  0.45594000000E+02  0.51100000000E-03 0.  1.
         11   -1    0    0    0    0 -0.00000000000E+00 -0.00000000000E+00 -0.45593999997E+02  0.45594000000E+02  0.51100000000E-03 0. -1.
    9900012    2    1    2    0    0  0.11803705038E+02 -0.32036194544E+02 -0.22079883044E+02  0.50528850369E+02  0.29999971180E+02 0.  0.
        -12    1    1    2    0    0 -0.11803705038E+02  0.32036194544E+02  0.22079883044E+02  0.40659149631E+02  0.00000000000E+00 0.  1.
         11    1    3    3    0    0  0.10847421911E+02 -0.18644240320E+02 -0.12045756465E+02  0.24705758606E+02  0.51100000000E-03 0. -1.
        -11    1    3    3    0    0 -0.61490507499E+01 -0.10004134844E+02  0.15216578394E+01  0.11840987372E+02  0.51100000000E-03 0.  1.
        -12    1    3    3    0    0  0.71053338773E+01 -0.33878193802E+01 -0.11555784418E+02  0.13982104391E+02  0.00000000000E+00 0.  1.
</event>
<event>
 7    1  0.9865694E-013  0.5052886E+02  0.7816164E-02  0.1300439E+00
        -11   -1    0    0    0    0  0.00000000000E+00  0.00000000000E+00  0.45593999997E+02  0.45594000000E+02  0.51100000000E-03 0.  1.
         11   -1    0    0    0    0 -0.00000000000E+00 -0.00000000000E+00 -0.45593999997E+02  0.45594000000E+02  0.51100000000E-03 0. -1.
    9900012    2    1    2    0    0 -0.26443853280E+02  0.30481119428E+02 -0.49789017618E+01  0.50528862274E+02  0.30000007369E+02 0.  0.
        -12    1    1    2    0    0  0.26443853280E+02 -0.30481119428E+02  0.49789017618E+01  0.40659137726E+02  0.00000000000E+00 0.  1.
         11    1    3    3    0    0 -0.26741157894E+02  0.17081229838E+02 -0.91506584196E+01  0.33024119792E+02  0.51100000000E-03 0. -1.
        -11    1    3    3    0    0 -0.45559041681E+01  0.52417363572E+01  0.39919130250E+01  0.80104577077E+01  0.51100000000E-03 0.  1.
         12    1    3    3    0    0  0.48532087819E+01  0.81581532329E+01  0.17984363272E+00  0.94942847747E+01  0.00000000000E+00 0. -1.
</event>
<event>
 7    1  0.9865694E-013  0.5052885E+02  0.7816164E-02  0.1300439E+00
        -11   -1    0    0    0    0  0.00000000000E+00  0.00000000000E+00  0.45593999997E+02  0.45594000000E+02  0.51100000000E-03 0.  1.
         11   -1    0    0    0    0 -0.00000000000E+00 -0.00000000000E+00 -0.45593999997E+02  0.45594000000E+02  0.51100000000E-03 0. -1.
    9900012    2    1    2    0    0  0.25217321401E+02  0.12606157915E+02 -0.29297406815E+02  0.50528848974E+02  0.29999966943E+02 0.  0.
        -12    1    1    2    0    0 -0.25217321401E+02 -0.12606157915E+02  0.29297406815E+02  0.40659151026E+02  0.00000000000E+00 0.  1.
         11    1    3    3    0    0  0.18428155649E+02  0.76509658794E+00 -0.17534384273E+02  0.25448711667E+02  0.51100000000E-03 0. -1.
        -11    1    3    3    0    0 -0.24605240026E+01  0.89195700273E+01  0.70921589144E+00  0.92798650465E+01  0.51100000000E-03 0.  1.
        -12    1    3    3    0    0  0.92496897545E+01  0.29214912997E+01 -0.12472238434E+02  0.15800272261E+02  0.00000000000E+00 0.  1.
</event>
<event>
 7    1  0.9865694E-013  0.5052885E+02  0.7816164E-02  0.1300439E+00
        -11   -1    0    0    0    0  0.00000000000E+00  0.00000000000E+00  0.45593999997E+02  0.45594000000E+02  0.51100000000E-03 0. -1.
         11   -1    0    0    0    0 -0.00000000000E+00 -0.00000000000E+00 -0.45593999997E+02  0.45594000000E+02  0.51100000000E-03 0.  1.
    9900012    2    1    2    0    0 -0.16232724444E+02 -0.14266748892E+01  0.37250897241E+02  0.50528854788E+02  0.29999984613E+02 0.  0.
        -12    1    1    2    0    0  0.16232724444E+02  0.14266748892E+01 -0.37250897241E+02  0.40659145212E+02  0.00000000000E+00 0.  1.
         11    1    3    3    0    0  0.11351487434E+01 -0.41133409692E+01  0.55204308204E+00  0.43026606215E+01  0.51100000000E-03 0.  1.
        -11    1    3    3    0    0 -0.87901982582E+01  0.12193137423E+02  0.22988743155E+02  0.27466752588E+02  0.51100000000E-03 0. -1.
        -12    1    3    3    0    0 -0.85776749294E+01 -0.95064713428E+01  0.13710111004E+02  0.18759441578E+02  0.00000000000E+00 0.  1.
</event>
<event>
 7    1  0.9865694E-013  0.5052884E+02  0.7816164E-02  0.1300439E+00
        -11   -1    0    0    0    0  0.00000000000E+00  0.00000000000E+00  0.45593999997E+02  0.45594000000E+02  0.51100000000E-03 0. -1.
         11   -1    0    0    0    0 -0.00000000000E+00 -0.00000000000E+00 -0.45593999997E+02  0.45594000000E+02  0.51100000000E-03 0.  1.
    9900012    2    1    2    0    0  0.20730659123E+02  0.34772728221E+02 -0.37768455737E+01  0.50528838448E+02  0.29999934948E+02 0.  0.
        -12    1    1    2    0    0 -0.20730659123E+02 -0.34772728221E+02  0.37768455737E+01  0.40659161552E+02  0.00000000000E+00 0.  1.
         11    1    3    3    0    0  0.89364698365E+01  0.93297146909E+01  0.57275542798E+01  0.14131841622E+02  0.51100000000E-03 0. -1.
        -11    1    3    3    0    0  0.60929431350E+01  0.27514887697E+02 -0.45111879195E+01  0.28540214045E+02  0.51100000000E-03 0.  1.
        -12    1    3    3    0    0  0.57012461519E+01 -0.20718741673E+01 -0.49932119340E+01  0.78567827810E+01  0.00000000000E+00 0.  1.
</event>
<event>
 7    1  0.9865694E-013  0.5052886E+02  0.7816164E-02  0.1300439E+00
        -11   -1    0    0    0    0  0.00000000000E+00  0.00000000000E+00  0.45593999997E+02  0.45594000000E+02  0.51100000000E-03 0.  1.
         11   -1    0    0    0    0 -0.00000000000E+00 -0.00000000000E+00 -0.45593999997E+02  0.45594000000E+02  0.51100000000E-03 0. -1.
    9900012    2    1    2    0    0 -0.28916707518E+00 -0.96688723373E+01 -0.39491708463E+02  0.50528858996E+02  0.29999997405E+02 0.  0.
        -12    1    1    2    0    0  0.28916707518E+00  0.96688723373E+01  0.39491708463E+02  0.40659141004E+02  0.00000000000E+00 0.  1.
         11    1    3    3    0    0  0.19616256368E+01 -0.84855289326E+01 -0.31195091175E+02  0.32388051656E+02  0.51100000000E-03 0. -1.
        -11    1    3    3    0    0  0.42391145262E+01  0.10943802755E+01  0.27193907979E+01  0.51539156693E+01  0.51100000000E-03 0.  1.
         12    1    3    3    0    0 -0.64899072382E+01 -0.22777236802E+01 -0.11016008085E+02  0.12986891670E+02  0.00000000000E+00 0. -1.
</event>
<event>
 7    1  0.9865694E-013  0.5052887E+02  0.7816164E-02  0.1300439E+00
        -11   -1    0    0    0    0  0.00000000000E+00  0.00000000000E+00  0.45593999997E+02  0.45594000000E+02  0.51100000000E-03 0.  1.
         11   -1    0    0    0    0 -0.00000000000E+00 -0.00000000000E+00 -0.45593999997E+02  0.45594000000E+02  0.51100000000E-03 0. -1.
    9900012    2    1    2    0    0  0.34683567474E+02 -0.19556636367E+02  0.82312176148E+01  0.50528870372E+02  0.30000031982E+02 0.  0.
        -12    1    1    2    0    0 -0.34683567474E+02  0.19556636367E+02 -0.82312176148E+01  0.40659129628E+02  0.00000000000E+00 0.  1.
         11    1    3    3    0    0  0.89255791344E+01  0.35851225690E+01 -0.19392527406E+00  0.96206379202E+01  0.51100000000E-03 0. -1.
        -11    1    3    3    0    0  0.43344953961E+01 -0.16087391801E+02  0.76667938468E+01  0.18340440383E+02  0.51100000000E-03 0.  1.
         12    1    3    3    0    0  0.21423492944E+02 -0.70543671350E+01  0.75834904207E+00  0.22567792069E+02  0.00000000000E+00 0. -1.
</event>
<event>
 7    1  0.9865694E-013  0.5052885E+02  0.7816164E-02  0.1300439E+00
        -11   -1    0    0    0    0  0.00000000000E+00  0.00000000000E+00  0.45593999997E+02  0.45594000000E+02  0.51100000000E-03 0.  1.
         11   -1    0    0    0    0 -0.00000000000E+00 -0.00000000000E+00 -0.45593999997E+02  0.45594000000E+02  0.51100000000E-03 0. -1.
    9900012    2    1    2    0    0 -0.21260296335E+02  0.85181087341E+01 -0.33594759383E+02  0.50528853002E+02  0.29999979183E+02 0.  0.
        -12    1    1    2    0    0  0.21260296335E+02 -0.85181087341E+01  0.33594759383E+02  0.40659146998E+02  0.00000000000E+00 0.  1.
         11    1    3    3    0    0 -0.16792088084E+01  0.65566731289E+01 -0.81269086725E+01  0.10576216222E+02  0.51100000000E-03 0. -1.
        -11    1    3    3    0    0 -0.23214419529E+02 -0.37044309657E+01 -0.22686960398E+02  0.32670020741E+02  0.51100000000E-03 0.  1.
        -12    1    3    3    0    0  0.36333320022E+01  0.56658665709E+01 -0.27808903123E+01  0.72826160386E+01  0.00000000000E+00 0.  1.
</event>
<event>
 7    1  0.9865694E-013  0.5052886E+02  0.7816164E-02  0.1300439E+00
        -11   -1    0    0    0    0  0.00000000000E+00  0.00000000000E+00  0.45593999997E+02  0.45594000000E+02  0.51100000000E-03 0.  1.
         11   -1    0    0    0    0 -0.00000000000E+00 -0.00000000000E+00 -0.45593999997E+02  0.45594000000E+02  0.51100000000E-03 0. -1.
    9900012    2    1    2    0    0  0.31084082324E+02  0.25968204220E+01 -0.26080685471E+02  0.50528858286E+02  0.29999995247E+02 0.  0.
        -12    1    1    2    0    0 -0.31084082324E+02 -0.25968204220E+01  0.26080685471E+02  0.40659141714E+02  0.00000000000E+00 0.  1.
         11    1    3    3    0    0  0.96085301216E+01 -0.19549075828E+01 -0.13879941695E+02  0.16994066508E+02  0.51100000000E-03 0. -1.
        -11    1    3    3    0    0  0.16065425556E+02  0.32875220333E+00  0.34592180491E+01  0.16436914737E+02  0.51100000000E-03 0.  1.
        -12    1    3    3    0    0  0.54101266467E+01  0.42229758015E+01 -0.15659961825E+02  0.17097877041E+02  0.00000000000E+00 0.  1.
</event>
<event>
 7    1  0.9865694E-013  0.5052886E+02  0.7816164E-02  0.1300439E+00
        -11   -1    0    0    0    0  0.00000000000E+00  0.00000000000E+00  0.45593999997E+02  0.45594000000E+02  0.51100000000E-03 0.  1.
         11   -1    0    0    0    0 -0.00000000000E+00 -0.00000000000E+00 -0.45593999997E+02  0.45594000000E+02  0.51100000000E-03 0. -1.
    9900012    2    1    2    0    0  0.98389057117E+01  0.79295931968E+01 -0.38645607966E+02  0.50528861679E+02  0.30000005561E+02 0.  0.
        -12    1    1    2    0    0 -0.98389057117E+01 -0.79295931968E+01  0.38645607966E+02  0.40659138321E+02  0.00000000000E+00 0.  1.
         11    1    3    3    0    0 -0.17981652570E+01 -0.47590433972E+01  0.15238168154E+01  0.53107353818E+01  0.51100000000E-03 0. -1.
        -11    1    3    3    0    0  0.59467876415E+01  0.12925251203E+02 -0.22201116572E+02  0.26368844860E+02  0.51100000000E-03 0.  1.
        -12    1    3    3    0    0  0.56902833273E+01 -0.23661460883E+00 -0.17968308209E+02  0.18849281438E+02  0.00000000000E+00 0.  1.
</event>
<event>
 7    1  0.9865694E-013  0.5052886E+02  0.7816164E-02  0.1300439E+00
        -11   -1    0    0    0    0  0.00000000000E+00  0.00000000000E+00  0.45593999997E+02  0.45594000000E+02  0.51100000000E-03 0.  1.
         11   -1    0    0    0    0 -0.00000000000E+00 -0.00000000000E+00 -0.45593999997E+02  0.45594000000E+02  0.51100000000E-03 0. -1.
    9900012    2    1    2    0    0  0.30540061016E+02 -0.26317843769E+02  0.52765059594E+01  0.50528859052E+02  0.29999997576E+02 0.  0.
        -12    1    1    2    0    0 -0.30540061016E+02  0.26317843769E+02 -0.52765059594E+01  0.40659140948E+02  0.00000000000E+00 0.  1.
         11    1    3    3    0    0  0.13070422556E+02  0.14101429025E+01  0.84658861674E+01  0.15636357557E+02  0.51100000000E-03 0. -1.
        -11    1    3    3    0    0  0.40840405568E+01 -0.14647470913E+02  0.23215887295E+01  0.15382378422E+02  0.51100000000E-03 0.  1.
         12    1    3    3    0    0  0.13385597903E+02 -0.13080515758E+02 -0.55109689375E+01  0.19510123073E+02  0.00000000000E+00 0. -1.
</event>
<event>
 7    1  0.9865694E-013  0.5052886E+02  0.7816164E-02  0.1300439E+00
        -11   -1    0    0    0    0  0.00000000000E+00  0.00000000000E+00  0.45593999997E+02  0.45594000000E+02  0.51100000000E-03 0.  1.
         11   -1    0    0    0    0 -0.00000000000E+00 -0.00000000000E+00 -0.45593999997E+02  0.45594000000E+02  0.51100000000E-03 0. -1.
    9900012    2    1    2    0    0 -0.88038155700E+00  0.35750132846E+02 -0.19347309680E+02  0.50528862503E+02  0.30000008063E+02 0.  0.
        -12    1    1    2    0    0  0.88038155700E+00 -0.35750132846E+02  0.19347309680E+02  0.40659137497E+02  0.00000000000E+00 0.  1.
         11    1    3    3    0    0  0.22872829066E+01  0.20835178745E+02 -0.17347122557E+02  0.27207701073E+02  0.51100000000E-03 0. -1.
        -11    1    3    3    0    0 -0.92886216958E+01  0.28729461479E+01 -0.62146792166E+00  0.97426143933E+01  0.51100000000E-03 0.  1.
         12    1    3    3    0    0  0.61209572322E+01  0.12042007953E+02 -0.13787192017E+01  0.13578547036E+02  0.00000000000E+00 0. -1.
</event>
<event>
 7    1  0.9865694E-013  0.5052885E+02  0.7816164E-02  0.1300439E+00
        -11   -1    0    0    0    0  0.00000000000E+00  0.00000000000E+00  0.45593999997E+02  0.45594000000E+02  0.51100000000E-03 0.  1.
         11   -1    0    0    0    0 -0.00000000000E+00 -0.00000000000E+00 -0.45593999997E+02  0.45594000000E+02  0.51100000000E-03 0. -1.
    9900012    2    1    2    0    0  0.44182471349E+01  0.21252835749E+02 -0.34379682296E+02  0.50528849862E+02  0.29999969642E+02 0.  0.
        -12    1    1    2    0    0 -0.44182471349E+01 -0.21252835749E+02  0.34379682296E+02  0.40659150138E+02  0.00000000000E+00 0.  1.
         11    1    3    3    0    0  0.11616553420E+01  0.52633987068E+01  0.72093582309E+00  0.54380656305E+01  0.51100000000E-03 0. -1.
        -11    1    3    3    0    0 -0.67788454377E+01  0.11579512554E+01 -0.21588325656E+02  0.22657215219E+02  0.51100000000E-03 0.  1.
        -12    1    3    3    0    0  0.10035437231E+02  0.14831485787E+02 -0.13512292463E+02  0.22433569013E+02  0.00000000000E+00 0.  1.
</event>
<event>
 7    1  0.9865694E-013  0.5052888E+02  0.7816164E-02  0.1300439E+00
        -11   -1    0    0    0    0  0.00000000000E+00  0.00000000000E+00  0.45593999997E+02  0.45594000000E+02  0.51100000000E-03 0.  1.
         11   -1    0    0    0    0 -0.00000000000E+00 -0.00000000000E+00 -0.45593999997E+02  0.45594000000E+02  0.51100000000E-03 0. -1.
    9900012    2    1    2    0    0  0.24841451054E+02 -0.30508137102E+02 -0.10262539971E+02  0.50528882369E+02  0.30000068449E+02 0.  0.
        -12    1    1    2    0    0 -0.24841451054E+02  0.30508137102E+02  0.10262539971E+02  0.40659117631E+02  0.00000000000E+00 0.  1.
         11    1    3    3    0    0 -0.15953549306E+00 -0.53073342419E+01 -0.48860330410E+01  0.72157166981E+01  0.51100000000E-03 0. -1.
        -11    1    3    3    0    0  0.12824194259E+02 -0.15398438440E+02  0.90989556207E+01  0.22008245238E+02  0.51100000000E-03 0.  1.
        -12    1    3    3    0    0  0.12176792288E+02 -0.98023644193E+01 -0.14475462550E+02  0.21304920433E+02  0.00000000000E+00 0.  1.
</event>
<event>
 7    1  0.9865694E-013  0.5052886E+02  0.7816164E-02  0.1300439E+00
        -11   -1    0    0    0    0  0.00000000000E+00  0.00000000000E+00  0.45593999997E+02  0.45594000000E+02  0.51100000000E-03 0.  1.
         11   -1    0    0    0    0 -0.00000000000E+00 -0.00000000000E+00 -0.45593999997E+02  0.45594000000E+02  0.51100000000E-03 0. -1.
    9900012    2    1    2    0    0  0.25758050135E+02  0.22731933224E+02 -0.21747365392E+02  0.50528857900E+02  0.29999994072E+02 0.  0.
        -12    1    1    2    0    0 -0.25758050135E+02 -0.22731933224E+02  0.21747365392E+02  0.40659142100E+02  0.00000000000E+00 0.  1.
         11    1    3    3    0    0  0.88969410980E+01  0.31030095693E+01 -0.10323776777E+02  0.13977288596E+02  0.51100000000E-03 0. -1.
        -11    1    3    3    0    0  0.18195083089E+02  0.12571733949E+02  0.10689175498E+01  0.22141637882E+02  0.51100000000E-03 0.  1.
        -12    1    3    3    0    0 -0.13339740524E+01  0.70571897056E+01 -0.12492506164E+02  0.14409931422E+02  0.00000000000E+00 0.  1.
</event>
<event>
 7    1  0.9865694E-013  0.5052886E+02  0.7816164E-02  0.1300439E+00
        -11   -1    0    0    0    0  0.00000000000E+00  0.00000000000E+00  0.45593999997E+02  0.45594000000E+02  0.51100000000E-03 0.  1.
         11   -1    0    0    0    0 -0.00000000000E+00 -0.00000000000E+00 -0.45593999997E+02  0.45594000000E+02  0.51100000000E-03 0. -1.
    9900012    2    1    2    0    0 -0.15613043391E+02  0.84382281666E+01 -0.36581347377E+02  0.50528858415E+02  0.29999995638E+02 0.  0.
        -12    1    1    2    0    0  0.15613043391E+02 -0.84382281666E+01  0.36581347377E+02  0.40659141585E+02  0.00000000000E+00 0.  1.
         11    1    3    3    0    0 -0.16748823874E+02  0.21322416666E+01 -0.80169336466E+01  0.18690660263E+02  0.51100000000E-03 0. -1.
        -11    1    3    3    0    0  0.18498716389E+01 -0.36337060346E+01 -0.90695569332E+01  0.99439784720E+01  0.51100000000E-03 0.  1.
         12    1    3    3    0    0 -0.71409115539E+00  0.99396925346E+01 -0.19494856797E+02  0.21894219680E+02  0.00000000000E+00 0. -1.
</event>
<event>
 7    1  0.9865694E-013  0.5052886E+02  0.7816164E-02  0.1300439E+00
        -11   -1    0    0    0    0  0.00000000000E+00  0.00000000000E+00  0.45593999997E+02  0.45594000000E+02  0.51100000000E-03 0. -1.
         11   -1    0    0    0    0 -0.00000000000E+00 -0.00000000000E+00 -0.45593999997E+02  0.45594000000E+02  0.51100000000E-03 0.  1.
    9900012    2    1    2    0    0  0.32024418511E+02  0.16502279195E+02  0.18848802981E+02  0.50528856214E+02  0.29999988948E+02 0.  0.
        -12    1    1    2    0    0 -0.32024418511E+02 -0.16502279195E+02 -0.18848802981E+02  0.40659143786E+02  0.00000000000E+00 0.  1.
         11    1    3    3    0    0  0.27267482606E+02  0.19889008453E+02  0.96282037735E+01  0.35096874121E+02  0.51100000000E-03 0. -1.
        -11    1    3    3    0    0  0.69113578050E+01 -0.50831296543E+01  0.93463367645E+01  0.12686965160E+02  0.51100000000E-03 0.  1.
         12    1    3    3    0    0 -0.21544219000E+01  0.16964003961E+01 -0.12573755692E+00  0.27450169326E+01  0.00000000000E+00 0. -1.
</event>
<event>
 7    1  0.9865694E-013  0.5052887E+02  0.7816164E-02  0.1300439E+00
        -11   -1    0    0    0    0  0.00000000000E+00  0.00000000000E+00  0.45593999997E+02  0.45594000000E+02  0.51100000000E-03 0. -1.
         11   -1    0    0    0    0 -0.00000000000E+00 -0.00000000000E+00 -0.45593999997E+02  0.45594000000E+02  0.51100000000E-03 0.  1.
    9900012    2    1    2    0    0 -0.10431210583E+02  0.37753220309E+02  0.10910975287E+02  0.50528865976E+02  0.30000018619E+02 0.  0.
        -12    1    1    2    0    0  0.10431210583E+02 -0.37753220309E+02 -0.10910975287E+02  0.40659134024E+02  0.00000000000E+00 0.  1.
         11    1    3    3    0    0 -0.44639379879E+01  0.15910851990E+02  0.26247597793E+01  0.16732343457E+02  0.51100000000E-03 0. -1.
        -11    1    3    3    0    0 -0.36060312958E+01 -0.47748959418E+01  0.73672180419E+00  0.60287521295E+01  0.51100000000E-03 0.  1.
        -12    1    3    3    0    0 -0.23612412989E+01  0.26617264261E+02  0.75494937039E+01  0.27767770389E+02  0.00000000000E+00 0.  1.
</event>
<event>
 7    1  0.9865694E-013  0.5052885E+02  0.7816164E-02  0.1300439E+00
        -11   -1    0    0    0    0  0.00000000000E+00  0.00000000000E+00  0.45593999997E+02  0.45594000000E+02  0.51100000000E-03 0.  1.
         11   -1    0    0    0    0 -0.00000000000E+00 -0.00000000000E+00 -0.45593999997E+02  0.45594000000E+02  0.51100000000E-03 0. -1.
    9900012    2    1    2    0    0 -0.17332007761E+02 -0.52746129665E+01 -0.36399809248E+02  0.50528854064E+02  0.29999982413E+02 0.  0.
        -12    1    1    2    0    0  0.17332007761E+02  0.52746129665E+01  0.36399809248E+02  0.40659145936E+02  0.00000000000E+00 0.  1.
         11    1    3    3    0    0 -0.65621790734E+01 -0.31587521723E+01 -0.97264891772E+01  0.12150905376E+02  0.51100000000E-03 0. -1.
        -11    1    3    3    0    0  0.41734768924E+01  0.27876377937E+01 -0.21105772981E+02  0.21694296191E+02  0.51100000000E-03 0.  1.
        -12    1    3    3    0    0 -0.14943305579E+02 -0.49034985879E+01 -0.55675470897E+01  0.16683652497E+02  0.00000000000E+00 0.  1.
</event>
<event>
 7    1  0.9865694E-013  0.5052885E+02  0.7816164E-02  0.1300439E+00
        -11   -1    0    0    0    0  0.00000000000E+00  0.00000000000E+00  0.45593999997E+02  0.45594000000E+02  0.51100000000E-03 0.  1.
         11   -1    0    0    0    0 -0.00000000000E+00 -0.00000000000E+00 -0.45593999997E+02  0.45594000000E+02  0.51100000000E-03 0. -1.
    9900012    2    1    2    0    0  0.19606855488E+02  0.57234696855E+01 -0.35156498242E+02  0.50528852739E+02  0.29999978385E+02 0.  0.
        -12    1    1    2    0    0 -0.19606855488E+02 -0.57234696855E+01  0.35156498242E+02  0.40659147261E+02  0.00000000000E+00 0.  1.
         11    1    3    3    0    0  0.52198252879E+01  0.99656911928E+01 -0.26402296334E+02  0.28699178193E+02  0.51100000000E-03 0. -1.
        -11    1    3    3    0    0  0.72092913084E+00 -0.45788025890E+01 -0.64867651638E+01  0.79726591870E+01  0.51100000000E-03 0.  1.
         12    1    3    3    0    0  0.13666101070E+02  0.33658108172E+00 -0.22674367442E+01  0.13857015359E+02  0.00000000000E+00 0. -1.
</event>
<event>
 7    1  0.9865694E-013  0.5052885E+02  0.7816164E-02  0.1300439E+00
        -11   -1    0    0    0    0  0.00000000000E+00  0.00000000000E+00  0.45593999997E+02  0.45594000000E+02  0.51100000000E-03 0.  1.
         11   -1    0    0    0    0 -0.00000000000E+00 -0.00000000000E+00 -0.45593999997E+02  0.45594000000E+02  0.51100000000E-03 0. -1.
    9900012    2    1    2    0    0  0.25353489365E+01  0.36161380295E+02 -0.18414470948E+02  0.50528853928E+02  0.29999981998E+02 0.  0.
        -12    1    1    2    0    0 -0.25353489365E+01 -0.36161380295E+02  0.18414470948E+02  0.40659146072E+02  0.00000000000E+00 0.  1.
         11    1    3    3    0    0  0.25631032329E+01  0.47004268842E+01 -0.13959579038E+00  0.53556510642E+01  0.51100000000E-03 0. -1.
        -11    1    3    3    0    0 -0.34522458911E+01  0.46189252129E+01  0.63561201555E+01  0.85821171926E+01  0.51100000000E-03 0.  1.
        -12    1    3    3    0    0  0.34244915947E+01  0.26842028197E+02 -0.24630995313E+02  0.36591085671E+02  0.00000000000E+00 0.  1.
</event>
<event>
 7    1  0.9865694E-013  0.5052886E+02  0.7816164E-02  0.1300439E+00
        -11   -1    0    0    0    0  0.00000000000E+00  0.00000000000E+00  0.45593999997E+02  0.45594000000E+02  0.51100000000E-03 0.  1.
         11   -1    0    0    0    0 -0.00000000000E+00 -0.00000000000E+00 -0.45593999997E+02  0.45594000000E+02  0.51100000000E-03 0. -1.
    9900012    2    1    2    0    0  0.73581415949E+01  0.36506846715E+02 -0.16317883276E+02  0.50528863027E+02  0.30000009657E+02 0.  0.
        -12    1    1    2    0    0 -0.73581415949E+01 -0.36506846715E+02  0.16317883276E+02  0.40659136973E+02  0.00000000000E+00 0.  1.
         11    1    3    3    0    0  0.15610321802E+02  0.17450061358E+02 -0.13581970836E+02  0.27067632335E+02  0.51100000000E-03 0. -1.
        -11    1    3    3    0    0 -0.86921911580E+01  0.20087468048E+02 -0.34129076682E+01  0.22151941195E+02  0.51100000000E-03 0.  1.
        -12    1    3    3    0    0  0.44001095067E+00 -0.10306826911E+01  0.67699522905E+00  0.13092894968E+01  0.00000000000E+00 0.  1.
</event>
<event>
 7    1  0.9865694E-013  0.5052886E+02  0.7816164E-02  0.1300439E+00
        -11   -1    0    0    0    0  0.00000000000E+00  0.00000000000E+00  0.45593999997E+02  0.45594000000E+02  0.51100000000E-03 0. -1.
         11   -1    0    0    0    0 -0.00000000000E+00 -0.00000000000E+00 -0.45593999997E+02  0.45594000000E+02  0.51100000000E-03 0.  1.
    9900012    2    1    2    0    0 -0.60540147795E+00 -0.21843591451E+02  0.34287853959E+02  0.50528856778E+02  0.29999990663E+02 0.  0.
        -12    1    1    2    0    0  0.60540147795E+00  0.21843591451E+02 -0.34287853959E+02  0.40659143222E+02  0.00000000000E+00 0.  1.
         11    1    3    3    0    0 -0.11385493653E+02 -0.15751338760E+02  0.29329065675E+02  0.35184204298E+02  0.51100000000E-03 0. -1.
        -11    1    3    3    0    0  0.10698407489E+02 -0.65602578320E+01  0.24440014145E+01  0.12785384186E+02  0.51100000000E-03 0.  1.
         12    1    3    3    0    0  0.81684686341E-01  0.46800514085E+00  0.25147868698E+01  0.25592682939E+01  0.00000000000E+00 0. -1.
</event>
<event>
 7    1  0.9865694E-013  0.5052885E+02  0.7816164E-02  0.1300439E+00
        -11   -1    0    0    0    0  0.00000000000E+00  0.00000000000E+00  0.45593999997E+02  0.45594000000E+02  0.51100000000E-03 0.  1.
         11   -1    0    0    0    0 -0.00000000000E+00 -0.00000000000E+00 -0.45593999997E+02  0.45594000000E+02  0.51100000000E-03 0. -1.
    9900012    2    1    2    0    0 -0.54839619866E+01 -0.18567863694E+02 -0.35753698028E+02  0.50528851904E+02  0.29999975846E+02 0.  0.
        -12    1    1    2    0    0  0.54839619866E+01  0.18567863694E+02  0.35753698028E+02  0.40659148096E+02  0.00000000000E+00 0.  1.
         11    1    3    3    0    0 -0.59321658863E+01  0.72273039501E+01 -0.10805137885E+02  0.14288999946E+02  0.51100000000E-03 0.  1.
        -11    1    3    3    0    0  0.16740193758E+01 -0.23656362752E+02 -0.23467949656E+02  0.33364209879E+02  0.51100000000E-03 0. -1.
        -12    1    3    3    0    0 -0.12258154761E+01 -0.21388048921E+01 -0.14806104879E+01  0.28756420787E+01  0.00000000000E+00 0.  1.
</event>
<event>
 7    1  0.9865694E-013  0.5052887E+02  0.7816164E-02  0.1300439E+00
        -11   -1    0    0    0    0  0.00000000000E+00  0.00000000000E+00  0.45593999997E+02  0.45594000000E+02  0.51100000000E-03 0.  1.
         11   -1    0    0    0    0 -0.00000000000E+00 -0.00000000000E+00 -0.45593999997E+02  0.45594000000E+02  0.51100000000E-03 0. -1.
    9900012    2    1    2    0    0  0.11993809807E+02  0.38593151503E+02 -0.44589721501E+01  0.50528865120E+02  0.30000016018E+02 0.  0.
        -12    1    1    2    0    0 -0.11993809807E+02 -0.38593151503E+02  0.44589721501E+01  0.40659134880E+02  0.00000000000E+00 0.  1.
         11    1    3    3    0    0  0.98622192333E+01  0.23196138884E+02 -0.32458769148E+01  0.25413774700E+02  0.51100000000E-03 0. -1.
        -11    1    3    3    0    0 -0.49427937212E+01  0.32102192778E+01  0.67246334723E+01  0.89418909174E+01  0.51100000000E-03 0.  1.
         12    1    3    3    0    0  0.70743842947E+01  0.12186793341E+02 -0.79377287076E+01  0.16173199502E+02  0.00000000000E+00 0. -1.
</event>
<event>
 7    1  0.9865694E-013  0.5052887E+02  0.7816164E-02  0.1300439E+00
        -11   -1    0    0    0    0  0.00000000000E+00  0.00000000000E+00  0.45593999997E+02  0.45594000000E+02  0.51100000000E-03 0.  1.
         11   -1    0    0    0    0 -0.00000000000E+00 -0.00000000000E+00 -0.45593999997E+02  0.45594000000E+02  0.51100000000E-03 0. -1.
    9900012    2    1    2    0    0 -0.12506731915E+01  0.24031504466E+02 -0.32773271284E+02  0.50528871861E+02  0.30000036510E+02 0.  0.
        -12    1    1    2    0    0  0.12506731915E+01 -0.24031504466E+02  0.32773271284E+02  0.40659128139E+02  0.00000000000E+00 0.  1.
         11    1    3    3    0    0  0.70182852100E+01  0.20420875894E+02 -0.18466190619E+02  0.28412474299E+02  0.51100000000E-03 0. -1.
        -11    1    3    3    0    0 -0.89825446390E+01 -0.10158297773E+01 -0.24458416465E+01  0.93648363547E+01  0.51100000000E-03 0.  1.
        -12    1    3    3    0    0  0.71358623756E+00  0.46264583495E+01 -0.11861239019E+02  0.12751561208E+02  0.00000000000E+00 0.  1.
</event>
<event>
 7    1  0.9865694E-013  0.5052888E+02  0.7816164E-02  0.1300439E+00
        -11   -1    0    0    0    0  0.00000000000E+00  0.00000000000E+00  0.45593999997E+02  0.45594000000E+02  0.51100000000E-03 0.  1.
         11   -1    0    0    0    0 -0.00000000000E+00 -0.00000000000E+00 -0.45593999997E+02  0.45594000000E+02  0.51100000000E-03 0. -1.
    9900012    2    1    2    0    0 -0.30377024313E+02 -0.22438245489E+02 -0.15064049758E+02  0.50528879721E+02  0.30000060399E+02 0.  0.
        -12    1    1    2    0    0  0.30377024313E+02  0.22438245489E+02  0.15064049758E+02  0.40659120279E+02  0.00000000000E+00 0.  1.
         11    1    3    3    0    0 -0.27962386513E+02 -0.18264270747E+02 -0.97012894758E+01  0.34779213091E+02  0.51100000000E-03 0. -1.
        -11    1    3    3    0    0 -0.44479423149E+01  0.36411423600E+01 -0.50770409564E+01  0.76693189825E+01  0.51100000000E-03 0.  1.
         12    1    3    3    0    0  0.20333045149E+01 -0.78151171022E+01 -0.28571932617E+00  0.80803476475E+01  0.00000000000E+00 0. -1.
</event>
<event>
 7    1  0.9865694E-013  0.5052885E+02  0.7816164E-02  0.1300439E+00
        -11   -1    0    0    0    0  0.00000000000E+00  0.00000000000E+00  0.45593999997E+02  0.45594000000E+02  0.51100000000E-03 0.  1.
         11   -1    0    0    0    0 -0.00000000000E+00 -0.00000000000E+00 -0.45593999997E+02  0.45594000000E+02  0.51100000000E-03 0. -1.
    9900012    2    1    2    0    0 -0.39570906881E+02 -0.81612510998E+01  0.45501591982E+01  0.50528848021E+02  0.29999964045E+02 0.  0.
        -12    1    1    2    0    0  0.39570906881E+02  0.81612510998E+01 -0.45501591982E+01  0.40659151979E+02  0.00000000000E+00 0.  1.
         11    1    3    3    0    0 -0.17738512729E+02  0.45815154338E+01 -0.41101106446E+01  0.18775998703E+02  0.51100000000E-03 0. -1.
        -11    1    3    3    0    0 -0.39002410726E+00 -0.36901210485E+01  0.75955725351E+01  0.84535101913E+01  0.51100000000E-03 0.  1.
        -12    1    3    3    0    0 -0.21442370044E+02 -0.90526454852E+01  0.10646973077E+01  0.23299339127E+02  0.00000000000E+00 0.  1.
</event>
<event>
 7    1  0.9865694E-013  0.5052885E+02  0.7816164E-02  0.1300439E+00
        -11   -1    0    0    0    0  0.00000000000E+00  0.00000000000E+00  0.45593999997E+02  0.45594000000E+02  0.51100000000E-03 0.  1.
         11   -1    0    0    0    0 -0.00000000000E+00 -0.00000000000E+00 -0.45593999997E+02  0.45594000000E+02  0.51100000000E-03 0. -1.
    9900012    2    1    2    0    0 -0.28665692590E+01 -0.34855894654E+02 -0.20736826768E+02  0.50528848560E+02  0.29999965682E+02 0.  0.
        -12    1    1    2    0    0  0.28665692590E+01  0.34855894654E+02  0.20736826768E+02  0.40659151440E+02  0.00000000000E+00 0.  1.
         11    1    3    3    0    0  0.45326585255E+01 -0.13767137101E+02 -0.75952779626E+01  0.16363596941E+02  0.51100000000E-03 0. -1.
        -11    1    3    3    0    0 -0.10296923831E+02 -0.19477587318E+02 -0.17885387235E+02  0.28377634237E+02  0.51100000000E-03 0.  1.
        -12    1    3    3    0    0  0.28976960463E+01 -0.16111702351E+01  0.47438384294E+01  0.57876173809E+01  0.00000000000E+00 0.  1.
</event>
<event>
 7    1  0.9865694E-013  0.5052886E+02  0.7816164E-02  0.1300439E+00
        -11   -1    0    0    0    0  0.00000000000E+00  0.00000000000E+00  0.45593999997E+02  0.45594000000E+02  0.51100000000E-03 0. -1.
         11   -1    0    0    0    0 -0.00000000000E+00 -0.00000000000E+00 -0.45593999997E+02  0.45594000000E+02  0.51100000000E-03 0.  1.
    9900012    2    1    2    0    0  0.26243081816E+02 -0.31026467412E+02 -0.13508180206E+01  0.50528859176E+02  0.29999997951E+02 0.  0.
        -12    1    1    2    0    0 -0.26243081816E+02  0.31026467412E+02  0.13508180206E+01  0.40659140824E+02  0.00000000000E+00 0.  1.
         11    1    3    3    0    0  0.24447934484E+02 -0.71733139316E+01 -0.27638629753E+01  0.25628048543E+02  0.51100000000E-03 0. -1.
        -11    1    3    3    0    0  0.43380971167E+01 -0.12926844313E+02  0.10697257828E+01  0.13677233054E+02  0.51100000000E-03 0.  1.
        -12    1    3    3    0    0 -0.25429497857E+01 -0.10926309167E+02  0.34331917195E+00  0.11223577579E+02  0.00000000000E+00 0.  1.
</event>
<event>
 7    1  0.9865694E-013  0.5052886E+02  0.7816164E-02  0.1300439E+00
        -11   -1    0    0    0    0  0.00000000000E+00  0.00000000000E+00  0.45593999997E+02  0.45594000000E+02  0.51100000000E-03 0.  1.
         11   -1    0    0    0    0 -0.00000000000E+00 -0.00000000000E+00 -0.45593999997E+02  0.45594000000E+02  0.51100000000E-03 0. -1.
    9900012    2    1    2    0    0  0.15011001943E+02  0.37042248612E+02  0.74637114752E+01  0.50528863874E+02  0.30000012231E+02 0.  0.
        -12    1    1    2    0    0 -0.15011001943E+02 -0.37042248612E+02 -0.74637114752E+01  0.40659136126E+02  0.00000000000E+00 0.  1.
         11    1    3    3    0    0  0.20004734772E+02  0.39061183502E+02  0.90747047468E+01  0.44814235867E+02  0.51100000000E-03 0. -1.
        -11    1    3    3    0    0 -0.31339689785E+01 -0.15530309987E+01 -0.14642267934E+01  0.37917841717E+01  0.51100000000E-03 0.  1.
         12    1    3    3    0    0 -0.18597638501E+01 -0.46590389152E+00 -0.14676647820E+00  0.19228438349E+01  0.00000000000E+00 0. -1.
</event>
<event>
 7    1  0.9865694E-013  0.5052886E+02  0.7816164E-02  0.1300439E+00
        -11   -1    0    0    0    0  0.00000000000E+00  0.00000000000E+00  0.45593999997E+02  0.45594000000E+02  0.51100000000E-03 0. -1.
         11   -1    0    0    0    0 -0.00000000000E+00 -0.00000000000E+00 -0.45593999997E+02  0.45594000000E+02  0.51100000000E-03 0.  1.
    9900012    2    1    2    0    0  0.30999537962E+02 -0.16654135636E+02  0.20367471185E+02  0.50528862403E+02  0.30000007761E+02 0.  0.
        -12    1    1    2    0    0 -0.30999537962E+02  0.16654135636E+02 -0.20367471185E+02  0.40659137597E+02  0.00000000000E+00 0.  1.
         11    1    3    3    0    0  0.22873343720E+01 -0.63417543897E+01  0.30324661397E+01  0.73922661219E+01  0.51100000000E-03 0. -1.
        -11    1    3    3    0    0  0.36010696704E+01  0.42885107428E+01  0.12489896130E+02  0.13687824253E+02  0.51100000000E-03 0.  1.
        -12    1    3    3    0    0  0.25111133920E+02 -0.14600891989E+02  0.48451089149E+01  0.29448772029E+02  0.00000000000E+00 0.  1.
</event>
<event>
 7    1  0.9865694E-013  0.5052886E+02  0.7816164E-02  0.1300439E+00
        -11   -1    0    0    0    0  0.00000000000E+00  0.00000000000E+00  0.45593999997E+02  0.45594000000E+02  0.51100000000E-03 0. -1.
         11   -1    0    0    0    0 -0.00000000000E+00 -0.00000000000E+00 -0.45593999997E+02  0.45594000000E+02  0.51100000000E-03 0.  1.
    9900012    2    1    2    0    0  0.19642745488E+02  0.34855582114E+02  0.72399314583E+01  0.50528860040E+02  0.30000000576E+02 0.  0.
        -12    1    1    2    0    0 -0.19642745488E+02 -0.34855582114E+02 -0.72399314583E+01  0.40659139960E+02  0.00000000000E+00 0.  1.
         11    1    3    3    0    0  0.34191728822E+01  0.16531759593E+02  0.49891956286E+01  0.17603462493E+02  0.51100000000E-03 0. -1.
        -11    1    3    3    0    0  0.15740501951E+02  0.11755978092E+02 -0.76094256695E+01  0.21068217339E+02  0.51100000000E-03 0.  1.
        -12    1    3    3    0    0  0.48307065521E+00  0.65678444286E+01  0.98601614993E+01  0.11857180208E+02  0.00000000000E+00 0.  1.
</event>
<event>
 7    1  0.9865694E-013  0.5052886E+02  0.7816164E-02  0.1300439E+00
        -11   -1    0    0    0    0  0.00000000000E+00  0.00000000000E+00  0.45593999997E+02  0.45594000000E+02  0.51100000000E-03 0.  1.
         11   -1    0    0    0    0 -0.00000000000E+00 -0.00000000000E+00 -0.45593999997E+02  0.45594000000E+02  0.51100000000E-03 0. -1.
    9900012    2    1    2    0    0  0.27050684925E+02  0.83141083551E+00 -0.30343611860E+02  0.50528861057E+02  0.30000003669E+02 0.  0.
        -12    1    1    2    0    0 -0.27050684925E+02 -0.83141083551E+00  0.30343611860E+02  0.40659138943E+02  0.00000000000E+00 0.  1.
         11    1    3    3    0    0  0.21728232933E+02  0.78187746850E+01 -0.12783781678E+02  0.26394590700E+02  0.51100000000E-03 0. -1.
        -11    1    3    3    0    0 -0.23312349459E+01 -0.42365373189E+01 -0.58992869753E-01  0.48359471923E+01  0.51100000000E-03 0.  1.
         12    1    3    3    0    0  0.76536869375E+01 -0.27508265306E+01 -0.17500837312E+02  0.19298323165E+02  0.00000000000E+00 0. -1.
</event>
<event>
 7    1  0.9865694E-013  0.5052887E+02  0.7816164E-02  0.1300439E+00
        -11   -1    0    0    0    0  0.00000000000E+00  0.00000000000E+00  0.45593999997E+02  0.45594000000E+02  0.51100000000E-03 0.  1.
         11   -1    0    0    0    0 -0.00000000000E+00 -0.00000000000E+00 -0.45593999997E+02  0.45594000000E+02  0.51100000000E-03 0. -1.
    9900012    2    1    2    0    0  0.22004506375E+02 -0.33111790160E+02 -0.85191571159E+01  0.50528868352E+02  0.30000025843E+02 0.  0.
        -12    1    1    2    0    0 -0.22004506375E+02  0.33111790160E+02  0.85191571159E+01  0.40659131648E+02  0.00000000000E+00 0.  1.
         11    1    3    3    0    0  0.62798376251E+01 -0.64708868100E+01 -0.63920898078E+01  0.11052943005E+02  0.51100000000E-03 0. -1.
        -11    1    3    3    0    0 -0.60569726949E+01 -0.34003118499E+01  0.23010365481E+01  0.73173634842E+01  0.51100000000E-03 0.  1.
        -12    1    3    3    0    0  0.21781641445E+02 -0.23240591500E+02 -0.44281038561E+01  0.32158561862E+02  0.00000000000E+00 0.  1.
</event>
<event>
 7    1  0.9865694E-013  0.5052885E+02  0.7816164E-02  0.1300439E+00
        -11   -1    0    0    0    0  0.00000000000E+00  0.00000000000E+00  0.45593999997E+02  0.45594000000E+02  0.51100000000E-03 0.  1.
         11   -1    0    0    0    0 -0.00000000000E+00 -0.00000000000E+00 -0.45593999997E+02  0.45594000000E+02  0.51100000000E-03 0. -1.
    9900012    2    1    2    0    0 -0.14775945794E+01  0.15375695675E+02 -0.37610782887E+02  0.50528852289E+02  0.29999977017E+02 0.  0.
        -12    1    1    2    0    0  0.14775945794E+01 -0.15375695675E+02  0.37610782887E+02  0.40659147711E+02  0.00000000000E+00 0.  1.
         11    1    3    3    0    0 -0.27374787123E+01  0.18866842243E+02 -0.38062437624E+02  0.42569950482E+02  0.51100000000E-03 0. -1.
        -11    1    3    3    0    0  0.19510006579E+01  0.17717127871E+01  0.24622049936E+00  0.26468839345E+01  0.51100000000E-03 0.  1.
         12    1    3    3    0    0 -0.69111652501E+00 -0.52628593553E+01  0.20543423754E+00  0.53120178719E+01  0.00000000000E+00 0. -1.
</event>
<event>
 7    1  0.9865694E-013  0.5052885E+02  0.7816164E-02  0.1300439E+00
        -11   -1    0    0    0    0  0.00000000000E+00  0.00000000000E+00  0.45593999997E+02  0.45594000000E+02  0.51100000000E-03 0.  1.
         11   -1    0    0    0    0 -0.00000000000E+00 -0.00000000000E+00 -0.45593999997E+02  0.45594000000E+02  0.51100000000E-03 0. -1.
    9900012    2    1    2    0    0 -0.17706041584E+02 -0.12673574464E+02 -0.34337192687E+02  0.50528853429E+02  0.29999980484E+02 0.  0.
        -12    1    1    2    0    0  0.17706041584E+02  0.12673574464E+02  0.34337192687E+02  0.40659146571E+02  0.00000000000E+00 0.  1.
         11    1    3    3    0    0 -0.91101790437E+01 -0.62685190828E+01 -0.98097149230E+01  0.14782428787E+02  0.51100000000E-03 0. -1.
        -11    1    3    3    0    0  0.73333511681E+01 -0.29728273616E+01 -0.24047511009E+01  0.82703427979E+01  0.51100000000E-03 0.  1.
        -12    1    3    3    0    0 -0.15929213708E+02 -0.34322280191E+01 -0.22122726663E+02  0.27476081845E+02  0.00000000000E+00 0.  1.
</event>
<event>
 7    1  0.9865694E-013  0.5052886E+02  0.7816164E-02  0.1300439E+00
        -11   -1    0    0    0    0  0.00000000000E+00  0.00000000000E+00  0.45593999997E+02  0.45594000000E+02  0.51100000000E-03 0. -1.
         11   -1    0    0    0    0 -0.00000000000E+00 -0.00000000000E+00 -0.45593999997E+02  0.45594000000E+02  0.51100000000E-03 0.  1.
    9900012    2    1    2    0    0  0.32916422191E+02  0.13584261929E+02  0.19625054995E+02  0.50528858278E+02  0.29999995222E+02 0.  0.
        -12    1    1    2    0    0 -0.32916422191E+02 -0.13584261929E+02 -0.19625054995E+02  0.40659141722E+02  0.00000000000E+00 0.  1.
         11    1    3    3    0    0  0.24808061973E+02  0.10861037225E+02  0.23716664436E+02  0.35998364417E+02  0.51100000000E-03 0. -1.
        -11    1    3    3    0    0 -0.13034218218E+01 -0.13784062306E+01 -0.38143365165E+01  0.42600558100E+01  0.51100000000E-03 0.  1.
         12    1    3    3    0    0  0.94117820393E+01  0.41016309348E+01 -0.27727292464E+00  0.10270438051E+02  0.00000000000E+00 0. -1.
</event>
<event>
 7    1  0.9865694E-013  0.5052886E+02  0.7816164E-02  0.1300439E+00
        -11   -1    0    0    0    0  0.00000000000E+00  0.00000000000E+00  0.45593999997E+02  0.45594000000E+02  0.51100000000E-03 0. -1.
         11   -1    0    0    0    0 -0.00000000000E+00 -0.00000000000E+00 -0.45593999997E+02  0.45594000000E+02  0.51100000000E-03 0.  1.
    9900012    2    1    2    0    0  0.37211873372E+02 -0.11480462214E+02  0.11689368238E+02  0.50528857581E+02  0.29999993102E+02 0.  0.
        -12    1    1    2    0    0 -0.37211873372E+02  0.11480462214E+02 -0.11689368238E+02  0.40659142419E+02  0.00000000000E+00 0.  1.
         11    1    3    3    0    0  0.30977090777E+02 -0.12385144663E+00  0.17478416238E+02  0.35568111091E+02  0.51100000000E-03 0. -1.
        -11    1    3    3    0    0  0.57716090294E+01 -0.98215117182E+01 -0.30602289524E+01  0.11795701112E+02  0.51100000000E-03 0.  1.
         12    1    3    3    0    0  0.46317356581E+00 -0.15350990490E+01 -0.27288190482E+01  0.31650453773E+01  0.00000000000E+00 0. -1.
</event>
<event>
 7    1  0.9865694E-013  0.5052886E+02  0.7816164E-02  0.1300439E+00
        -11   -1    0    0    0    0  0.00000000000E+00  0.00000000000E+00  0.45593999997E+02  0.45594000000E+02  0.51100000000E-03 0. -1.
         11   -1    0    0    0    0 -0.00000000000E+00 -0.00000000000E+00 -0.45593999997E+02  0.45594000000E+02  0.51100000000E-03 0.  1.
    9900012    2    1    2    0    0  0.11192351808E+02  0.38780897660E+02  0.48927357410E+01  0.50528860494E+02  0.30000001959E+02 0.  0.
        -12    1    1    2    0    0 -0.11192351808E+02 -0.38780897660E+02 -0.48927357410E+01  0.40659139506E+02  0.00000000000E+00 0.  1.
         11    1    3    3    0    0  0.14152253892E+01 -0.13086095288E+01 -0.59026187771E+01  0.62093663517E+01  0.51100000000E-03 0.  1.
        -11    1    3    3    0    0  0.11541188756E+02  0.22610674238E+02  0.55494175585E+01  0.25985335535E+02  0.51100000000E-03 0. -1.
        -12    1    3    3    0    0 -0.17640623368E+01  0.17478832951E+02  0.52459369596E+01  0.18334158607E+02  0.00000000000E+00 0.  1.
</event>
<event>
 7    1  0.9865694E-013  0.5052886E+02  0.7816164E-02  0.1300439E+00
        -11   -1    0    0    0    0  0.00000000000E+00  0.00000000000E+00  0.45593999997E+02  0.45594000000E+02  0.51100000000E-03 0. -1.
         11   -1    0    0    0    0 -0.00000000000E+00 -0.00000000000E+00 -0.45593999997E+02  0.45594000000E+02  0.51100000000E-03 0.  1.
    9900012    2    1    2    0    0  0.12481710515E+02  0.37155682342E+02 -0.10808693963E+02  0.50528859664E+02  0.29999999434E+02 0.  0.
        -12    1    1    2    0    0 -0.12481710515E+02 -0.37155682342E+02  0.10808693963E+02  0.40659140336E+02  0.00000000000E+00 0.  1.
         11    1    3    3    0    0  0.55027636150E+01  0.13819482818E+02  0.23291572250E+01  0.15056011637E+02  0.51100000000E-03 0. -1.
        -11    1    3    3    0    0  0.54926441925E+01  0.89206167555E+01 -0.17449819400E+02  0.20352954107E+02  0.51100000000E-03 0.  1.
        -12    1    3    3    0    0  0.14863027074E+01  0.14415582768E+02  0.43119682121E+01  0.15119893920E+02  0.00000000000E+00 0.  1.
</event>
<event>
 7    1  0.9865694E-013  0.5052886E+02  0.7816164E-02  0.1300439E+00
        -11   -1    0    0    0    0  0.00000000000E+00  0.00000000000E+00  0.45593999997E+02  0.45594000000E+02  0.51100000000E-03 0.  1.
         11   -1    0    0    0    0 -0.00000000000E+00 -0.00000000000E+00 -0.45593999997E+02  0.45594000000E+02  0.51100000000E-03 0. -1.
    9900012    2    1    2    0    0  0.10866743882E+02  0.17016263926E+02 -0.35292013999E+02  0.50528860649E+02  0.30000002430E+02 0.  0.
        -12    1    1    2    0    0 -0.10866743882E+02 -0.17016263926E+02  0.35292013999E+02  0.40659139351E+02  0.00000000000E+00 0.  1.
         11    1    3    3    0    0  0.41148721990E+01  0.35297769249E+01 -0.27806306821E+02  0.28329881708E+02  0.51100000000E-03 0. -1.
        -11    1    3    3    0    0  0.61895838202E+01  0.46794200749E+01  0.31537997249E+01  0.83758207402E+01  0.51100000000E-03 0.  1.
         12    1    3    3    0    0  0.56228786286E+00  0.88070669263E+01 -0.10639506904E+02  0.13823158201E+02  0.00000000000E+00 0. -1.
</event>
<event>
 7    1  0.9865694E-013  0.5052885E+02  0.7816164E-02  0.1300439E+00
        -11   -1    0    0    0    0  0.00000000000E+00  0.00000000000E+00  0.45593999997E+02  0.45594000000E+02  0.51100000000E-03 0.  1.
         11   -1    0    0    0    0 -0.00000000000E+00 -0.00000000000E+00 -0.45593999997E+02  0.45594000000E+02  0.51100000000E-03 0. -1.
    9900012    2    1    2    0    0  0.22076765248E+02  0.30292603616E+02  0.15752485433E+02  0.50528853489E+02  0.29999980666E+02 0.  0.
        -12    1    1    2    0    0 -0.22076765248E+02 -0.30292603616E+02 -0.15752485433E+02  0.40659146511E+02  0.00000000000E+00 0.  1.
         11    1    3    3    0    0  0.16392045729E+02  0.26086190171E+02  0.14988392754E+02  0.34261354299E+02  0.51100000000E-03 0. -1.
        -11    1    3    3    0    0 -0.75314329626E+00 -0.45262180451E+01 -0.21006752290E+01  0.50464553199E+01  0.51100000000E-03 0.  1.
        -12    1    3    3    0    0  0.64378628148E+01  0.87326314901E+01  0.28647679084E+01  0.11221043870E+02  0.00000000000E+00 0.  1.
</event>
<event>
 7    1  0.9865694E-013  0.5052886E+02  0.7816164E-02  0.1300439E+00
        -11   -1    0    0    0    0  0.00000000000E+00  0.00000000000E+00  0.45593999997E+02  0.45594000000E+02  0.51100000000E-03 0.  1.
         11   -1    0    0    0    0 -0.00000000000E+00 -0.00000000000E+00 -0.45593999997E+02  0.45594000000E+02  0.51100000000E-03 0. -1.
    9900012    2    1    2    0    0  0.16009589003E+02  0.37014414268E+02  0.51760563146E+01  0.50528863725E+02  0.30000011779E+02 0.  0.
        -12    1    1    2    0    0 -0.16009589003E+02 -0.37014414268E+02 -0.51760563146E+01  0.40659136275E+02  0.00000000000E+00 0.  1.
         11    1    3    3    0    0  0.71762890927E+01  0.80189168883E+01 -0.82516492925E+01  0.13560673638E+02  0.51100000000E-03 0. -1.
        -11    1    3    3    0    0 -0.74278577569E+00  0.23060928740E+02  0.76564082805E+01  0.24310054568E+02  0.51100000000E-03 0.  1.
         12    1    3    3    0    0  0.95760856855E+01  0.59345686394E+01  0.57712973266E+01  0.12658135519E+02  0.00000000000E+00 0. -1.
</event>
<event>
 7    1  0.9865694E-013  0.5052886E+02  0.7816164E-02  0.1300439E+00
        -11   -1    0    0    0    0  0.00000000000E+00  0.00000000000E+00  0.45593999997E+02  0.45594000000E+02  0.51100000000E-03 0.  1.
         11   -1    0    0    0    0 -0.00000000000E+00 -0.00000000000E+00 -0.45593999997E+02  0.45594000000E+02  0.51100000000E-03 0. -1.
    9900012    2    1    2    0    0  0.71759913304E+01  0.39217020050E+02  0.79809706930E+01  0.50528863187E+02  0.30000010142E+02 0.  0.
        -12    1    1    2    0    0 -0.71759913304E+01 -0.39217020050E+02 -0.79809706930E+01  0.40659136813E+02  0.00000000000E+00 0.  1.
         11    1    3    3    0    0  0.74336429451E+01  0.14432449216E+02  0.13950931195E+02  0.21405212432E+02  0.51100000000E-03 0. -1.
        -11    1    3    3    0    0 -0.36029242956E+01  0.16565574516E+02  0.21585481472E+01  0.17089723605E+02  0.51100000000E-03 0.  1.
         12    1    3    3    0    0  0.33452726809E+01  0.82189963186E+01 -0.81285086488E+01  0.12033927150E+02  0.00000000000E+00 0. -1.
</event>
<event>
 7    1  0.9865694E-013  0.5052886E+02  0.7816164E-02  0.1300439E+00
        -11   -1    0    0    0    0  0.00000000000E+00  0.00000000000E+00  0.45593999997E+02  0.45594000000E+02  0.51100000000E-03 0.  1.
         11   -1    0    0    0    0 -0.00000000000E+00 -0.00000000000E+00 -0.45593999997E+02  0.45594000000E+02  0.51100000000E-03 0. -1.
    9900012    2    1    2    0    0  0.52569679485E+00  0.37142017103E+01 -0.40485723074E+02  0.50528862967E+02  0.30000009474E+02 0.  0.
        -12    1    1    2    0    0 -0.52569679485E+00 -0.37142017103E+01  0.40485723074E+02  0.40659137033E+02  0.00000000000E+00 0.  1.
         11    1    3    3    0    0 -0.12579778298E+01  0.12128477515E+02 -0.20675129483E+02  0.24002988448E+02  0.51100000000E-03 0. -1.
        -11    1    3    3    0    0 -0.60118115509E+01 -0.63600598440E+01 -0.62655416123E+01  0.10763329006E+02  0.51100000000E-03 0.  1.
         12    1    3    3    0    0  0.77954861756E+01 -0.20542159606E+01 -0.13545051978E+02  0.15762545512E+02  0.00000000000E+00 0. -1.
</event>
<event>
 7    1  0.9865694E-013  0.5052886E+02  0.7816164E-02  0.1300439E+00
        -11   -1    0    0    0    0  0.00000000000E+00  0.00000000000E+00  0.45593999997E+02  0.45594000000E+02  0.51100000000E-03 0. -1.
         11   -1    0    0    0    0 -0.00000000000E+00 -0.00000000000E+00 -0.45593999997E+02  0.45594000000E+02  0.51100000000E-03 0.  1.
    9900012    2    1    2    0    0 -0.31294864949E+02  0.25912203272E+02  0.15345627217E+01  0.50528859167E+02  0.29999997923E+02 0.  0.
        -12    1    1    2    0    0  0.31294864949E+02 -0.25912203272E+02 -0.15345627217E+01  0.40659140833E+02  0.00000000000E+00 0.  1.
         11    1    3    3    0    0 -0.30593572520E+02  0.19797828400E+02  0.11633609444E+02  0.38252601975E+02  0.51100000000E-03 0. -1.
        -11    1    3    3    0    0  0.90557364284E+00  0.13634929159E+01 -0.43462330441E+01  0.46442349735E+01  0.51100000000E-03 0.  1.
         12    1    3    3    0    0 -0.16068660719E+01  0.47508819556E+01 -0.57528136781E+01  0.76320222185E+01  0.00000000000E+00 0. -1.
</event>
<event>
 7    1  0.9865694E-013  0.5052888E+02  0.7816164E-02  0.1300439E+00
        -11   -1    0    0    0    0  0.00000000000E+00  0.00000000000E+00  0.45593999997E+02  0.45594000000E+02  0.51100000000E-03 0.  1.
         11   -1    0    0    0    0 -0.00000000000E+00 -0.00000000000E+00 -0.45593999997E+02  0.45594000000E+02  0.51100000000E-03 0. -1.
    9900012    2    1    2    0    0  0.19848561275E+02 -0.75068985557E+01 -0.34682061599E+02  0.50528876702E+02  0.30000051223E+02 0.  0.
        -12    1    1    2    0    0 -0.19848561275E+02  0.75068985557E+01  0.34682061599E+02  0.40659123298E+02  0.00000000000E+00 0.  1.
         11    1    3    3    0    0  0.16290771895E+02 -0.45942255564E+01 -0.52727763096E+01  0.17728460950E+02  0.51100000000E-03 0. -1.
        -11    1    3    3    0    0 -0.77411454117E+00 -0.65118892870E+01 -0.65919111050E+01  0.92982389562E+01  0.51100000000E-03 0.  1.
         12    1    3    3    0    0  0.43319039217E+01  0.35992162876E+01 -0.22817374184E+02  0.23502176796E+02  0.00000000000E+00 0. -1.
</event>
<event>
 7    1  0.9865694E-013  0.5052885E+02  0.7816164E-02  0.1300439E+00
        -11   -1    0    0    0    0  0.00000000000E+00  0.00000000000E+00  0.45593999997E+02  0.45594000000E+02  0.51100000000E-03 0. -1.
         11   -1    0    0    0    0 -0.00000000000E+00 -0.00000000000E+00 -0.45593999997E+02  0.45594000000E+02  0.51100000000E-03 0.  1.
    9900012    2    1    2    0    0  0.23403524834E+02  0.23264003723E+02  0.23753481033E+02  0.50528847216E+02  0.29999961598E+02 0.  0.
        -12    1    1    2    0    0 -0.23403524834E+02 -0.23264003723E+02 -0.23753481033E+02  0.40659152784E+02  0.00000000000E+00 0.  1.
         11    1    3    3    0    0  0.21030816771E+02  0.45181293979E+01  0.22016269566E+01  0.21623041156E+02  0.51100000000E-03 0. -1.
        -11    1    3    3    0    0  0.27426996659E+01  0.97213148203E+01  0.13043733278E+02  0.16497434388E+02  0.51100000000E-03 0.  1.
         12    1    3    3    0    0 -0.36999160217E+00  0.90245595050E+01  0.85081207983E+01  0.12408371673E+02  0.00000000000E+00 0. -1.
</event>
<event>
 7    1  0.9865694E-013  0.5052885E+02  0.7816164E-02  0.1300439E+00
        -11   -1    0    0    0    0  0.00000000000E+00  0.00000000000E+00  0.45593999997E+02  0.45594000000E+02  0.51100000000E-03 0.  1.
         11   -1    0    0    0    0 -0.00000000000E+00 -0.00000000000E+00 -0.45593999997E+02  0.45594000000E+02  0.51100000000E-03 0. -1.
    9900012    2    1    2    0    0  0.20250219718E+02 -0.34752255671E+02 -0.59477603781E+01  0.50528849414E+02  0.29999968280E+02 0.  0.
        -12    1    1    2    0    0 -0.20250219718E+02  0.34752255671E+02  0.59477603781E+01  0.40659150586E+02  0.00000000000E+00 0.  1.
         11    1    3    3    0    0  0.79569276960E+01  0.22049996422E+01 -0.73067115543E+01  0.11025550135E+02  0.51100000000E-03 0. -1.
        -11    1    3    3    0    0  0.39837583079E+01 -0.16408918167E+02  0.34688550315E+01  0.17238209918E+02  0.51100000000E-03 0.  1.
         12    1    3    3    0    0  0.83095337145E+01 -0.20548337145E+02 -0.21099038553E+01  0.22265089361E+02  0.00000000000E+00 0. -1.
</event>
<event>
 7    1  0.9865694E-013  0.5052885E+02  0.7816164E-02  0.1300439E+00
        -11   -1    0    0    0    0  0.00000000000E+00  0.00000000000E+00  0.45593999997E+02  0.45594000000E+02  0.51100000000E-03 0. -1.
         11   -1    0    0    0    0 -0.00000000000E+00 -0.00000000000E+00 -0.45593999997E+02  0.45594000000E+02  0.51100000000E-03 0.  1.
    9900012    2    1    2    0    0  0.17331637521E+02 -0.31630069209E+02  0.18770172043E+02  0.50528852249E+02  0.29999976897E+02 0.  0.
        -12    1    1    2    0    0 -0.17331637521E+02  0.31630069209E+02 -0.18770172043E+02  0.40659147751E+02  0.00000000000E+00 0.  1.
         11    1    3    3    0    0  0.18309908923E+02 -0.24380042292E+02  0.65031623147E+01  0.31175797460E+02  0.51100000000E-03 0. -1.
        -11    1    3    3    0    0 -0.59028024220E+01 -0.52375764990E+01  0.25819673470E+01  0.83031222837E+01  0.51100000000E-03 0.  1.
         12    1    3    3    0    0  0.49245310200E+01 -0.20124504180E+01  0.96850423814E+01  0.11049932506E+02  0.00000000000E+00 0. -1.
</event>
<event>
 7    1  0.9865694E-013  0.5052886E+02  0.7816164E-02  0.1300439E+00
        -11   -1    0    0    0    0  0.00000000000E+00  0.00000000000E+00  0.45593999997E+02  0.45594000000E+02  0.51100000000E-03 0.  1.
         11   -1    0    0    0    0 -0.00000000000E+00 -0.00000000000E+00 -0.45593999997E+02  0.45594000000E+02  0.51100000000E-03 0. -1.
    9900012    2    1    2    0    0  0.33788137371E+02 -0.22111247569E+02 -0.47560726545E+01  0.50528859292E+02  0.29999998303E+02 0.  0.
        -12    1    1    2    0    0 -0.33788137371E+02  0.22111247569E+02  0.47560726545E+01  0.40659140708E+02  0.00000000000E+00 0.  1.
         11    1    3    3    0    0  0.19371011313E+02  0.22136517044E+01 -0.66945234161E+01  0.20614387626E+02  0.51100000000E-03 0. -1.
        -11    1    3    3    0    0  0.93325183126E+01 -0.13504258122E+02  0.57067328249E+01  0.17378943733E+02  0.51100000000E-03 0.  1.
         12    1    3    3    0    0  0.50846077452E+01 -0.10820641151E+02 -0.37682820632E+01  0.12535527933E+02  0.00000000000E+00 0. -1.
</event>
<event>
 7    1  0.9865694E-013  0.5052884E+02  0.7816164E-02  0.1300439E+00
        -11   -1    0    0    0    0  0.00000000000E+00  0.00000000000E+00  0.45593999997E+02  0.45594000000E+02  0.51100000000E-03 0.  1.
         11   -1    0    0    0    0 -0.00000000000E+00 -0.00000000000E+00 -0.45593999997E+02  0.45594000000E+02  0.51100000000E-03 0. -1.
    9900012    2    1    2    0    0 -0.34661234626E+02  0.18815654308E+02 -0.98861969139E+01  0.50528844546E+02  0.29999953482E+02 0.  0.
        -12    1    1    2    0    0  0.34661234626E+02 -0.18815654308E+02  0.98861969139E+01  0.40659155454E+02  0.00000000000E+00 0.  1.
         11    1    3    3    0    0 -0.14665806375E+02  0.20255381670E+02  0.19865870638E+01  0.25086109536E+02  0.51100000000E-03 0. -1.
        -11    1    3    3    0    0 -0.47401780658E+01 -0.48424676791E+01 -0.46908304068E+01  0.82415211876E+01  0.51100000000E-03 0.  1.
         12    1    3    3    0    0 -0.15255250184E+02  0.34027403174E+01 -0.71819535709E+01  0.17201213822E+02  0.00000000000E+00 0. -1.
</event>
<event>
 7    1  0.9865694E-013  0.5052886E+02  0.7816164E-02  0.1300439E+00
        -11   -1    0    0    0    0  0.00000000000E+00  0.00000000000E+00  0.45593999997E+02  0.45594000000E+02  0.51100000000E-03 0. -1.
         11   -1    0    0    0    0 -0.00000000000E+00 -0.00000000000E+00 -0.45593999997E+02  0.45594000000E+02  0.51100000000E-03 0.  1.
    9900012    2    1    2    0    0  0.39548532518E+02 -0.91935199141E+01  0.21351000920E+01  0.50528857299E+02  0.29999992246E+02 0.  0.
        -12    1    1    2    0    0 -0.39548532518E+02  0.91935199141E+01 -0.21351000920E+01  0.40659142701E+02  0.00000000000E+00 0.  1.
         11    1    3    3    0    0  0.13897583696E+01 -0.11078481429E+02  0.22369734507E+01  0.11387195861E+02  0.51100000000E-03 0. -1.
        -11    1    3    3    0    0  0.22800603124E+01  0.19882729286E+01  0.11616017965E+01  0.32405590971E+01  0.51100000000E-03 0.  1.
         12    1    3    3    0    0  0.35878713836E+02 -0.10331141337E+00 -0.12634751551E+01  0.35901102341E+02  0.00000000000E+00 0. -1.
</event>
<event>
 7    1  0.9865694E-013  0.5052886E+02  0.7816164E-02  0.1300439E+00
        -11   -1    0    0    0    0  0.00000000000E+00  0.00000000000E+00  0.45593999997E+02  0.45594000000E+02  0.51100000000E-03 0.  1.
         11   -1    0    0    0    0 -0.00000000000E+00 -0.00000000000E+00 -0.45593999997E+02  0.45594000000E+02  0.51100000000E-03 0. -1.
    9900012    2    1    2    0    0  0.16175201855E+02 -0.26939830342E+02 -0.25802594504E+02  0.50528862072E+02  0.30000006755E+02 0.  0.
        -12    1    1    2    0    0 -0.16175201855E+02  0.26939830342E+02  0.25802594504E+02  0.40659137928E+02  0.00000000000E+00 0.  1.
         11    1    3    3    0    0  0.16442027500E+02 -0.22828193234E+02 -0.29404193173E+02  0.40694879912E+02  0.51100000000E-03 0. -1.
        -11    1    3    3    0    0 -0.34846754165E+01 -0.47156477598E+01  0.25628826169E+01  0.63991143232E+01  0.51100000000E-03 0.  1.
         12    1    3    3    0    0  0.32178497718E+01  0.60401065182E+00  0.10387160526E+01  0.34348678373E+01  0.00000000000E+00 0. -1.
</event>
<event>
 7    1  0.9865694E-013  0.5052884E+02  0.7816164E-02  0.1300439E+00
        -11   -1    0    0    0    0  0.00000000000E+00  0.00000000000E+00  0.45593999997E+02  0.45594000000E+02  0.51100000000E-03 0.  1.
         11   -1    0    0    0    0 -0.00000000000E+00 -0.00000000000E+00 -0.45593999997E+02  0.45594000000E+02  0.51100000000E-03 0. -1.
    9900012    2    1    2    0    0  0.20490508762E+02 -0.34664894051E+02 -0.56259294839E+01  0.50528844679E+02  0.29999953885E+02 0.  0.
        -12    1    1    2    0    0 -0.20490508762E+02  0.34664894051E+02  0.56259294839E+01  0.40659155321E+02  0.00000000000E+00 0.  1.
         11    1    3    3    0    0  0.58225168123E+01 -0.17985153164E+02 -0.14081493753E+02  0.23572354633E+02  0.51100000000E-03 0. -1.
        -11    1    3    3    0    0  0.39441745585E+01 -0.13909937001E+02  0.57141250825E+01  0.15546513629E+02  0.51100000000E-03 0.  1.
         12    1    3    3    0    0  0.10723817391E+02 -0.27698038866E+01  0.27414391864E+01  0.11409976417E+02  0.00000000000E+00 0. -1.
</event>
<event>
 7    1  0.9865694E-013  0.5052886E+02  0.7816164E-02  0.1300439E+00
        -11   -1    0    0    0    0  0.00000000000E+00  0.00000000000E+00  0.45593999997E+02  0.45594000000E+02  0.51100000000E-03 0. -1.
         11   -1    0    0    0    0 -0.00000000000E+00 -0.00000000000E+00 -0.45593999997E+02  0.45594000000E+02  0.51100000000E-03 0.  1.
    9900012    2    1    2    0    0 -0.23908510473E+01  0.38659544756E+02  0.12364821600E+02  0.50528863478E+02  0.30000011028E+02 0.  0.
        -12    1    1    2    0    0  0.23908510473E+01 -0.38659544756E+02 -0.12364821600E+02  0.40659136522E+02  0.00000000000E+00 0.  1.
         11    1    3    3    0    0 -0.91441561776E+01  0.14889693635E+02  0.82784230465E-01  0.17473563525E+02  0.51100000000E-03 0. -1.
        -11    1    3    3    0    0  0.53022032283E+01  0.25312300621E+02  0.14774673486E+02  0.29784507695E+02  0.51100000000E-03 0.  1.
        -12    1    3    3    0    0  0.14511019019E+01 -0.15424494999E+01 -0.24926361159E+01  0.32707922581E+01  0.00000000000E+00 0.  1.
</event>
<event>
 7    1  0.9865694E-013  0.5052886E+02  0.7816164E-02  0.1300439E+00
        -11   -1    0    0    0    0  0.00000000000E+00  0.00000000000E+00  0.45593999997E+02  0.45594000000E+02  0.51100000000E-03 0. -1.
         11   -1    0    0    0    0 -0.00000000000E+00 -0.00000000000E+00 -0.45593999997E+02  0.45594000000E+02  0.51100000000E-03 0.  1.
    9900012    2    1    2    0    0  0.11131149241E+02  0.25338352146E+02  0.29786429078E+02  0.50528856746E+02  0.29999990566E+02 0.  0.
        -12    1    1    2    0    0 -0.11131149241E+02 -0.25338352146E+02 -0.29786429078E+02  0.40659143254E+02  0.00000000000E+00 0.  1.
         11    1    3    3    0    0  0.13335755614E+02  0.13133492038E+02  0.31193779151E+02  0.36378329386E+02  0.51100000000E-03 0. -1.
        -11    1    3    3    0    0  0.75340032473E+00  0.80988919441E+01  0.15629982082E+01  0.82826702476E+01  0.51100000000E-03 0.  1.
         12    1    3    3    0    0 -0.29580066984E+01  0.41059681640E+01 -0.29703482806E+01  0.58678571131E+01  0.00000000000E+00 0. -1.
</event>
<event>
 7    1  0.9865694E-013  0.5052886E+02  0.7816164E-02  0.1300439E+00
        -11   -1    0    0    0    0  0.00000000000E+00  0.00000000000E+00  0.45593999997E+02  0.45594000000E+02  0.51100000000E-03 0. -1.
         11   -1    0    0    0    0 -0.00000000000E+00 -0.00000000000E+00 -0.45593999997E+02  0.45594000000E+02  0.51100000000E-03 0.  1.
    9900012    2    1    2    0    0  0.70558636145E+01  0.24490383830E+00  0.40041487133E+02  0.50528857349E+02  0.29999992399E+02 0.  0.
        -12    1    1    2    0    0 -0.70558636145E+01 -0.24490383830E+00 -0.40041487133E+02  0.40659142651E+02  0.00000000000E+00 0.  1.
         11    1    3    3    0    0  0.54069111267E+01 -0.12892978050E+02  0.30390439525E+02  0.33452090902E+02  0.51100000000E-03 0. -1.
        -11    1    3    3    0    0  0.22230520562E+01  0.87059566103E+01  0.39043294292E+01  0.97969091808E+01  0.51100000000E-03 0.  1.
         12    1    3    3    0    0 -0.57409956846E+00  0.44319252785E+01  0.57467181791E+01  0.72798572664E+01  0.00000000000E+00 0. -1.
</event>
<event>
 7    1  0.9865694E-013  0.5052885E+02  0.7816164E-02  0.1300439E+00
        -11   -1    0    0    0    0  0.00000000000E+00  0.00000000000E+00  0.45593999997E+02  0.45594000000E+02  0.51100000000E-03 0.  1.
         11   -1    0    0    0    0 -0.00000000000E+00 -0.00000000000E+00 -0.45593999997E+02  0.45594000000E+02  0.51100000000E-03 0. -1.
    9900012    2    1    2    0    0 -0.33153232219E+02 -0.19445559879E+02 -0.13262726427E+02  0.50528849519E+02  0.29999968597E+02 0.  0.
        -12    1    1    2    0    0  0.33153232219E+02  0.19445559879E+02  0.13262726427E+02  0.40659150481E+02  0.00000000000E+00 0.  1.
         11    1    3    3    0    0 -0.15606042256E+02 -0.22602162378E+02 -0.15068646133E+02  0.31328427914E+02  0.51100000000E-03 0. -1.
        -11    1    3    3    0    0 -0.16666982417E+02  0.42651662166E+01  0.40493872742E+00  0.17208832656E+02  0.51100000000E-03 0.  1.
         12    1    3    3    0    0 -0.88020754638E+00 -0.11085637175E+01  0.14009809783E+01  0.19915889490E+01  0.00000000000E+00 0. -1.
</event>
<event>
 7    1  0.9865694E-013  0.5052877E+02  0.7816164E-02  0.1300439E+00
        -11   -1    0    0    0    0  0.00000000000E+00  0.00000000000E+00  0.45593999997E+02  0.45594000000E+02  0.51100000000E-03 0. -1.
         11   -1    0    0    0    0 -0.00000000000E+00 -0.00000000000E+00 -0.45593999997E+02  0.45594000000E+02  0.51100000000E-03 0.  1.
    9900012    2    1    2    0    0 -0.11919189771E+02 -0.30143823085E+02  0.24544967378E+02  0.50528774988E+02  0.29999742052E+02 0.  0.
        -12    1    1    2    0    0  0.11919189771E+02  0.30143823085E+02 -0.24544967378E+02  0.40659225012E+02  0.00000000000E+00 0.  1.
         11    1    3    3    0    0 -0.10539814258E+02 -0.20635091967E+02  0.12741110775E+02  0.26442968992E+02  0.51100000000E-03 0. -1.
        -11    1    3    3    0    0 -0.32661985188E+01  0.46308958121E+01  0.70594170786E+01  0.90525476269E+01  0.51100000000E-03 0.  1.
        -12    1    3    3    0    0  0.18868230058E+01 -0.14139626930E+02  0.47444395243E+01  0.15033258369E+02  0.00000000000E+00 0.  1.
</event>
<event>
 7    1  0.9865694E-013  0.5052886E+02  0.7816164E-02  0.1300439E+00
        -11   -1    0    0    0    0  0.00000000000E+00  0.00000000000E+00  0.45593999997E+02  0.45594000000E+02  0.51100000000E-03 0. -1.
         11   -1    0    0    0    0 -0.00000000000E+00 -0.00000000000E+00 -0.45593999997E+02  0.45594000000E+02  0.51100000000E-03 0.  1.
    9900012    2    1    2    0    0 -0.65776106277E+01  0.84089936321E-01  0.40123478792E+02  0.50528861015E+02  0.30000003540E+02 0.  0.
        -12    1    1    2    0    0  0.65776106277E+01 -0.84089936321E-01 -0.40123478792E+02  0.40659138985E+02  0.00000000000E+00 0.  1.
         11    1    3    3    0    0 -0.66064643418E+01  0.38004514956E+01  0.49345836899E+01  0.90795880481E+01  0.51100000000E-03 0. -1.
        -11    1    3    3    0    0 -0.40083768063E+01 -0.12012988777E+02  0.19645539219E+02  0.23373621787E+02  0.51100000000E-03 0.  1.
        -12    1    3    3    0    0  0.40372305204E+01  0.82966272179E+01  0.15543355883E+02  0.18075651180E+02  0.00000000000E+00 0.  1.
</event>
<event>
 7    1  0.9865694E-013  0.5052888E+02  0.7816164E-02  0.1300439E+00
        -11   -1    0    0    0    0  0.00000000000E+00  0.00000000000E+00  0.45593999997E+02  0.45594000000E+02  0.51100000000E-03 0. -1.
         11   -1    0    0    0    0 -0.00000000000E+00 -0.00000000000E+00 -0.45593999997E+02  0.45594000000E+02  0.51100000000E-03 0.  1.
    9900012    2    1    2    0    0 -0.25208097361E+02  0.80149678135E+01  0.30878411243E+02  0.50528878483E+02  0.30000056637E+02 0.  0.
        -12    1    1    2    0    0  0.25208097361E+02 -0.80149678135E+01 -0.30878411243E+02  0.40659121517E+02  0.00000000000E+00 0.  1.
         11    1    3    3    0    0 -0.50121962990E+01  0.72334149661E+01  0.26397509390E+02  0.27825759758E+02  0.51100000000E-03 0. -1.
        -11    1    3    3    0    0 -0.37037590976E+01 -0.35297139335E+01  0.16537035437E+00  0.51189900879E+01  0.51100000000E-03 0.  1.
         12    1    3    3    0    0 -0.16492141964E+02  0.43112667809E+01  0.43155314986E+01  0.17584128638E+02  0.00000000000E+00 0. -1.
</event>
<event>
 7    1  0.9865694E-013  0.5052886E+02  0.7816164E-02  0.1300439E+00
        -11   -1    0    0    0    0  0.00000000000E+00  0.00000000000E+00  0.45593999997E+02  0.45594000000E+02  0.51100000000E-03 0.  1.
         11   -1    0    0    0    0 -0.00000000000E+00 -0.00000000000E+00 -0.45593999997E+02  0.45594000000E+02  0.51100000000E-03 0. -1.
    9900012    2    1    2    0    0 -0.15052945244E+02  0.37766991351E+02 -0.47852659851E+00  0.50528858544E+02  0.29999996031E+02 0.  0.
        -12    1    1    2    0    0  0.15052945244E+02 -0.37766991351E+02  0.47852659851E+00  0.40659141456E+02  0.00000000000E+00 0.  1.
         11    1    3    3    0    0  0.74890358890E+00  0.21287008734E+02  0.47735622080E+01  0.21828524774E+02  0.51100000000E-03 0. -1.
        -11    1    3    3    0    0 -0.19085450184E+02  0.11711047150E+02 -0.36033278036E+01  0.22680101534E+02  0.51100000000E-03 0.  1.
         12    1    3    3    0    0  0.32836013514E+01  0.47689354675E+01 -0.16487610029E+01  0.60202322358E+01  0.00000000000E+00 0. -1.
</event>
<event>
 7    1  0.9865694E-013  0.5052886E+02  0.7816164E-02  0.1300439E+00
        -11   -1    0    0    0    0  0.00000000000E+00  0.00000000000E+00  0.45593999997E+02  0.45594000000E+02  0.51100000000E-03 0.  1.
         11   -1    0    0    0    0 -0.00000000000E+00 -0.00000000000E+00 -0.45593999997E+02  0.45594000000E+02  0.51100000000E-03 0. -1.
    9900012    2    1    2    0    0 -0.40300554542E+02 -0.42386389888E+01  0.33264236883E+01  0.50528857714E+02  0.29999993507E+02 0.  0.
        -12    1    1    2    0    0  0.40300554542E+02  0.42386389888E+01 -0.33264236883E+01  0.40659142286E+02  0.00000000000E+00 0.  1.
         11    1    3    3    0    0 -0.19187352840E+01  0.61808145022E+01  0.71167759720E-01  0.64721772312E+01  0.51100000000E-03 0.  1.
        -11    1    3    3    0    0 -0.19336210773E+02 -0.14484164383E+02 -0.76475024721E+00  0.24171572314E+02  0.51100000000E-03 0. -1.
         12    1    3    3    0    0 -0.19045608486E+02  0.40647108921E+01  0.40200061758E+01  0.19885108169E+02  0.00000000000E+00 0. -1.
</event>
<event>
 7    1  0.9865694E-013  0.5052886E+02  0.7816164E-02  0.1300439E+00
        -11   -1    0    0    0    0  0.00000000000E+00  0.00000000000E+00  0.45593999997E+02  0.45594000000E+02  0.51100000000E-03 0.  1.
         11   -1    0    0    0    0 -0.00000000000E+00 -0.00000000000E+00 -0.45593999997E+02  0.45594000000E+02  0.51100000000E-03 0. -1.
    9900012    2    1    2    0    0 -0.32838859897E+02  0.78423680511E+01 -0.22655512878E+02  0.50528859333E+02  0.29999998429E+02 0.  0.
        -12    1    1    2    0    0  0.32838859897E+02 -0.78423680511E+01  0.22655512878E+02  0.40659140667E+02  0.00000000000E+00 0.  1.
         11    1    3    3    0    0 -0.16990171064E+02  0.14803641265E+02 -0.11017110384E+02  0.25083668571E+02  0.51100000000E-03 0. -1.
        -11    1    3    3    0    0 -0.14522374543E+02 -0.10967834249E+02 -0.10735800790E+02  0.21129367462E+02  0.51100000000E-03 0.  1.
        -12    1    3    3    0    0 -0.13263142905E+01  0.40065610354E+01 -0.90260170391E+00  0.43158233007E+01  0.00000000000E+00 0.  1.
</event>
<event>
 7    1  0.9865694E-013  0.5052886E+02  0.7816164E-02  0.1300439E+00
        -11   -1    0    0    0    0  0.00000000000E+00  0.00000000000E+00  0.45593999997E+02  0.45594000000E+02  0.51100000000E-03 0.  1.
         11   -1    0    0    0    0 -0.00000000000E+00 -0.00000000000E+00 -0.45593999997E+02  0.45594000000E+02  0.51100000000E-03 0. -1.
    9900012    2    1    2    0    0 -0.84716064345E+01 -0.34917537787E+02 -0.19030588132E+02  0.50528857789E+02  0.29999993734E+02 0.  0.
        -12    1    1    2    0    0  0.84716064345E+01  0.34917537787E+02  0.19030588132E+02  0.40659142211E+02  0.00000000000E+00 0.  1.
         11    1    3    3    0    0 -0.14101464586E+02 -0.14400274610E+02 -0.35554703549E+01  0.20466083700E+02  0.51100000000E-03 0.  1.
        -11    1    3    3    0    0  0.10036234206E+02 -0.16692537580E+02 -0.93567041310E+01  0.21608209559E+02  0.51100000000E-03 0. -1.
         12    1    3    3    0    0 -0.44063760548E+01 -0.38247255978E+01 -0.61184136464E+01  0.84545645295E+01  0.00000000000E+00 0. -1.
</event>
<event>
 7    1  0.9865694E-013  0.5052885E+02  0.7816164E-02  0.1300439E+00
        -11   -1    0    0    0    0  0.00000000000E+00  0.00000000000E+00  0.45593999997E+02  0.45594000000E+02  0.51100000000E-03 0.  1.
         11   -1    0    0    0    0 -0.00000000000E+00 -0.00000000000E+00 -0.45593999997E+02  0.45594000000E+02  0.51100000000E-03 0. -1.
    9900012    2    1    2    0    0 -0.19152615694E+02 -0.35758035578E+02  0.27760311305E+01  0.50528854102E+02  0.29999982529E+02 0.  0.
        -12    1    1    2    0    0  0.19152615694E+02  0.35758035578E+02 -0.27760311305E+01  0.40659145898E+02  0.00000000000E+00 0.  1.
         11    1    3    3    0    0 -0.10853178939E+02 -0.21807069108E+02 -0.54462243706E+01  0.24959990311E+02  0.51100000000E-03 0. -1.
        -11    1    3    3    0    0  0.18282907083E+01 -0.59653911337E+00  0.85917685769E+01  0.88043735364E+01  0.51100000000E-03 0.  1.
        -12    1    3    3    0    0 -0.10127727464E+02 -0.13354427356E+02 -0.36951307580E+00  0.16764490255E+02  0.00000000000E+00 0.  1.
</event>
<event>
 7    1  0.9865694E-013  0.5052886E+02  0.7816164E-02  0.1300439E+00
        -11   -1    0    0    0    0  0.00000000000E+00  0.00000000000E+00  0.45593999997E+02  0.45594000000E+02  0.51100000000E-03 0.  1.
         11   -1    0    0    0    0 -0.00000000000E+00 -0.00000000000E+00 -0.45593999997E+02  0.45594000000E+02  0.51100000000E-03 0. -1.
    9900012    2    1    2    0    0  0.45450618314E+01 -0.24413524869E+02 -0.32194531336E+02  0.50528860418E+02  0.30000001728E+02 0.  0.
        -12    1    1    2    0    0 -0.45450618314E+01  0.24413524869E+02  0.32194531336E+02  0.40659139582E+02  0.00000000000E+00 0.  1.
         11    1    3    3    0    0 -0.60049295107E+01 -0.94517860626E+01 -0.13320763374E+02  0.17402246272E+02  0.51100000000E-03 0. -1.
        -11    1    3    3    0    0  0.16326518068E+02 -0.80157058907E+01 -0.12794204881E+02  0.22237320251E+02  0.51100000000E-03 0.  1.
        -12    1    3    3    0    0 -0.57765267257E+01 -0.69460329156E+01 -0.60795630813E+01  0.10889293895E+02  0.00000000000E+00 0.  1.
</event>
<event>
 7    1  0.9865694E-013  0.5052886E+02  0.7816164E-02  0.1300439E+00
        -11   -1    0    0    0    0  0.00000000000E+00  0.00000000000E+00  0.45593999997E+02  0.45594000000E+02  0.51100000000E-03 0.  1.
         11   -1    0    0    0    0 -0.00000000000E+00 -0.00000000000E+00 -0.45593999997E+02  0.45594000000E+02  0.51100000000E-03 0. -1.
    9900012    2    1    2    0    0  0.22425450740E+02 -0.31724612954E+02 -0.11992242594E+02  0.50528858464E+02  0.29999995788E+02 0.  0.
        -12    1    1    2    0    0 -0.22425450740E+02  0.31724612954E+02  0.11992242594E+02  0.40659141536E+02  0.00000000000E+00 0.  1.
         11    1    3    3    0    0  0.17770572430E+01 -0.17449268506E+02 -0.52122967932E+01  0.18297621210E+02  0.51100000000E-03 0. -1.
        -11    1    3    3    0    0  0.23711391329E+02 -0.11535023182E+02 -0.28109064563E+01  0.26517692847E+02  0.51100000000E-03 0.  1.
        -12    1    3    3    0    0 -0.30629978326E+01 -0.27403212667E+01 -0.39690393445E+01  0.57135444065E+01  0.00000000000E+00 0.  1.
</event>
<event>
 7    1  0.9865694E-013  0.5052883E+02  0.7816164E-02  0.1300439E+00
        -11   -1    0    0    0    0  0.00000000000E+00  0.00000000000E+00  0.45593999997E+02  0.45594000000E+02  0.51100000000E-03 0.  1.
         11   -1    0    0    0    0 -0.00000000000E+00 -0.00000000000E+00 -0.45593999997E+02  0.45594000000E+02  0.51100000000E-03 0. -1.
    9900012    2    1    2    0    0 -0.16179322935E+02  0.47229797719E+00 -0.37298453823E+02  0.50528828666E+02  0.29999905212E+02 0.  0.
        -12    1    1    2    0    0  0.16179322935E+02 -0.47229797719E+00  0.37298453823E+02  0.40659171334E+02  0.00000000000E+00 0.  1.
         11    1    3    3    0    0 -0.45985898868E+01  0.24927762429E+01 -0.13451146937E+02  0.14432405085E+02  0.51100000000E-03 0. -1.
        -11    1    3    3    0    0  0.19223560879E+01 -0.99358552503E+01 -0.41511175314E+01  0.10938393369E+02  0.51100000000E-03 0.  1.
        -12    1    3    3    0    0 -0.13503089136E+02  0.79153769846E+01 -0.19696189354E+02  0.25158030211E+02  0.00000000000E+00 0.  1.
</event>
<event>
 7    1  0.9865694E-013  0.5052886E+02  0.7816164E-02  0.1300439E+00
        -11   -1    0    0    0    0  0.00000000000E+00  0.00000000000E+00  0.45593999997E+02  0.45594000000E+02  0.51100000000E-03 0.  1.
         11   -1    0    0    0    0 -0.00000000000E+00 -0.00000000000E+00 -0.45593999997E+02  0.45594000000E+02  0.51100000000E-03 0. -1.
    9900012    2    1    2    0    0  0.16380680412E+02 -0.10907807173E+02 -0.35578909511E+02  0.50528858960E+02  0.29999997295E+02 0.  0.
        -12    1    1    2    0    0 -0.16380680412E+02  0.10907807173E+02  0.35578909511E+02  0.40659141040E+02  0.00000000000E+00 0.  1.
         11    1    3    3    0    0  0.16249563840E+02 -0.91811554980E+01 -0.88152416337E+01  0.20640988993E+02  0.51100000000E-03 0. -1.
        -11    1    3    3    0    0 -0.57036972998E+00  0.50809220982E+01 -0.18314604300E+02  0.19014884221E+02  0.51100000000E-03 0.  1.
        -12    1    3    3    0    0  0.70148630207E+00 -0.68075737730E+01 -0.84490635778E+01  0.10872985747E+02  0.00000000000E+00 0.  1.
</event>
<event>
 7    1  0.9865694E-013  0.5052885E+02  0.7816164E-02  0.1300439E+00
        -11   -1    0    0    0    0  0.00000000000E+00  0.00000000000E+00  0.45593999997E+02  0.45594000000E+02  0.51100000000E-03 0.  1.
         11   -1    0    0    0    0 -0.00000000000E+00 -0.00000000000E+00 -0.45593999997E+02  0.45594000000E+02  0.51100000000E-03 0. -1.
    9900012    2    1    2    0    0 -0.30258772975E+02 -0.24418939904E+02 -0.11886479935E+02  0.50528851297E+02  0.29999974003E+02 0.  0.
        -12    1    1    2    0    0  0.30258772975E+02  0.24418939904E+02  0.11886479935E+02  0.40659148703E+02  0.00000000000E+00 0.  1.
         11    1    3    3    0    0 -0.23790627191E+02 -0.15164703988E+02 -0.18611481714E+02  0.33798660344E+02  0.51100000000E-03 0. -1.
        -11    1    3    3    0    0 -0.25835297169E+01  0.20697296135E+01  0.98682247689E+00  0.34543053329E+01  0.51100000000E-03 0.  1.
         12    1    3    3    0    0 -0.38846160671E+01 -0.11323965530E+02  0.57381793023E+01  0.13275885621E+02  0.00000000000E+00 0. -1.
</event>
<event>
 7    1  0.9865694E-013  0.5052885E+02  0.7816164E-02  0.1300439E+00
        -11   -1    0    0    0    0  0.00000000000E+00  0.00000000000E+00  0.45593999997E+02  0.45594000000E+02  0.51100000000E-03 0.  1.
         11   -1    0    0    0    0 -0.00000000000E+00 -0.00000000000E+00 -0.45593999997E+02  0.45594000000E+02  0.51100000000E-03 0. -1.
    9900012    2    1    2    0    0 -0.16779662657E+02  0.26549309569E+02 -0.25821374430E+02  0.50528852260E+02  0.29999976930E+02 0.  0.
        -12    1    1    2    0    0  0.16779662657E+02 -0.26549309569E+02  0.25821374430E+02  0.40659147740E+02  0.00000000000E+00 0.  1.
         11    1    3    3    0    0 -0.19686034064E+02  0.13462430477E+02 -0.23134548333E+02  0.33226259169E+02  0.51100000000E-03 0. -1.
        -11    1    3    3    0    0  0.23030729601E+01  0.14466816490E+02 -0.41265241797E+01  0.15219103997E+02  0.51100000000E-03 0.  1.
        -12    1    3    3    0    0  0.60329844733E+00 -0.13799373975E+01  0.14396980826E+01  0.20834890944E+01  0.00000000000E+00 0.  1.
</event>
<event>
 7    1  0.9865694E-013  0.5052885E+02  0.7816164E-02  0.1300439E+00
        -11   -1    0    0    0    0  0.00000000000E+00  0.00000000000E+00  0.45593999997E+02  0.45594000000E+02  0.51100000000E-03 0.  1.
         11   -1    0    0    0    0 -0.00000000000E+00 -0.00000000000E+00 -0.45593999997E+02  0.45594000000E+02  0.51100000000E-03 0. -1.
    9900012    2    1    2    0    0 -0.15043185132E+02 -0.88205394747E+01 -0.36729648023E+02  0.50528851222E+02  0.29999973773E+02 0.  0.
        -12    1    1    2    0    0  0.15043185132E+02  0.88205394747E+01  0.36729648023E+02  0.40659148778E+02  0.00000000000E+00 0.  1.
         11    1    3    3    0    0 -0.85791093536E+01 -0.97896447201E+01 -0.11619287736E+02  0.17448384132E+02  0.51100000000E-03 0. -1.
        -11    1    3    3    0    0  0.22693306110E+01  0.69810381859E+01 -0.19295850337E+01  0.75899969854E+01  0.51100000000E-03 0.  1.
        -12    1    3    3    0    0 -0.87334063890E+01 -0.60119329405E+01 -0.23180775253E+02  0.25490470105E+02  0.00000000000E+00 0.  1.
</event>
<event>
 7    1  0.9865694E-013  0.5052886E+02  0.7816164E-02  0.1300439E+00
        -11   -1    0    0    0    0  0.00000000000E+00  0.00000000000E+00  0.45593999997E+02  0.45594000000E+02  0.51100000000E-03 0.  1.
         11   -1    0    0    0    0 -0.00000000000E+00 -0.00000000000E+00 -0.45593999997E+02  0.45594000000E+02  0.51100000000E-03 0. -1.
    9900012    2    1    2    0    0  0.21092522555E+02 -0.81464248776E+01 -0.33792114770E+02  0.50528858757E+02  0.29999996677E+02 0.  0.
        -12    1    1    2    0    0 -0.21092522555E+02  0.81464248776E+01  0.33792114770E+02  0.40659141243E+02  0.00000000000E+00 0.  1.
         11    1    3    3    0    0 -0.32354030510E+00 -0.75162086173E+01 -0.76978679295E+01  0.10763607259E+02  0.51100000000E-03 0. -1.
        -11    1    3    3    0    0  0.25515669417E+02  0.11285307875E+01 -0.21965393956E+02  0.33686814919E+02  0.51100000000E-03 0.  1.
        -12    1    3    3    0    0 -0.40996065562E+01 -0.17587470478E+01 -0.41288528843E+01  0.60784365781E+01  0.00000000000E+00 0.  1.
</event>
<event>
 7    1  0.9865694E-013  0.5052887E+02  0.7816164E-02  0.1300439E+00
        -11   -1    0    0    0    0  0.00000000000E+00  0.00000000000E+00  0.45593999997E+02  0.45594000000E+02  0.51100000000E-03 0.  1.
         11   -1    0    0    0    0 -0.00000000000E+00 -0.00000000000E+00 -0.45593999997E+02  0.45594000000E+02  0.51100000000E-03 0. -1.
    9900012    2    1    2    0    0  0.17962986237E+02 -0.18915070359E+02 -0.31188393436E+02  0.50528872534E+02  0.30000038553E+02 0.  0.
        -12    1    1    2    0    0 -0.17962986237E+02  0.18915070359E+02  0.31188393436E+02  0.40659127466E+02  0.00000000000E+00 0.  1.
         11    1    3    3    0    0  0.73870210570E+01 -0.91617776795E+01 -0.30637126529E+02  0.32819807625E+02  0.51100000000E-03 0. -1.
        -11    1    3    3    0    0  0.32378684716E+01  0.17869043807E+01 -0.15216185446E+01  0.39990177246E+01  0.51100000000E-03 0.  1.
         12    1    3    3    0    0  0.73380967081E+01 -0.11540197060E+02  0.97035163758E+00  0.13710047184E+02  0.00000000000E+00 0. -1.
</event>
<event>
 7    1  0.9865694E-013  0.5052886E+02  0.7816164E-02  0.1300439E+00
        -11   -1    0    0    0    0  0.00000000000E+00  0.00000000000E+00  0.45593999997E+02  0.45594000000E+02  0.51100000000E-03 0.  1.
         11   -1    0    0    0    0 -0.00000000000E+00 -0.00000000000E+00 -0.45593999997E+02  0.45594000000E+02  0.51100000000E-03 0. -1.
    9900012    2    1    2    0    0  0.20387631651E+02 -0.82167548383E+01 -0.34205194761E+02  0.50528856710E+02  0.29999990456E+02 0.  0.
        -12    1    1    2    0    0 -0.20387631651E+02  0.82167548383E+01  0.34205194761E+02  0.40659143290E+02  0.00000000000E+00 0.  1.
         11    1    3    3    0    0  0.38487139033E+01  0.94805254218E+00 -0.14139847875E+02  0.14684914045E+02  0.51100000000E-03 0. -1.
        -11    1    3    3    0    0  0.16852758002E+02 -0.14020990646E+02 -0.88929261666E+01  0.23657721087E+02  0.51100000000E-03 0.  1.
        -12    1    3    3    0    0 -0.31384025437E+00  0.48561832653E+01 -0.11172420720E+02  0.12186221578E+02  0.00000000000E+00 0.  1.
</event>
<event>
 7    1  0.9865694E-013  0.5052886E+02  0.7816164E-02  0.1300439E+00
        -11   -1    0    0    0    0  0.00000000000E+00  0.00000000000E+00  0.45593999997E+02  0.45594000000E+02  0.51100000000E-03 0.  1.
         11   -1    0    0    0    0 -0.00000000000E+00 -0.00000000000E+00 -0.45593999997E+02  0.45594000000E+02  0.51100000000E-03 0. -1.
    9900012    2    1    2    0    0 -0.29540306799E+02  0.13004604761E+02 -0.24726834230E+02  0.50528858324E+02  0.29999995363E+02 0.  0.
        -12    1    1    2    0    0  0.29540306799E+02 -0.13004604761E+02  0.24726834230E+02  0.40659141676E+02  0.00000000000E+00 0.  1.
         11    1    3    3    0    0 -0.13636463784E+02  0.11929716981E+02 -0.19408437458E+02  0.26551059048E+02  0.51100000000E-03 0. -1.
        -11    1    3    3    0    0 -0.88112776405E+01 -0.51452119369E+00  0.58956295402E+01  0.10614226003E+02  0.51100000000E-03 0.  1.
        -12    1    3    3    0    0 -0.70925653743E+01  0.15894089734E+01 -0.11214026313E+02  0.13363573273E+02  0.00000000000E+00 0.  1.
</event>
<event>
 7    1  0.9865694E-013  0.5052888E+02  0.7816164E-02  0.1300439E+00
        -11   -1    0    0    0    0  0.00000000000E+00  0.00000000000E+00  0.45593999997E+02  0.45594000000E+02  0.51100000000E-03 0.  1.
         11   -1    0    0    0    0 -0.00000000000E+00 -0.00000000000E+00 -0.45593999997E+02  0.45594000000E+02  0.51100000000E-03 0. -1.
    9900012    2    1    2    0    0  0.25950918289E+02  0.56920891470E+00 -0.31295202273E+02  0.50528882398E+02  0.30000068536E+02 0.  0.
        -12    1    1    2    0    0 -0.25950918289E+02 -0.56920891470E+00  0.31295202273E+02  0.40659117602E+02  0.00000000000E+00 0.  1.
         11    1    3    3    0    0  0.86400779468E+01  0.17814497531E+01 -0.28408675899E+02  0.29746888522E+02  0.51100000000E-03 0. -1.
        -11    1    3    3    0    0  0.36511524336E+00  0.50465143889E+00  0.27666181961E+01  0.28358700111E+01  0.51100000000E-03 0.  1.
         12    1    3    3    0    0  0.16945725099E+02 -0.17168922773E+01 -0.56531445704E+01  0.17946123865E+02  0.00000000000E+00 0. -1.
</event>
<event>
 7    1  0.9865694E-013  0.5052886E+02  0.7816164E-02  0.1300439E+00
        -11   -1    0    0    0    0  0.00000000000E+00  0.00000000000E+00  0.45593999997E+02  0.45594000000E+02  0.51100000000E-03 0.  1.
         11   -1    0    0    0    0 -0.00000000000E+00 -0.00000000000E+00 -0.45593999997E+02  0.45594000000E+02  0.51100000000E-03 0. -1.
    9900012    2    1    2    0    0 -0.28657341278E+02  0.91934486991E+00 -0.28828410333E+02  0.50528860235E+02  0.30000001169E+02 0.  0.
        -12    1    1    2    0    0  0.28657341278E+02 -0.91934486991E+00  0.28828410333E+02  0.40659139765E+02  0.00000000000E+00 0.  1.
         11    1    3    3    0    0 -0.12741186710E+02  0.75590161374E-01 -0.25681748861E+02  0.28668724727E+02  0.51100000000E-03 0. -1.
        -11    1    3    3    0    0 -0.14336221915E+02  0.46765859998E+01  0.20434571936E+01  0.15217537020E+02  0.51100000000E-03 0.  1.
         12    1    3    3    0    0 -0.15799326533E+01 -0.38328312913E+01 -0.51901186657E+01  0.66425984871E+01  0.00000000000E+00 0. -1.
</event>
<event>
 7    1  0.9865694E-013  0.5052884E+02  0.7816164E-02  0.1300439E+00
        -11   -1    0    0    0    0  0.00000000000E+00  0.00000000000E+00  0.45593999997E+02  0.45594000000E+02  0.51100000000E-03 0.  1.
         11   -1    0    0    0    0 -0.00000000000E+00 -0.00000000000E+00 -0.45593999997E+02  0.45594000000E+02  0.51100000000E-03 0. -1.
    9900012    2    1    2    0    0  0.52913395825E+01 -0.37301365644E+02 -0.15289765347E+02  0.50528842632E+02  0.29999947665E+02 0.  0.
        -12    1    1    2    0    0 -0.52913395825E+01  0.37301365644E+02  0.15289765347E+02  0.40659157368E+02  0.00000000000E+00 0.  1.
         11    1    3    3    0    0  0.30666407860E+01 -0.11404683696E+02 -0.17095908838E+02  0.20778382882E+02  0.51100000000E-03 0. -1.
        -11    1    3    3    0    0 -0.25088708243E+01 -0.21611672138E+02 -0.27168557420E+01  0.21925786435E+02  0.51100000000E-03 0.  1.
         12    1    3    3    0    0  0.47335696208E+01 -0.42850098104E+01  0.45229992336E+01  0.78246733158E+01  0.00000000000E+00 0. -1.
</event>
<event>
 7    1  0.9865694E-013  0.5052886E+02  0.7816164E-02  0.1300439E+00
        -11   -1    0    0    0    0  0.00000000000E+00  0.00000000000E+00  0.45593999997E+02  0.45594000000E+02  0.51100000000E-03 0.  1.
         11   -1    0    0    0    0 -0.00000000000E+00 -0.00000000000E+00 -0.45593999997E+02  0.45594000000E+02  0.51100000000E-03 0. -1.
    9900012    2    1    2    0    0 -0.23438515612E+02  0.11975873148E+01 -0.33201915746E+02  0.50528862790E+02  0.30000008936E+02 0.  0.
        -12    1    1    2    0    0  0.23438515612E+02 -0.11975873148E+01  0.33201915746E+02  0.40659137210E+02  0.00000000000E+00 0.  1.
         11    1    3    3    0    0 -0.86831644377E+01 -0.16781629090E+01 -0.16141600760E+02  0.18405565755E+02  0.51100000000E-03 0. -1.
        -11    1    3    3    0    0 -0.16582125313E+02  0.97500787170E+01 -0.86024301489E+01  0.21072083893E+02  0.51100000000E-03 0.  1.
        -12    1    3    3    0    0  0.18267741382E+01 -0.68743284931E+01 -0.84578848368E+01  0.11051213141E+02  0.00000000000E+00 0.  1.
</event>
<event>
 7    1  0.9865694E-013  0.5052885E+02  0.7816164E-02  0.1300439E+00
        -11   -1    0    0    0    0  0.00000000000E+00  0.00000000000E+00  0.45593999997E+02  0.45594000000E+02  0.51100000000E-03 0.  1.
         11   -1    0    0    0    0 -0.00000000000E+00 -0.00000000000E+00 -0.45593999997E+02  0.45594000000E+02  0.51100000000E-03 0. -1.
    9900012    2    1    2    0    0  0.21557617065E+02 -0.33596791399E+02 -0.77260025842E+01  0.50528851438E+02  0.29999974430E+02 0.  0.
        -12    1    1    2    0    0 -0.21557617065E+02  0.33596791399E+02  0.77260025842E+01  0.40659148562E+02  0.00000000000E+00 0.  1.
         11    1    3    3    0    0  0.14267610426E+02 -0.27117342505E+02  0.27852396925E+01  0.30768044010E+02  0.51100000000E-03 0. -1.
        -11    1    3    3    0    0  0.54433085869E+01 -0.93858618079E+01 -0.11849368219E+02  0.16066472472E+02  0.51100000000E-03 0.  1.
         12    1    3    3    0    0  0.18466980525E+01  0.29064129138E+01  0.13381259426E+01  0.36943349551E+01  0.00000000000E+00 0. -1.
</event>
<event>
 7    1  0.9865694E-013  0.5052886E+02  0.7816164E-02  0.1300439E+00
        -11   -1    0    0    0    0  0.00000000000E+00  0.00000000000E+00  0.45593999997E+02  0.45594000000E+02  0.51100000000E-03 0.  1.
         11   -1    0    0    0    0 -0.00000000000E+00 -0.00000000000E+00 -0.45593999997E+02  0.45594000000E+02  0.51100000000E-03 0. -1.
    9900012    2    1    2    0    0 -0.78922859471E+01 -0.97063872678E+01 -0.38686735395E+02  0.50528860476E+02  0.30000001904E+02 0.  0.
        -12    1    1    2    0    0  0.78922859471E+01  0.97063872678E+01  0.38686735395E+02  0.40659139524E+02  0.00000000000E+00 0.  1.
         11    1    3    3    0    0  0.79164259968E+01 -0.32657260104E-02 -0.54388253979E+01  0.96047193191E+01  0.51100000000E-03 0.  1.
        -11    1    3    3    0    0 -0.91963848526E+01 -0.42980038223E+01 -0.30193065811E+02  0.31853846778E+02  0.51100000000E-03 0. -1.
        -12    1    3    3    0    0 -0.66123270913E+01 -0.54051177195E+01 -0.30548441861E+01  0.90702943792E+01  0.00000000000E+00 0.  1.
</event>
<event>
 7    1  0.9865694E-013  0.5052886E+02  0.7816164E-02  0.1300439E+00
        -11   -1    0    0    0    0  0.00000000000E+00  0.00000000000E+00  0.45593999997E+02  0.45594000000E+02  0.51100000000E-03 0.  1.
         11   -1    0    0    0    0 -0.00000000000E+00 -0.00000000000E+00 -0.45593999997E+02  0.45594000000E+02  0.51100000000E-03 0. -1.
    9900012    2    1    2    0    0 -0.27040416928E+02  0.16375754209E+01 -0.30319955867E+02  0.50528861732E+02  0.30000005721E+02 0.  0.
        -12    1    1    2    0    0  0.27040416928E+02 -0.16375754209E+01  0.30319955867E+02  0.40659138268E+02  0.00000000000E+00 0.  1.
         11    1    3    3    0    0 -0.41753016001E+01 -0.65472982755E+01  0.16585143237E+01  0.79404614591E+01  0.51100000000E-03 0. -1.
        -11    1    3    3    0    0 -0.72450863078E+01  0.85797775160E+01 -0.73484021544E+01  0.13420241142E+02  0.51100000000E-03 0.  1.
         12    1    3    3    0    0 -0.15620029020E+02 -0.39490381957E+00 -0.24630068037E+02  0.29168159131E+02  0.00000000000E+00 0. -1.
</event>
<event>
 7    1  0.9865694E-013  0.5052886E+02  0.7816164E-02  0.1300439E+00
        -11   -1    0    0    0    0  0.00000000000E+00  0.00000000000E+00  0.45593999997E+02  0.45594000000E+02  0.51100000000E-03 0.  1.
         11   -1    0    0    0    0 -0.00000000000E+00 -0.00000000000E+00 -0.45593999997E+02  0.45594000000E+02  0.51100000000E-03 0. -1.
    9900012    2    1    2    0    0  0.21858263864E+02  0.11553192052E+02 -0.32278568085E+02  0.50528857075E+02  0.29999991566E+02 0.  0.
        -12    1    1    2    0    0 -0.21858263864E+02 -0.11553192052E+02  0.32278568085E+02  0.40659142925E+02  0.00000000000E+00 0.  1.
         11    1    3    3    0    0  0.17637871711E+02  0.19399291826E+01 -0.32375871154E+02  0.36919573088E+02  0.51100000000E-03 0. -1.
        -11    1    3    3    0    0  0.41489523923E+01  0.31731022451E+00  0.96859780154E+00  0.42723147935E+01  0.51100000000E-03 0.  1.
         12    1    3    3    0    0  0.71439760773E-01  0.92959526447E+01 -0.87129473225E+00  0.93369691936E+01  0.00000000000E+00 0. -1.
</event>
<event>
 7    1  0.9865694E-013  0.5052886E+02  0.7816164E-02  0.1300439E+00
        -11   -1    0    0    0    0  0.00000000000E+00  0.00000000000E+00  0.45593999997E+02  0.45594000000E+02  0.51100000000E-03 0.  1.
         11   -1    0    0    0    0 -0.00000000000E+00 -0.00000000000E+00 -0.45593999997E+02  0.45594000000E+02  0.51100000000E-03 0. -1.
    9900012    2    1    2    0    0  0.35261119800E+02  0.11564825471E+02 -0.16615478366E+02  0.50528857374E+02  0.29999992475E+02 0.  0.
        -12    1    1    2    0    0 -0.35261119800E+02 -0.11564825471E+02  0.16615478366E+02  0.40659142626E+02  0.00000000000E+00 0.  1.
         11    1    3    3    0    0  0.15402391183E+02  0.32968934420E+00 -0.18467708232E+02  0.24049918853E+02  0.51100000000E-03 0. -1.
        -11    1    3    3    0    0  0.19663942194E+02  0.81154983420E+01 -0.21720077901E+01  0.21383394353E+02  0.51100000000E-03 0.  1.
         12    1    3    3    0    0  0.19478642285E+00  0.31196377846E+01  0.40242376562E+01  0.50955441683E+01  0.00000000000E+00 0. -1.
</event>
<event>
 7    1  0.9865694E-013  0.5052886E+02  0.7816164E-02  0.1300439E+00
        -11   -1    0    0    0    0  0.00000000000E+00  0.00000000000E+00  0.45593999997E+02  0.45594000000E+02  0.51100000000E-03 0.  1.
         11   -1    0    0    0    0 -0.00000000000E+00 -0.00000000000E+00 -0.45593999997E+02  0.45594000000E+02  0.51100000000E-03 0. -1.
    9900012    2    1    2    0    0 -0.20079419347E+01  0.23386798383E+02 -0.33199271847E+02  0.50528858093E+02  0.29999994660E+02 0.  0.
        -12    1    1    2    0    0  0.20079419347E+01 -0.23386798383E+02  0.33199271847E+02  0.40659141907E+02  0.00000000000E+00 0.  1.
         11    1    3    3    0    0  0.71483121356E+01  0.12321189903E+02 -0.93807474843E+01  0.17056040298E+02  0.51100000000E-03 0. -1.
        -11    1    3    3    0    0 -0.69065803080E+01  0.10518163062E+02 -0.26853564075E+02  0.29655463401E+02  0.51100000000E-03 0.  1.
        -12    1    3    3    0    0 -0.22496737623E+01  0.54744541727E+00  0.30350397115E+01  0.38173543944E+01  0.00000000000E+00 0.  1.
</event>
<event>
 7    1  0.9865694E-013  0.5052888E+02  0.7816164E-02  0.1300439E+00
        -11   -1    0    0    0    0  0.00000000000E+00  0.00000000000E+00  0.45593999997E+02  0.45594000000E+02  0.51100000000E-03 0.  1.
         11   -1    0    0    0    0 -0.00000000000E+00 -0.00000000000E+00 -0.45593999997E+02  0.45594000000E+02  0.51100000000E-03 0. -1.
    9900012    2    1    2    0    0 -0.85436731528E+01  0.30842550947E+02 -0.25078015440E+02  0.50528878536E+02  0.30000056797E+02 0.  0.
        -12    1    1    2    0    0  0.85436731528E+01 -0.30842550947E+02  0.25078015440E+02  0.40659121464E+02  0.00000000000E+00 0.  1.
         11    1    3    3    0    0 -0.66779609984E+01  0.25683504415E+02 -0.50893174371E+01  0.27021079075E+02  0.51100000000E-03 0. -1.
        -11    1    3    3    0    0 -0.43551503227E+01  0.19935451273E+01 -0.18663394916E+02  0.19268208701E+02  0.51100000000E-03 0.  1.
        -12    1    3    3    0    0  0.24894381684E+01  0.31655014046E+01 -0.13253030869E+01  0.42395907596E+01  0.00000000000E+00 0.  1.
</event>
<event>
 7    1  0.9865694E-013  0.5052889E+02  0.7816164E-02  0.1300439E+00
        -11   -1    0    0    0    0  0.00000000000E+00  0.00000000000E+00  0.45593999997E+02  0.45594000000E+02  0.51100000000E-03 0.  1.
         11   -1    0    0    0    0 -0.00000000000E+00 -0.00000000000E+00 -0.45593999997E+02  0.45594000000E+02  0.51100000000E-03 0. -1.
    9900012    2    1    2    0    0 -0.32450843214E+02 -0.26761202816E+01 -0.24350453875E+02  0.50528887258E+02  0.30000083310E+02 0.  0.
        -12    1    1    2    0    0  0.32450843214E+02  0.26761202816E+01  0.24350453875E+02  0.40659112742E+02  0.00000000000E+00 0.  1.
         11    1    3    3    0    0 -0.12856759034E+02 -0.25543001652E-01 -0.21914483753E+02  0.25407508806E+02  0.51100000000E-03 0. -1.
        -11    1    3    3    0    0 -0.20077067016E+02 -0.43796352338E+01 -0.57620197281E+01  0.21341759449E+02  0.51100000000E-03 0.  1.
         12    1    3    3    0    0  0.48298283646E+00  0.17290579539E+01  0.33260496063E+01  0.37796190035E+01  0.00000000000E+00 0. -1.
</event>
<event>
 7    1  0.9865694E-013  0.5052886E+02  0.7816164E-02  0.1300439E+00
        -11   -1    0    0    0    0  0.00000000000E+00  0.00000000000E+00  0.45593999997E+02  0.45594000000E+02  0.51100000000E-03 0.  1.
         11   -1    0    0    0    0 -0.00000000000E+00 -0.00000000000E+00 -0.45593999997E+02  0.45594000000E+02  0.51100000000E-03 0. -1.
    9900012    2    1    2    0    0 -0.21009777171E+02  0.29640654158E+02 -0.18253403558E+02  0.50528857644E+02  0.29999993294E+02 0.  0.
        -12    1    1    2    0    0  0.21009777171E+02 -0.29640654158E+02  0.18253403558E+02  0.40659142356E+02  0.00000000000E+00 0.  1.
         11    1    3    3    0    0  0.47867539418E+01  0.11832969306E+01 -0.91151641591E+01  0.10363369280E+02  0.51100000000E-03 0. -1.
        -11    1    3    3    0    0 -0.25038864039E+02  0.24969607846E+02 -0.71397144992E+01  0.36074943545E+02  0.51100000000E-03 0.  1.
         12    1    3    3    0    0 -0.75766707390E+00  0.34877493811E+01 -0.19985248996E+01  0.40905448188E+01  0.00000000000E+00 0. -1.
</event>
<event>
 7    1  0.9865694E-013  0.5052885E+02  0.7816164E-02  0.1300439E+00
        -11   -1    0    0    0    0  0.00000000000E+00  0.00000000000E+00  0.45593999997E+02  0.45594000000E+02  0.51100000000E-03 0. -1.
         11   -1    0    0    0    0 -0.00000000000E+00 -0.00000000000E+00 -0.45593999997E+02  0.45594000000E+02  0.51100000000E-03 0.  1.
    9900012    2    1    2    0    0  0.58252996044E+01 -0.39913536310E+02 -0.51129125974E+01  0.50528851319E+02  0.29999974070E+02 0.  0.
        -12    1    1    2    0    0 -0.58252996044E+01  0.39913536310E+02  0.51129125974E+01  0.40659148681E+02  0.00000000000E+00 0.  1.
         11    1    3    3    0    0  0.75641360327E+01 -0.34260285064E+02 -0.78539146694E+01  0.35953682182E+02  0.51100000000E-03 0. -1.
        -11    1    3    3    0    0 -0.31366217238E+01  0.16132229095E+00 -0.43078865743E+01  0.53312576112E+01  0.51100000000E-03 0.  1.
         12    1    3    3    0    0  0.13977852955E+01 -0.58145735366E+01  0.70488886462E+01  0.92439115255E+01  0.00000000000E+00 0. -1.
</event>
<event>
 7    1  0.9865694E-013  0.5052891E+02  0.7816164E-02  0.1300439E+00
        -11   -1    0    0    0    0  0.00000000000E+00  0.00000000000E+00  0.45593999997E+02  0.45594000000E+02  0.51100000000E-03 0. -1.
         11   -1    0    0    0    0 -0.00000000000E+00 -0.00000000000E+00 -0.45593999997E+02  0.45594000000E+02  0.51100000000E-03 0.  1.
    9900012    2    1    2    0    0 -0.23494515677E+02 -0.27436039295E+02  0.18666372372E+02  0.50528905364E+02  0.30000138344E+02 0.  0.
        -12    1    1    2    0    0  0.23494515677E+02  0.27436039295E+02 -0.18666372372E+02  0.40659094636E+02  0.00000000000E+00 0.  1.
         11    1    3    3    0    0  0.15759014959E+01 -0.17987426226E+02  0.12385765604E+02  0.21896076307E+02  0.51100000000E-03 0. -1.
        -11    1    3    3    0    0 -0.10300393219E+02 -0.20540194676E+01 -0.10618465723E+01  0.10556733152E+02  0.51100000000E-03 0.  1.
         12    1    3    3    0    0 -0.14770023953E+02 -0.73945936014E+01  0.73424533396E+01  0.18076095905E+02  0.00000000000E+00 0. -1.
</event>
<event>
 7    1  0.9865694E-013  0.5052886E+02  0.7816164E-02  0.1300439E+00
        -11   -1    0    0    0    0  0.00000000000E+00  0.00000000000E+00  0.45593999997E+02  0.45594000000E+02  0.51100000000E-03 0.  1.
         11   -1    0    0    0    0 -0.00000000000E+00 -0.00000000000E+00 -0.45593999997E+02  0.45594000000E+02  0.51100000000E-03 0. -1.
    9900012    2    1    2    0    0  0.21049510635E+02 -0.21997582896E+02 -0.26947914277E+02  0.50528860374E+02  0.30000001593E+02 0.  0.
        -12    1    1    2    0    0 -0.21049510635E+02  0.21997582896E+02  0.26947914277E+02  0.40659139626E+02  0.00000000000E+00 0.  1.
         11    1    3    3    0    0  0.77907272907E+01 -0.24051100812E+02 -0.23354737959E+02  0.34417941068E+02  0.51100000000E-03 0. -1.
        -11    1    3    3    0    0  0.73462644120E+01  0.38870528286E+01  0.10437515413E+01  0.83765266098E+01  0.51100000000E-03 0.  1.
        -12    1    3    3    0    0  0.59125189327E+01 -0.18335349125E+01 -0.46369278591E+01  0.77343926959E+01  0.00000000000E+00 0.  1.
</event>
<event>
 7    1  0.9865694E-013  0.5052886E+02  0.7816164E-02  0.1300439E+00
        -11   -1    0    0    0    0  0.00000000000E+00  0.00000000000E+00  0.45593999997E+02  0.45594000000E+02  0.51100000000E-03 0. -1.
         11   -1    0    0    0    0 -0.00000000000E+00 -0.00000000000E+00 -0.45593999997E+02  0.45594000000E+02  0.51100000000E-03 0.  1.
    9900012    2    1    2    0    0  0.14004687522E+02  0.37661091465E+02  0.62190443090E+01  0.50528860867E+02  0.30000003092E+02 0.  0.
        -12    1    1    2    0    0 -0.14004687522E+02 -0.37661091465E+02 -0.62190443090E+01  0.40659139133E+02  0.00000000000E+00 0.  1.
         11    1    3    3    0    0  0.48899921741E+01  0.25752650106E+02  0.13818445237E+02  0.29632084638E+02  0.51100000000E-03 0. -1.
        -11    1    3    3    0    0  0.67250234960E+01  0.14047095810E+02 -0.82506125525E+01  0.17624399265E+02  0.51100000000E-03 0.  1.
         12    1    3    3    0    0  0.23896718518E+01 -0.21386544505E+01  0.65121162414E+00  0.32723769644E+01  0.00000000000E+00 0. -1.
</event>
<event>
 7    1  0.9865694E-013  0.5052887E+02  0.7816164E-02  0.1300439E+00
        -11   -1    0    0    0    0  0.00000000000E+00  0.00000000000E+00  0.45593999997E+02  0.45594000000E+02  0.51100000000E-03 0.  1.
         11   -1    0    0    0    0 -0.00000000000E+00 -0.00000000000E+00 -0.45593999997E+02  0.45594000000E+02  0.51100000000E-03 0. -1.
    9900012    2    1    2    0    0  0.18797487640E+02 -0.32699364034E+02 -0.15184562614E+02  0.50528869518E+02  0.30000029386E+02 0.  0.
        -12    1    1    2    0    0 -0.18797487640E+02  0.32699364034E+02  0.15184562614E+02  0.40659130482E+02  0.00000000000E+00 0.  1.
         11    1    3    3    0    0 -0.18380498914E+01 -0.43546946267E+01 -0.43191151634E+01  0.64028547345E+01  0.51100000000E-03 0. -1.
        -11    1    3    3    0    0  0.14164778901E+02 -0.16676073204E+02  0.59361700549E+01  0.22670917361E+02  0.51100000000E-03 0.  1.
        -12    1    3    3    0    0  0.64707586304E+01 -0.11668596204E+02 -0.16801617505E+02  0.21455097422E+02  0.00000000000E+00 0.  1.
</event>
<event>
 7    1  0.9865694E-013  0.5052886E+02  0.7816164E-02  0.1300439E+00
        -11   -1    0    0    0    0  0.00000000000E+00  0.00000000000E+00  0.45593999997E+02  0.45594000000E+02  0.51100000000E-03 0.  1.
         11   -1    0    0    0    0 -0.00000000000E+00 -0.00000000000E+00 -0.45593999997E+02  0.45594000000E+02  0.51100000000E-03 0. -1.
    9900012    2    1    2    0    0  0.69584197036E+01  0.27002770648E+02 -0.29590480952E+02  0.50528858464E+02  0.29999995788E+02 0.  0.
        -12    1    1    2    0    0 -0.69584197036E+01 -0.27002770648E+02  0.29590480952E+02  0.40659141536E+02  0.00000000000E+00 0.  1.
         11    1    3    3    0    0  0.13855227520E+02  0.13437926780E+02 -0.28050419718E+02  0.34049541148E+02  0.51100000000E-03 0. -1.
        -11    1    3    3    0    0  0.25637835818E+00  0.38956946798E+01  0.13113094323E+01  0.41184583996E+01  0.51100000000E-03 0.  1.
         12    1    3    3    0    0 -0.71531861747E+01  0.96691491887E+01 -0.28513706662E+01  0.12360858917E+02  0.00000000000E+00 0. -1.
</event>
<event>
 7    1  0.9865694E-013  0.5052886E+02  0.7816164E-02  0.1300439E+00
        -11   -1    0    0    0    0  0.00000000000E+00  0.00000000000E+00  0.45593999997E+02  0.45594000000E+02  0.51100000000E-03 0. -1.
         11   -1    0    0    0    0 -0.00000000000E+00 -0.00000000000E+00 -0.45593999997E+02  0.45594000000E+02  0.51100000000E-03 0.  1.
    9900012    2    1    2    0    0 -0.32837155389E+02  0.20354253684E+02  0.12672452344E+02  0.50528862460E+02  0.30000007934E+02 0.  0.
        -12    1    1    2    0    0  0.32837155389E+02 -0.20354253684E+02 -0.12672452344E+02  0.40659137540E+02  0.00000000000E+00 0.  1.
         11    1    3    3    0    0 -0.15880478258E+02  0.22807489382E+02  0.43282192371E+01  0.28126582509E+02  0.51100000000E-03 0. -1.
        -11    1    3    3    0    0 -0.79910236538E+01 -0.47434616564E+01  0.92409109870E+01  0.13105392922E+02  0.51100000000E-03 0.  1.
        -12    1    3    3    0    0 -0.89656534769E+01  0.22902259591E+01 -0.89667787993E+00  0.92968870291E+01  0.00000000000E+00 0.  1.
</event>
<event>
 7    1  0.9865694E-013  0.5052886E+02  0.7816164E-02  0.1300439E+00
        -11   -1    0    0    0    0  0.00000000000E+00  0.00000000000E+00  0.45593999997E+02  0.45594000000E+02  0.51100000000E-03 0.  1.
         11   -1    0    0    0    0 -0.00000000000E+00 -0.00000000000E+00 -0.45593999997E+02  0.45594000000E+02  0.51100000000E-03 0. -1.
    9900012    2    1    2    0    0  0.28281982187E+02  0.27163261017E+01 -0.29084646467E+02  0.50528860756E+02  0.30000002754E+02 0.  0.
        -12    1    1    2    0    0 -0.28281982187E+02 -0.27163261017E+01  0.29084646467E+02  0.40659139244E+02  0.00000000000E+00 0.  1.
         11    1    3    3    0    0  0.71193241863E+01  0.50047654824E+01 -0.19156931222E+02  0.21040923661E+02  0.51100000000E-03 0. -1.
        -11    1    3    3    0    0  0.90210351120E+01 -0.94408634911E+01 -0.78716425140E+01  0.15247023778E+02  0.51100000000E-03 0.  1.
        -12    1    3    3    0    0  0.12141622889E+02  0.71524241105E+01 -0.20560727309E+01  0.14240913317E+02  0.00000000000E+00 0.  1.
</event>
<event>
 7    1  0.9865694E-013  0.5052887E+02  0.7816164E-02  0.1300439E+00
        -11   -1    0    0    0    0  0.00000000000E+00  0.00000000000E+00  0.45593999997E+02  0.45594000000E+02  0.51100000000E-03 0. -1.
         11   -1    0    0    0    0 -0.00000000000E+00 -0.00000000000E+00 -0.45593999997E+02  0.45594000000E+02  0.51100000000E-03 0.  1.
    9900012    2    1    2    0    0 -0.26717909377E+02  0.10202449720E+02  0.28900313324E+02  0.50528870989E+02  0.30000033857E+02 0.  0.
        -12    1    1    2    0    0  0.26717909377E+02 -0.10202449720E+02 -0.28900313324E+02  0.40659129011E+02  0.00000000000E+00 0.  1.
         11    1    3    3    0    0 -0.25388493688E+01  0.45464778046E+01  0.58212566744E+01  0.78104574818E+01  0.51100000000E-03 0. -1.
        -11    1    3    3    0    0 -0.27307550832E+02 -0.99758618309E+00  0.13047333252E+02  0.30280858902E+02  0.51100000000E-03 0.  1.
        -12    1    3    3    0    0  0.31284908237E+01  0.66535580988E+01  0.10031723398E+02  0.12437554604E+02  0.00000000000E+00 0.  1.
</event>
<event>
 7    1  0.9865694E-013  0.5052887E+02  0.7816164E-02  0.1300439E+00
        -11   -1    0    0    0    0  0.00000000000E+00  0.00000000000E+00  0.45593999997E+02  0.45594000000E+02  0.51100000000E-03 0.  1.
         11   -1    0    0    0    0 -0.00000000000E+00 -0.00000000000E+00 -0.45593999997E+02  0.45594000000E+02  0.51100000000E-03 0. -1.
    9900012    2    1    2    0    0  0.95906317750E+01  0.10864197066E+02 -0.37988863428E+02  0.50528871378E+02  0.30000035042E+02 0.  0.
        -12    1    1    2    0    0 -0.95906317750E+01 -0.10864197066E+02  0.37988863428E+02  0.40659128622E+02  0.00000000000E+00 0.  1.
         11    1    3    3    0    0  0.15818787202E+01  0.14457091233E+02 -0.10776648282E+02  0.18100993776E+02  0.51100000000E-03 0. -1.
        -11    1    3    3    0    0  0.12081872650E+01 -0.74102655296E+01 -0.53580667187E+01  0.92239162459E+01  0.51100000000E-03 0.  1.
         12    1    3    3    0    0  0.68005657897E+01  0.38173713619E+01 -0.21854148427E+02  0.23203961357E+02  0.00000000000E+00 0. -1.
</event>
<event>
 7    1  0.9865694E-013  0.5052886E+02  0.7816164E-02  0.1300439E+00
        -11   -1    0    0    0    0  0.00000000000E+00  0.00000000000E+00  0.45593999997E+02  0.45594000000E+02  0.51100000000E-03 0.  1.
         11   -1    0    0    0    0 -0.00000000000E+00 -0.00000000000E+00 -0.45593999997E+02  0.45594000000E+02  0.51100000000E-03 0. -1.
    9900012    2    1    2    0    0 -0.30854300501E+02  0.14535553654E+02 -0.22133584907E+02  0.50528858835E+02  0.29999996913E+02 0.  0.
        -12    1    1    2    0    0  0.30854300501E+02 -0.14535553654E+02  0.22133584907E+02  0.40659141165E+02  0.00000000000E+00 0.  1.
         11    1    3    3    0    0 -0.67260223022E+01 -0.29825756567E+01 -0.13378643411E+02  0.15268373631E+02  0.51100000000E-03 0. -1.
        -11    1    3    3    0    0 -0.54850185336E+01  0.13944257564E+02 -0.20268943057E+01  0.15120715860E+02  0.51100000000E-03 0.  1.
        -12    1    3    3    0    0 -0.18643259666E+02  0.35738717467E+01 -0.67280471908E+01  0.20139769344E+02  0.00000000000E+00 0.  1.
</event>
<event>
 7    1  0.9865694E-013  0.5052886E+02  0.7816164E-02  0.1300439E+00
        -11   -1    0    0    0    0  0.00000000000E+00  0.00000000000E+00  0.45593999997E+02  0.45594000000E+02  0.51100000000E-03 0.  1.
         11   -1    0    0    0    0 -0.00000000000E+00 -0.00000000000E+00 -0.45593999997E+02  0.45594000000E+02  0.51100000000E-03 0. -1.
    9900012    2    1    2    0    0 -0.39172762644E+02  0.10702922142E+02 -0.20268245582E+01  0.50528857199E+02  0.29999991941E+02 0.  0.
        -12    1    1    2    0    0  0.39172762644E+02 -0.10702922142E+02  0.20268245582E+01  0.40659142801E+02  0.00000000000E+00 0.  1.
         11    1    3    3    0    0 -0.14091375732E+02 -0.84955296916E+01 -0.71790273149E+00  0.16469859725E+02  0.51100000000E-03 0. -1.
        -11    1    3    3    0    0 -0.16720412886E+02  0.13057717193E+02 -0.68559846840E+01  0.22295306942E+02  0.51100000000E-03 0.  1.
         12    1    3    3    0    0 -0.83609740257E+01  0.61407346403E+01  0.55470628573E+01  0.11763690532E+02  0.00000000000E+00 0. -1.
</event>
<event>
 7    1  0.9865694E-013  0.5052886E+02  0.7816164E-02  0.1300439E+00
        -11   -1    0    0    0    0  0.00000000000E+00  0.00000000000E+00  0.45593999997E+02  0.45594000000E+02  0.51100000000E-03 0.  1.
         11   -1    0    0    0    0 -0.00000000000E+00 -0.00000000000E+00 -0.45593999997E+02  0.45594000000E+02  0.51100000000E-03 0. -1.
    9900012    2    1    2    0    0 -0.38781911712E+02 -0.85325080769E+01  0.87364260564E+01  0.50528861909E+02  0.30000006258E+02 0.  0.
        -12    1    1    2    0    0  0.38781911712E+02  0.85325080769E+01 -0.87364260564E+01  0.40659138091E+02  0.00000000000E+00 0.  1.
         11    1    3    3    0    0 -0.16939727684E+02 -0.10208850169E+02  0.29182642609E+01  0.19992280069E+02  0.51100000000E-03 0. -1.
        -11    1    3    3    0    0  0.20304502544E+01 -0.56058714049E+00 -0.40839233988E+01  0.45951514410E+01  0.51100000000E-03 0.  1.
        -12    1    3    3    0    0 -0.23872634282E+02  0.22369292330E+01  0.99020851943E+01  0.25941430399E+02  0.00000000000E+00 0.  1.
</event>
<event>
 7    1  0.9865694E-013  0.5052886E+02  0.7816164E-02  0.1300439E+00
        -11   -1    0    0    0    0  0.00000000000E+00  0.00000000000E+00  0.45593999997E+02  0.45594000000E+02  0.51100000000E-03 0. -1.
         11   -1    0    0    0    0 -0.00000000000E+00 -0.00000000000E+00 -0.45593999997E+02  0.45594000000E+02  0.51100000000E-03 0.  1.
    9900012    2    1    2    0    0 -0.38309686010E+02  0.88428474484E+01  0.10360375606E+02  0.50528863562E+02  0.30000011284E+02 0.  0.
        -12    1    1    2    0    0  0.38309686010E+02 -0.88428474484E+01 -0.10360375606E+02  0.40659136438E+02  0.00000000000E+00 0.  1.
         11    1    3    3    0    0 -0.10328942343E+02  0.90507864511E+01 -0.12686416068E+01  0.13791781506E+02  0.51100000000E-03 0. -1.
        -11    1    3    3    0    0 -0.21702729219E+02 -0.78385431594E+01  0.23710208839E+01  0.23196399606E+02  0.51100000000E-03 0.  1.
        -12    1    3    3    0    0 -0.62780144478E+01  0.76306041567E+01  0.92579963287E+01  0.13540682450E+02  0.00000000000E+00 0.  1.
</event>
<event>
 7    1  0.9865694E-013  0.5052886E+02  0.7816164E-02  0.1300439E+00
        -11   -1    0    0    0    0  0.00000000000E+00  0.00000000000E+00  0.45593999997E+02  0.45594000000E+02  0.51100000000E-03 0.  1.
         11   -1    0    0    0    0 -0.00000000000E+00 -0.00000000000E+00 -0.45593999997E+02  0.45594000000E+02  0.51100000000E-03 0. -1.
    9900012    2    1    2    0    0  0.21196431888E+02 -0.79715849374E+01 -0.33768783403E+02  0.50528860514E+02  0.30000002018E+02 0.  0.
        -12    1    1    2    0    0 -0.21196431888E+02  0.79715849374E+01  0.33768783403E+02  0.40659139486E+02  0.00000000000E+00 0.  1.
         11    1    3    3    0    0  0.30423719845E+01  0.19985022042E+01  0.32405863352E+01  0.48735447479E+01  0.51100000000E-03 0. -1.
        -11    1    3    3    0    0  0.15328915331E+01 -0.12111103251E+01 -0.20653033565E+02  0.20745224519E+02  0.51100000000E-03 0.  1.
         12    1    3    3    0    0  0.16621168371E+02 -0.87589768166E+01 -0.16356336174E+02  0.24910091247E+02  0.00000000000E+00 0. -1.
</event>
<event>
 7    1  0.9865694E-013  0.5052886E+02  0.7816164E-02  0.1300439E+00
        -11   -1    0    0    0    0  0.00000000000E+00  0.00000000000E+00  0.45593999997E+02  0.45594000000E+02  0.51100000000E-03 0.  1.
         11   -1    0    0    0    0 -0.00000000000E+00 -0.00000000000E+00 -0.45593999997E+02  0.45594000000E+02  0.51100000000E-03 0. -1.
    9900012    2    1    2    0    0 -0.71782411705E+01 -0.22640999758E+02 -0.33000354847E+02  0.50528862818E+02  0.30000009023E+02 0.  0.
        -12    1    1    2    0    0  0.71782411705E+01  0.22640999758E+02  0.33000354847E+02  0.40659137182E+02  0.00000000000E+00 0.  1.
         11    1    3    3    0    0 -0.72840916051E+01 -0.12210579804E+02 -0.33760788473E+02  0.36632595980E+02  0.51100000000E-03 0. -1.
        -11    1    3    3    0    0 -0.34760968904E+01 -0.85467923304E+01  0.23937174041E+01  0.95320927399E+01  0.51100000000E-03 0.  1.
         12    1    3    3    0    0  0.35819473250E+01 -0.18836276232E+01 -0.16332837780E+01  0.43641740985E+01  0.00000000000E+00 0. -1.
</event>
<event>
 7    1  0.9865694E-013  0.5052885E+02  0.7816164E-02  0.1300439E+00
        -11   -1    0    0    0    0  0.00000000000E+00  0.00000000000E+00  0.45593999997E+02  0.45594000000E+02  0.51100000000E-03 0.  1.
         11   -1    0    0    0    0 -0.00000000000E+00 -0.00000000000E+00 -0.45593999997E+02  0.45594000000E+02  0.51100000000E-03 0. -1.
    9900012    2    1    2    0    0 -0.34211514265E+02 -0.47888604141E+01 -0.21443074513E+02  0.50528851744E+02  0.29999975361E+02 0.  0.
        -12    1    1    2    0    0  0.34211514265E+02  0.47888604141E+01  0.21443074513E+02  0.40659148256E+02  0.00000000000E+00 0.  1.
         11    1    3    3    0    0 -0.27516741437E+02 -0.13927880481E+02 -0.22165444751E+02  0.37979782191E+02  0.51100000000E-03 0. -1.
        -11    1    3    3    0    0 -0.18925978545E+01  0.58406980709E+01 -0.14890706346E+01  0.63176745888E+01  0.51100000000E-03 0.  1.
        -12    1    3    3    0    0 -0.48021749730E+01  0.32983219963E+01  0.22114408725E+01  0.62313949638E+01  0.00000000000E+00 0.  1.
</event>
<event>
 7    1  0.9865694E-013  0.5052885E+02  0.7816164E-02  0.1300439E+00
        -11   -1    0    0    0    0  0.00000000000E+00  0.00000000000E+00  0.45593999997E+02  0.45594000000E+02  0.51100000000E-03 0.  1.
         11   -1    0    0    0    0 -0.00000000000E+00 -0.00000000000E+00 -0.45593999997E+02  0.45594000000E+02  0.51100000000E-03 0. -1.
    9900012    2    1    2    0    0 -0.36782524254E+02 -0.13893743024E+02  0.10352590987E+02  0.50528851880E+02  0.29999975774E+02 0.  0.
        -12    1    1    2    0    0  0.36782524254E+02  0.13893743024E+02 -0.10352590987E+02  0.40659148120E+02  0.00000000000E+00 0.  1.
         11    1    3    3    0    0 -0.21534330383E+02  0.42202549224E+01  0.12016685497E+02  0.25018766301E+02  0.51100000000E-03 0. -1.
        -11    1    3    3    0    0 -0.87033857967E+01 -0.75233155436E+01  0.35101215751E+01  0.12027890706E+02  0.51100000000E-03 0.  1.
         12    1    3    3    0    0 -0.65448080745E+01 -0.10590682403E+02 -0.51742160854E+01  0.13482194873E+02  0.00000000000E+00 0. -1.
</event>
<event>
 7    1  0.9865694E-013  0.5052886E+02  0.7816164E-02  0.1300439E+00
        -11   -1    0    0    0    0  0.00000000000E+00  0.00000000000E+00  0.45593999997E+02  0.45594000000E+02  0.51100000000E-03 0.  1.
         11   -1    0    0    0    0 -0.00000000000E+00 -0.00000000000E+00 -0.45593999997E+02  0.45594000000E+02  0.51100000000E-03 0. -1.
    9900012    2    1    2    0    0 -0.29388086637E+02 -0.27617953634E+02  0.51724799617E+01  0.50528861445E+02  0.30000004847E+02 0.  0.
        -12    1    1    2    0    0  0.29388086637E+02  0.27617953634E+02 -0.51724799617E+01  0.40659138555E+02  0.00000000000E+00 0.  1.
         11    1    3    3    0    0  0.30606504326E+01  0.26178943990E+01  0.12164840532E+01  0.42072301895E+01  0.51100000000E-03 0.  1.
        -11    1    3    3    0    0 -0.22234018976E+02 -0.27673709669E+02  0.44615249477E+01  0.35778359546E+02  0.51100000000E-03 0. -1.
        -12    1    3    3    0    0 -0.10214718093E+02 -0.25621383637E+01 -0.50552903924E+00  0.10543271709E+02  0.00000000000E+00 0.  1.
</event>
<event>
 7    1  0.9865694E-013  0.5052886E+02  0.7816164E-02  0.1300439E+00
        -11   -1    0    0    0    0  0.00000000000E+00  0.00000000000E+00  0.45593999997E+02  0.45594000000E+02  0.51100000000E-03 0. -1.
         11   -1    0    0    0    0 -0.00000000000E+00 -0.00000000000E+00 -0.45593999997E+02  0.45594000000E+02  0.51100000000E-03 0.  1.
    9900012    2    1    2    0    0  0.33753577737E+01 -0.40464356127E+02  0.20996131933E+01  0.50528861637E+02  0.30000005431E+02 0.  0.
        -12    1    1    2    0    0 -0.33753577737E+01  0.40464356127E+02 -0.20996131933E+01  0.40659138363E+02  0.00000000000E+00 0.  1.
         11    1    3    3    0    0  0.37782906089E+01 -0.17736716834E+02  0.81753761792E+01  0.19892294486E+02  0.51100000000E-03 0. -1.
        -11    1    3    3    0    0  0.59602650253E+01 -0.49302244003E+01 -0.86013266111E+01  0.11567830027E+02  0.51100000000E-03 0.  1.
         12    1    3    3    0    0 -0.63631978604E+01 -0.17797414893E+02  0.25255636253E+01  0.19068737124E+02  0.00000000000E+00 0. -1.
</event>
<event>
 7    1  0.9865694E-013  0.5052886E+02  0.7816164E-02  0.1300439E+00
        -11   -1    0    0    0    0  0.00000000000E+00  0.00000000000E+00  0.45593999997E+02  0.45594000000E+02  0.51100000000E-03 0. -1.
         11   -1    0    0    0    0 -0.00000000000E+00 -0.00000000000E+00 -0.45593999997E+02  0.45594000000E+02  0.51100000000E-03 0.  1.
    9900012    2    1    2    0    0  0.43518467659E+01  0.27682442859E+02  0.29460300244E+02  0.50528861994E+02  0.30000006515E+02 0.  0.
        -12    1    1    2    0    0 -0.43518467659E+01 -0.27682442859E+02 -0.29460300244E+02  0.40659138006E+02  0.00000000000E+00 0.  1.
         11    1    3    3    0    0  0.20934862913E+01  0.20750575267E+02  0.25356786841E+02  0.32831931072E+02  0.51100000000E-03 0. -1.
        -11    1    3    3    0    0 -0.18197634980E+01  0.10421039115E+02 -0.55049125629E+00  0.10593046602E+02  0.51100000000E-03 0.  1.
         12    1    3    3    0    0  0.40781239726E+01 -0.34891715227E+01  0.46540046593E+01  0.71038843191E+01  0.00000000000E+00 0. -1.
</event>
<event>
 7    1  0.9865694E-013  0.5052884E+02  0.7816164E-02  0.1300439E+00
        -11   -1    0    0    0    0  0.00000000000E+00  0.00000000000E+00  0.45593999997E+02  0.45594000000E+02  0.51100000000E-03 0. -1.
         11   -1    0    0    0    0 -0.00000000000E+00 -0.00000000000E+00 -0.45593999997E+02  0.45594000000E+02  0.51100000000E-03 0.  1.
    9900012    2    1    2    0    0  0.62173733854E+01 -0.10008703917E+02  0.38914484663E+02  0.50528843559E+02  0.29999950483E+02 0.  0.
        -12    1    1    2    0    0 -0.62173733854E+01  0.10008703917E+02 -0.38914484663E+02  0.40659156441E+02  0.00000000000E+00 0.  1.
         11    1    3    3    0    0 -0.13564654036E+01 -0.13077409189E+02  0.20321470852E+02  0.24203735401E+02  0.51100000000E-03 0. -1.
        -11    1    3    3    0    0  0.57945133740E+01 -0.26830647389E+01 -0.40256028901E+00  0.63982244945E+01  0.51100000000E-03 0.  1.
         12    1    3    3    0    0  0.17793254150E+01  0.57517700112E+01  0.18995574099E+02  0.19926883664E+02  0.00000000000E+00 0. -1.
</event>
<event>
 7    1  0.9865694E-013  0.5052880E+02  0.7816164E-02  0.1300439E+00
        -11   -1    0    0    0    0  0.00000000000E+00  0.00000000000E+00  0.45593999997E+02  0.45594000000E+02  0.51100000000E-03 0.  1.
         11   -1    0    0    0    0 -0.00000000000E+00 -0.00000000000E+00 -0.45593999997E+02  0.45594000000E+02  0.51100000000E-03 0. -1.
    9900012    2    1    2    0    0  0.94285164368E+01 -0.38805673949E+02  0.76415731763E+01  0.50528795710E+02  0.29999805040E+02 0.  0.
        -12    1    1    2    0    0 -0.94285164368E+01  0.38805673949E+02 -0.76415731763E+01  0.40659204290E+02  0.00000000000E+00 0.  1.
         11    1    3    3    0    0 -0.20180431971E+01 -0.51754804327E+01  0.16482166330E+00  0.55574510791E+01  0.51100000000E-03 0. -1.
        -11    1    3    3    0    0  0.17174474290E+02 -0.10090877117E+02  0.54985477689E+01  0.20664520220E+02  0.51100000000E-03 0.  1.
        -12    1    3    3    0    0 -0.57279146556E+01 -0.23539316400E+02  0.19782037441E+01  0.24306824411E+02  0.00000000000E+00 0.  1.
</event>
<event>
 7    1  0.9865694E-013  0.5052886E+02  0.7816164E-02  0.1300439E+00
        -11   -1    0    0    0    0  0.00000000000E+00  0.00000000000E+00  0.45593999997E+02  0.45594000000E+02  0.51100000000E-03 0.  1.
         11   -1    0    0    0    0 -0.00000000000E+00 -0.00000000000E+00 -0.45593999997E+02  0.45594000000E+02  0.51100000000E-03 0. -1.
    9900012    2    1    2    0    0  0.63936689767E+01  0.28435777731E+02 -0.28349482564E+02  0.50528860563E+02  0.30000002166E+02 0.  0.
        -12    1    1    2    0    0 -0.63936689767E+01 -0.28435777731E+02  0.28349482564E+02  0.40659139437E+02  0.00000000000E+00 0.  1.
         11    1    3    3    0    0  0.10551483708E+02  0.17526164901E+02 -0.72038478096E+01  0.21688607334E+02  0.51100000000E-03 0.  1.
        -11    1    3    3    0    0 -0.97375422451E+01  0.96131465288E+01 -0.12939373724E+02  0.18832411099E+02  0.51100000000E-03 0. -1.
         12    1    3    3    0    0  0.55797275133E+01  0.12964663013E+01 -0.82062610303E+01  0.10007842130E+02  0.00000000000E+00 0. -1.
</event>
<event>
 7    1  0.9865694E-013  0.5052887E+02  0.7816164E-02  0.1300439E+00
        -11   -1    0    0    0    0  0.00000000000E+00  0.00000000000E+00  0.45593999997E+02  0.45594000000E+02  0.51100000000E-03 0.  1.
         11   -1    0    0    0    0 -0.00000000000E+00 -0.00000000000E+00 -0.45593999997E+02  0.45594000000E+02  0.51100000000E-03 0. -1.
    9900012    2    1    2    0    0  0.36561773015E+02  0.16983493592E+02  0.52879942861E+01  0.50528865920E+02  0.30000018450E+02 0.  0.
        -12    1    1    2    0    0 -0.36561773015E+02 -0.16983493592E+02 -0.52879942861E+01  0.40659134080E+02  0.00000000000E+00 0.  1.
         11    1    3    3    0    0  0.11366877355E+01 -0.51497060929E+01 -0.32832078879E+01  0.62121643690E+01  0.51100000000E-03 0. -1.
        -11    1    3    3    0    0  0.27071452640E+02  0.16777890427E+02  0.10513717866E+01  0.31866385708E+02  0.51100000000E-03 0.  1.
        -12    1    3    3    0    0  0.83536326392E+01  0.53553092584E+01  0.75198303873E+01  0.12450315842E+02  0.00000000000E+00 0.  1.
</event>
<event>
 7    1  0.9865694E-013  0.5052889E+02  0.7816164E-02  0.1300439E+00
        -11   -1    0    0    0    0  0.00000000000E+00  0.00000000000E+00  0.45593999997E+02  0.45594000000E+02  0.51100000000E-03 0. -1.
         11   -1    0    0    0    0 -0.00000000000E+00 -0.00000000000E+00 -0.45593999997E+02  0.45594000000E+02  0.51100000000E-03 0.  1.
    9900012    2    1    2    0    0 -0.91385001981E-01 -0.19394658200E+02  0.35735166144E+02  0.50528890107E+02  0.30000091970E+02 0.  0.
        -12    1    1    2    0    0  0.91385001981E-01  0.19394658200E+02 -0.35735166144E+02  0.40659109893E+02  0.00000000000E+00 0.  1.
         11    1    3    3    0    0 -0.12827595192E+02 -0.64842182295E+01  0.21789987625E+02  0.26103560014E+02  0.51100000000E-03 0. -1.
        -11    1    3    3    0    0  0.38285214795E+01 -0.14397420567E+01 -0.27504091130E+00  0.40995221274E+01  0.51100000000E-03 0.  1.
         12    1    3    3    0    0  0.89076887105E+01 -0.11470697914E+02  0.14220219430E+02  0.20325807965E+02  0.00000000000E+00 0. -1.
</event>
<event>
 7    1  0.9865694E-013  0.5052886E+02  0.7816164E-02  0.1300439E+00
        -11   -1    0    0    0    0  0.00000000000E+00  0.00000000000E+00  0.45593999997E+02  0.45594000000E+02  0.51100000000E-03 0. -1.
         11   -1    0    0    0    0 -0.00000000000E+00 -0.00000000000E+00 -0.45593999997E+02  0.45594000000E+02  0.51100000000E-03 0.  1.
    9900012    2    1    2    0    0 -0.19599549117E+02 -0.19772205171E+02  0.29632474987E+02  0.50528855926E+02  0.29999988074E+02 0.  0.
        -12    1    1    2    0    0  0.19599549117E+02  0.19772205171E+02 -0.29632474987E+02  0.40659144074E+02  0.00000000000E+00 0.  1.
         11    1    3    3    0    0 -0.21167101215E+02 -0.13018656877E+02  0.15697425121E+02  0.29392869142E+02  0.51100000000E-03 0. -1.
        -11    1    3    3    0    0  0.66175835155E+01 -0.81467635227E+01  0.10648670189E+02  0.14951800712E+02  0.51100000000E-03 0.  1.
         12    1    3    3    0    0 -0.50500314173E+01  0.13932152279E+01  0.32863796770E+01  0.61841860716E+01  0.00000000000E+00 0. -1.
</event>
<event>
 7    1  0.9865694E-013  0.5052886E+02  0.7816164E-02  0.1300439E+00
        -11   -1    0    0    0    0  0.00000000000E+00  0.00000000000E+00  0.45593999997E+02  0.45594000000E+02  0.51100000000E-03 0. -1.
         11   -1    0    0    0    0 -0.00000000000E+00 -0.00000000000E+00 -0.45593999997E+02  0.45594000000E+02  0.51100000000E-03 0.  1.
    9900012    2    1    2    0    0 -0.23067313798E+02  0.33434252392E+02 -0.17930828328E+01  0.50528863943E+02  0.30000012441E+02 0.  0.
        -12    1    1    2    0    0  0.23067313798E+02 -0.33434252392E+02  0.17930828328E+01  0.40659136057E+02  0.00000000000E+00 0.  1.
         11    1    3    3    0    0 -0.22401287942E+02  0.31901694563E+02  0.34191857983E+01  0.39130891240E+02  0.51100000000E-03 0. -1.
        -11    1    3    3    0    0  0.31534828092E+01 -0.25462034675E+01 -0.49133156220E+00  0.40827702472E+01  0.51100000000E-03 0.  1.
        -12    1    3    3    0    0 -0.38195086651E+01  0.40787612962E+01 -0.47209370689E+01  0.73152024554E+01  0.00000000000E+00 0.  1.
</event>
<event>
 7    1  0.9865694E-013  0.5052886E+02  0.7816164E-02  0.1300439E+00
        -11   -1    0    0    0    0  0.00000000000E+00  0.00000000000E+00  0.45593999997E+02  0.45594000000E+02  0.51100000000E-03 0. -1.
         11   -1    0    0    0    0 -0.00000000000E+00 -0.00000000000E+00 -0.45593999997E+02  0.45594000000E+02  0.51100000000E-03 0.  1.
    9900012    2    1    2    0    0 -0.10267206733E+02  0.10393038494E+02  0.37943842167E+02  0.50528856604E+02  0.29999990135E+02 0.  0.
        -12    1    1    2    0    0  0.10267206733E+02 -0.10393038494E+02 -0.37943842167E+02  0.40659143396E+02  0.00000000000E+00 0.  1.
         11    1    3    3    0    0  0.92366231276E+01  0.39131787902E+00  0.66352319355E+01  0.11379571151E+02  0.51100000000E-03 0. -1.
        -11    1    3    3    0    0 -0.11824149664E+02  0.35260230251E+01  0.23050342421E+02  0.26145011754E+02  0.51100000000E-03 0.  1.
         12    1    3    3    0    0 -0.76796801968E+01  0.64756975902E+01  0.82582678111E+01  0.13004273699E+02  0.00000000000E+00 0. -1.
</event>
<event>
 7    1  0.9865694E-013  0.5052886E+02  0.7816164E-02  0.1300439E+00
        -11   -1    0    0    0    0  0.00000000000E+00  0.00000000000E+00  0.45593999997E+02  0.45594000000E+02  0.51100000000E-03 0.  1.
         11   -1    0    0    0    0 -0.00000000000E+00 -0.00000000000E+00 -0.45593999997E+02  0.45594000000E+02  0.51100000000E-03 0. -1.
    9900012    2    1    2    0    0 -0.11033358954E+02  0.22206035674E+02 -0.32223008209E+02  0.50528864640E+02  0.30000014559E+02 0.  0.
        -12    1    1    2    0    0  0.11033358954E+02 -0.22206035674E+02  0.32223008209E+02  0.40659135360E+02  0.00000000000E+00 0.  1.
         11    1    3    3    0    0 -0.65788178072E+00 -0.18779494658E+01 -0.40228419068E+01  0.44880686160E+01  0.51100000000E-03 0.  1.
        -11    1    3    3    0    0 -0.16676711616E+02  0.22315058544E+02 -0.27992825685E+02  0.39492693479E+02  0.51100000000E-03 0. -1.
        -12    1    3    3    0    0  0.63012344425E+01  0.17689265956E+01 -0.20734061785E+00  0.65481025444E+01  0.00000000000E+00 0.  1.
</event>
<event>
 7    1  0.9865694E-013  0.5052887E+02  0.7816164E-02  0.1300439E+00
        -11   -1    0    0    0    0  0.00000000000E+00  0.00000000000E+00  0.45593999997E+02  0.45594000000E+02  0.51100000000E-03 0. -1.
         11   -1    0    0    0    0 -0.00000000000E+00 -0.00000000000E+00 -0.45593999997E+02  0.45594000000E+02  0.51100000000E-03 0.  1.
    9900012    2    1    2    0    0  0.32453615199E+02 -0.19050538777E+02  0.15394965548E+02  0.50528866568E+02  0.30000020421E+02 0.  0.
        -12    1    1    2    0    0 -0.32453615199E+02  0.19050538777E+02 -0.15394965548E+02  0.40659133432E+02  0.00000000000E+00 0.  1.
         11    1    3    3    0    0  0.31038714702E+02 -0.83580527032E+01  0.12724420210E+01  0.32169519180E+02  0.51100000000E-03 0. -1.
        -11    1    3    3    0    0 -0.33143543966E+00 -0.73009845821E+01  0.62708604802E+01  0.96300527902E+01  0.51100000000E-03 0.  1.
         12    1    3    3    0    0  0.17463359366E+01 -0.33915014920E+01  0.78516630469E+01  0.87292945979E+01  0.00000000000E+00 0. -1.
</event>
<event>
 7    1  0.9865694E-013  0.5052885E+02  0.7816164E-02  0.1300439E+00
        -11   -1    0    0    0    0  0.00000000000E+00  0.00000000000E+00  0.45593999997E+02  0.45594000000E+02  0.51100000000E-03 0.  1.
         11   -1    0    0    0    0 -0.00000000000E+00 -0.00000000000E+00 -0.45593999997E+02  0.45594000000E+02  0.51100000000E-03 0. -1.
    9900012    2    1    2    0    0  0.14591334999E+02  0.11643194490E+02 -0.36120566784E+02  0.50528851217E+02  0.29999973759E+02 0.  0.
        -12    1    1    2    0    0 -0.14591334999E+02 -0.11643194490E+02  0.36120566784E+02  0.40659148783E+02  0.00000000000E+00 0.  1.
         11    1    3    3    0    0  0.36661897447E+01  0.12805206924E+02 -0.15211322652E+02  0.20218768723E+02  0.51100000000E-03 0. -1.
        -11    1    3    3    0    0  0.14651227384E+02 -0.36889261389E+00 -0.76859491803E+01  0.16548968568E+02  0.51100000000E-03 0.  1.
        -12    1    3    3    0    0 -0.37260821299E+01 -0.79311981919E+00 -0.13223294952E+02  0.13761113925E+02  0.00000000000E+00 0.  1.
</event>
<event>
 7    1  0.9865694E-013  0.5052885E+02  0.7816164E-02  0.1300439E+00
        -11   -1    0    0    0    0  0.00000000000E+00  0.00000000000E+00  0.45593999997E+02  0.45594000000E+02  0.51100000000E-03 0.  1.
         11   -1    0    0    0    0 -0.00000000000E+00 -0.00000000000E+00 -0.45593999997E+02  0.45594000000E+02  0.51100000000E-03 0. -1.
    9900012    2    1    2    0    0  0.25008245246E+02 -0.27669820647E+02 -0.16190599202E+02  0.50528845958E+02  0.29999957773E+02 0.  0.
        -12    1    1    2    0    0 -0.25008245246E+02  0.27669820647E+02  0.16190599202E+02  0.40659154042E+02  0.00000000000E+00 0.  1.
         11    1    3    3    0    0  0.23999622612E+02 -0.30218540723E+02 -0.12648153135E+02  0.40609332264E+02  0.51100000000E-03 0. -1.
        -11    1    3    3    0    0  0.18767129063E+01  0.10239913629E+01 -0.62990183507E+01  0.66519352137E+01  0.51100000000E-03 0.  1.
         12    1    3    3    0    0 -0.86809027323E+00  0.15247287132E+01  0.27565722829E+01  0.32675784799E+01  0.00000000000E+00 0. -1.
</event>
<event>
 7    1  0.9865694E-013  0.5052886E+02  0.7816164E-02  0.1300439E+00
        -11   -1    0    0    0    0  0.00000000000E+00  0.00000000000E+00  0.45593999997E+02  0.45594000000E+02  0.51100000000E-03 0.  1.
         11   -1    0    0    0    0 -0.00000000000E+00 -0.00000000000E+00 -0.45593999997E+02  0.45594000000E+02  0.51100000000E-03 0. -1.
    9900012    2    1    2    0    0  0.88568701136E+01  0.38141584894E+02 -0.10951757332E+02  0.50528860374E+02  0.30000001593E+02 0.  0.
        -12    1    1    2    0    0 -0.88568701136E+01 -0.38141584894E+02  0.10951757332E+02  0.40659139626E+02  0.00000000000E+00 0.  1.
         11    1    3    3    0    0  0.20299852976E+01  0.26219720712E+01  0.58054590661E+01  0.66857260698E+01  0.51100000000E-03 0. -1.
        -11    1    3    3    0    0  0.11554445735E+02  0.31608249463E+02 -0.16997049152E+02  0.37702603763E+02  0.51100000000E-03 0.  1.
        -12    1    3    3    0    0 -0.47275609192E+01  0.39113633606E+01  0.23983275429E+00  0.61405305417E+01  0.00000000000E+00 0.  1.
</event>
<event>
 7    1  0.9865694E-013  0.5052885E+02  0.7816164E-02  0.1300439E+00
        -11   -1    0    0    0    0  0.00000000000E+00  0.00000000000E+00  0.45593999997E+02  0.45594000000E+02  0.51100000000E-03 0.  1.
         11   -1    0    0    0    0 -0.00000000000E+00 -0.00000000000E+00 -0.45593999997E+02  0.45594000000E+02  0.51100000000E-03 0. -1.
    9900012    2    1    2    0    0 -0.18102343875E+02 -0.35042974282E+02 -0.98722727185E+01  0.50528847661E+02  0.29999962950E+02 0.  0.
        -12    1    1    2    0    0  0.18102343875E+02  0.35042974282E+02  0.98722727185E+01  0.40659152339E+02  0.00000000000E+00 0.  1.
         11    1    3    3    0    0 -0.50629192672E+01 -0.18814100364E+01 -0.10252830143E+02  0.11588502122E+02  0.51100000000E-03 0. -1.
        -11    1    3    3    0    0 -0.43808712500E+01 -0.28971636610E+02  0.80357855556E+00  0.29312002653E+02  0.51100000000E-03 0.  1.
        -12    1    3    3    0    0 -0.86585533582E+01 -0.41899276352E+01 -0.42302113148E+00  0.96283428856E+01  0.00000000000E+00 0.  1.
</event>
<event>
 7    1  0.9865694E-013  0.5052882E+02  0.7816164E-02  0.1300439E+00
        -11   -1    0    0    0    0  0.00000000000E+00  0.00000000000E+00  0.45593999997E+02  0.45594000000E+02  0.51100000000E-03 0. -1.
         11   -1    0    0    0    0 -0.00000000000E+00 -0.00000000000E+00 -0.45593999997E+02  0.45594000000E+02  0.51100000000E-03 0.  1.
    9900012    2    1    2    0    0  0.20190107799E+02  0.13518107011E+02  0.32600448782E+02  0.50528819845E+02  0.29999878401E+02 0.  0.
        -12    1    1    2    0    0 -0.20190107799E+02 -0.13518107011E+02 -0.32600448782E+02  0.40659180155E+02  0.00000000000E+00 0.  1.
         11    1    3    3    0    0  0.12228402367E+02  0.18299464515E+01  0.30509835516E+02  0.32920094045E+02  0.51100000000E-03 0.  1.
        -11    1    3    3    0    0  0.90977756625E+01  0.47030580873E+01  0.24223452062E+01  0.10524069267E+02  0.51100000000E-03 0. -1.
         12    1    3    3    0    0 -0.11360702308E+01  0.69851024719E+01 -0.33173193992E+00  0.70846565331E+01  0.00000000000E+00 0. -1.
</event>
<event>
 7    1  0.9865694E-013  0.5052886E+02  0.7816164E-02  0.1300439E+00
        -11   -1    0    0    0    0  0.00000000000E+00  0.00000000000E+00  0.45593999997E+02  0.45594000000E+02  0.51100000000E-03 0.  1.
         11   -1    0    0    0    0 -0.00000000000E+00 -0.00000000000E+00 -0.45593999997E+02  0.45594000000E+02  0.51100000000E-03 0. -1.
    9900012    2    1    2    0    0  0.39442313091E+02  0.78879323334E+01  0.59372073002E+01  0.50528856269E+02  0.29999989114E+02 0.  0.
        -12    1    1    2    0    0 -0.39442313091E+02 -0.78879323334E+01 -0.59372073002E+01  0.40659143731E+02  0.00000000000E+00 0.  1.
         11    1    3    3    0    0  0.31226175889E+02  0.12386729785E+02  0.17743079643E+01  0.33640055059E+02  0.51100000000E-03 0. -1.
        -11    1    3    3    0    0 -0.26191694601E+01  0.46076754364E+00 -0.21351216716E+01  0.34104398842E+01  0.51100000000E-03 0.  1.
         12    1    3    3    0    0  0.10835306662E+02 -0.49595649949E+01  0.62980210076E+01  0.13478361325E+02  0.00000000000E+00 0. -1.
</event>
<event>
 7    1  0.9865694E-013  0.5052886E+02  0.7816164E-02  0.1300439E+00
        -11   -1    0    0    0    0  0.00000000000E+00  0.00000000000E+00  0.45593999997E+02  0.45594000000E+02  0.51100000000E-03 0.  1.
         11   -1    0    0    0    0 -0.00000000000E+00 -0.00000000000E+00 -0.45593999997E+02  0.45594000000E+02  0.51100000000E-03 0. -1.
    9900012    2    1    2    0    0 -0.20543964214E+02 -0.30438864001E+02 -0.17452405282E+02  0.50528863789E+02  0.30000011974E+02 0.  0.
        -12    1    1    2    0    0  0.20543964214E+02  0.30438864001E+02  0.17452405282E+02  0.40659136211E+02  0.00000000000E+00 0.  1.
         11    1    3    3    0    0 -0.19165613387E+02 -0.28243895887E+02 -0.22399601375E+02  0.40826223600E+02  0.51100000000E-03 0. -1.
        -11    1    3    3    0    0 -0.31766389403E+01  0.14796629938E+01  0.30889380973E+00  0.35179330833E+01  0.51100000000E-03 0.  1.
         12    1    3    3    0    0  0.17982881138E+01 -0.36746311075E+01  0.46383022833E+01  0.61847071061E+01  0.00000000000E+00 0. -1.
</event>
<event>
 7    1  0.9865694E-013  0.5052896E+02  0.7816164E-02  0.1300438E+00
        -11   -1    0    0    0    0  0.00000000000E+00  0.00000000000E+00  0.45593999997E+02  0.45594000000E+02  0.51100000000E-03 0.  1.
         11   -1    0    0    0    0 -0.00000000000E+00 -0.00000000000E+00 -0.45593999997E+02  0.45594000000E+02  0.51100000000E-03 0. -1.
    9900012    2    1    2    0    0  0.25147769630E+02 -0.15439004736E+02 -0.27971128952E+02  0.50528963619E+02  0.30000315415E+02 0.  0.
        -12    1    1    2    0    0 -0.25147769630E+02  0.15439004736E+02  0.27971128952E+02  0.40659036381E+02  0.00000000000E+00 0.  1.
         11    1    3    3    0    0  0.48704763685E+01  0.46808758589E+01 -0.18168775660E+02  0.19383924992E+02  0.51100000000E-03 0. -1.
        -11    1    3    3    0    0  0.18744117377E+02 -0.17412652575E+02 -0.60853558530E+01  0.26297793863E+02  0.51100000000E-03 0.  1.
        -12    1    3    3    0    0  0.15331758844E+01 -0.27072280198E+01 -0.37169974384E+01  0.48472447639E+01  0.00000000000E+00 0.  1.
</event>
<event>
 7    1  0.9865694E-013  0.5052886E+02  0.7816164E-02  0.1300439E+00
        -11   -1    0    0    0    0  0.00000000000E+00  0.00000000000E+00  0.45593999997E+02  0.45594000000E+02  0.51100000000E-03 0. -1.
         11   -1    0    0    0    0 -0.00000000000E+00 -0.00000000000E+00 -0.45593999997E+02  0.45594000000E+02  0.51100000000E-03 0.  1.
    9900012    2    1    2    0    0 -0.31304690176E+02 -0.75834471067E+01  0.24812772151E+02  0.50528856393E+02  0.29999989492E+02 0.  0.
        -12    1    1    2    0    0  0.31304690176E+02  0.75834471067E+01 -0.24812772151E+02  0.40659143607E+02  0.00000000000E+00 0.  1.
         11    1    3    3    0    0 -0.17370385106E+02  0.95492297034E+01  0.18323735212E+02  0.26994024136E+02  0.51100000000E-03 0. -1.
        -11    1    3    3    0    0 -0.56959270931E+01 -0.10767014751E+02  0.28881522463E+01  0.12518530895E+02  0.51100000000E-03 0.  1.
         12    1    3    3    0    0 -0.82383779771E+01 -0.63656620588E+01  0.36008846925E+01  0.11016301362E+02  0.00000000000E+00 0. -1.
</event>
<event>
 7    1  0.9865694E-013  0.5052887E+02  0.7816164E-02  0.1300439E+00
        -11   -1    0    0    0    0  0.00000000000E+00  0.00000000000E+00  0.45593999997E+02  0.45594000000E+02  0.51100000000E-03 0.  1.
         11   -1    0    0    0    0 -0.00000000000E+00 -0.00000000000E+00 -0.45593999997E+02  0.45594000000E+02  0.51100000000E-03 0. -1.
    9900012    2    1    2    0    0  0.26818107888E+02  0.30312928571E+02 -0.38833427493E+01  0.50528869412E+02  0.30000029065E+02 0.  0.
        -12    1    1    2    0    0 -0.26818107888E+02 -0.30312928571E+02  0.38833427493E+01  0.40659130588E+02  0.00000000000E+00 0.  1.
         11    1    3    3    0    0  0.12841148779E+02  0.73913132698E+01 -0.23291616325E+01  0.14998386846E+02  0.51100000000E-03 0. -1.
        -11    1    3    3    0    0 -0.63161839951E+01  0.73200732371E+01 -0.22382497139E+01  0.99240825520E+01  0.51100000000E-03 0.  1.
        -12    1    3    3    0    0  0.20293143105E+02  0.15601542064E+02  0.68406859701E+00  0.25606400014E+02  0.00000000000E+00 0.  1.
</event>
<event>
 7    1  0.9865694E-013  0.5052886E+02  0.7816164E-02  0.1300439E+00
        -11   -1    0    0    0    0  0.00000000000E+00  0.00000000000E+00  0.45593999997E+02  0.45594000000E+02  0.51100000000E-03 0.  1.
         11   -1    0    0    0    0 -0.00000000000E+00 -0.00000000000E+00 -0.45593999997E+02  0.45594000000E+02  0.51100000000E-03 0. -1.
    9900012    2    1    2    0    0  0.14793933009E+02  0.31818851208E+02 -0.20539381088E+02  0.50528856852E+02  0.29999990888E+02 0.  0.
        -12    1    1    2    0    0 -0.14793933009E+02 -0.31818851208E+02  0.20539381088E+02  0.40659143148E+02  0.00000000000E+00 0.  1.
         11    1    3    3    0    0 -0.17691158330E+01  0.17748188962E+01 -0.52766280795E+01  0.58414516257E+01  0.51100000000E-03 0. -1.
        -11    1    3    3    0    0  0.14572257376E+02  0.24863805319E+02 -0.39982416734E+00  0.28822202546E+02  0.51100000000E-03 0.  1.
        -12    1    3    3    0    0  0.19907914657E+01  0.51802269923E+01 -0.14862928841E+02  0.15865202681E+02  0.00000000000E+00 0.  1.
</event>
<event>
 7    1  0.9865694E-013  0.5052887E+02  0.7816164E-02  0.1300439E+00
        -11   -1    0    0    0    0  0.00000000000E+00  0.00000000000E+00  0.45593999997E+02  0.45594000000E+02  0.51100000000E-03 0.  1.
         11   -1    0    0    0    0 -0.00000000000E+00 -0.00000000000E+00 -0.45593999997E+02  0.45594000000E+02  0.51100000000E-03 0. -1.
    9900012    2    1    2    0    0  0.34914227604E+01 -0.25749152243E+01 -0.40427032448E+02  0.50528866047E+02  0.30000018836E+02 0.  0.
        -12    1    1    2    0    0 -0.34914227604E+01  0.25749152243E+01  0.40427032448E+02  0.40659133953E+02  0.00000000000E+00 0.  1.
         11    1    3    3    0    0 -0.16284642186E+01 -0.30883305194E+01 -0.21293548538E+01  0.40894783852E+01  0.51100000000E-03 0. -1.
        -11    1    3    3    0    0  0.13276463826E+01  0.27742396875E+01 -0.41096861624E+02  0.41211783343E+02  0.51100000000E-03 0.  1.
        -12    1    3    3    0    0  0.37922405965E+01 -0.22608243924E+01  0.27991840298E+01  0.52276043182E+01  0.00000000000E+00 0.  1.
</event>
<event>
 7    1  0.9865694E-013  0.5052886E+02  0.7816164E-02  0.1300439E+00
        -11   -1    0    0    0    0  0.00000000000E+00  0.00000000000E+00  0.45593999997E+02  0.45594000000E+02  0.51100000000E-03 0.  1.
         11   -1    0    0    0    0 -0.00000000000E+00 -0.00000000000E+00 -0.45593999997E+02  0.45594000000E+02  0.51100000000E-03 0. -1.
    9900012    2    1    2    0    0  0.33939060792E+02 -0.13243536899E+02 -0.18053114136E+02  0.50528855309E+02  0.29999986197E+02 0.  0.
        -12    1    1    2    0    0 -0.33939060792E+02  0.13243536899E+02  0.18053114136E+02  0.40659144691E+02  0.00000000000E+00 0.  1.
         11    1    3    3    0    0  0.11185388230E+02 -0.66470947901E+01 -0.25975974545E+01  0.13268168366E+02  0.51100000000E-03 0. -1.
        -11    1    3    3    0    0  0.28383853515E+01  0.75671135614E+01 -0.87667760415E+01  0.11923673992E+02  0.51100000000E-03 0.  1.
        -12    1    3    3    0    0  0.19915287210E+02 -0.14163555670E+02 -0.66887406402E+01  0.25337012950E+02  0.00000000000E+00 0.  1.
</event>
<event>
 7    1  0.9865694E-013  0.5052885E+02  0.7816164E-02  0.1300439E+00
        -11   -1    0    0    0    0  0.00000000000E+00  0.00000000000E+00  0.45593999997E+02  0.45594000000E+02  0.51100000000E-03 0. -1.
         11   -1    0    0    0    0 -0.00000000000E+00 -0.00000000000E+00 -0.45593999997E+02  0.45594000000E+02  0.51100000000E-03 0.  1.
    9900012    2    1    2    0    0 -0.34338449783E+02 -0.11009171753E+02  0.18783906883E+02  0.50528853993E+02  0.29999982199E+02 0.  0.
        -12    1    1    2    0    0  0.34338449783E+02  0.11009171753E+02 -0.18783906883E+02  0.40659146007E+02  0.00000000000E+00 0.  1.
         11    1    3    3    0    0 -0.21936872504E+02 -0.12996592468E+02  0.14413809886E+02  0.29289856721E+02  0.51100000000E-03 0. -1.
        -11    1    3    3    0    0 -0.12116719964E+02  0.15977516766E+01 -0.39965295608E+01  0.12858458769E+02  0.51100000000E-03 0.  1.
         12    1    3    3    0    0 -0.28485731397E+00  0.38966903761E+00  0.83666265585E+01  0.83805385040E+01  0.00000000000E+00 0. -1.
</event>
<event>
 7    1  0.9865694E-013  0.5052887E+02  0.7816164E-02  0.1300439E+00
        -11   -1    0    0    0    0  0.00000000000E+00  0.00000000000E+00  0.45593999997E+02  0.45594000000E+02  0.51100000000E-03 0.  1.
         11   -1    0    0    0    0 -0.00000000000E+00 -0.00000000000E+00 -0.45593999997E+02  0.45594000000E+02  0.51100000000E-03 0. -1.
    9900012    2    1    2    0    0 -0.28831235443E+02 -0.73226055074E+01 -0.27718306169E+02  0.50528865904E+02  0.30000018401E+02 0.  0.
        -12    1    1    2    0    0  0.28831235443E+02  0.73226055074E+01  0.27718306169E+02  0.40659134096E+02  0.00000000000E+00 0.  1.
         11    1    3    3    0    0 -0.23351705088E+02 -0.93082731940E+01 -0.93213609940E+01  0.26811077028E+02  0.51100000000E-03 0. -1.
        -11    1    3    3    0    0 -0.78455021759E+01  0.37391383457E+01 -0.18832192866E+02  0.20740890732E+02  0.51100000000E-03 0.  1.
        -12    1    3    3    0    0  0.23659718205E+01 -0.17534706590E+01  0.43524769046E+00  0.29768981439E+01  0.00000000000E+00 0.  1.
</event>
<event>
 7    1  0.9865694E-013  0.5052888E+02  0.7816164E-02  0.1300439E+00
        -11   -1    0    0    0    0  0.00000000000E+00  0.00000000000E+00  0.45593999997E+02  0.45594000000E+02  0.51100000000E-03 0.  1.
         11   -1    0    0    0    0 -0.00000000000E+00 -0.00000000000E+00 -0.45593999997E+02  0.45594000000E+02  0.51100000000E-03 0. -1.
    9900012    2    1    2    0    0 -0.70984377122E+01 -0.40015710288E+02  0.12326453107E+01  0.50528876765E+02  0.30000051415E+02 0.  0.
        -12    1    1    2    0    0  0.70984377122E+01  0.40015710288E+02 -0.12326453107E+01  0.40659123235E+02  0.00000000000E+00 0.  1.
         11    1    3    3    0    0 -0.14844519261E+02 -0.16958051925E+02 -0.34705758463E+01  0.22803073787E+02  0.51100000000E-03 0. -1.
        -11    1    3    3    0    0  0.69734470672E+01 -0.12647342222E+02 -0.30019859942E+01  0.14751140616E+02  0.51100000000E-03 0.  1.
         12    1    3    3    0    0  0.77263448125E+00 -0.10410316140E+02  0.77052071512E+01  0.12974662362E+02  0.00000000000E+00 0. -1.
</event>
<event>
 7    1  0.9865694E-013  0.5052886E+02  0.7816164E-02  0.1300439E+00
        -11   -1    0    0    0    0  0.00000000000E+00  0.00000000000E+00  0.45593999997E+02  0.45594000000E+02  0.51100000000E-03 0.  1.
         11   -1    0    0    0    0 -0.00000000000E+00 -0.00000000000E+00 -0.45593999997E+02  0.45594000000E+02  0.51100000000E-03 0. -1.
    9900012    2    1    2    0    0 -0.13913551690E+02 -0.16647895033E+02 -0.34386427207E+02  0.50528859506E+02  0.29999998954E+02 0.  0.
        -12    1    1    2    0    0  0.13913551690E+02  0.16647895033E+02  0.34386427207E+02  0.40659140494E+02  0.00000000000E+00 0.  1.
         11    1    3    3    0    0 -0.12164562334E+01 -0.35277316718E+01  0.59526263316E+00  0.37787556655E+01  0.51100000000E-03 0. -1.
        -11    1    3    3    0    0 -0.15685815130E+01 -0.16439738462E+02 -0.29721268214E+02  0.34001165174E+02  0.51100000000E-03 0.  1.
        -12    1    3    3    0    0 -0.11128513944E+02  0.33195751004E+01 -0.52604216257E+01  0.12748938667E+02  0.00000000000E+00 0.  1.
</event>
<event>
 7    1  0.9865694E-013  0.5052887E+02  0.7816164E-02  0.1300439E+00
        -11   -1    0    0    0    0  0.00000000000E+00  0.00000000000E+00  0.45593999997E+02  0.45594000000E+02  0.51100000000E-03 0.  1.
         11   -1    0    0    0    0 -0.00000000000E+00 -0.00000000000E+00 -0.45593999997E+02  0.45594000000E+02  0.51100000000E-03 0. -1.
    9900012    2    1    2    0    0 -0.26738221646E+02 -0.28294249446E+02 -0.11733208506E+02  0.50528865352E+02  0.30000016723E+02 0.  0.
        -12    1    1    2    0    0  0.26738221646E+02  0.28294249446E+02  0.11733208506E+02  0.40659134648E+02  0.00000000000E+00 0.  1.
         11    1    3    3    0    0 -0.14130022999E+02 -0.18255684195E+02  0.60091454792E+01  0.23854504502E+02  0.51100000000E-03 0. -1.
        -11    1    3    3    0    0 -0.14760975935E+02 -0.92829293137E+01 -0.16774794136E+02  0.24196134108E+02  0.51100000000E-03 0.  1.
         12    1    3    3    0    0  0.21527772881E+01 -0.75563593655E+00 -0.96755984872E+00  0.24782267413E+01  0.00000000000E+00 0. -1.
</event>
<event>
 7    1  0.9865694E-013  0.5052888E+02  0.7816164E-02  0.1300439E+00
        -11   -1    0    0    0    0  0.00000000000E+00  0.00000000000E+00  0.45593999997E+02  0.45594000000E+02  0.51100000000E-03 0.  1.
         11   -1    0    0    0    0 -0.00000000000E+00 -0.00000000000E+00 -0.45593999997E+02  0.45594000000E+02  0.51100000000E-03 0. -1.
    9900012    2    1    2    0    0  0.23467423902E+02  0.13189504481E+01 -0.33176861308E+02  0.50528883665E+02  0.30000072388E+02 0.  0.
        -12    1    1    2    0    0 -0.23467423902E+02 -0.13189504481E+01  0.33176861308E+02  0.40659116335E+02  0.00000000000E+00 0.  1.
         11    1    3    3    0    0 -0.40724200757E+01 -0.36413745707E+01 -0.57534975180E+01  0.79339112667E+01  0.51100000000E-03 0. -1.
        -11    1    3    3    0    0  0.16605546758E+02  0.64650155807E+01 -0.65541454416E+01  0.18986769929E+02  0.51100000000E-03 0.  1.
         12    1    3    3    0    0  0.10934297220E+02 -0.15046905619E+01 -0.20869218348E+02  0.23608202470E+02  0.00000000000E+00 0. -1.
</event>
<event>
 7    1  0.9865694E-013  0.5052887E+02  0.7816164E-02  0.1300439E+00
        -11   -1    0    0    0    0  0.00000000000E+00  0.00000000000E+00  0.45593999997E+02  0.45594000000E+02  0.51100000000E-03 0.  1.
         11   -1    0    0    0    0 -0.00000000000E+00 -0.00000000000E+00 -0.45593999997E+02  0.45594000000E+02  0.51100000000E-03 0. -1.
    9900012    2    1    2    0    0 -0.83658304343E+01 -0.34308920463E+02 -0.20151325380E+02  0.50528867486E+02  0.30000023212E+02 0.  0.
        -12    1    1    2    0    0  0.83658304343E+01  0.34308920463E+02  0.20151325380E+02  0.40659132514E+02  0.00000000000E+00 0.  1.
         11    1    3    3    0    0 -0.56227826082E+01 -0.14243230829E+02 -0.19983268354E+02  0.25175708989E+02  0.51100000000E-03 0. -1.
        -11    1    3    3    0    0 -0.55927523549E+01 -0.14178106257E+02  0.59836898536E+01  0.16373824247E+02  0.51100000000E-03 0.  1.
         12    1    3    3    0    0  0.28497045287E+01 -0.58875833769E+01 -0.61517468791E+01  0.89793342507E+01  0.00000000000E+00 0. -1.
</event>
<event>
 7    1  0.9865694E-013  0.5052885E+02  0.7816164E-02  0.1300439E+00
        -11   -1    0    0    0    0  0.00000000000E+00  0.00000000000E+00  0.45593999997E+02  0.45594000000E+02  0.51100000000E-03 0.  1.
         11   -1    0    0    0    0 -0.00000000000E+00 -0.00000000000E+00 -0.45593999997E+02  0.45594000000E+02  0.51100000000E-03 0. -1.
    9900012    2    1    2    0    0  0.92209014694E+00 -0.12636191721E+02 -0.38634733058E+02  0.50528853551E+02  0.29999980855E+02 0.  0.
        -12    1    1    2    0    0 -0.92209014694E+00  0.12636191721E+02  0.38634733058E+02  0.40659146449E+02  0.00000000000E+00 0.  1.
         11    1    3    3    0    0 -0.51047864183E+01 -0.98327533735E+01 -0.98359535225E+01  0.14815122856E+02  0.51100000000E-03 0. -1.
        -11    1    3    3    0    0  0.52606613283E+01  0.24854549298E+01 -0.29725767852E+02  0.30289822028E+02  0.51100000000E-03 0.  1.
        -12    1    3    3    0    0  0.76621523700E+00 -0.52888932777E+01  0.92698831667E+00  0.54239086673E+01  0.00000000000E+00 0.  1.
</event>
<event>
 7    1  0.9865694E-013  0.5052887E+02  0.7816164E-02  0.1300439E+00
        -11   -1    0    0    0    0  0.00000000000E+00  0.00000000000E+00  0.45593999997E+02  0.45594000000E+02  0.51100000000E-03 0. -1.
         11   -1    0    0    0    0 -0.00000000000E+00 -0.00000000000E+00 -0.45593999997E+02  0.45594000000E+02  0.51100000000E-03 0.  1.
    9900012    2    1    2    0    0 -0.12557811901E+02 -0.35439783446E+02  0.15475410146E+02  0.50528865606E+02  0.30000017497E+02 0.  0.
        -12    1    1    2    0    0  0.12557811901E+02  0.35439783446E+02 -0.15475410146E+02  0.40659134394E+02  0.00000000000E+00 0.  1.
         11    1    3    3    0    0  0.42021300433E+01 -0.19270895828E+02  0.16144287337E+02  0.25488494204E+02  0.51100000000E-03 0. -1.
        -11    1    3    3    0    0 -0.72510365735E+01 -0.82723322465E+01 -0.48083925421E+01  0.12005400921E+02  0.51100000000E-03 0.  1.
        -12    1    3    3    0    0 -0.95089053705E+01 -0.78965553720E+01  0.41395153518E+01  0.13034970481E+02  0.00000000000E+00 0.  1.
</event>
<event>
 7    1  0.9865694E-013  0.5052887E+02  0.7816164E-02  0.1300439E+00
        -11   -1    0    0    0    0  0.00000000000E+00  0.00000000000E+00  0.45593999997E+02  0.45594000000E+02  0.51100000000E-03 0.  1.
         11   -1    0    0    0    0 -0.00000000000E+00 -0.00000000000E+00 -0.45593999997E+02  0.45594000000E+02  0.51100000000E-03 0. -1.
    9900012    2    1    2    0    0 -0.16948944022E+02  0.71045623546E+01 -0.36268770896E+02  0.50528865085E+02  0.30000015914E+02 0.  0.
        -12    1    1    2    0    0  0.16948944022E+02 -0.71045623546E+01  0.36268770896E+02  0.40659134915E+02  0.00000000000E+00 0.  1.
         11    1    3    3    0    0  0.63163530745E+00 -0.48713817126E+01 -0.39851709035E+01  0.63254177998E+01  0.51100000000E-03 0. -1.
        -11    1    3    3    0    0 -0.14899732648E+02  0.17983332160E+02 -0.27449018555E+02  0.36039573922E+02  0.51100000000E-03 0.  1.
        -12    1    3    3    0    0 -0.26808466813E+01 -0.60073880929E+01 -0.48345814370E+01  0.81638733637E+01  0.00000000000E+00 0.  1.
</event>
<event>
 7    1  0.9865694E-013  0.5052889E+02  0.7816164E-02  0.1300439E+00
        -11   -1    0    0    0    0  0.00000000000E+00  0.00000000000E+00  0.45593999997E+02  0.45594000000E+02  0.51100000000E-03 0. -1.
         11   -1    0    0    0    0 -0.00000000000E+00 -0.00000000000E+00 -0.45593999997E+02  0.45594000000E+02  0.51100000000E-03 0.  1.
    9900012    2    1    2    0    0 -0.20239581358E+02 -0.13627704133E+02  0.32523967737E+02  0.50528887235E+02  0.30000083240E+02 0.  0.
        -12    1    1    2    0    0  0.20239581358E+02  0.13627704133E+02 -0.32523967737E+02  0.40659112765E+02  0.00000000000E+00 0.  1.
         11    1    3    3    0    0 -0.70055573065E+01 -0.54542392363E+01  0.50526562641E+01  0.10215473283E+02  0.51100000000E-03 0. -1.
        -11    1    3    3    0    0 -0.78201144089E+01  0.51066801995E+01  0.23715647350E+02  0.25488513129E+02  0.51100000000E-03 0.  1.
        -12    1    3    3    0    0 -0.54139096422E+01 -0.13280145097E+02  0.37556641228E+01  0.14824900823E+02  0.00000000000E+00 0.  1.
</event>
<event>
 7    1  0.9865694E-013  0.5052886E+02  0.7816164E-02  0.1300439E+00
        -11   -1    0    0    0    0  0.00000000000E+00  0.00000000000E+00  0.45593999997E+02  0.45594000000E+02  0.51100000000E-03 0. -1.
         11   -1    0    0    0    0 -0.00000000000E+00 -0.00000000000E+00 -0.45593999997E+02  0.45594000000E+02  0.51100000000E-03 0.  1.
    9900012    2    1    2    0    0  0.60167462958E+01 -0.28987961496E+02  0.27868662064E+02  0.50528862369E+02  0.30000007657E+02 0.  0.
        -12    1    1    2    0    0 -0.60167462958E+01  0.28987961496E+02 -0.27868662064E+02  0.40659137631E+02  0.00000000000E+00 0.  1.
         11    1    3    3    0    0 -0.84211151357E+01 -0.17466952768E+02  0.70898876504E+01  0.20646455538E+02  0.51100000000E-03 0. -1.
        -11    1    3    3    0    0  0.27951867234E+01  0.96829592484E+00  0.80770279919E+01  0.86016886284E+01  0.51100000000E-03 0.  1.
         12    1    3    3    0    0  0.11642674708E+02 -0.12489304653E+02  0.12701746422E+02  0.21280718203E+02  0.00000000000E+00 0. -1.
</event>
<event>
 7    1  0.9865694E-013  0.5052887E+02  0.7816164E-02  0.1300439E+00
        -11   -1    0    0    0    0  0.00000000000E+00  0.00000000000E+00  0.45593999997E+02  0.45594000000E+02  0.51100000000E-03 0.  1.
         11   -1    0    0    0    0 -0.00000000000E+00 -0.00000000000E+00 -0.45593999997E+02  0.45594000000E+02  0.51100000000E-03 0. -1.
    9900012    2    1    2    0    0 -0.27799033619E+02  0.86851071381E+01 -0.28371590910E+02  0.50528874002E+02  0.30000043017E+02 0.  0.
        -12    1    1    2    0    0  0.27799033619E+02 -0.86851071381E+01  0.28371590910E+02  0.40659125998E+02  0.00000000000E+00 0.  1.
         11    1    3    3    0    0  0.34298732649E+00  0.56578616805E+01 -0.14317050543E+02  0.15398278333E+02  0.51100000000E-03 0. -1.
        -11    1    3    3    0    0 -0.19958525309E+02  0.14307920988E+01 -0.15082898173E+01  0.20066510334E+02  0.51100000000E-03 0.  1.
        -12    1    3    3    0    0 -0.81834956368E+01  0.15964533589E+01 -0.12546250549E+02  0.15064085336E+02  0.00000000000E+00 0.  1.
</event>
<event>
 7    1  0.9865694E-013  0.5052886E+02  0.7816164E-02  0.1300439E+00
        -11   -1    0    0    0    0  0.00000000000E+00  0.00000000000E+00  0.45593999997E+02  0.45594000000E+02  0.51100000000E-03 0.  1.
         11   -1    0    0    0    0 -0.00000000000E+00 -0.00000000000E+00 -0.45593999997E+02  0.45594000000E+02  0.51100000000E-03 0. -1.
    9900012    2    1    2    0    0  0.12876374234E+02 -0.34050393437E+02 -0.18108990333E+02  0.50528857885E+02  0.29999994029E+02 0.  0.
        -12    1    1    2    0    0 -0.12876374234E+02  0.34050393437E+02  0.18108990333E+02  0.40659142115E+02  0.00000000000E+00 0.  1.
         11    1    3    3    0    0  0.50952774812E+01 -0.22568030206E+01 -0.89734013068E+01  0.10562998805E+02  0.51100000000E-03 0. -1.
        -11    1    3    3    0    0 -0.44720221731E+01 -0.12256074954E+02  0.37152415935E+01  0.13565153002E+02  0.51100000000E-03 0.  1.
        -12    1    3    3    0    0  0.12253118926E+02 -0.19537515462E+02 -0.12850830619E+02  0.26400706078E+02  0.00000000000E+00 0.  1.
</event>
<event>
 7    1  0.9865694E-013  0.5052886E+02  0.7816164E-02  0.1300439E+00
        -11   -1    0    0    0    0  0.00000000000E+00  0.00000000000E+00  0.45593999997E+02  0.45594000000E+02  0.51100000000E-03 0.  1.
         11   -1    0    0    0    0 -0.00000000000E+00 -0.00000000000E+00 -0.45593999997E+02  0.45594000000E+02  0.51100000000E-03 0. -1.
    9900012    2    1    2    0    0  0.17953331855E+02  0.36073698572E+02 -0.54343285010E+01  0.50528858597E+02  0.29999996191E+02 0.  0.
        -12    1    1    2    0    0 -0.17953331855E+02 -0.36073698572E+02  0.54343285010E+01  0.40659141403E+02  0.00000000000E+00 0.  1.
         11    1    3    3    0    0  0.30027483328E+01  0.13828369091E+01 -0.91826349568E+01  0.97595860813E+01  0.51100000000E-03 0. -1.
        -11    1    3    3    0    0  0.12716459823E+00  0.18429442401E+02  0.35271044390E+01  0.18764354080E+02  0.51100000000E-03 0.  1.
         12    1    3    3    0    0  0.14823418924E+02  0.16261419262E+02  0.22120201680E+00  0.22004918435E+02  0.00000000000E+00 0. -1.
</event>
<event>
 7    1  0.9865694E-013  0.5052886E+02  0.7816164E-02  0.1300439E+00
        -11   -1    0    0    0    0  0.00000000000E+00  0.00000000000E+00  0.45593999997E+02  0.45594000000E+02  0.51100000000E-03 0.  1.
         11   -1    0    0    0    0 -0.00000000000E+00 -0.00000000000E+00 -0.45593999997E+02  0.45594000000E+02  0.51100000000E-03 0. -1.
    9900012    2    1    2    0    0  0.16513033105E+02 -0.14746428903E+02 -0.34103201669E+02  0.50528858448E+02  0.29999995738E+02 0.  0.
        -12    1    1    2    0    0 -0.16513033105E+02  0.14746428903E+02  0.34103201669E+02  0.40659141552E+02  0.00000000000E+00 0.  1.
         11    1    3    3    0    0  0.11201441096E+02 -0.50007796880E+01 -0.36109343423E+02  0.38136134608E+02  0.51100000000E-03 0. -1.
        -11    1    3    3    0    0  0.30829479553E+01 -0.48569512924E+01 -0.15398553272E+01  0.59553084422E+01  0.51100000000E-03 0.  1.
         12    1    3    3    0    0  0.22286440535E+01 -0.48886979230E+01  0.35459970817E+01  0.64374153977E+01  0.00000000000E+00 0. -1.
</event>
<event>
 7    1  0.9865694E-013  0.5052886E+02  0.7816164E-02  0.1300439E+00
        -11   -1    0    0    0    0  0.00000000000E+00  0.00000000000E+00  0.45593999997E+02  0.45594000000E+02  0.51100000000E-03 0. -1.
         11   -1    0    0    0    0 -0.00000000000E+00 -0.00000000000E+00 -0.45593999997E+02  0.45594000000E+02  0.51100000000E-03 0.  1.
    9900012    2    1    2    0    0  0.78495861150E+01 -0.39683659183E+02 -0.40935192859E+01  0.50528859472E+02  0.29999998852E+02 0.  0.
        -12    1    1    2    0    0 -0.78495861150E+01  0.39683659183E+02  0.40935192859E+01  0.40659140528E+02  0.00000000000E+00 0.  1.
         11    1    3    3    0    0 -0.74033295887E+00 -0.18736933875E+02  0.47566549512E+01  0.19345452967E+02  0.51100000000E-03 0. -1.
        -11    1    3    3    0    0  0.87690157241E+01 -0.25216549362E+01  0.26024894899E+01  0.94882734042E+01  0.51100000000E-03 0.  1.
        -12    1    3    3    0    0 -0.17909665021E+00 -0.18425070372E+02 -0.11452663727E+02  0.21695133101E+02  0.00000000000E+00 0.  1.
</event>
<event>
 7    1  0.9865694E-013  0.5052887E+02  0.7816164E-02  0.1300439E+00
        -11   -1    0    0    0    0  0.00000000000E+00  0.00000000000E+00  0.45593999997E+02  0.45594000000E+02  0.51100000000E-03 0.  1.
         11   -1    0    0    0    0 -0.00000000000E+00 -0.00000000000E+00 -0.45593999997E+02  0.45594000000E+02  0.51100000000E-03 0. -1.
    9900012    2    1    2    0    0  0.24137393217E+02  0.28799725793E+02 -0.15528269508E+02  0.50528866819E+02  0.30000021184E+02 0.  0.
        -12    1    1    2    0    0 -0.24137393217E+02 -0.28799725793E+02  0.15528269508E+02  0.40659133181E+02  0.00000000000E+00 0.  1.
         11    1    3    3    0    0  0.17772854094E+02  0.34725168640E+01 -0.81981714144E+01  0.19878197374E+02  0.51100000000E-03 0. -1.
        -11    1    3    3    0    0  0.91253724568E+01  0.23675579772E+02 -0.34444723584E+01  0.25606051826E+02  0.51100000000E-03 0.  1.
         12    1    3    3    0    0 -0.27608333342E+01  0.16516291569E+01 -0.38856257353E+01  0.50446176194E+01  0.00000000000E+00 0. -1.
</event>
<event>
 7    1  0.9865694E-013  0.5052886E+02  0.7816164E-02  0.1300439E+00
        -11   -1    0    0    0    0  0.00000000000E+00  0.00000000000E+00  0.45593999997E+02  0.45594000000E+02  0.51100000000E-03 0.  1.
         11   -1    0    0    0    0 -0.00000000000E+00 -0.00000000000E+00 -0.45593999997E+02  0.45594000000E+02  0.51100000000E-03 0. -1.
    9900012    2    1    2    0    0  0.18294085761E+02  0.99673584547E+01 -0.34916242178E+02  0.50528858639E+02  0.29999996318E+02 0.  0.
        -12    1    1    2    0    0 -0.18294085761E+02 -0.99673584547E+01  0.34916242178E+02  0.40659141361E+02  0.00000000000E+00 0.  1.
         11    1    3    3    0    0 -0.25275769418E+01  0.69880919373E+01 -0.79255818661E+01  0.10864479845E+02  0.51100000000E-03 0. -1.
        -11    1    3    3    0    0  0.18517995695E+02 -0.17792375085E+01 -0.28617683965E+02  0.34132882774E+02  0.51100000000E-03 0.  1.
        -12    1    3    3    0    0  0.23036670078E+01  0.47585040260E+01  0.16270236532E+01  0.55314960197E+01  0.00000000000E+00 0.  1.
</event>
<event>
 7    1  0.9865694E-013  0.5052886E+02  0.7816164E-02  0.1300439E+00
        -11   -1    0    0    0    0  0.00000000000E+00  0.00000000000E+00  0.45593999997E+02  0.45594000000E+02  0.51100000000E-03 0. -1.
         11   -1    0    0    0    0 -0.00000000000E+00 -0.00000000000E+00 -0.45593999997E+02  0.45594000000E+02  0.51100000000E-03 0.  1.
    9900012    2    1    2    0    0  0.32091957506E+01  0.15641886647E+02  0.37392485042E+02  0.50528862123E+02  0.30000006909E+02 0.  0.
        -12    1    1    2    0    0 -0.32091957506E+01 -0.15641886647E+02 -0.37392485042E+02  0.40659137877E+02  0.00000000000E+00 0.  1.
         11    1    3    3    0    0 -0.47729989250E+01  0.16772665895E+02  0.13556844276E+02  0.22088274422E+02  0.51100000000E-03 0. -1.
        -11    1    3    3    0    0  0.31746940312E+01 -0.24623266829E+01 -0.71725780375E-01  0.40183180229E+01  0.51100000000E-03 0.  1.
         12    1    3    3    0    0  0.48075006445E+01  0.13315474347E+01  0.23907366547E+02  0.24422269678E+02  0.00000000000E+00 0. -1.
</event>
<event>
 7    1  0.9865694E-013  0.5052886E+02  0.7816164E-02  0.1300439E+00
        -11   -1    0    0    0    0  0.00000000000E+00  0.00000000000E+00  0.45593999997E+02  0.45594000000E+02  0.51100000000E-03 0.  1.
         11   -1    0    0    0    0 -0.00000000000E+00 -0.00000000000E+00 -0.45593999997E+02  0.45594000000E+02  0.51100000000E-03 0. -1.
    9900012    2    1    2    0    0 -0.39775320116E+01  0.34893198055E+02 -0.20489254231E+02  0.50528861171E+02  0.30000004014E+02 0.  0.
        -12    1    1    2    0    0  0.39775320116E+01 -0.34893198055E+02  0.20489254231E+02  0.40659138829E+02  0.00000000000E+00 0.  1.
         11    1    3    3    0    0  0.87520875425E+01  0.21904296880E+02 -0.14013267878E+02  0.27436634907E+02  0.51100000000E-03 0. -1.
        -11    1    3    3    0    0 -0.39595350916E+01  0.11788325276E+02 -0.56534187980E+00  0.12448379118E+02  0.51100000000E-03 0.  1.
         12    1    3    3    0    0 -0.87700844625E+01  0.12005758987E+01 -0.59106444735E+01  0.10643847146E+02  0.00000000000E+00 0. -1.
</event>
<event>
 7    1  0.9865694E-013  0.5052886E+02  0.7816164E-02  0.1300439E+00
        -11   -1    0    0    0    0  0.00000000000E+00  0.00000000000E+00  0.45593999997E+02  0.45594000000E+02  0.51100000000E-03 0.  1.
         11   -1    0    0    0    0 -0.00000000000E+00 -0.00000000000E+00 -0.45593999997E+02  0.45594000000E+02  0.51100000000E-03 0. -1.
    9900012    2    1    2    0    0 -0.40139262206E+02 -0.63340229979E+01 -0.13729918423E+01  0.50528864195E+02  0.30000013208E+02 0.  0.
        -12    1    1    2    0    0  0.40139262206E+02  0.63340229979E+01  0.13729918423E+01  0.40659135805E+02  0.00000000000E+00 0.  1.
         11    1    3    3    0    0 -0.88451207535E+01 -0.79512001014E+01  0.89672721125E+01  0.14895291659E+02  0.51100000000E-03 0.  1.
        -11    1    3    3    0    0 -0.19528830875E+02 -0.47316496688E+01 -0.95321265038E+01  0.22240170410E+02  0.51100000000E-03 0. -1.
        -12    1    3    3    0    0 -0.11765310578E+02  0.63488267723E+01 -0.80813745095E+00  0.13393402126E+02  0.00000000000E+00 0.  1.
</event>
<event>
 7    1  0.9865694E-013  0.5052887E+02  0.7816164E-02  0.1300439E+00
        -11   -1    0    0    0    0  0.00000000000E+00  0.00000000000E+00  0.45593999997E+02  0.45594000000E+02  0.51100000000E-03 0.  1.
         11   -1    0    0    0    0 -0.00000000000E+00 -0.00000000000E+00 -0.45593999997E+02  0.45594000000E+02  0.51100000000E-03 0. -1.
    9900012    2    1    2    0    0  0.10007401753E+02  0.35557521939E+02 -0.16990578820E+02  0.50528865418E+02  0.30000016924E+02 0.  0.
        -12    1    1    2    0    0 -0.10007401753E+02 -0.35557521939E+02  0.16990578820E+02  0.40659134582E+02  0.00000000000E+00 0.  1.
         11    1    3    3    0    0  0.28646517975E+01  0.85263144694E+01 -0.10118303016E+02  0.13538254117E+02  0.51100000000E-03 0. -1.
        -11    1    3    3    0    0  0.45053473768E+01 -0.20035014623E+01  0.34995299532E+01  0.60463942354E+01  0.51100000000E-03 0.  1.
        -12    1    3    3    0    0  0.26374025784E+01  0.29034708932E+02 -0.10371805758E+02  0.30944217066E+02  0.00000000000E+00 0.  1.
</event>
<event>
 7    1  0.9865694E-013  0.5052887E+02  0.7816164E-02  0.1300439E+00
        -11   -1    0    0    0    0  0.00000000000E+00  0.00000000000E+00  0.45593999997E+02  0.45594000000E+02  0.51100000000E-03 0.  1.
         11   -1    0    0    0    0 -0.00000000000E+00 -0.00000000000E+00 -0.45593999997E+02  0.45594000000E+02  0.51100000000E-03 0. -1.
    9900012    2    1    2    0    0  0.39315593555E+02  0.96107518911E+00 -0.10321116792E+02  0.50528868013E+02  0.30000024813E+02 0.  0.
        -12    1    1    2    0    0 -0.39315593555E+02 -0.96107518911E+00  0.10321116792E+02  0.40659131987E+02  0.00000000000E+00 0.  1.
         11    1    3    3    0    0  0.22287514551E+02  0.38271558516E+01  0.11420273011E+01  0.22642540790E+02  0.51100000000E-03 0. -1.
        -11    1    3    3    0    0  0.62188309793E+01 -0.10470659099E+02 -0.48574759350E+01  0.13111202593E+02  0.51100000000E-03 0.  1.
        -12    1    3    3    0    0  0.10809248024E+02  0.76045784364E+01 -0.66056681582E+01  0.14775124631E+02  0.00000000000E+00 0.  1.
</event>
<event>
 7    1  0.9865694E-013  0.5052885E+02  0.7816164E-02  0.1300439E+00
        -11   -1    0    0    0    0  0.00000000000E+00  0.00000000000E+00  0.45593999997E+02  0.45594000000E+02  0.51100000000E-03 0.  1.
         11   -1    0    0    0    0 -0.00000000000E+00 -0.00000000000E+00 -0.45593999997E+02  0.45594000000E+02  0.51100000000E-03 0. -1.
    9900012    2    1    2    0    0 -0.80521757827E+01  0.28764084119E+02 -0.27585444487E+02  0.50528845832E+02  0.29999957392E+02 0.  0.
        -12    1    1    2    0    0  0.80521757827E+01 -0.28764084119E+02  0.27585444487E+02  0.40659154168E+02  0.00000000000E+00 0.  1.
         11    1    3    3    0    0  0.27046462943E+01 -0.12398172521E+01 -0.27806863917E+01  0.40724041384E+01  0.51100000000E-03 0. -1.
        -11    1    3    3    0    0 -0.16608449225E+02  0.20665350827E+02 -0.10780415451E+02  0.28620179385E+02  0.51100000000E-03 0.  1.
        -12    1    3    3    0    0  0.58516271479E+01  0.93385505447E+01 -0.14024342645E+02  0.17836262309E+02  0.00000000000E+00 0.  1.
</event>
<event>
 7    1  0.9865694E-013  0.5052886E+02  0.7816164E-02  0.1300439E+00
        -11   -1    0    0    0    0  0.00000000000E+00  0.00000000000E+00  0.45593999997E+02  0.45594000000E+02  0.51100000000E-03 0.  1.
         11   -1    0    0    0    0 -0.00000000000E+00 -0.00000000000E+00 -0.45593999997E+02  0.45594000000E+02  0.51100000000E-03 0. -1.
    9900012    2    1    2    0    0 -0.23847575344E+02 -0.58651475934E+01 -0.32404614823E+02  0.50528857511E+02  0.29999992891E+02 0.  0.
        -12    1    1    2    0    0  0.23847575344E+02  0.58651475934E+01  0.32404614823E+02  0.40659142489E+02  0.00000000000E+00 0.  1.
         11    1    3    3    0    0  0.27693943502E+01 -0.56050158455E+01 -0.40734402845E+01  0.74618137010E+01  0.51100000000E-03 0. -1.
        -11    1    3    3    0    0 -0.20350351959E+02 -0.14883945302E+01 -0.82750371491E+01  0.22018818842E+02  0.51100000000E-03 0.  1.
         12    1    3    3    0    0 -0.62666177356E+01  0.12282627823E+01 -0.20056137390E+02  0.21048224968E+02  0.00000000000E+00 0. -1.
</event>
<event>
 7    1  0.9865694E-013  0.5052889E+02  0.7816164E-02  0.1300439E+00
        -11   -1    0    0    0    0  0.00000000000E+00  0.00000000000E+00  0.45593999997E+02  0.45594000000E+02  0.51100000000E-03 0. -1.
         11   -1    0    0    0    0 -0.00000000000E+00 -0.00000000000E+00 -0.45593999997E+02  0.45594000000E+02  0.51100000000E-03 0.  1.
    9900012    2    1    2    0    0 -0.10621503069E+02  0.10396193317E+02  0.37845287718E+02  0.50528893205E+02  0.30000101386E+02 0.  0.
        -12    1    1    2    0    0  0.10621503069E+02 -0.10396193317E+02 -0.37845287718E+02  0.40659106795E+02  0.00000000000E+00 0.  1.
         11    1    3    3    0    0  0.14590788695E+01 -0.35735281109E+01  0.78082049991E+01  0.87101710589E+01  0.51100000000E-03 0. -1.
        -11    1    3    3    0    0 -0.15654664871E+02  0.90894500335E+01  0.30795975963E+02  0.35722244749E+02  0.51100000000E-03 0.  1.
        -12    1    3    3    0    0  0.35740829327E+01  0.48802713946E+01 -0.75889324494E+00  0.60964773970E+01  0.00000000000E+00 0.  1.
</event>
<event>
 7    1  0.9865694E-013  0.5052886E+02  0.7816164E-02  0.1300439E+00
        -11   -1    0    0    0    0  0.00000000000E+00  0.00000000000E+00  0.45593999997E+02  0.45594000000E+02  0.51100000000E-03 0.  1.
         11   -1    0    0    0    0 -0.00000000000E+00 -0.00000000000E+00 -0.45593999997E+02  0.45594000000E+02  0.51100000000E-03 0. -1.
    9900012    2    1    2    0    0  0.17851791220E+02  0.18015121829E+02 -0.31779467324E+02  0.50528860712E+02  0.30000002620E+02 0.  0.
        -12    1    1    2    0    0 -0.17851791220E+02 -0.18015121829E+02  0.31779467324E+02  0.40659139288E+02  0.00000000000E+00 0.  1.
         11    1    3    3    0    0  0.14433683199E+02  0.16546417381E+02 -0.10449657768E+02  0.24316876579E+02  0.51100000000E-03 0.  1.
        -11    1    3    3    0    0 -0.22654101920E+01 -0.50302158144E+01 -0.38843985406E+01  0.67471258148E+01  0.51100000000E-03 0. -1.
        -12    1    3    3    0    0  0.56835182131E+01  0.64989202621E+01 -0.17445411015E+02  0.19464858318E+02  0.00000000000E+00 0.  1.
</event>
<event>
 7    1  0.9865694E-013  0.5052887E+02  0.7816164E-02  0.1300439E+00
        -11   -1    0    0    0    0  0.00000000000E+00  0.00000000000E+00  0.45593999997E+02  0.45594000000E+02  0.51100000000E-03 0.  1.
         11   -1    0    0    0    0 -0.00000000000E+00 -0.00000000000E+00 -0.45593999997E+02  0.45594000000E+02  0.51100000000E-03 0. -1.
    9900012    2    1    2    0    0 -0.15627499159E+02 -0.19848628922E+02 -0.31858724567E+02  0.50528866572E+02  0.30000020433E+02 0.  0.
        -12    1    1    2    0    0  0.15627499159E+02  0.19848628922E+02  0.31858724567E+02  0.40659133428E+02  0.00000000000E+00 0.  1.
         11    1    3    3    0    0  0.76323292542E+01  0.47931409190E+00 -0.61402950374E+01  0.98074163392E+01  0.51100000000E-03 0.  1.
        -11    1    3    3    0    0 -0.76967712488E+01 -0.99068113455E+01 -0.76321635605E+01  0.14684519725E+02  0.51100000000E-03 0. -1.
        -12    1    3    3    0    0 -0.15563057165E+02 -0.10421131668E+02 -0.18086265969E+02  0.26036930508E+02  0.00000000000E+00 0.  1.
</event>
<event>
 7    1  0.9865694E-013  0.5052886E+02  0.7816164E-02  0.1300439E+00
        -11   -1    0    0    0    0  0.00000000000E+00  0.00000000000E+00  0.45593999997E+02  0.45594000000E+02  0.51100000000E-03 0. -1.
         11   -1    0    0    0    0 -0.00000000000E+00 -0.00000000000E+00 -0.45593999997E+02  0.45594000000E+02  0.51100000000E-03 0.  1.
    9900012    2    1    2    0    0 -0.33454978723E+02 -0.28482959996E+01  0.22930705520E+02  0.50528860227E+02  0.30000001146E+02 0.  0.
        -12    1    1    2    0    0  0.33454978723E+02  0.28482959996E+01 -0.22930705520E+02  0.40659139773E+02  0.00000000000E+00 0.  1.
         11    1    3    3    0    0 -0.17754684143E+02 -0.11166505522E+02 -0.36285653256E+00  0.20977400214E+02  0.51100000000E-03 0.  1.
        -11    1    3    3    0    0 -0.10318197209E+02  0.33593457552E+01  0.14506918700E+02  0.18116321039E+02  0.51100000000E-03 0. -1.
        -12    1    3    3    0    0 -0.53820973701E+01  0.49588637672E+01  0.87866433520E+01  0.11435138974E+02  0.00000000000E+00 0.  1.
</event>
<event>
 7    1  0.9865694E-013  0.5052887E+02  0.7816164E-02  0.1300439E+00
        -11   -1    0    0    0    0  0.00000000000E+00  0.00000000000E+00  0.45593999997E+02  0.45594000000E+02  0.51100000000E-03 0.  1.
         11   -1    0    0    0    0 -0.00000000000E+00 -0.00000000000E+00 -0.45593999997E+02  0.45594000000E+02  0.51100000000E-03 0. -1.
    9900012    2    1    2    0    0 -0.23991733483E+02 -0.32318095206E+02  0.57534607196E+01  0.50528869862E+02  0.30000030434E+02 0.  0.
        -12    1    1    2    0    0  0.23991733483E+02  0.32318095206E+02 -0.57534607196E+01  0.40659130138E+02  0.00000000000E+00 0.  1.
         11    1    3    3    0    0 -0.20754331724E+02 -0.29146699958E+02  0.22890529166E+01  0.35854039763E+02  0.51100000000E-03 0. -1.
        -11    1    3    3    0    0  0.22549833905E+01  0.16633464151E+01 -0.35608155968E+01  0.45311234108E+01  0.51100000000E-03 0.  1.
         12    1    3    3    0    0 -0.54923851498E+01 -0.48347416627E+01  0.70252233998E+01  0.10143706689E+02  0.00000000000E+00 0. -1.
</event>
<event>
 7    1  0.9865694E-013  0.5052884E+02  0.7816164E-02  0.1300439E+00
        -11   -1    0    0    0    0  0.00000000000E+00  0.00000000000E+00  0.45593999997E+02  0.45594000000E+02  0.51100000000E-03 0. -1.
         11   -1    0    0    0    0 -0.00000000000E+00 -0.00000000000E+00 -0.45593999997E+02  0.45594000000E+02  0.51100000000E-03 0.  1.
    9900012    2    1    2    0    0 -0.14200217496E+02  0.33004295027E+02  0.19032548037E+02  0.50528836802E+02  0.29999929945E+02 0.  0.
        -12    1    1    2    0    0  0.14200217496E+02 -0.33004295027E+02 -0.19032548037E+02  0.40659163198E+02  0.00000000000E+00 0.  1.
         11    1    3    3    0    0 -0.90369415079E+01  0.12246568525E+02  0.18808954383E+02  0.24195485482E+02  0.51100000000E-03 0. -1.
        -11    1    3    3    0    0 -0.10453921323E+02  0.10959947500E+02  0.94083759766E+00  0.15175312052E+02  0.51100000000E-03 0.  1.
        -12    1    3    3    0    0  0.52906453357E+01  0.97977790024E+01 -0.71724394376E+00  0.11158039269E+02  0.00000000000E+00 0.  1.
</event>
<event>
 7    1  0.9865694E-013  0.5052886E+02  0.7816164E-02  0.1300439E+00
        -11   -1    0    0    0    0  0.00000000000E+00  0.00000000000E+00  0.45593999997E+02  0.45594000000E+02  0.51100000000E-03 0.  1.
         11   -1    0    0    0    0 -0.00000000000E+00 -0.00000000000E+00 -0.45593999997E+02  0.45594000000E+02  0.51100000000E-03 0. -1.
    9900012    2    1    2    0    0  0.37517301827E+02 -0.95314564010E+00 -0.15643191734E+02  0.50528857478E+02  0.29999992790E+02 0.  0.
        -12    1    1    2    0    0 -0.37517301827E+02  0.95314564010E+00  0.15643191734E+02  0.40659142522E+02  0.00000000000E+00 0.  1.
         11    1    3    3    0    0  0.13596576348E+02  0.44724350983E+01 -0.12523485759E+02  0.19018602996E+02  0.51100000000E-03 0. -1.
        -11    1    3    3    0    0  0.87395825884E+01 -0.14188755947E+01  0.82681442809E+01  0.12114277605E+02  0.51100000000E-03 0.  1.
         12    1    3    3    0    0  0.15181142890E+02 -0.40067051437E+01 -0.11387850256E+02  0.19395976877E+02  0.00000000000E+00 0. -1.
</event>
<event>
 7    1  0.9865694E-013  0.5052890E+02  0.7816164E-02  0.1300439E+00
        -11   -1    0    0    0    0  0.00000000000E+00  0.00000000000E+00  0.45593999997E+02  0.45594000000E+02  0.51100000000E-03 0.  1.
         11   -1    0    0    0    0 -0.00000000000E+00 -0.00000000000E+00 -0.45593999997E+02  0.45594000000E+02  0.51100000000E-03 0. -1.
    9900012    2    1    2    0    0 -0.30595470646E+01  0.16942830822E+02 -0.36833981392E+02  0.50528898563E+02  0.30000117671E+02 0.  0.
        -12    1    1    2    0    0  0.30595470646E+01 -0.16942830822E+02  0.36833981392E+02  0.40659101437E+02  0.00000000000E+00 0.  1.
         11    1    3    3    0    0  0.36621019379E+01  0.19272365470E+02 -0.28070156849E+02  0.34245711662E+02  0.51100000000E-03 0. -1.
        -11    1    3    3    0    0  0.68133417284E+00 -0.48330709737E+01 -0.49518028016E+00  0.49059142942E+01  0.51100000000E-03 0.  1.
         12    1    3    3    0    0 -0.74029831753E+01  0.25035363257E+01 -0.82686442628E+01  0.11377272607E+02  0.00000000000E+00 0. -1.
</event>
<event>
 7    1  0.9865694E-013  0.5052886E+02  0.7816164E-02  0.1300439E+00
        -11   -1    0    0    0    0  0.00000000000E+00  0.00000000000E+00  0.45593999997E+02  0.45594000000E+02  0.51100000000E-03 0.  1.
         11   -1    0    0    0    0 -0.00000000000E+00 -0.00000000000E+00 -0.45593999997E+02  0.45594000000E+02  0.51100000000E-03 0. -1.
    9900012    2    1    2    0    0  0.39683618317E+02  0.10645414458E+01  0.87887787624E+01  0.50528862733E+02  0.30000008762E+02 0.  0.
        -12    1    1    2    0    0 -0.39683618317E+02 -0.10645414458E+01 -0.87887787624E+01  0.40659137267E+02  0.00000000000E+00 0.  1.
         11    1    3    3    0    0  0.28281529241E+02 -0.88902915511E+01  0.75546674599E+01  0.30593384592E+02  0.51100000000E-03 0. -1.
        -11    1    3    3    0    0  0.10938714462E+02  0.12883554166E+02  0.65053888631E+00  0.16913445632E+02  0.51100000000E-03 0.  1.
        -12    1    3    3    0    0  0.46337461342E+00 -0.29287211694E+01  0.58357241625E+00  0.30220325090E+01  0.00000000000E+00 0.  1.
</event>
<event>
 7    1  0.9865694E-013  0.5052885E+02  0.7816164E-02  0.1300439E+00
        -11   -1    0    0    0    0  0.00000000000E+00  0.00000000000E+00  0.45593999997E+02  0.45594000000E+02  0.51100000000E-03 0. -1.
         11   -1    0    0    0    0 -0.00000000000E+00 -0.00000000000E+00 -0.45593999997E+02  0.45594000000E+02  0.51100000000E-03 0.  1.
    9900012    2    1    2    0    0 -0.39225214636E+02  0.59467591023E+01 -0.88986066658E+01  0.50528848415E+02  0.29999965241E+02 0.  0.
        -12    1    1    2    0    0  0.39225214636E+02 -0.59467591023E+01  0.88986066658E+01  0.40659151585E+02  0.00000000000E+00 0.  1.
         11    1    3    3    0    0 -0.27216716261E+02 -0.23801126236E+01  0.13859292844E+01  0.27355719336E+02  0.51100000000E-03 0. -1.
        -11    1    3    3    0    0  0.31059287980E+01  0.11871146608E+01 -0.42614714884E+01  0.54051988329E+01  0.51100000000E-03 0.  1.
         12    1    3    3    0    0 -0.15114427173E+02  0.71397570650E+01 -0.60230644618E+01  0.17767930246E+02  0.00000000000E+00 0. -1.
</event>
<event>
 7    1  0.9865694E-013  0.5052883E+02  0.7816164E-02  0.1300439E+00
        -11   -1    0    0    0    0  0.00000000000E+00  0.00000000000E+00  0.45593999997E+02  0.45594000000E+02  0.51100000000E-03 0.  1.
         11   -1    0    0    0    0 -0.00000000000E+00 -0.00000000000E+00 -0.45593999997E+02  0.45594000000E+02  0.51100000000E-03 0. -1.
    9900012    2    1    2    0    0 -0.14096486492E+01 -0.40132233540E+02  0.63706408892E+01  0.50528827067E+02  0.29999900353E+02 0.  0.
        -12    1    1    2    0    0  0.14096486492E+01  0.40132233540E+02 -0.63706408892E+01  0.40659172933E+02  0.00000000000E+00 0.  1.
         11    1    3    3    0    0 -0.54621161917E+01 -0.10267178358E+02  0.49557501751E+01  0.12641563384E+02  0.51100000000E-03 0. -1.
        -11    1    3    3    0    0  0.83534480008E+01 -0.10612508156E+01  0.23723183503E+01  0.87483850745E+01  0.51100000000E-03 0.  1.
        -12    1    3    3    0    0 -0.43009804582E+01 -0.28803804367E+02 -0.95742763625E+00  0.29138878609E+02  0.00000000000E+00 0.  1.
</event>
<event>
 7    1  0.9865694E-013  0.5052887E+02  0.7816164E-02  0.1300439E+00
        -11   -1    0    0    0    0  0.00000000000E+00  0.00000000000E+00  0.45593999997E+02  0.45594000000E+02  0.51100000000E-03 0. -1.
         11   -1    0    0    0    0 -0.00000000000E+00 -0.00000000000E+00 -0.45593999997E+02  0.45594000000E+02  0.51100000000E-03 0.  1.
    9900012    2    1    2    0    0 -0.38310933167E+02 -0.95854191096E+01 -0.96724824658E+01  0.50528870931E+02  0.30000033681E+02 0.  0.
        -12    1    1    2    0    0  0.38310933167E+02  0.95854191096E+01  0.96724824658E+01  0.40659129069E+02  0.00000000000E+00 0.  1.
         11    1    3    3    0    0 -0.21161555762E+01 -0.22259458695E+01 -0.11818191109E+01  0.32908427658E+01  0.51100000000E-03 0. -1.
        -11    1    3    3    0    0  0.29043795414E+01 -0.67183876296E+01 -0.21022338635E+01  0.76152176818E+01  0.51100000000E-03 0.  1.
        -12    1    3    3    0    0 -0.39099157132E+02 -0.64108561046E+00 -0.63884294913E+01  0.39622810483E+02  0.00000000000E+00 0.  1.
</event>
<event>
 7    1  0.9865694E-013  0.5052887E+02  0.7816164E-02  0.1300439E+00
        -11   -1    0    0    0    0  0.00000000000E+00  0.00000000000E+00  0.45593999997E+02  0.45594000000E+02  0.51100000000E-03 0.  1.
         11   -1    0    0    0    0 -0.00000000000E+00 -0.00000000000E+00 -0.45593999997E+02  0.45594000000E+02  0.51100000000E-03 0. -1.
    9900012    2    1    2    0    0 -0.40606507926E+02 -0.45448531756E+00 -0.20172884517E+01  0.50528874388E+02  0.30000044188E+02 0.  0.
        -12    1    1    2    0    0  0.40606507926E+02  0.45448531756E+00  0.20172884517E+01  0.40659125612E+02  0.00000000000E+00 0.  1.
         11    1    3    3    0    0 -0.20641566724E+02  0.14013650343E+02 -0.28041996499E+01  0.25106178695E+02  0.51100000000E-03 0. -1.
        -11    1    3    3    0    0 -0.65120886291E+01 -0.23729536516E+01  0.22135496580E+01  0.72758511321E+01  0.51100000000E-03 0.  1.
         12    1    3    3    0    0 -0.13452852573E+02 -0.12095182009E+02 -0.14266384599E+01  0.18146844560E+02  0.00000000000E+00 0. -1.
</event>
<event>
 7    1  0.9865694E-013  0.5052886E+02  0.7816164E-02  0.1300439E+00
        -11   -1    0    0    0    0  0.00000000000E+00  0.00000000000E+00  0.45593999997E+02  0.45594000000E+02  0.51100000000E-03 0.  1.
         11   -1    0    0    0    0 -0.00000000000E+00 -0.00000000000E+00 -0.45593999997E+02  0.45594000000E+02  0.51100000000E-03 0. -1.
    9900012    2    1    2    0    0 -0.29520584089E+02  0.26476792803E+02 -0.89822054214E+01  0.50528862573E+02  0.30000008276E+02 0.  0.
        -12    1    1    2    0    0  0.29520584089E+02 -0.26476792803E+02  0.89822054214E+01  0.40659137427E+02  0.00000000000E+00 0.  1.
         11    1    3    3    0    0 -0.27748130118E+02  0.27128686455E+02 -0.80336772880E+01  0.39629084330E+02  0.51100000000E-03 0. -1.
        -11    1    3    3    0    0  0.12310593055E-01 -0.46799625662E+01 -0.34676508893E+01  0.58246720185E+01  0.51100000000E-03 0.  1.
         12    1    3    3    0    0 -0.17847645646E+01  0.40280689140E+01  0.25191227559E+01  0.50751062241E+01  0.00000000000E+00 0. -1.
</event>
<event>
 7    1  0.9865694E-013  0.5052893E+02  0.7816164E-02  0.1300439E+00
        -11   -1    0    0    0    0  0.00000000000E+00  0.00000000000E+00  0.45593999997E+02  0.45594000000E+02  0.51100000000E-03 0.  1.
         11   -1    0    0    0    0 -0.00000000000E+00 -0.00000000000E+00 -0.45593999997E+02  0.45594000000E+02  0.51100000000E-03 0. -1.
    9900012    2    1    2    0    0  0.76231859711E+01  0.35951091128E+02 -0.17394416354E+02  0.50528934123E+02  0.30000225760E+02 0.  0.
        -12    1    1    2    0    0 -0.76231859711E+01 -0.35951091128E+02  0.17394416354E+02  0.40659065877E+02  0.00000000000E+00 0.  1.
         11    1    3    3    0    0  0.88767798405E+01  0.18961374988E+00  0.12751059957E+01  0.89698979522E+01  0.51100000000E-03 0.  1.
        -11    1    3    3    0    0  0.39664233832E+00 -0.14717230982E+00 -0.18033923607E+01  0.18523523156E+01  0.51100000000E-03 0. -1.
         12    1    3    3    0    0 -0.16502362077E+01  0.35908649688E+02 -0.16866129989E+02  0.39706683855E+02  0.00000000000E+00 0. -1.
</event>
<event>
 7    1  0.9865694E-013  0.5052886E+02  0.7816164E-02  0.1300439E+00
        -11   -1    0    0    0    0  0.00000000000E+00  0.00000000000E+00  0.45593999997E+02  0.45594000000E+02  0.51100000000E-03 0.  1.
         11   -1    0    0    0    0 -0.00000000000E+00 -0.00000000000E+00 -0.45593999997E+02  0.45594000000E+02  0.51100000000E-03 0. -1.
    9900012    2    1    2    0    0  0.19322893732E+02  0.11973339587E+02 -0.33710983741E+02  0.50528861939E+02  0.30000006350E+02 0.  0.
        -12    1    1    2    0    0 -0.19322893732E+02 -0.11973339587E+02  0.33710983741E+02  0.40659138061E+02  0.00000000000E+00 0.  1.
         11    1    3    3    0    0  0.11318721181E+02 -0.12080306957E+01 -0.93319398280E+00  0.11421192521E+02  0.51100000000E-03 0. -1.
        -11    1    3    3    0    0  0.28096475299E+00 -0.77700718981E+00 -0.15761120225E+02  0.15782762507E+02  0.51100000000E-03 0.  1.
         12    1    3    3    0    0  0.77232077980E+01  0.13958377473E+02 -0.17016669534E+02  0.23324906910E+02  0.00000000000E+00 0. -1.
</event>
<event>
 7    1  0.9865694E-013  0.5052885E+02  0.7816164E-02  0.1300439E+00
        -11   -1    0    0    0    0  0.00000000000E+00  0.00000000000E+00  0.45593999997E+02  0.45594000000E+02  0.51100000000E-03 0. -1.
         11   -1    0    0    0    0 -0.00000000000E+00 -0.00000000000E+00 -0.45593999997E+02  0.45594000000E+02  0.51100000000E-03 0.  1.
    9900012    2    1    2    0    0  0.11327466540E+02 -0.38061001632E+02 -0.87301338489E+01  0.50528848749E+02  0.29999966256E+02 0.  0.
        -12    1    1    2    0    0 -0.11327466540E+02  0.38061001632E+02  0.87301338489E+01  0.40659151251E+02  0.00000000000E+00 0.  1.
         11    1    3    3    0    0  0.97332906258E+01 -0.28071712655E+02 -0.88110794590E+01  0.30990210055E+02  0.51100000000E-03 0. -1.
        -11    1    3    3    0    0  0.30260838888E+01 -0.66982688680E+01  0.79880703299E+01  0.10855102827E+02  0.51100000000E-03 0.  1.
         12    1    3    3    0    0 -0.14319079741E+01 -0.32910201097E+01 -0.79071247198E+01  0.86835358664E+01  0.00000000000E+00 0. -1.
</event>
<event>
 7    1  0.9865694E-013  0.5052885E+02  0.7816164E-02  0.1300439E+00
        -11   -1    0    0    0    0  0.00000000000E+00  0.00000000000E+00  0.45593999997E+02  0.45594000000E+02  0.51100000000E-03 0.  1.
         11   -1    0    0    0    0 -0.00000000000E+00 -0.00000000000E+00 -0.45593999997E+02  0.45594000000E+02  0.51100000000E-03 0. -1.
    9900012    2    1    2    0    0  0.25110731183E+02 -0.22474603045E+01 -0.31899319559E+02  0.50528849901E+02  0.29999969761E+02 0.  0.
        -12    1    1    2    0    0 -0.25110731183E+02  0.22474603045E+01  0.31899319559E+02  0.40659150099E+02  0.00000000000E+00 0.  1.
         11    1    3    3    0    0  0.85222745133E+01  0.46774860662E+01 -0.11167209838E+02  0.14805897967E+02  0.51100000000E-03 0. -1.
        -11    1    3    3    0    0  0.99427435490E+01 -0.14291357425E+02 -0.69600971174E+01  0.18749506619E+02  0.51100000000E-03 0.  1.
        -12    1    3    3    0    0  0.66457131210E+01  0.73664110540E+01 -0.13772012604E+02  0.16973445315E+02  0.00000000000E+00 0.  1.
</event>
<event>
 7    1  0.9865694E-013  0.5052886E+02  0.7816164E-02  0.1300439E+00
        -11   -1    0    0    0    0  0.00000000000E+00  0.00000000000E+00  0.45593999997E+02  0.45594000000E+02  0.51100000000E-03 0. -1.
         11   -1    0    0    0    0 -0.00000000000E+00 -0.00000000000E+00 -0.45593999997E+02  0.45594000000E+02  0.51100000000E-03 0.  1.
    9900012    2    1    2    0    0 -0.23894049159E+02  0.25978752429E+02 -0.20182774853E+02  0.50528861252E+02  0.30000004261E+02 0.  0.
        -12    1    1    2    0    0  0.23894049159E+02 -0.25978752429E+02  0.20182774853E+02  0.40659138748E+02  0.00000000000E+00 0.  1.
         11    1    3    3    0    0 -0.20349210612E+02  0.23102220899E+02 -0.36578492130E+01  0.31002948958E+02  0.51100000000E-03 0. -1.
        -11    1    3    3    0    0 -0.25470039645E+01 -0.32787128667E+01 -0.71051332262E+01  0.82292226656E+01  0.51100000000E-03 0.  1.
         12    1    3    3    0    0 -0.99783458299E+00  0.61552443967E+01 -0.94197924139E+01  0.11296689628E+02  0.00000000000E+00 0. -1.
</event>
<event>
 7    1  0.9865694E-013  0.5052888E+02  0.7816164E-02  0.1300439E+00
        -11   -1    0    0    0    0  0.00000000000E+00  0.00000000000E+00  0.45593999997E+02  0.45594000000E+02  0.51100000000E-03 0.  1.
         11   -1    0    0    0    0 -0.00000000000E+00 -0.00000000000E+00 -0.45593999997E+02  0.45594000000E+02  0.51100000000E-03 0. -1.
    9900012    2    1    2    0    0  0.36578281802E+02 -0.15302570833E+02  0.90013883496E+01  0.50528875982E+02  0.30000049034E+02 0.  0.
        -12    1    1    2    0    0 -0.36578281802E+02  0.15302570833E+02 -0.90013883496E+01  0.40659124018E+02  0.00000000000E+00 0.  1.
         11    1    3    3    0    0  0.10000869214E+01 -0.10403902833E+02 -0.43495228986E+01  0.11320764891E+02  0.51100000000E-03 0. -1.
        -11    1    3    3    0    0  0.94579387700E+01 -0.20376879824E+01  0.76163942968E+01  0.12313173451E+02  0.51100000000E-03 0.  1.
         12    1    3    3    0    0  0.26120256111E+02 -0.28609800175E+01  0.57345169513E+01  0.26894937639E+02  0.00000000000E+00 0. -1.
</event>
<event>
 7    1  0.9865694E-013  0.5052886E+02  0.7816164E-02  0.1300439E+00
        -11   -1    0    0    0    0  0.00000000000E+00  0.00000000000E+00  0.45593999997E+02  0.45594000000E+02  0.51100000000E-03 0.  1.
         11   -1    0    0    0    0 -0.00000000000E+00 -0.00000000000E+00 -0.45593999997E+02  0.45594000000E+02  0.51100000000E-03 0. -1.
    9900012    2    1    2    0    0 -0.26505675418E+02 -0.12185292982E+02 -0.28321962842E+02  0.50528858671E+02  0.29999996416E+02 0.  0.
        -12    1    1    2    0    0  0.26505675418E+02  0.12185292982E+02  0.28321962842E+02  0.40659141329E+02  0.00000000000E+00 0.  1.
         11    1    3    3    0    0 -0.13738621647E+02  0.53541381453E+01 -0.22059023804E+02  0.26533319647E+02  0.51100000000E-03 0. -1.
        -11    1    3    3    0    0 -0.33265039355E+01 -0.81803062924E+01  0.93199038318E+00  0.88798449202E+01  0.51100000000E-03 0.  1.
         12    1    3    3    0    0 -0.94405498355E+01 -0.93591248347E+01 -0.71949294204E+01  0.15115694104E+02  0.00000000000E+00 0. -1.
</event>
<event>
 7    1  0.9865694E-013  0.5052887E+02  0.7816164E-02  0.1300439E+00
        -11   -1    0    0    0    0  0.00000000000E+00  0.00000000000E+00  0.45593999997E+02  0.45594000000E+02  0.51100000000E-03 0. -1.
         11   -1    0    0    0    0 -0.00000000000E+00 -0.00000000000E+00 -0.45593999997E+02  0.45594000000E+02  0.51100000000E-03 0.  1.
    9900012    2    1    2    0    0  0.71828076584E+01  0.12632960939E+02  0.37973414713E+02  0.50528872453E+02  0.30000038308E+02 0.  0.
        -12    1    1    2    0    0 -0.71828076584E+01 -0.12632960939E+02 -0.37973414713E+02  0.40659127547E+02  0.00000000000E+00 0.  1.
         11    1    3    3    0    0  0.13445589111E+02  0.11852464874E+02  0.28556418605E+02  0.33715483593E+02  0.51100000000E-03 0. -1.
        -11    1    3    3    0    0 -0.76925282904E+01  0.39012044098E+01  0.23230388443E+01  0.89325750531E+01  0.51100000000E-03 0.  1.
         12    1    3    3    0    0  0.14297468377E+01 -0.31207083448E+01  0.70939572636E+01  0.78808138064E+01  0.00000000000E+00 0. -1.
</event>
<event>
 7    1  0.9865694E-013  0.5052886E+02  0.7816164E-02  0.1300439E+00
        -11   -1    0    0    0    0  0.00000000000E+00  0.00000000000E+00  0.45593999997E+02  0.45594000000E+02  0.51100000000E-03 0.  1.
         11   -1    0    0    0    0 -0.00000000000E+00 -0.00000000000E+00 -0.45593999997E+02  0.45594000000E+02  0.51100000000E-03 0. -1.
    9900012    2    1    2    0    0 -0.78914864795E+01  0.28799380321E+02 -0.27595027865E+02  0.50528862914E+02  0.30000009313E+02 0.  0.
        -12    1    1    2    0    0  0.78914864795E+01 -0.28799380321E+02  0.27595027865E+02  0.40659137086E+02  0.00000000000E+00 0.  1.
         11    1    3    3    0    0  0.55313396556E+01  0.23122603860E+02 -0.81025081249E+01  0.25117746034E+02  0.51100000000E-03 0. -1.
        -11    1    3    3    0    0 -0.31632824293E+01 -0.17321258807E+01 -0.50977782540E+01  0.62445143272E+01  0.51100000000E-03 0.  1.
         12    1    3    3    0    0 -0.10259543706E+02  0.74089023419E+01 -0.14394741486E+02  0.19166602553E+02  0.00000000000E+00 0. -1.
</event>
<event>
 7    1  0.9865694E-013  0.5052874E+02  0.7816164E-02  0.1300439E+00
        -11   -1    0    0    0    0  0.00000000000E+00  0.00000000000E+00  0.45593999997E+02  0.45594000000E+02  0.51100000000E-03 0. -1.
         11   -1    0    0    0    0 -0.00000000000E+00 -0.00000000000E+00 -0.45593999997E+02  0.45594000000E+02  0.51100000000E-03 0.  1.
    9900012    2    1    2    0    0 -0.32655744850E+02 -0.87278855244E+01  0.22596499565E+02  0.50528739677E+02  0.29999634719E+02 0.  0.
        -12    1    1    2    0    0  0.32655744850E+02  0.87278855244E+01 -0.22596499565E+02  0.40659260323E+02  0.00000000000E+00 0.  1.
         11    1    3    3    0    0 -0.13103991057E+02 -0.18560376744E+01  0.17951482896E+02  0.22302806906E+02  0.51100000000E-03 0. -1.
        -11    1    3    3    0    0 -0.23460973021E+01  0.33098220304E+01 -0.46561814097E+01  0.61756878163E+01  0.51100000000E-03 0.  1.
        -12    1    3    3    0    0 -0.17205656491E+02 -0.10181669880E+02  0.93011980790E+01  0.22050244954E+02  0.00000000000E+00 0.  1.
</event>
<event>
 7    1  0.9865694E-013  0.5052886E+02  0.7816164E-02  0.1300439E+00
        -11   -1    0    0    0    0  0.00000000000E+00  0.00000000000E+00  0.45593999997E+02  0.45594000000E+02  0.51100000000E-03 0.  1.
         11   -1    0    0    0    0 -0.00000000000E+00 -0.00000000000E+00 -0.45593999997E+02  0.45594000000E+02  0.51100000000E-03 0. -1.
    9900012    2    1    2    0    0  0.41034548918E+00  0.57444897312E+01 -0.40249202071E+02  0.50528858186E+02  0.29999994943E+02 0.  0.
        -12    1    1    2    0    0 -0.41034548918E+00 -0.57444897312E+01  0.40249202071E+02  0.40659141814E+02  0.00000000000E+00 0.  1.
         11    1    3    3    0    0 -0.61115947032E+01  0.10517976967E+02 -0.14278641590E+02  0.18757905938E+02  0.51100000000E-03 0. -1.
        -11    1    3    3    0    0  0.10055070725E+02 -0.14037462346E+01 -0.73840165066E+01  0.12553830125E+02  0.51100000000E-03 0.  1.
        -12    1    3    3    0    0 -0.35331305326E+01 -0.33697410009E+01 -0.18586543975E+02  0.19217122123E+02  0.00000000000E+00 0.  1.
</event>
<event>
 7    1  0.9865694E-013  0.5052886E+02  0.7816164E-02  0.1300439E+00
        -11   -1    0    0    0    0  0.00000000000E+00  0.00000000000E+00  0.45593999997E+02  0.45594000000E+02  0.51100000000E-03 0. -1.
         11   -1    0    0    0    0 -0.00000000000E+00 -0.00000000000E+00 -0.45593999997E+02  0.45594000000E+02  0.51100000000E-03 0.  1.
    9900012    2    1    2    0    0  0.35200723645E+02 -0.99016311932E+00  0.20324717237E+02  0.50528862049E+02  0.30000006684E+02 0.  0.
        -12    1    1    2    0    0 -0.35200723645E+02  0.99016311932E+00 -0.20324717237E+02  0.40659137951E+02  0.00000000000E+00 0.  1.
         11    1    3    3    0    0  0.98756746552E+01 -0.14022006079E+02  0.71911893175E+01  0.18597279598E+02  0.51100000000E-03 0. -1.
        -11    1    3    3    0    0  0.78870595397E+01  0.53685469982E+01  0.72921993250E+01  0.12008462696E+02  0.51100000000E-03 0.  1.
         12    1    3    3    0    0  0.17437989450E+02  0.76632959613E+01  0.58413285946E+01  0.19923119756E+02  0.00000000000E+00 0. -1.
</event>
<event>
 7    1  0.9865694E-013  0.5052886E+02  0.7816164E-02  0.1300439E+00
        -11   -1    0    0    0    0  0.00000000000E+00  0.00000000000E+00  0.45593999997E+02  0.45594000000E+02  0.51100000000E-03 0.  1.
         11   -1    0    0    0    0 -0.00000000000E+00 -0.00000000000E+00 -0.45593999997E+02  0.45594000000E+02  0.51100000000E-03 0. -1.
    9900012    2    1    2    0    0  0.37512155407E+02  0.15069465365E+02 -0.43491745047E+01  0.50528857011E+02  0.29999991372E+02 0.  0.
        -12    1    1    2    0    0 -0.37512155407E+02 -0.15069465365E+02  0.43491745047E+01  0.40659142989E+02  0.00000000000E+00 0.  1.
         11    1    3    3    0    0  0.29478017080E+02  0.79117443862E+01  0.13094361219E+01  0.30549366825E+02  0.51100000000E-03 0. -1.
        -11    1    3    3    0    0  0.11364750189E+01  0.67392811928E+01  0.41390246114E+01  0.79900570373E+01  0.51100000000E-03 0.  1.
        -12    1    3    3    0    0  0.68976633084E+01  0.41843978591E+00 -0.97976352380E+01  0.11989433149E+02  0.00000000000E+00 0.  1.
</event>
<event>
 7    1  0.9865694E-013  0.5052886E+02  0.7816164E-02  0.1300439E+00
        -11   -1    0    0    0    0  0.00000000000E+00  0.00000000000E+00  0.45593999997E+02  0.45594000000E+02  0.51100000000E-03 0.  1.
         11   -1    0    0    0    0 -0.00000000000E+00 -0.00000000000E+00 -0.45593999997E+02  0.45594000000E+02  0.51100000000E-03 0. -1.
    9900012    2    1    2    0    0 -0.68470287580E+01 -0.39719638290E+02  0.53510973552E+01  0.50528859433E+02  0.29999998734E+02 0.  0.
        -12    1    1    2    0    0  0.68470287580E+01  0.39719638290E+02 -0.53510973552E+01  0.40659140567E+02  0.00000000000E+00 0.  1.
         11    1    3    3    0    0 -0.13842183017E+02 -0.16375170106E+02  0.17123890212E+01  0.21510102350E+02  0.51100000000E-03 0. -1.
        -11    1    3    3    0    0  0.67829258373E+00 -0.18216018199E+02  0.78615509578E+01  0.19851634279E+02  0.51100000000E-03 0.  1.
         12    1    3    3    0    0  0.63168616756E+01 -0.51284499855E+01 -0.42228426237E+01  0.91671228041E+01  0.00000000000E+00 0. -1.
</event>
<event>
 7    1  0.9865694E-013  0.5052886E+02  0.7816164E-02  0.1300439E+00
        -11   -1    0    0    0    0  0.00000000000E+00  0.00000000000E+00  0.45593999997E+02  0.45594000000E+02  0.51100000000E-03 0.  1.
         11   -1    0    0    0    0 -0.00000000000E+00 -0.00000000000E+00 -0.45593999997E+02  0.45594000000E+02  0.51100000000E-03 0. -1.
    9900012    2    1    2    0    0  0.97545737763E+01  0.34153754422E+02 -0.19787245914E+02  0.50528858942E+02  0.29999997240E+02 0.  0.
        -12    1    1    2    0    0 -0.97545737763E+01 -0.34153754422E+02  0.19787245914E+02  0.40659141058E+02  0.00000000000E+00 0.  1.
         11    1    3    3    0    0  0.13059877330E+02  0.16660143195E+02  0.13470964757E+00  0.21169291772E+02  0.51100000000E-03 0. -1.
        -11    1    3    3    0    0 -0.10965225978E+01 -0.60184127325E+00 -0.67603272169E+01  0.68750708408E+01  0.51100000000E-03 0.  1.
         12    1    3    3    0    0 -0.22087809557E+01  0.18095452500E+02 -0.13161628345E+02  0.22484496330E+02  0.00000000000E+00 0. -1.
</event>
<event>
 7    1  0.9865694E-013  0.5052884E+02  0.7816164E-02  0.1300439E+00
        -11   -1    0    0    0    0  0.00000000000E+00  0.00000000000E+00  0.45593999997E+02  0.45594000000E+02  0.51100000000E-03 0.  1.
         11   -1    0    0    0    0 -0.00000000000E+00 -0.00000000000E+00 -0.45593999997E+02  0.45594000000E+02  0.51100000000E-03 0. -1.
    9900012    2    1    2    0    0 -0.18948581486E+02  0.30328535556E+02 -0.19346802553E+02  0.50528836478E+02  0.29999928957E+02 0.  0.
        -12    1    1    2    0    0  0.18948581486E+02 -0.30328535556E+02  0.19346802553E+02  0.40659163522E+02  0.00000000000E+00 0.  1.
         11    1    3    3    0    0 -0.23164591529E+01  0.72532961986E+01 -0.16950157709E+02  0.18581822714E+02  0.51100000000E-03 0. -1.
        -11    1    3    3    0    0 -0.37879523128E+01 -0.36417816439E+00  0.27924781084E+01  0.47200786758E+01  0.51100000000E-03 0.  1.
         12    1    3    3    0    0 -0.12844170020E+02  0.23439417522E+02 -0.51891229524E+01  0.27226935088E+02  0.00000000000E+00 0. -1.
</event>
<event>
 7    1  0.9865694E-013  0.5052888E+02  0.7816164E-02  0.1300439E+00
        -11   -1    0    0    0    0  0.00000000000E+00  0.00000000000E+00  0.45593999997E+02  0.45594000000E+02  0.51100000000E-03 0. -1.
         11   -1    0    0    0    0 -0.00000000000E+00 -0.00000000000E+00 -0.45593999997E+02  0.45594000000E+02  0.51100000000E-03 0.  1.
    9900012    2    1    2    0    0  0.32868183063E+02 -0.14229500636E+02  0.19244937375E+02  0.50528883423E+02  0.30000071653E+02 0.  0.
        -12    1    1    2    0    0 -0.32868183063E+02  0.14229500636E+02 -0.19244937375E+02  0.40659116577E+02  0.00000000000E+00 0.  1.
         11    1    3    3    0    0  0.25659151670E+02 -0.13723349170E+02  0.26736264553E+02  0.39516455046E+02  0.51100000000E-03 0. -1.
        -11    1    3    3    0    0  0.51577899906E+01  0.89383760036E+00 -0.34509474232E+01  0.62698310680E+01  0.51100000000E-03 0.  1.
         12    1    3    3    0    0  0.20512414028E+01 -0.13999890658E+01 -0.40403797545E+01  0.47425973092E+01  0.00000000000E+00 0. -1.
</event>
<event>
 7    1  0.9865694E-013  0.5052887E+02  0.7816164E-02  0.1300439E+00
        -11   -1    0    0    0    0  0.00000000000E+00  0.00000000000E+00  0.45593999997E+02  0.45594000000E+02  0.51100000000E-03 0. -1.
         11   -1    0    0    0    0 -0.00000000000E+00 -0.00000000000E+00 -0.45593999997E+02  0.45594000000E+02  0.51100000000E-03 0.  1.
    9900012    2    1    2    0    0 -0.26019564087E+02  0.30784663465E+02  0.53339935930E+01  0.50528871781E+02  0.30000036264E+02 0.  0.
        -12    1    1    2    0    0  0.26019564087E+02 -0.30784663465E+02 -0.53339935930E+01  0.40659128219E+02  0.00000000000E+00 0.  1.
         11    1    3    3    0    0 -0.14163268210E+02  0.25928639157E+02  0.26344240380E+01  0.29661973724E+02  0.51100000000E-03 0. -1.
        -11    1    3    3    0    0  0.31157371909E+01 -0.65448589013E-01  0.39798391913E+01  0.50548216595E+01  0.51100000000E-03 0.  1.
         12    1    3    3    0    0 -0.14972033068E+02  0.49214728970E+01 -0.12802696363E+01  0.15812076398E+02  0.00000000000E+00 0. -1.
</event>
<event>
 7    1  0.9865694E-013  0.5052886E+02  0.7816164E-02  0.1300439E+00
        -11   -1    0    0    0    0  0.00000000000E+00  0.00000000000E+00  0.45593999997E+02  0.45594000000E+02  0.51100000000E-03 0.  1.
         11   -1    0    0    0    0 -0.00000000000E+00 -0.00000000000E+00 -0.45593999997E+02  0.45594000000E+02  0.51100000000E-03 0. -1.
    9900012    2    1    2    0    0 -0.31849158096E+02 -0.10440470686E+02  0.23017242474E+02  0.50528858953E+02  0.29999997274E+02 0.  0.
        -12    1    1    2    0    0  0.31849158096E+02  0.10440470686E+02 -0.23017242474E+02  0.40659141047E+02  0.00000000000E+00 0.  1.
         11    1    3    3    0    0 -0.54488254363E+01  0.64044885731E+01  0.12553040080E+02  0.15109135913E+02  0.51100000000E-03 0.  1.
        -11    1    3    3    0    0 -0.98667194753E+01 -0.13110890248E+02  0.81212347005E+01  0.18308523961E+02  0.51100000000E-03 0. -1.
         12    1    3    3    0    0 -0.16533613184E+02 -0.37340690110E+01  0.23429676928E+01  0.17111199079E+02  0.00000000000E+00 0. -1.
</event>
<event>
 7    1  0.9865694E-013  0.5052886E+02  0.7816164E-02  0.1300439E+00
        -11   -1    0    0    0    0  0.00000000000E+00  0.00000000000E+00  0.45593999997E+02  0.45594000000E+02  0.51100000000E-03 0.  1.
         11   -1    0    0    0    0 -0.00000000000E+00 -0.00000000000E+00 -0.45593999997E+02  0.45594000000E+02  0.51100000000E-03 0. -1.
    9900012    2    1    2    0    0 -0.12041143288E+02  0.37748358797E+02 -0.91234708431E+01  0.50528862727E+02  0.30000008745E+02 0.  0.
        -12    1    1    2    0    0  0.12041143288E+02 -0.37748358797E+02  0.91234708431E+01  0.40659137273E+02  0.00000000000E+00 0.  1.
         11    1    3    3    0    0 -0.11536107259E+01  0.18031347968E+02 -0.69344531569E+00  0.18081515255E+02  0.51100000000E-03 0. -1.
        -11    1    3    3    0    0 -0.35444717034E+01  0.41326827389E+01 -0.13444238998E+02  0.14504823638E+02  0.51100000000E-03 0.  1.
        -12    1    3    3    0    0 -0.73430608584E+01  0.15584328090E+02  0.50142134705E+01  0.17942523834E+02  0.00000000000E+00 0.  1.
</event>
<event>
 7    1  0.9865694E-013  0.5052880E+02  0.7816164E-02  0.1300439E+00
        -11   -1    0    0    0    0  0.00000000000E+00  0.00000000000E+00  0.45593999997E+02  0.45594000000E+02  0.51100000000E-03 0.  1.
         11   -1    0    0    0    0 -0.00000000000E+00 -0.00000000000E+00 -0.45593999997E+02  0.45594000000E+02  0.51100000000E-03 0. -1.
    9900012    2    1    2    0    0  0.59196984755E+00  0.96159993053E+01 -0.39501296009E+02  0.50528803533E+02  0.29999828818E+02 0.  0.
        -12    1    1    2    0    0 -0.59196984755E+00 -0.96159993053E+01  0.39501296009E+02  0.40659196467E+02  0.00000000000E+00 0.  1.
         11    1    3    3    0    0 -0.93060587511E+01  0.12598737918E+02 -0.15798823752E+02  0.22247106751E+02  0.51100000000E-03 0. -1.
        -11    1    3    3    0    0  0.78241378403E+01 -0.23892301332E+01 -0.52874804445E+01  0.97407906910E+01  0.51100000000E-03 0.  1.
         12    1    3    3    0    0  0.20738907583E+01 -0.59350847907E+00 -0.18414991813E+02  0.18540906090E+02  0.00000000000E+00 0. -1.
</event>
<event>
 7    1  0.9865694E-013  0.5052887E+02  0.7816164E-02  0.1300439E+00
        -11   -1    0    0    0    0  0.00000000000E+00  0.00000000000E+00  0.45593999997E+02  0.45594000000E+02  0.51100000000E-03 0. -1.
         11   -1    0    0    0    0 -0.00000000000E+00 -0.00000000000E+00 -0.45593999997E+02  0.45594000000E+02  0.51100000000E-03 0.  1.
    9900012    2    1    2    0    0  0.59692561100E+00  0.40160637925E+02  0.63191840618E+01  0.50528865160E+02  0.30000016140E+02 0.  0.
        -12    1    1    2    0    0 -0.59692561100E+00 -0.40160637925E+02 -0.63191840618E+01  0.40659134840E+02  0.00000000000E+00 0.  1.
         11    1    3    3    0    0  0.34784374561E+01  0.14751668139E+02  0.79503593352E+01  0.17114889828E+02  0.51100000000E-03 0. -1.
        -11    1    3    3    0    0 -0.11457965445E+02  0.20502085108E+02 -0.84485820907E+00  0.23501792518E+02  0.51100000000E-03 0.  1.
        -12    1    3    3    0    0  0.85764536000E+01  0.49068846784E+01 -0.78631706434E+00  0.99121828133E+01  0.00000000000E+00 0.  1.
</event>
<event>
 7    1  0.9865694E-013  0.5052887E+02  0.7816164E-02  0.1300439E+00
        -11   -1    0    0    0    0  0.00000000000E+00  0.00000000000E+00  0.45593999997E+02  0.45594000000E+02  0.51100000000E-03 0.  1.
         11   -1    0    0    0    0 -0.00000000000E+00 -0.00000000000E+00 -0.45593999997E+02  0.45594000000E+02  0.51100000000E-03 0. -1.
    9900012    2    1    2    0    0  0.36717560278E+02  0.10181797421E+02 -0.14188613676E+02  0.50528868313E+02  0.30000025723E+02 0.  0.
        -12    1    1    2    0    0 -0.36717560278E+02 -0.10181797421E+02  0.14188613676E+02  0.40659131687E+02  0.00000000000E+00 0.  1.
         11    1    3    3    0    0  0.88766051617E+01  0.38463220728E+01 -0.17901604056E+02  0.20348359657E+02  0.51100000000E-03 0. -1.
        -11    1    3    3    0    0  0.11038053666E+02 -0.43758320760E+00 -0.19114951416E+01  0.11210884074E+02  0.51100000000E-03 0.  1.
         12    1    3    3    0    0  0.16802901451E+02  0.67730585557E+01  0.56244855216E+01  0.18969624581E+02  0.00000000000E+00 0. -1.
</event>
<event>
 7    1  0.9865694E-013  0.5052886E+02  0.7816164E-02  0.1300439E+00
        -11   -1    0    0    0    0  0.00000000000E+00  0.00000000000E+00  0.45593999997E+02  0.45594000000E+02  0.51100000000E-03 0.  1.
         11   -1    0    0    0    0 -0.00000000000E+00 -0.00000000000E+00 -0.45593999997E+02  0.45594000000E+02  0.51100000000E-03 0. -1.
    9900012    2    1    2    0    0  0.18002346851E+02  0.46653913958E+01 -0.36156818136E+02  0.50528857526E+02  0.29999992935E+02 0.  0.
        -12    1    1    2    0    0 -0.18002346851E+02 -0.46653913958E+01  0.36156818136E+02  0.40659142474E+02  0.00000000000E+00 0.  1.
         11    1    3    3    0    0 -0.88655756997E+00  0.10838359335E+02 -0.44804252418E+01  0.11761387164E+02  0.51100000000E-03 0. -1.
        -11    1    3    3    0    0  0.82960245623E+01 -0.66627165825E+01 -0.21883372058E+02  0.24333059584E+02  0.51100000000E-03 0.  1.
         12    1    3    3    0    0  0.10592879859E+02  0.48974864313E+00 -0.97930208361E+01  0.14434410779E+02  0.00000000000E+00 0. -1.
</event>
<event>
 7    1  0.9865694E-013  0.5052884E+02  0.7816164E-02  0.1300439E+00
        -11   -1    0    0    0    0  0.00000000000E+00  0.00000000000E+00  0.45593999997E+02  0.45594000000E+02  0.51100000000E-03 0.  1.
         11   -1    0    0    0    0 -0.00000000000E+00 -0.00000000000E+00 -0.45593999997E+02  0.45594000000E+02  0.51100000000E-03 0. -1.
    9900012    2    1    2    0    0 -0.32303884250E+02 -0.13432128538E+02 -0.20717249850E+02  0.50528837982E+02  0.29999933529E+02 0.  0.
        -12    1    1    2    0    0  0.32303884250E+02  0.13432128538E+02  0.20717249850E+02  0.40659162018E+02  0.00000000000E+00 0.  1.
         11    1    3    3    0    0 -0.69867464504E+01 -0.16027184253E+01 -0.87645468160E+01  0.11322570974E+02  0.51100000000E-03 0. -1.
        -11    1    3    3    0    0 -0.10178161652E+02 -0.45148952595E+01  0.75527591643E+01  0.13454494605E+02  0.51100000000E-03 0.  1.
        -12    1    3    3    0    0 -0.15138976148E+02 -0.73145148532E+01 -0.19505462198E+02  0.25751772403E+02  0.00000000000E+00 0.  1.
</event>
<event>
 7    1  0.9865694E-013  0.5052886E+02  0.7816164E-02  0.1300439E+00
        -11   -1    0    0    0    0  0.00000000000E+00  0.00000000000E+00  0.45593999997E+02  0.45594000000E+02  0.51100000000E-03 0.  1.
         11   -1    0    0    0    0 -0.00000000000E+00 -0.00000000000E+00 -0.45593999997E+02  0.45594000000E+02  0.51100000000E-03 0. -1.
    9900012    2    1    2    0    0 -0.19299012563E+02  0.17453784039E+02 -0.31242262567E+02  0.50528862853E+02  0.30000009129E+02 0.  0.
        -12    1    1    2    0    0  0.19299012563E+02 -0.17453784039E+02  0.31242262567E+02  0.40659137147E+02  0.00000000000E+00 0.  1.
         11    1    3    3    0    0 -0.15352822781E+02 -0.18700806057E+01 -0.23068313966E+02  0.27773251130E+02  0.51100000000E-03 0. -1.
        -11    1    3    3    0    0 -0.47396902256E+00  0.10189106323E+02 -0.80307904549E+01  0.12982146582E+02  0.51100000000E-03 0.  1.
         12    1    3    3    0    0 -0.34722207593E+01  0.91347583223E+01 -0.14315814557E+00  0.97734651410E+01  0.00000000000E+00 0. -1.
</event>
<event>
 7    1  0.9865694E-013  0.5052886E+02  0.7816164E-02  0.1300439E+00
        -11   -1    0    0    0    0  0.00000000000E+00  0.00000000000E+00  0.45593999997E+02  0.45594000000E+02  0.51100000000E-03 0.  1.
         11   -1    0    0    0    0 -0.00000000000E+00 -0.00000000000E+00 -0.45593999997E+02  0.45594000000E+02  0.51100000000E-03 0. -1.
    9900012    2    1    2    0    0  0.19068519098E+02 -0.23122136261E+02 -0.27475880663E+02  0.50528860510E+02  0.30000002006E+02 0.  0.
        -12    1    1    2    0    0 -0.19068519098E+02  0.23122136261E+02  0.27475880663E+02  0.40659139490E+02  0.00000000000E+00 0.  1.
         11    1    3    3    0    0  0.27911246447E+01  0.94925982313E-01 -0.42313205581E+01  0.50698581490E+01  0.51100000000E-03 0. -1.
        -11    1    3    3    0    0  0.28994724391E+01 -0.19048961214E+02 -0.24750064294E+02  0.31366152881E+02  0.51100000000E-03 0.  1.
        -12    1    3    3    0    0  0.13377922014E+02 -0.41681010299E+01  0.15055041891E+01  0.14092849480E+02  0.00000000000E+00 0.  1.
</event>
<event>
 7    1  0.9865694E-013  0.5052888E+02  0.7816164E-02  0.1300439E+00
        -11   -1    0    0    0    0  0.00000000000E+00  0.00000000000E+00  0.45593999997E+02  0.45594000000E+02  0.51100000000E-03 0.  1.
         11   -1    0    0    0    0 -0.00000000000E+00 -0.00000000000E+00 -0.45593999997E+02  0.45594000000E+02  0.51100000000E-03 0. -1.
    9900012    2    1    2    0    0 -0.56568848423E+01  0.28811434479E+02 -0.28125873103E+02  0.50528882441E+02  0.30000068668E+02 0.  0.
        -12    1    1    2    0    0  0.56568848423E+01 -0.28811434479E+02  0.28125873103E+02  0.40659117559E+02  0.00000000000E+00 0.  1.
         11    1    3    3    0    0 -0.12997946546E+02  0.12806944428E+02 -0.65499704861E+01  0.19387278139E+02  0.51100000000E-03 0. -1.
        -11    1    3    3    0    0  0.55988618610E+01  0.17679427622E+02 -0.21906899803E+02  0.28702293888E+02  0.51100000000E-03 0.  1.
         12    1    3    3    0    0  0.17421998427E+01 -0.16749375714E+01  0.33099718607E+00  0.24393104143E+01  0.00000000000E+00 0. -1.
</event>
<event>
 7    1  0.9865694E-013  0.5052887E+02  0.7816164E-02  0.1300439E+00
        -11   -1    0    0    0    0  0.00000000000E+00  0.00000000000E+00  0.45593999997E+02  0.45594000000E+02  0.51100000000E-03 0. -1.
         11   -1    0    0    0    0 -0.00000000000E+00 -0.00000000000E+00 -0.45593999997E+02  0.45594000000E+02  0.51100000000E-03 0.  1.
    9900012    2    1    2    0    0  0.17290795864E+01 -0.39753884287E+02  0.83548663275E+01  0.50528870355E+02  0.30000031932E+02 0.  0.
        -12    1    1    2    0    0 -0.17290795864E+01  0.39753884287E+02 -0.83548663275E+01  0.40659129645E+02  0.00000000000E+00 0.  1.
         11    1    3    3    0    0 -0.39758554996E+00 -0.18696371130E+02 -0.58272043941E+01  0.19587462291E+02  0.51100000000E-03 0. -1.
        -11    1    3    3    0    0 -0.48793039056E+01 -0.10886916228E+02  0.14258188960E+02  0.18591086688E+02  0.51100000000E-03 0.  1.
        -12    1    3    3    0    0  0.70059690419E+01 -0.10170596929E+02 -0.76118238403E-01  0.12350321376E+02  0.00000000000E+00 0.  1.
</event>
<event>
 7    1  0.9865694E-013  0.5052886E+02  0.7816164E-02  0.1300439E+00
        -11   -1    0    0    0    0  0.00000000000E+00  0.00000000000E+00  0.45593999997E+02  0.45594000000E+02  0.51100000000E-03 0. -1.
         11   -1    0    0    0    0 -0.00000000000E+00 -0.00000000000E+00 -0.45593999997E+02  0.45594000000E+02  0.51100000000E-03 0.  1.
    9900012    2    1    2    0    0 -0.30965923726E+02 -0.12883737345E+02  0.22984480932E+02  0.50528862234E+02  0.30000007247E+02 0.  0.
        -12    1    1    2    0    0  0.30965923726E+02  0.12883737345E+02 -0.22984480932E+02  0.40659137766E+02  0.00000000000E+00 0.  1.
         11    1    3    3    0    0 -0.12429890901E+02  0.17936414424E+01 -0.18815264604E+01  0.12698798350E+02  0.51100000000E-03 0. -1.
        -11    1    3    3    0    0 -0.18976407194E+02 -0.11478893795E+02  0.26208870461E+02  0.34333277208E+02  0.51100000000E-03 0.  1.
        -12    1    3    3    0    0  0.44037437017E+00 -0.31984849928E+01 -0.13428630689E+01  0.34967866759E+01  0.00000000000E+00 0.  1.
</event>
<event>
 7    1  0.9865694E-013  0.5052886E+02  0.7816164E-02  0.1300439E+00
        -11   -1    0    0    0    0  0.00000000000E+00  0.00000000000E+00  0.45593999997E+02  0.45594000000E+02  0.51100000000E-03 0.  1.
         11   -1    0    0    0    0 -0.00000000000E+00 -0.00000000000E+00 -0.45593999997E+02  0.45594000000E+02  0.51100000000E-03 0. -1.
    9900012    2    1    2    0    0  0.21683995356E+02  0.19015899013E+02 -0.28659481587E+02  0.50528856444E+02  0.29999989647E+02 0.  0.
        -12    1    1    2    0    0 -0.21683995356E+02 -0.19015899013E+02  0.28659481587E+02  0.40659143556E+02  0.00000000000E+00 0.  1.
         11    1    3    3    0    0  0.59258546761E+00  0.14208484365E+01 -0.10269742612E+02  0.10384487537E+02  0.51100000000E-03 0.  1.
        -11    1    3    3    0    0  0.16096486307E+02  0.23160113677E+02 -0.14718822054E+02  0.31814013577E+02  0.51100000000E-03 0. -1.
        -12    1    3    3    0    0  0.49949235813E+01 -0.55650631004E+01 -0.36709169205E+01  0.83303553305E+01  0.00000000000E+00 0.  1.
</event>
<event>
 7    1  0.9865694E-013  0.5052886E+02  0.7816164E-02  0.1300439E+00
        -11   -1    0    0    0    0  0.00000000000E+00  0.00000000000E+00  0.45593999997E+02  0.45594000000E+02  0.51100000000E-03 0.  1.
         11   -1    0    0    0    0 -0.00000000000E+00 -0.00000000000E+00 -0.45593999997E+02  0.45594000000E+02  0.51100000000E-03 0. -1.
    9900012    2    1    2    0    0  0.21233356164E+02  0.15940527072E+02 -0.30793016916E+02  0.50528859477E+02  0.29999998865E+02 0.  0.
        -12    1    1    2    0    0 -0.21233356164E+02 -0.15940527072E+02  0.30793016916E+02  0.40659140523E+02  0.00000000000E+00 0.  1.
         11    1    3    3    0    0  0.23103257132E+02  0.30952615880E+01 -0.14363974792E+02  0.27380009250E+02  0.51100000000E-03 0. -1.
        -11    1    3    3    0    0 -0.81368965537E+00  0.18319852080E+01 -0.10315186984E+02  0.10508156043E+02  0.51100000000E-03 0.  1.
         12    1    3    3    0    0 -0.10562113132E+01  0.11013280276E+02 -0.61138551400E+01  0.12640694184E+02  0.00000000000E+00 0. -1.
</event>
<event>
 7    1  0.9865694E-013  0.5052887E+02  0.7816164E-02  0.1300439E+00
        -11   -1    0    0    0    0  0.00000000000E+00  0.00000000000E+00  0.45593999997E+02  0.45594000000E+02  0.51100000000E-03 0.  1.
         11   -1    0    0    0    0 -0.00000000000E+00 -0.00000000000E+00 -0.45593999997E+02  0.45594000000E+02  0.51100000000E-03 0. -1.
    9900012    2    1    2    0    0 -0.28630087255E+02  0.26754386498E+02 -0.10848315665E+02  0.50528867620E+02  0.30000023617E+02 0.  0.
        -12    1    1    2    0    0  0.28630087255E+02 -0.26754386498E+02  0.10848315665E+02  0.40659132380E+02  0.00000000000E+00 0.  1.
         11    1    3    3    0    0 -0.24398678173E+02  0.18276328113E+02 -0.12237258287E+02  0.32849203286E+02  0.51100000000E-03 0. -1.
        -11    1    3    3    0    0 -0.79482099307E+01  0.11147188236E+01  0.40800478290E+01  0.90035231830E+01  0.51100000000E-03 0.  1.
         12    1    3    3    0    0  0.37168008478E+01  0.73633395618E+01 -0.26911052063E+01  0.86761411512E+01  0.00000000000E+00 0. -1.
</event>
<event>
 7    1  0.9865694E-013  0.5052899E+02  0.7816164E-02  0.1300438E+00
        -11   -1    0    0    0    0  0.00000000000E+00  0.00000000000E+00  0.45593999997E+02  0.45594000000E+02  0.51100000000E-03 0.  1.
         11   -1    0    0    0    0 -0.00000000000E+00 -0.00000000000E+00 -0.45593999997E+02  0.45594000000E+02  0.51100000000E-03 0. -1.
    9900012    2    1    2    0    0 -0.29791362764E+02  0.15035362657E+02 -0.23228588853E+02  0.50528994040E+02  0.30000407881E+02 0.  0.
        -12    1    1    2    0    0  0.29791362764E+02 -0.15035362657E+02  0.23228588853E+02  0.40659005960E+02  0.00000000000E+00 0.  1.
         11    1    3    3    0    0 -0.17077559928E+02  0.97588489677E+01  0.32885778608E+01  0.19942239866E+02  0.51100000000E-03 0. -1.
        -11    1    3    3    0    0 -0.28034855564E+00  0.18059085529E+01 -0.12532584094E+01  0.22159778690E+01  0.51100000000E-03 0.  1.
         12    1    3    3    0    0 -0.12433454281E+02  0.34706051364E+01 -0.25263908304E+02  0.28370776305E+02  0.00000000000E+00 0. -1.
</event>
<event>
 7    1  0.9865694E-013  0.5052884E+02  0.7816164E-02  0.1300439E+00
        -11   -1    0    0    0    0  0.00000000000E+00  0.00000000000E+00  0.45593999997E+02  0.45594000000E+02  0.51100000000E-03 0. -1.
         11   -1    0    0    0    0 -0.00000000000E+00 -0.00000000000E+00 -0.45593999997E+02  0.45594000000E+02  0.51100000000E-03 0.  1.
    9900012    2    1    2    0    0 -0.39486481722E+02 -0.76467566692E+01  0.59591765832E+01  0.50528844673E+02  0.29999953869E+02 0.  0.
        -12    1    1    2    0    0  0.39486481722E+02  0.76467566692E+01 -0.59591765832E+01  0.40659155327E+02  0.00000000000E+00 0.  1.
         11    1    3    3    0    0 -0.35666943575E+02 -0.13303425698E+02  0.11903378536E+02  0.39884864549E+02  0.51100000000E-03 0. -1.
        -11    1    3    3    0    0  0.11551642354E+01  0.20427539241E+01 -0.30492423583E+01  0.38477431341E+01  0.51100000000E-03 0.  1.
         12    1    3    3    0    0 -0.49747023824E+01  0.36139151044E+01 -0.28949595944E+01  0.67962369903E+01  0.00000000000E+00 0. -1.
</event>
<event>
 7    1  0.9865694E-013  0.5052884E+02  0.7816164E-02  0.1300439E+00
        -11   -1    0    0    0    0  0.00000000000E+00  0.00000000000E+00  0.45593999997E+02  0.45594000000E+02  0.51100000000E-03 0.  1.
         11   -1    0    0    0    0 -0.00000000000E+00 -0.00000000000E+00 -0.45593999997E+02  0.45594000000E+02  0.51100000000E-03 0. -1.
    9900012    2    1    2    0    0  0.19543151074E+02  0.35024600370E+02 -0.66716037995E+01  0.50528835200E+02  0.29999925073E+02 0.  0.
        -12    1    1    2    0    0 -0.19543151074E+02 -0.35024600370E+02  0.66716037995E+01  0.40659164800E+02  0.00000000000E+00 0.  1.
         11    1    3    3    0    0  0.20028690431E+02  0.12608379690E+02 -0.12327096336E+02  0.26684770621E+02  0.51100000000E-03 0. -1.
        -11    1    3    3    0    0 -0.17328818803E+01  0.23041694581E+01  0.15719663030E+01  0.32837714326E+01  0.51100000000E-03 0.  1.
         12    1    3    3    0    0  0.12473425237E+01  0.20112051222E+02  0.40835262337E+01  0.20560293146E+02  0.00000000000E+00 0. -1.
</event>
<event>
 7    1  0.9865694E-013  0.5052901E+02  0.7816164E-02  0.1300438E+00
        -11   -1    0    0    0    0  0.00000000000E+00  0.00000000000E+00  0.45593999997E+02  0.45594000000E+02  0.51100000000E-03 0.  1.
         11   -1    0    0    0    0 -0.00000000000E+00 -0.00000000000E+00 -0.45593999997E+02  0.45594000000E+02  0.51100000000E-03 0. -1.
    9900012    2    1    2    0    0  0.19519318612E+02  0.35231143219E+02 -0.55602686349E+01  0.50529005437E+02  0.30000442522E+02 0.  0.
        -12    1    1    2    0    0 -0.19519318612E+02 -0.35231143219E+02  0.55602686349E+01  0.40658994563E+02  0.00000000000E+00 0.  1.
         11    1    3    3    0    0  0.15052650696E+02  0.11715641453E+02 -0.34329035758E+01  0.19381005517E+02  0.51100000000E-03 0. -1.
        -11    1    3    3    0    0  0.49568117373E+01  0.14518042021E+02  0.82385448425E+01  0.17413131485E+02  0.51100000000E-03 0.  1.
        -12    1    3    3    0    0 -0.49014382167E+00  0.89974597455E+01 -0.10365909902E+02  0.13734868435E+02  0.00000000000E+00 0.  1.
</event>
<event>
 7    1  0.9865694E-013  0.5052886E+02  0.7816164E-02  0.1300439E+00
        -11   -1    0    0    0    0  0.00000000000E+00  0.00000000000E+00  0.45593999997E+02  0.45594000000E+02  0.51100000000E-03 0.  1.
         11   -1    0    0    0    0 -0.00000000000E+00 -0.00000000000E+00 -0.45593999997E+02  0.45594000000E+02  0.51100000000E-03 0. -1.
    9900012    2    1    2    0    0 -0.71194852541E+01 -0.29256882830E+02 -0.27322402900E+02  0.50528856337E+02  0.29999989321E+02 0.  0.
        -12    1    1    2    0    0  0.71194852541E+01  0.29256882830E+02  0.27322402900E+02  0.40659143663E+02  0.00000000000E+00 0.  1.
         11    1    3    3    0    0 -0.15049419437E+02 -0.27506788798E+02 -0.27123261115E+02  0.41458168666E+02  0.51100000000E-03 0. -1.
        -11    1    3    3    0    0  0.64185467608E+01 -0.42569693728E+00 -0.15906362325E+01  0.66263930074E+01  0.51100000000E-03 0.  1.
         12    1    3    3    0    0  0.15113874216E+01 -0.13243970952E+01  0.13914944476E+01  0.24442946634E+01  0.00000000000E+00 0. -1.
</event>
<event>
 7    1  0.9865694E-013  0.5052885E+02  0.7816164E-02  0.1300439E+00
        -11   -1    0    0    0    0  0.00000000000E+00  0.00000000000E+00  0.45593999997E+02  0.45594000000E+02  0.51100000000E-03 0.  1.
         11   -1    0    0    0    0 -0.00000000000E+00 -0.00000000000E+00 -0.45593999997E+02  0.45594000000E+02  0.51100000000E-03 0. -1.
    9900012    2    1    2    0    0  0.11285591464E+02 -0.37170036199E+02 -0.12007912081E+02  0.50528854433E+02  0.29999983534E+02 0.  0.
        -12    1    1    2    0    0 -0.11285591464E+02  0.37170036199E+02  0.12007912081E+02  0.40659145567E+02  0.00000000000E+00 0.  1.
         11    1    3    3    0    0 -0.49458287035E+00 -0.71307656027E+01 -0.12104986459E+01  0.72496715463E+01  0.51100000000E-03 0. -1.
        -11    1    3    3    0    0  0.14444804952E+02 -0.77612025627E+01  0.33743962328E+01  0.16741421849E+02  0.51100000000E-03 0.  1.
        -12    1    3    3    0    0 -0.26646306183E+01 -0.22278068033E+02 -0.14171809668E+02  0.26537761038E+02  0.00000000000E+00 0.  1.
</event>
<event>
 7    1  0.9865694E-013  0.5052886E+02  0.7816164E-02  0.1300439E+00
        -11   -1    0    0    0    0  0.00000000000E+00  0.00000000000E+00  0.45593999997E+02  0.45594000000E+02  0.51100000000E-03 0.  1.
         11   -1    0    0    0    0 -0.00000000000E+00 -0.00000000000E+00 -0.45593999997E+02  0.45594000000E+02  0.51100000000E-03 0. -1.
    9900012    2    1    2    0    0 -0.21891666637E+02  0.23538945377E+02 -0.24896553824E+02  0.50528863144E+02  0.30000010012E+02 0.  0.
        -12    1    1    2    0    0  0.21891666637E+02 -0.23538945377E+02  0.24896553824E+02  0.40659136856E+02  0.00000000000E+00 0.  1.
         11    1    3    3    0    0 -0.25459365194E+02  0.22828521157E+02 -0.17333166987E+02  0.38337440347E+02  0.51100000000E-03 0. -1.
        -11    1    3    3    0    0  0.66329604213E+00 -0.39340643663E+01 -0.40422647225E+01  0.56795007197E+01  0.51100000000E-03 0.  1.
         12    1    3    3    0    0  0.29044025148E+01  0.46444885858E+01 -0.35211221144E+01  0.65119220770E+01  0.00000000000E+00 0. -1.
</event>
<event>
 7    1  0.9865694E-013  0.5052886E+02  0.7816164E-02  0.1300439E+00
        -11   -1    0    0    0    0  0.00000000000E+00  0.00000000000E+00  0.45593999997E+02  0.45594000000E+02  0.51100000000E-03 0.  1.
         11   -1    0    0    0    0 -0.00000000000E+00 -0.00000000000E+00 -0.45593999997E+02  0.45594000000E+02  0.51100000000E-03 0. -1.
    9900012    2    1    2    0    0 -0.25219325374E+02 -0.16617343650E+02 -0.27221597712E+02  0.50528857556E+02  0.29999993026E+02 0.  0.
        -12    1    1    2    0    0  0.25219325374E+02  0.16617343650E+02  0.27221597712E+02  0.40659142444E+02  0.00000000000E+00 0.  1.
         11    1    3    3    0    0 -0.99178411683E+01 -0.94815734998E+01 -0.99308568653E+01  0.16937701373E+02  0.51100000000E-03 0. -1.
        -11    1    3    3    0    0 -0.55605620736E+01  0.17259098881E+01  0.50175872223E+01  0.76860130959E+01  0.51100000000E-03 0.  1.
        -12    1    3    3    0    0 -0.97409221325E+01 -0.88616800383E+01 -0.22308328069E+02  0.25905143086E+02  0.00000000000E+00 0.  1.
</event>
<event>
 7    1  0.9865694E-013  0.5052886E+02  0.7816164E-02  0.1300439E+00
        -11   -1    0    0    0    0  0.00000000000E+00  0.00000000000E+00  0.45593999997E+02  0.45594000000E+02  0.51100000000E-03 0.  1.
         11   -1    0    0    0    0 -0.00000000000E+00 -0.00000000000E+00 -0.45593999997E+02  0.45594000000E+02  0.51100000000E-03 0. -1.
    9900012    2    1    2    0    0 -0.38528616011E+02  0.11566789665E+02  0.59093869141E+01  0.50528859225E+02  0.29999998099E+02 0.  0.
        -12    1    1    2    0    0  0.38528616011E+02 -0.11566789665E+02 -0.59093869141E+01  0.40659140775E+02  0.00000000000E+00 0.  1.
         11    1    3    3    0    0 -0.12020288928E+02  0.12104496613E+02  0.85651518316E+01  0.19088426083E+02  0.51100000000E-03 0.  1.
        -11    1    3    3    0    0 -0.54415988684E+01  0.27444091466E+01 -0.74116368640E+01  0.95955792464E+01  0.51100000000E-03 0. -1.
         12    1    3    3    0    0 -0.21066728215E+02 -0.32821160943E+01  0.47558719465E+01  0.21844853895E+02  0.00000000000E+00 0. -1.
</event>
<event>
 7    1  0.9865694E-013  0.5052886E+02  0.7816164E-02  0.1300439E+00
        -11   -1    0    0    0    0  0.00000000000E+00  0.00000000000E+00  0.45593999997E+02  0.45594000000E+02  0.51100000000E-03 0.  1.
         11   -1    0    0    0    0 -0.00000000000E+00 -0.00000000000E+00 -0.45593999997E+02  0.45594000000E+02  0.51100000000E-03 0. -1.
    9900012    2    1    2    0    0  0.21765182477E+02  0.17885131481E+02 -0.29318326217E+02  0.50528863899E+02  0.30000012306E+02 0.  0.
        -12    1    1    2    0    0 -0.21765182477E+02 -0.17885131481E+02  0.29318326217E+02  0.40659136101E+02  0.00000000000E+00 0.  1.
         11    1    3    3    0    0  0.16747551148E+02 -0.44674264177E+00 -0.11064393062E+02  0.20077371405E+02  0.51100000000E-03 0. -1.
        -11    1    3    3    0    0  0.67612526192E+01  0.20217712236E+02 -0.14072288070E+02  0.25544074006E+02  0.51100000000E-03 0.  1.
        -12    1    3    3    0    0 -0.17436212906E+01 -0.18858381131E+01 -0.41816450851E+01  0.49074184875E+01  0.00000000000E+00 0.  1.
</event>
<event>
 7    1  0.9865694E-013  0.5052886E+02  0.7816164E-02  0.1300439E+00
        -11   -1    0    0    0    0  0.00000000000E+00  0.00000000000E+00  0.45593999997E+02  0.45594000000E+02  0.51100000000E-03 0.  1.
         11   -1    0    0    0    0 -0.00000000000E+00 -0.00000000000E+00 -0.45593999997E+02  0.45594000000E+02  0.51100000000E-03 0. -1.
    9900012    2    1    2    0    0 -0.39049176165E+01 -0.18553848394E+02 -0.35967648151E+02  0.50528863446E+02  0.30000010930E+02 0.  0.
        -12    1    1    2    0    0  0.39049176165E+01  0.18553848394E+02  0.35967648151E+02  0.40659136554E+02  0.00000000000E+00 0.  1.
         11    1    3    3    0    0 -0.11214006675E+02 -0.56421444949E+01 -0.31370014367E+02  0.33788541576E+02  0.51100000000E-03 0. -1.
        -11    1    3    3    0    0  0.58562401217E+01 -0.60556288070E+01 -0.48629230415E+01  0.97269835704E+01  0.51100000000E-03 0.  1.
         12    1    3    3    0    0  0.14528489371E+01 -0.68560750924E+01  0.26528925768E+00  0.70133382990E+01  0.00000000000E+00 0. -1.
</event>
<event>
 7    1  0.9865694E-013  0.5052886E+02  0.7816164E-02  0.1300439E+00
        -11   -1    0    0    0    0  0.00000000000E+00  0.00000000000E+00  0.45593999997E+02  0.45594000000E+02  0.51100000000E-03 0.  1.
         11   -1    0    0    0    0 -0.00000000000E+00 -0.00000000000E+00 -0.45593999997E+02  0.45594000000E+02  0.51100000000E-03 0. -1.
    9900012    2    1    2    0    0  0.22919055178E+02  0.22209479687E+02 -0.25191701165E+02  0.50528857291E+02  0.29999992223E+02 0.  0.
        -12    1    1    2    0    0 -0.22919055178E+02 -0.22209479687E+02  0.25191701165E+02  0.40659142709E+02  0.00000000000E+00 0.  1.
         11    1    3    3    0    0 -0.42283224395E+01  0.95273824519E+01 -0.42659881472E+01  0.11262698707E+02  0.51100000000E-03 0. -1.
        -11    1    3    3    0    0  0.24166866902E+02  0.14692329585E+02 -0.14216730106E+02  0.31654658736E+02  0.51100000000E-03 0.  1.
        -12    1    3    3    0    0  0.29805107154E+01 -0.20102323504E+01 -0.67089829120E+01  0.76114998483E+01  0.00000000000E+00 0.  1.
</event>
<event>
 7    1  0.9865694E-013  0.5052885E+02  0.7816164E-02  0.1300439E+00
        -11   -1    0    0    0    0  0.00000000000E+00  0.00000000000E+00  0.45593999997E+02  0.45594000000E+02  0.51100000000E-03 0.  1.
         11   -1    0    0    0    0 -0.00000000000E+00 -0.00000000000E+00 -0.45593999997E+02  0.45594000000E+02  0.51100000000E-03 0. -1.
    9900012    2    1    2    0    0  0.31463193852E+02  0.16795807112E+02 -0.19522665870E+02  0.50528853593E+02  0.29999980980E+02 0.  0.
        -12    1    1    2    0    0 -0.31463193852E+02 -0.16795807112E+02  0.19522665870E+02  0.40659146407E+02  0.00000000000E+00 0.  1.
         11    1    3    3    0    0  0.73892823730E+01  0.19072918419E+02 -0.12324249724E+02  0.23880218645E+02  0.51100000000E-03 0. -1.
        -11    1    3    3    0    0  0.13905735489E+02  0.14750121667E+01 -0.73739042360E+01  0.15808845762E+02  0.51100000000E-03 0.  1.
         12    1    3    3    0    0  0.10168175990E+02 -0.37521234737E+01  0.17548808974E+00  0.10839789186E+02  0.00000000000E+00 0. -1.
</event>
<event>
 7    1  0.9865694E-013  0.5052883E+02  0.7816164E-02  0.1300439E+00
        -11   -1    0    0    0    0  0.00000000000E+00  0.00000000000E+00  0.45593999997E+02  0.45594000000E+02  0.51100000000E-03 0. -1.
         11   -1    0    0    0    0 -0.00000000000E+00 -0.00000000000E+00 -0.45593999997E+02  0.45594000000E+02  0.51100000000E-03 0.  1.
    9900012    2    1    2    0    0  0.60145997743E+01  0.39857599031E+02  0.53258157928E+01  0.50528832217E+02  0.29999916007E+02 0.  0.
        -12    1    1    2    0    0 -0.60145997743E+01 -0.39857599031E+02 -0.53258157928E+01  0.40659167783E+02  0.00000000000E+00 0.  1.
         11    1    3    3    0    0  0.22593252959E+01  0.24682107369E+02  0.75135586389E+01  0.25899122353E+02  0.51100000000E-03 0. -1.
        -11    1    3    3    0    0  0.44055829186E+01 -0.22264642891E+01 -0.49583999900E+01  0.69965730758E+01  0.51100000000E-03 0.  1.
        -12    1    3    3    0    0 -0.65030844024E+00  0.17401955951E+02  0.27706571439E+01  0.17633136788E+02  0.00000000000E+00 0.  1.
</event>
<event>
 7    1  0.9865694E-013  0.5052886E+02  0.7816164E-02  0.1300439E+00
        -11   -1    0    0    0    0  0.00000000000E+00  0.00000000000E+00  0.45593999997E+02  0.45594000000E+02  0.51100000000E-03 0.  1.
         11   -1    0    0    0    0 -0.00000000000E+00 -0.00000000000E+00 -0.45593999997E+02  0.45594000000E+02  0.51100000000E-03 0. -1.
    9900012    2    1    2    0    0  0.10022197317E+02  0.39190120959E+02 -0.41055454502E+01  0.50528861749E+02  0.30000005774E+02 0.  0.
        -12    1    1    2    0    0 -0.10022197317E+02 -0.39190120959E+02  0.41055454502E+01  0.40659138251E+02  0.00000000000E+00 0.  1.
         11    1    3    3    0    0  0.11702106094E+00  0.19863939344E+02 -0.15223216944E+02  0.25026708026E+02  0.51100000000E-03 0. -1.
        -11    1    3    3    0    0  0.27347177741E+01  0.44902045682E+01  0.65575626921E+01  0.84048942343E+01  0.51100000000E-03 0.  1.
         12    1    3    3    0    0  0.71704584819E+01  0.14835977047E+02  0.45601088022E+01  0.17097259490E+02  0.00000000000E+00 0. -1.
</event>
<event>
 7    1  0.9865694E-013  0.5052886E+02  0.7816164E-02  0.1300439E+00
        -11   -1    0    0    0    0  0.00000000000E+00  0.00000000000E+00  0.45593999997E+02  0.45594000000E+02  0.51100000000E-03 0.  1.
         11   -1    0    0    0    0 -0.00000000000E+00 -0.00000000000E+00 -0.45593999997E+02  0.45594000000E+02  0.51100000000E-03 0. -1.
    9900012    2    1    2    0    0  0.15806951936E+02  0.29823946781E+02 -0.22667997690E+02  0.50528860186E+02  0.30000001023E+02 0.  0.
        -12    1    1    2    0    0 -0.15806951936E+02 -0.29823946781E+02  0.22667997690E+02  0.40659139814E+02  0.00000000000E+00 0.  1.
         11    1    3    3    0    0  0.85490691661E+00  0.94451498644E+01 -0.15419191360E+02  0.18102297761E+02  0.51100000000E-03 0. -1.
        -11    1    3    3    0    0  0.91933103879E+01  0.18897366853E+02  0.23388487863E+01  0.21144683582E+02  0.51100000000E-03 0.  1.
        -12    1    3    3    0    0  0.57587346318E+01  0.14814300630E+01 -0.95876551166E+01  0.11281878843E+02  0.00000000000E+00 0.  1.
</event>
<event>
 7    1  0.1212547E-012  0.5052886E+02  0.7816164E-02  0.1300439E+00
        -11   -1    0    0    0    0  0.00000000000E+00  0.00000000000E+00  0.45593999997E+02  0.45594000000E+02  0.51100000000E-03 0.  1.
         11   -1    0    0    0    0 -0.00000000000E+00 -0.00000000000E+00 -0.45593999997E+02  0.45594000000E+02  0.51100000000E-03 0. -1.
    9900012    2    1    2    0    0 -0.36413547969E+02 -0.72418229221E+01  0.16576346635E+02  0.50528859051E+02  0.29999997571E+02 0.  0.
        -12    1    1    2    0    0  0.36413547969E+02  0.72418229221E+01 -0.16576346635E+02  0.40659140949E+02  0.00000000000E+00 0.  1.
         11    1    3    3    0    0 -0.20644621209E+02  0.12086118665E+01  0.77128815248E+01  0.22071467310E+02  0.51100000000E-03 0. -1.
        -11    1    3    3    0    0 -0.12034672107E+02 -0.13154849552E+02  0.95624529037E-01  0.17829541322E+02  0.51100000000E-03 0.  1.
        -12    1    3    3    0    0 -0.37342546533E+01  0.47044147631E+01  0.87678405814E+01  0.10627850420E+02  0.00000000000E+00 0.  1.
</event>
<event>
 7    1  0.9865694E-013  0.5052886E+02  0.7816164E-02  0.1300439E+00
        -11   -1    0    0    0    0  0.00000000000E+00  0.00000000000E+00  0.45593999997E+02  0.45594000000E+02  0.51100000000E-03 0.  1.
         11   -1    0    0    0    0 -0.00000000000E+00 -0.00000000000E+00 -0.45593999997E+02  0.45594000000E+02  0.51100000000E-03 0. -1.
    9900012    2    1    2    0    0  0.95470786177E+01  0.43094347928E+01 -0.39286735280E+02  0.50528861946E+02  0.30000006370E+02 0.  0.
        -12    1    1    2    0    0 -0.95470786177E+01 -0.43094347928E+01  0.39286735280E+02  0.40659138054E+02  0.00000000000E+00 0.  1.
         11    1    3    3    0    0  0.12560475803E+02 -0.32162206980E+01 -0.26144232734E+02  0.29182709495E+02  0.51100000000E-03 0. -1.
        -11    1    3    3    0    0  0.16708753117E+01  0.31002769668E+01  0.25724246163E+01  0.43612968537E+01  0.51100000000E-03 0.  1.
        -12    1    3    3    0    0 -0.46842724975E+01  0.44253785241E+01 -0.15714927163E+02  0.16984855597E+02  0.00000000000E+00 0.  1.
</event>
<event>
 7    1  0.9865694E-013  0.5052886E+02  0.7816164E-02  0.1300439E+00
        -11   -1    0    0    0    0  0.00000000000E+00  0.00000000000E+00  0.45593999997E+02  0.45594000000E+02  0.51100000000E-03 0. -1.
         11   -1    0    0    0    0 -0.00000000000E+00 -0.00000000000E+00 -0.45593999997E+02  0.45594000000E+02  0.51100000000E-03 0.  1.
    9900012    2    1    2    0    0  0.37135947703E+02 -0.27978413023E+01  0.16317437597E+02  0.50528864526E+02  0.30000014213E+02 0.  0.
        -12    1    1    2    0    0 -0.37135947703E+02  0.27978413023E+01 -0.16317437597E+02  0.40659135474E+02  0.00000000000E+00 0.  1.
         11    1    3    3    0    0  0.23581583831E+02 -0.63155612315E+01  0.99401739160E+01  0.26358764527E+02  0.51100000000E-03 0. -1.
        -11    1    3    3    0    0 -0.30154182064E+01 -0.38206157766E+01 -0.25157156806E+00  0.48737193587E+01  0.51100000000E-03 0.  1.
         12    1    3    3    0    0  0.16569782078E+02  0.73383357058E+01  0.66288352492E+01  0.19296380640E+02  0.00000000000E+00 0. -1.
</event>
<event>
 7    1  0.1148060E-012  0.5052886E+02  0.7816164E-02  0.1300439E+00
        -11   -1    0    0    0    0  0.00000000000E+00  0.00000000000E+00  0.45593999997E+02  0.45594000000E+02  0.51100000000E-03 0.  1.
         11   -1    0    0    0    0 -0.00000000000E+00 -0.00000000000E+00 -0.45593999997E+02  0.45594000000E+02  0.51100000000E-03 0. -1.
    9900012    2    1    2    0    0 -0.34922078530E+02  0.15925330132E+02 -0.13416321392E+02  0.50528863408E+02  0.30000010815E+02 0.  0.
        -12    1    1    2    0    0  0.34922078530E+02 -0.15925330132E+02  0.13416321392E+02  0.40659136592E+02  0.00000000000E+00 0.  1.
         11    1    3    3    0    0 -0.24643029311E+02  0.69374932667E+01 -0.74213623844E+01  0.26654911861E+02  0.51100000000E-03 0. -1.
        -11    1    3    3    0    0 -0.14111855592E+01  0.69354419491E+01 -0.11303745432E+02  0.13336658531E+02  0.51100000000E-03 0.  1.
        -12    1    3    3    0    0 -0.88678636606E+01  0.20523949163E+01  0.53087864249E+01  0.10537293016E+02  0.00000000000E+00 0.  1.
</event>
<event>
 7    1  0.9865694E-013  0.5052885E+02  0.7816164E-02  0.1300439E+00
        -11   -1    0    0    0    0  0.00000000000E+00  0.00000000000E+00  0.45593999997E+02  0.45594000000E+02  0.51100000000E-03 0.  1.
         11   -1    0    0    0    0 -0.00000000000E+00 -0.00000000000E+00 -0.45593999997E+02  0.45594000000E+02  0.51100000000E-03 0. -1.
    9900012    2    1    2    0    0 -0.66246483131E+01 -0.34649575751E+02 -0.20216011901E+02  0.50528853401E+02  0.29999980397E+02 0.  0.
        -12    1    1    2    0    0  0.66246483131E+01  0.34649575751E+02  0.20216011901E+02  0.40659146599E+02  0.00000000000E+00 0.  1.
         11    1    3    3    0    0 -0.19735296020E+01  0.36039611002E+01 -0.10274579206E+01  0.42354485880E+01  0.51100000000E-03 0.  1.
        -11    1    3    3    0    0 -0.97218365255E-01 -0.36183667650E+02 -0.13261103685E+02  0.38537308251E+02  0.51100000000E-03 0. -1.
         12    1    3    3    0    0 -0.45539003458E+01 -0.20698692012E+01 -0.59274502953E+01  0.77560965616E+01  0.00000000000E+00 0. -1.
</event>
<event>
 7    1  0.9865694E-013  0.5052886E+02  0.7816164E-02  0.1300439E+00
        -11   -1    0    0    0    0  0.00000000000E+00  0.00000000000E+00  0.45593999997E+02  0.45594000000E+02  0.51100000000E-03 0. -1.
         11   -1    0    0    0    0 -0.00000000000E+00 -0.00000000000E+00 -0.45593999997E+02  0.45594000000E+02  0.51100000000E-03 0.  1.
    9900012    2    1    2    0    0  0.36257283713E+02 -0.16037091883E+02  0.90214774066E+01  0.50528855974E+02  0.29999988219E+02 0.  0.
        -12    1    1    2    0    0 -0.36257283713E+02  0.16037091883E+02 -0.90214774066E+01  0.40659144026E+02  0.00000000000E+00 0.  1.
         11    1    3    3    0    0 -0.29932330386E+01  0.26673117334E+01 -0.13968017461E+01  0.42455919829E+01  0.51100000000E-03 0. -1.
        -11    1    3    3    0    0  0.11984172551E+02  0.78064950538E-01  0.25971578252E+01  0.12262614521E+02  0.51100000000E-03 0.  1.
         12    1    3    3    0    0  0.27266344201E+02 -0.18782468567E+02  0.78211213276E+01  0.34020649470E+02  0.00000000000E+00 0. -1.
</event>
<event>
 7    1  0.9865694E-013  0.5052881E+02  0.7816164E-02  0.1300439E+00
        -11   -1    0    0    0    0  0.00000000000E+00  0.00000000000E+00  0.45593999997E+02  0.45594000000E+02  0.51100000000E-03 0.  1.
         11   -1    0    0    0    0 -0.00000000000E+00 -0.00000000000E+00 -0.45593999997E+02  0.45594000000E+02  0.51100000000E-03 0. -1.
    9900012    2    1    2    0    0 -0.27174044041E+02  0.13390869800E+02 -0.27118740159E+02  0.50528805083E+02  0.29999833529E+02 0.  0.
        -12    1    1    2    0    0  0.27174044041E+02 -0.13390869800E+02  0.27118740159E+02  0.40659194917E+02  0.00000000000E+00 0.  1.
         11    1    3    3    0    0 -0.77820889402E+01 -0.47933440799E+01 -0.19841185855E+02  0.21845130170E+02  0.51100000000E-03 0. -1.
        -11    1    3    3    0    0 -0.15036010037E+02  0.89560550619E+01 -0.53307450099E+01  0.18295063890E+02  0.51100000000E-03 0.  1.
         12    1    3    3    0    0 -0.43559450636E+01  0.92281588181E+01 -0.19468092941E+01  0.10388611023E+02  0.00000000000E+00 0. -1.
</event>
<event>
 7    1  0.9865694E-013  0.5052886E+02  0.7816164E-02  0.1300439E+00
        -11   -1    0    0    0    0  0.00000000000E+00  0.00000000000E+00  0.45593999997E+02  0.45594000000E+02  0.51100000000E-03 0. -1.
         11   -1    0    0    0    0 -0.00000000000E+00 -0.00000000000E+00 -0.45593999997E+02  0.45594000000E+02  0.51100000000E-03 0.  1.
    9900012    2    1    2    0    0  0.18486804625E+02  0.39899303149E+01  0.35992836005E+02  0.50528859172E+02  0.29999997940E+02 0.  0.
        -12    1    1    2    0    0 -0.18486804625E+02 -0.39899303149E+01 -0.35992836005E+02  0.40659140828E+02  0.00000000000E+00 0.  1.
         11    1    3    3    0    0  0.20267086824E+02 -0.77775816333E+01  0.19401289982E+02  0.29114526230E+02  0.51100000000E-03 0. -1.
        -11    1    3    3    0    0 -0.19870907420E+01  0.13033945027E+01  0.63110536091E+01  0.67436462515E+01  0.51100000000E-03 0.  1.
         12    1    3    3    0    0  0.20680854255E+00  0.10464117445E+02  0.10280492414E+02  0.14670686690E+02  0.00000000000E+00 0. -1.
</event>
<event>
 7    1  0.9865694E-013  0.5052886E+02  0.7816164E-02  0.1300439E+00
        -11   -1    0    0    0    0  0.00000000000E+00  0.00000000000E+00  0.45593999997E+02  0.45594000000E+02  0.51100000000E-03 0.  1.
         11   -1    0    0    0    0 -0.00000000000E+00 -0.00000000000E+00 -0.45593999997E+02  0.45594000000E+02  0.51100000000E-03 0. -1.
    9900012    2    1    2    0    0 -0.34362824602E+02  0.43392468574E+01 -0.21296305555E+02  0.50528863164E+02  0.30000010074E+02 0.  0.
        -12    1    1    2    0    0  0.34362824602E+02 -0.43392468574E+01  0.21296305555E+02  0.40659136836E+02  0.00000000000E+00 0.  1.
         11    1    3    3    0    0 -0.34419652036E+02  0.91546359573E+01 -0.24900504751E+02  0.43457507325E+02  0.51100000000E-03 0. -1.
        -11    1    3    3    0    0  0.16100857222E+01 -0.20965792839E+01  0.27742013695E+01  0.38319987247E+01  0.51100000000E-03 0.  1.
         12    1    3    3    0    0 -0.15532582888E+01 -0.27188098161E+01  0.82999782635E+00  0.32393571151E+01  0.00000000000E+00 0. -1.
</event>
<event>
 7    1  0.9865694E-013  0.5052886E+02  0.7816164E-02  0.1300439E+00
        -11   -1    0    0    0    0  0.00000000000E+00  0.00000000000E+00  0.45593999997E+02  0.45594000000E+02  0.51100000000E-03 0.  1.
         11   -1    0    0    0    0 -0.00000000000E+00 -0.00000000000E+00 -0.45593999997E+02  0.45594000000E+02  0.51100000000E-03 0. -1.
    9900012    2    1    2    0    0 -0.24848339573E+02  0.85392093452E+01 -0.31029137932E+02  0.50528862324E+02  0.30000007520E+02 0.  0.
        -12    1    1    2    0    0  0.24848339573E+02 -0.85392093452E+01  0.31029137932E+02  0.40659137676E+02  0.00000000000E+00 0.  1.
         11    1    3    3    0    0 -0.20524109345E+01  0.12857125279E+02 -0.48544313001E+01  0.13895451219E+02  0.51100000000E-03 0. -1.
        -11    1    3    3    0    0 -0.10787525523E+02 -0.74948306536E+01 -0.14829877587E+02  0.19810816816E+02  0.51100000000E-03 0.  1.
        -12    1    3    3    0    0 -0.12008403116E+02  0.31769147199E+01 -0.11344829045E+02  0.16822594288E+02  0.00000000000E+00 0.  1.
</event>
<event>
 7    1  0.9865694E-013  0.5052886E+02  0.7816164E-02  0.1300439E+00
        -11   -1    0    0    0    0  0.00000000000E+00  0.00000000000E+00  0.45593999997E+02  0.45594000000E+02  0.51100000000E-03 0.  1.
         11   -1    0    0    0    0 -0.00000000000E+00 -0.00000000000E+00 -0.45593999997E+02  0.45594000000E+02  0.51100000000E-03 0. -1.
    9900012    2    1    2    0    0 -0.22681363350E+02 -0.10799330812E+02 -0.31970234453E+02  0.50528859818E+02  0.29999999902E+02 0.  0.
        -12    1    1    2    0    0  0.22681363350E+02  0.10799330812E+02  0.31970234453E+02  0.40659140182E+02  0.00000000000E+00 0.  1.
         11    1    3    3    0    0 -0.11207939458E+02 -0.16153148766E+01  0.21209541334E+01  0.11520659518E+02  0.51100000000E-03 0.  1.
        -11    1    3    3    0    0  0.58880016471E+00 -0.57382176284E+01 -0.15873397728E+02  0.16889007753E+02  0.51100000000E-03 0. -1.
        -12    1    3    3    0    0 -0.12062224057E+02 -0.34457983066E+01 -0.18217790859E+02  0.22119192547E+02  0.00000000000E+00 0.  1.
</event>
<event>
 7    1  0.9865694E-013  0.5052885E+02  0.7816164E-02  0.1300439E+00
        -11   -1    0    0    0    0  0.00000000000E+00  0.00000000000E+00  0.45593999997E+02  0.45594000000E+02  0.51100000000E-03 0. -1.
         11   -1    0    0    0    0 -0.00000000000E+00 -0.00000000000E+00 -0.45593999997E+02  0.45594000000E+02  0.51100000000E-03 0.  1.
    9900012    2    1    2    0    0 -0.38713095829E+02  0.12414038282E+02 -0.59493620549E+00  0.50528854852E+02  0.29999984807E+02 0.  0.
        -12    1    1    2    0    0  0.38713095829E+02 -0.12414038282E+02  0.59493620549E+00  0.40659145148E+02  0.00000000000E+00 0.  1.
         11    1    3    3    0    0 -0.24010869612E+02  0.19198929298E+02  0.75324806572E+01  0.31652156495E+02  0.51100000000E-03 0. -1.
        -11    1    3    3    0    0 -0.46152246201E+01 -0.48484607319E+01 -0.40638715711E+01  0.78308953620E+01  0.51100000000E-03 0.  1.
         12    1    3    3    0    0 -0.10087001597E+02 -0.19364302835E+01 -0.40635452915E+01  0.11045802995E+02  0.00000000000E+00 0. -1.
</event>
<event>
 7    1  0.9865694E-013  0.5052886E+02  0.7816164E-02  0.1300439E+00
        -11   -1    0    0    0    0  0.00000000000E+00  0.00000000000E+00  0.45593999997E+02  0.45594000000E+02  0.51100000000E-03 0.  1.
         11   -1    0    0    0    0 -0.00000000000E+00 -0.00000000000E+00 -0.45593999997E+02  0.45594000000E+02  0.51100000000E-03 0. -1.
    9900012    2    1    2    0    0  0.24210643434E+02 -0.28809479401E+02 -0.15395597919E+02  0.50528858419E+02  0.29999995649E+02 0.  0.
        -12    1    1    2    0    0 -0.24210643434E+02  0.28809479401E+02  0.15395597919E+02  0.40659141581E+02  0.00000000000E+00 0.  1.
         11    1    3    3    0    0  0.12870459039E+02 -0.23234872718E+02 -0.92472327828E+01  0.28125066053E+02  0.51100000000E-03 0. -1.
        -11    1    3    3    0    0  0.56715115023E+01  0.18302437362E+01 -0.10530563589E+02  0.12099942339E+02  0.51100000000E-03 0.  1.
        -12    1    3    3    0    0  0.56686728923E+01 -0.74048504194E+01  0.43821984521E+01  0.10303850026E+02  0.00000000000E+00 0.  1.
</event>
<event>
 7    1  0.9865694E-013  0.5052886E+02  0.7816164E-02  0.1300439E+00
        -11   -1    0    0    0    0  0.00000000000E+00  0.00000000000E+00  0.45593999997E+02  0.45594000000E+02  0.51100000000E-03 0.  1.
         11   -1    0    0    0    0 -0.00000000000E+00 -0.00000000000E+00 -0.45593999997E+02  0.45594000000E+02  0.51100000000E-03 0. -1.
    9900012    2    1    2    0    0 -0.16859699311E+02 -0.32970788090E+02 -0.16788198934E+02  0.50528856483E+02  0.29999989765E+02 0.  0.
        -12    1    1    2    0    0  0.16859699311E+02  0.32970788090E+02  0.16788198934E+02  0.40659143517E+02  0.00000000000E+00 0.  1.
         11    1    3    3    0    0  0.16928426952E+00 -0.13163763643E+02  0.38727667065E+01  0.13722669297E+02  0.51100000000E-03 0. -1.
        -11    1    3    3    0    0 -0.12937509416E+02 -0.19981021907E+02 -0.22084462737E+02  0.32470661850E+02  0.51100000000E-03 0.  1.
        -12    1    3    3    0    0 -0.40914741646E+01  0.17399746042E+00  0.14234970962E+01  0.43355253360E+01  0.00000000000E+00 0.  1.
</event>
<event>
 7    1  0.9865694E-013  0.5052887E+02  0.7816164E-02  0.1300439E+00
        -11   -1    0    0    0    0  0.00000000000E+00  0.00000000000E+00  0.45593999997E+02  0.45594000000E+02  0.51100000000E-03 0.  1.
         11   -1    0    0    0    0 -0.00000000000E+00 -0.00000000000E+00 -0.45593999997E+02  0.45594000000E+02  0.51100000000E-03 0. -1.
    9900012    2    1    2    0    0  0.21638068639E+02 -0.31825874226E+02 -0.13117656835E+02  0.50528865657E+02  0.30000017652E+02 0.  0.
        -12    1    1    2    0    0 -0.21638068639E+02  0.31825874226E+02  0.13117656835E+02  0.40659134343E+02  0.00000000000E+00 0.  1.
         11    1    3    3    0    0  0.23576441969E+02 -0.22680029578E+02 -0.64889247628E+01  0.33351739122E+02  0.51100000000E-03 0. -1.
        -11    1    3    3    0    0 -0.65854620352E+01 -0.49518082938E+01 -0.71315495070E+01  0.10897142480E+02  0.51100000000E-03 0.  1.
        -12    1    3    3    0    0  0.46470887049E+01 -0.41940363538E+01  0.50281743528E+00  0.62799840558E+01  0.00000000000E+00 0.  1.
</event>
<event>
 7    1  0.9865694E-013  0.5052884E+02  0.7816164E-02  0.1300439E+00
        -11   -1    0    0    0    0  0.00000000000E+00  0.00000000000E+00  0.45593999997E+02  0.45594000000E+02  0.51100000000E-03 0.  1.
         11   -1    0    0    0    0 -0.00000000000E+00 -0.00000000000E+00 -0.45593999997E+02  0.45594000000E+02  0.51100000000E-03 0. -1.
    9900012    2    1    2    0    0 -0.22197269747E+02  0.33540278096E+02 -0.59580114641E+01  0.50528844333E+02  0.29999952833E+02 0.  0.
        -12    1    1    2    0    0  0.22197269747E+02 -0.33540278096E+02  0.59580114641E+01  0.40659155667E+02  0.00000000000E+00 0.  1.
         11    1    3    3    0    0 -0.29492077498E+01  0.21805261952E+02  0.46332748574E+01  0.22486318314E+02  0.51100000000E-03 0. -1.
        -11    1    3    3    0    0 -0.17234675246E+02  0.13676917983E+02 -0.62402978986E+01  0.22869924234E+02  0.51100000000E-03 0.  1.
         12    1    3    3    0    0 -0.20133867509E+01 -0.19419018393E+01 -0.43509884228E+01  0.51726017842E+01  0.00000000000E+00 0. -1.
</event>
<event>
 7    1  0.9865694E-013  0.5052886E+02  0.7816164E-02  0.1300439E+00
        -11   -1    0    0    0    0  0.00000000000E+00  0.00000000000E+00  0.45593999997E+02  0.45594000000E+02  0.51100000000E-03 0.  1.
         11   -1    0    0    0    0 -0.00000000000E+00 -0.00000000000E+00 -0.45593999997E+02  0.45594000000E+02  0.51100000000E-03 0. -1.
    9900012    2    1    2    0    0  0.28732949734E+02  0.18527745380E+02 -0.22006955579E+02  0.50528857816E+02  0.29999993817E+02 0.  0.
        -12    1    1    2    0    0 -0.28732949734E+02 -0.18527745380E+02  0.22006955579E+02  0.40659142184E+02  0.00000000000E+00 0.  1.
         11    1    3    3    0    0  0.23948503317E+02  0.16756800429E+02 -0.27691981836E+02  0.40263718532E+02  0.51100000000E-03 0. -1.
        -11    1    3    3    0    0  0.15133491955E+01 -0.25690581182E+01  0.11823297510E+01  0.32075207409E+01  0.51100000000E-03 0.  1.
         12    1    3    3    0    0  0.32710972212E+01  0.43400030698E+01  0.45026965060E+01  0.70576185433E+01  0.00000000000E+00 0. -1.
</event>
<event>
 7    1  0.9865694E-013  0.5052886E+02  0.7816164E-02  0.1300439E+00
        -11   -1    0    0    0    0  0.00000000000E+00  0.00000000000E+00  0.45593999997E+02  0.45594000000E+02  0.51100000000E-03 0.  1.
         11   -1    0    0    0    0 -0.00000000000E+00 -0.00000000000E+00 -0.45593999997E+02  0.45594000000E+02  0.51100000000E-03 0. -1.
    9900012    2    1    2    0    0 -0.19058220346E+02  0.69791170522E+00 -0.35909086855E+02  0.50528863730E+02  0.30000011793E+02 0.  0.
        -12    1    1    2    0    0  0.19058220346E+02 -0.69791170522E+00  0.35909086855E+02  0.40659136270E+02  0.00000000000E+00 0.  1.
         11    1    3    3    0    0  0.61551157241E+01  0.26598954236E+00 -0.10164870305E+02  0.11886159539E+02  0.51100000000E-03 0. -1.
        -11    1    3    3    0    0 -0.14699879565E+02  0.53892084685E+01 -0.84108604898E+01  0.17772805113E+02  0.51100000000E-03 0.  1.
        -12    1    3    3    0    0 -0.10513456506E+02 -0.49572863057E+01 -0.17333356060E+02  0.20869899078E+02  0.00000000000E+00 0.  1.
</event>
<event>
 7    1  0.9865694E-013  0.5052886E+02  0.7816164E-02  0.1300439E+00
        -11   -1    0    0    0    0  0.00000000000E+00  0.00000000000E+00  0.45593999997E+02  0.45594000000E+02  0.51100000000E-03 0. -1.
         11   -1    0    0    0    0 -0.00000000000E+00 -0.00000000000E+00 -0.45593999997E+02  0.45594000000E+02  0.51100000000E-03 0.  1.
    9900012    2    1    2    0    0 -0.30198670652E+02 -0.53154798767E+01  0.26701156244E+02  0.50528858589E+02  0.29999996168E+02 0.  0.
        -12    1    1    2    0    0  0.30198670652E+02  0.53154798767E+01 -0.26701156244E+02  0.40659141411E+02  0.00000000000E+00 0.  1.
         11    1    3    3    0    0 -0.12316357737E+01  0.40373517496E+01  0.22804004124E+01  0.47976413091E+01  0.51100000000E-03 0. -1.
        -11    1    3    3    0    0 -0.27835522699E+02 -0.71610985976E+01  0.90052599667E+01  0.30119634201E+02  0.51100000000E-03 0.  1.
        -12    1    3    3    0    0 -0.11315121798E+01 -0.21917330286E+01  0.15415495865E+02  0.15611583080E+02  0.00000000000E+00 0.  1.
</event>
<event>
 7    1  0.9865694E-013  0.5052883E+02  0.7816164E-02  0.1300439E+00
        -11   -1    0    0    0    0  0.00000000000E+00  0.00000000000E+00  0.45593999997E+02  0.45594000000E+02  0.51100000000E-03 0.  1.
         11   -1    0    0    0    0 -0.00000000000E+00 -0.00000000000E+00 -0.45593999997E+02  0.45594000000E+02  0.51100000000E-03 0. -1.
    9900012    2    1    2    0    0 -0.51060185130E+01  0.37975701024E+02  0.13599353444E+02  0.50528834891E+02  0.29999924133E+02 0.  0.
        -12    1    1    2    0    0  0.51060185130E+01 -0.37975701024E+02 -0.13599353444E+02  0.40659165109E+02  0.00000000000E+00 0.  1.
         11    1    3    3    0    0 -0.37376393107E+01  0.28867667591E+02  0.16640038980E+02  0.33529137736E+02  0.51100000000E-03 0. -1.
        -11    1    3    3    0    0  0.49945929776E+01  0.10798978466E+01 -0.43002028769E+01  0.66786138842E+01  0.51100000000E-03 0.  1.
         12    1    3    3    0    0 -0.63629721799E+01  0.80281355860E+01  0.12595173411E+01  0.10321083271E+02  0.00000000000E+00 0. -1.
</event>
<event>
 7    1  0.9865694E-013  0.5052886E+02  0.7816164E-02  0.1300439E+00
        -11   -1    0    0    0    0  0.00000000000E+00  0.00000000000E+00  0.45593999997E+02  0.45594000000E+02  0.51100000000E-03 0. -1.
         11   -1    0    0    0    0 -0.00000000000E+00 -0.00000000000E+00 -0.45593999997E+02  0.45594000000E+02  0.51100000000E-03 0.  1.
    9900012    2    1    2    0    0  0.24511890143E+02 -0.12860922282E+02  0.29781366345E+02  0.50528857588E+02  0.29999993124E+02 0.  0.
        -12    1    1    2    0    0 -0.24511890143E+02  0.12860922282E+02 -0.29781366345E+02  0.40659142412E+02  0.00000000000E+00 0.  1.
         11    1    3    3    0    0  0.68774446676E+01 -0.33270001455E+01  0.85343005330E+01  0.11454364276E+02  0.51100000000E-03 0. -1.
        -11    1    3    3    0    0  0.13336551424E+02 -0.16191782613E+02  0.58818436601E+01  0.21786085311E+02  0.51100000000E-03 0.  1.
        -12    1    3    3    0    0  0.42978940509E+01  0.66578604770E+01  0.15365222152E+02  0.17288408001E+02  0.00000000000E+00 0.  1.
</event>
<event>
 7    1  0.9865694E-013  0.5052886E+02  0.7816164E-02  0.1300439E+00
        -11   -1    0    0    0    0  0.00000000000E+00  0.00000000000E+00  0.45593999997E+02  0.45594000000E+02  0.51100000000E-03 0. -1.
         11   -1    0    0    0    0 -0.00000000000E+00 -0.00000000000E+00 -0.45593999997E+02  0.45594000000E+02  0.51100000000E-03 0.  1.
    9900012    2    1    2    0    0  0.37929459234E+02 -0.94257338368E+01  0.11210586577E+02  0.50528860959E+02  0.30000003372E+02 0.  0.
        -12    1    1    2    0    0 -0.37929459234E+02  0.94257338368E+01 -0.11210586577E+02  0.40659139041E+02  0.00000000000E+00 0.  1.
         11    1    3    3    0    0  0.32917410731E+02 -0.86963390814E+00  0.16709554483E+02  0.36925890696E+02  0.51100000000E-03 0. -1.
        -11    1    3    3    0    0  0.11335135398E+01 -0.74539472617E+01 -0.10727878680E+01  0.76155798726E+01  0.51100000000E-03 0.  1.
         12    1    3    3    0    0  0.38785349627E+01 -0.11021526670E+01 -0.44261800386E+01  0.59873903909E+01  0.00000000000E+00 0. -1.
</event>
<event>
 7    1  0.9865694E-013  0.5052886E+02  0.7816164E-02  0.1300439E+00
        -11   -1    0    0    0    0  0.00000000000E+00  0.00000000000E+00  0.45593999997E+02  0.45594000000E+02  0.51100000000E-03 0.  1.
         11   -1    0    0    0    0 -0.00000000000E+00 -0.00000000000E+00 -0.45593999997E+02  0.45594000000E+02  0.51100000000E-03 0. -1.
    9900012    2    1    2    0    0  0.19334044327E+01  0.25358674700E+02 -0.31723264322E+02  0.50528856693E+02  0.29999990404E+02 0.  0.
        -12    1    1    2    0    0 -0.19334044327E+01 -0.25358674700E+02  0.31723264322E+02  0.40659143307E+02  0.00000000000E+00 0.  1.
         11    1    3    3    0    0 -0.31945657123E+01  0.17943780670E+02 -0.75717410987E+01  0.19736154092E+02  0.51100000000E-03 0. -1.
        -11    1    3    3    0    0  0.13339616119E+01 -0.46442837719E+01 -0.13235856765E+02  0.14090306239E+02  0.51100000000E-03 0.  1.
        -12    1    3    3    0    0  0.37940085331E+01  0.12059177802E+02 -0.10915666458E+02  0.16702396362E+02  0.00000000000E+00 0.  1.
</event>
<event>
 7    1  0.9865694E-013  0.5052886E+02  0.7816164E-02  0.1300439E+00
        -11   -1    0    0    0    0  0.00000000000E+00  0.00000000000E+00  0.45593999997E+02  0.45594000000E+02  0.51100000000E-03 0.  1.
         11   -1    0    0    0    0 -0.00000000000E+00 -0.00000000000E+00 -0.45593999997E+02  0.45594000000E+02  0.51100000000E-03 0. -1.
    9900012    2    1    2    0    0 -0.39930477238E+02 -0.65657968076E+01  0.39513685283E+01  0.50528855722E+02  0.29999987451E+02 0.  0.
        -12    1    1    2    0    0  0.39930477238E+02  0.65657968076E+01 -0.39513685283E+01  0.40659144278E+02  0.00000000000E+00 0.  1.
         11    1    3    3    0    0 -0.16675284421E+02  0.70451948980E+01 -0.83667260407E+01  0.19942466913E+02  0.51100000000E-03 0. -1.
        -11    1    3    3    0    0 -0.22826395372E+02 -0.11025339822E+02  0.11537237044E+02  0.27851575947E+02  0.51100000000E-03 0.  1.
         12    1    3    3    0    0 -0.42879744547E+00 -0.25856518840E+01  0.78085752546E+00  0.27348128619E+01  0.00000000000E+00 0. -1.
</event>
<event>
 7    1  0.9865694E-013  0.5052884E+02  0.7816164E-02  0.1300439E+00
        -11   -1    0    0    0    0  0.00000000000E+00  0.00000000000E+00  0.45593999997E+02  0.45594000000E+02  0.51100000000E-03 0. -1.
         11   -1    0    0    0    0 -0.00000000000E+00 -0.00000000000E+00 -0.45593999997E+02  0.45594000000E+02  0.51100000000E-03 0.  1.
    9900012    2    1    2    0    0  0.90232706843E-01  0.11160045485E+02  0.39097471466E+02  0.50528843194E+02  0.29999949372E+02 0.  0.
        -12    1    1    2    0    0 -0.90232706843E-01 -0.11160045485E+02 -0.39097471466E+02  0.40659156806E+02  0.00000000000E+00 0.  1.
         11    1    3    3    0    0 -0.11181267809E+02  0.71164120335E+00  0.67038452009E+01  0.13056367173E+02  0.51100000000E-03 0. -1.
        -11    1    3    3    0    0  0.75793777513E+01  0.86065661483E+01  0.31102045104E+02  0.33149014432E+02  0.51100000000E-03 0.  1.
         12    1    3    3    0    0  0.36921227640E+01  0.18418381333E+01  0.12915811613E+01  0.43234615888E+01  0.00000000000E+00 0. -1.
</event>
<event>
 7    1  0.9865694E-013  0.5052888E+02  0.7816164E-02  0.1300439E+00
        -11   -1    0    0    0    0  0.00000000000E+00  0.00000000000E+00  0.45593999997E+02  0.45594000000E+02  0.51100000000E-03 0. -1.
         11   -1    0    0    0    0 -0.00000000000E+00 -0.00000000000E+00 -0.45593999997E+02  0.45594000000E+02  0.51100000000E-03 0.  1.
    9900012    2    1    2    0    0 -0.14476249875E+02  0.25561487977E+02  0.28110723078E+02  0.50528877653E+02  0.30000054115E+02 0.  0.
        -12    1    1    2    0    0  0.14476249875E+02 -0.25561487977E+02 -0.28110723078E+02  0.40659122347E+02  0.00000000000E+00 0.  1.
         11    1    3    3    0    0 -0.20806788653E+02  0.16461876841E+02  0.19774379164E+02  0.33089906539E+02  0.51100000000E-03 0. -1.
        -11    1    3    3    0    0  0.71812994808E+01  0.34522871472E+01  0.85973845722E+01  0.11721961036E+02  0.51100000000E-03 0.  1.
         12    1    3    3    0    0 -0.85076070315E+00  0.56473239887E+01 -0.26104065861E+00  0.57170100781E+01  0.00000000000E+00 0. -1.
</event>
<event>
 7    1  0.9865694E-013  0.5052883E+02  0.7816164E-02  0.1300439E+00
        -11   -1    0    0    0    0  0.00000000000E+00  0.00000000000E+00  0.45593999997E+02  0.45594000000E+02  0.51100000000E-03 0. -1.
         11   -1    0    0    0    0 -0.00000000000E+00 -0.00000000000E+00 -0.45593999997E+02  0.45594000000E+02  0.51100000000E-03 0.  1.
    9900012    2    1    2    0    0  0.31585600196E+02  0.25550194687E+02 -0.16448667560E+01  0.50528829141E+02  0.29999906657E+02 0.  0.
        -12    1    1    2    0    0 -0.31585600196E+02 -0.25550194687E+02  0.16448667560E+01  0.40659170859E+02  0.00000000000E+00 0.  1.
         11    1    3    3    0    0  0.11538400878E+02  0.44022475208E+01 -0.12806426455E+02  0.17790981897E+02  0.51100000000E-03 0. -1.
        -11    1    3    3    0    0  0.45658821534E+01  0.11337345364E+01 -0.76266312293E+00  0.47659510214E+01  0.51100000000E-03 0.  1.
         12    1    3    3    0    0  0.15481317164E+02  0.20014212630E+02  0.11924222822E+02  0.27971896222E+02  0.00000000000E+00 0. -1.
</event>
<event>
 7    1  0.9865694E-013  0.5052886E+02  0.7816164E-02  0.1300439E+00
        -11   -1    0    0    0    0  0.00000000000E+00  0.00000000000E+00  0.45593999997E+02  0.45594000000E+02  0.51100000000E-03 0.  1.
         11   -1    0    0    0    0 -0.00000000000E+00 -0.00000000000E+00 -0.45593999997E+02  0.45594000000E+02  0.51100000000E-03 0. -1.
    9900012    2    1    2    0    0 -0.29366762595E+02 -0.39676469387E+01 -0.27839127113E+02  0.50528856306E+02  0.29999989227E+02 0.  0.
        -12    1    1    2    0    0  0.29366762595E+02  0.39676469387E+01  0.27839127113E+02  0.40659143694E+02  0.00000000000E+00 0.  1.
         11    1    3    3    0    0  0.40352873416E+01  0.28524401322E+01 -0.64141286118E+01  0.80969750368E+01  0.51100000000E-03 0. -1.
        -11    1    3    3    0    0 -0.23654674143E+02 -0.10916685742E+02 -0.15186763701E+02  0.30155520695E+02  0.51100000000E-03 0.  1.
         12    1    3    3    0    0 -0.97473757935E+01  0.40965986710E+01 -0.62382347999E+01  0.12276360574E+02  0.00000000000E+00 0. -1.
</event>
<event>
 7    1  0.9865694E-013  0.5052886E+02  0.7816164E-02  0.1300439E+00
        -11   -1    0    0    0    0  0.00000000000E+00  0.00000000000E+00  0.45593999997E+02  0.45594000000E+02  0.51100000000E-03 0.  1.
         11   -1    0    0    0    0 -0.00000000000E+00 -0.00000000000E+00 -0.45593999997E+02  0.45594000000E+02  0.51100000000E-03 0. -1.
    9900012    2    1    2    0    0 -0.39591930115E+02  0.59059012480E+01  0.71249404900E+01  0.50528863551E+02  0.30000011249E+02 0.  0.
        -12    1    1    2    0    0  0.39591930115E+02 -0.59059012480E+01 -0.71249404900E+01  0.40659136449E+02  0.00000000000E+00 0.  1.
         11    1    3    3    0    0 -0.39435752074E+02  0.38001762129E+01 -0.34959725032E+00  0.39619970967E+02  0.51100000000E-03 0. -1.
        -11    1    3    3    0    0  0.19257138760E+01  0.24084163846E+01  0.81382725571E+01  0.87028916969E+01  0.51100000000E-03 0.  1.
        -12    1    3    3    0    0 -0.20818919168E+01 -0.30269134951E+00 -0.66373481674E+00  0.22060008870E+01  0.00000000000E+00 0.  1.
</event>
<event>
 7    1  0.9865694E-013  0.5052887E+02  0.7816164E-02  0.1300439E+00
        -11   -1    0    0    0    0  0.00000000000E+00  0.00000000000E+00  0.45593999997E+02  0.45594000000E+02  0.51100000000E-03 0.  1.
         11   -1    0    0    0    0 -0.00000000000E+00 -0.00000000000E+00 -0.45593999997E+02  0.45594000000E+02  0.51100000000E-03 0. -1.
    9900012    2    1    2    0    0  0.22825065836E+02 -0.42980322348E+01 -0.33372267250E+02  0.50528869009E+02  0.30000027841E+02 0.  0.
        -12    1    1    2    0    0 -0.22825065836E+02  0.42980322348E+01  0.33372267250E+02  0.40659130991E+02  0.00000000000E+00 0.  1.
         11    1    3    3    0    0  0.20853827472E+02 -0.11601176898E+01 -0.22954096027E+02  0.31034150833E+02  0.51100000000E-03 0. -1.
        -11    1    3    3    0    0 -0.42592665372E+01 -0.52536392671E+01 -0.10974673127E+02  0.12891296579E+02  0.51100000000E-03 0.  1.
         12    1    3    3    0    0  0.62305049014E+01  0.21157247221E+01  0.55650190314E+00  0.66034215975E+01  0.00000000000E+00 0. -1.
</event>
<event>
 7    1  0.9865694E-013  0.5052886E+02  0.7816164E-02  0.1300439E+00
        -11   -1    0    0    0    0  0.00000000000E+00  0.00000000000E+00  0.45593999997E+02  0.45594000000E+02  0.51100000000E-03 0.  1.
         11   -1    0    0    0    0 -0.00000000000E+00 -0.00000000000E+00 -0.45593999997E+02  0.45594000000E+02  0.51100000000E-03 0. -1.
    9900012    2    1    2    0    0 -0.19360077224E+01 -0.40082730363E+02 -0.65416047989E+01  0.50528855978E+02  0.29999988231E+02 0.  0.
        -12    1    1    2    0    0  0.19360077224E+01  0.40082730363E+02  0.65416047989E+01  0.40659144022E+02  0.00000000000E+00 0.  1.
         11    1    3    3    0    0  0.41397239987E+01 -0.64923694191E+01 -0.11812937957E+02  0.14100839652E+02  0.51100000000E-03 0. -1.
        -11    1    3    3    0    0 -0.83973435428E+01 -0.14789670066E+02  0.11834077536E+01  0.17048465427E+02  0.51100000000E-03 0.  1.
         12    1    3    3    0    0  0.23216118216E+01 -0.18800690878E+02  0.40879254043E+01  0.19379550899E+02  0.00000000000E+00 0. -1.
</event>
<event>
 7    1  0.9865694E-013  0.5052885E+02  0.7816164E-02  0.1300439E+00
        -11   -1    0    0    0    0  0.00000000000E+00  0.00000000000E+00  0.45593999997E+02  0.45594000000E+02  0.51100000000E-03 0.  1.
         11   -1    0    0    0    0 -0.00000000000E+00 -0.00000000000E+00 -0.45593999997E+02  0.45594000000E+02  0.51100000000E-03 0. -1.
    9900012    2    1    2    0    0  0.28699164932E+02  0.52316190134E+01 -0.28322329059E+02  0.50528853076E+02  0.29999979409E+02 0.  0.
        -12    1    1    2    0    0 -0.28699164932E+02 -0.52316190134E+01  0.28322329059E+02  0.40659146924E+02  0.00000000000E+00 0.  1.
         11    1    3    3    0    0  0.16691788872E+02 -0.87387826151E+00  0.48237465977E+00  0.16721607714E+02  0.51100000000E-03 0.  1.
        -11    1    3    3    0    0  0.44516622719E+01  0.78713487636E+01 -0.10098667740E+02  0.13555755926E+02  0.51100000000E-03 0. -1.
         12    1    3    3    0    0  0.75557137877E+01 -0.17658514887E+01 -0.18706035979E+02  0.20251489436E+02  0.00000000000E+00 0. -1.
</event>
<event>
 7    1  0.9865694E-013  0.5052886E+02  0.7816164E-02  0.1300439E+00
        -11   -1    0    0    0    0  0.00000000000E+00  0.00000000000E+00  0.45593999997E+02  0.45594000000E+02  0.51100000000E-03 0.  1.
         11   -1    0    0    0    0 -0.00000000000E+00 -0.00000000000E+00 -0.45593999997E+02  0.45594000000E+02  0.51100000000E-03 0. -1.
    9900012    2    1    2    0    0  0.35079023276E+02  0.15945030734E+02 -0.12976285438E+02  0.50528857574E+02  0.29999993081E+02 0.  0.
        -12    1    1    2    0    0 -0.35079023276E+02 -0.15945030734E+02  0.12976285438E+02  0.40659142426E+02  0.00000000000E+00 0.  1.
         11    1    3    3    0    0  0.28904827838E+02  0.33027266406E+01 -0.12137924547E+02  0.31523424436E+02  0.51100000000E-03 0. -1.
        -11    1    3    3    0    0 -0.72484038920E+00  0.46062740273E+01  0.50613237023E+01  0.68818712488E+01  0.51100000000E-03 0.  1.
        -12    1    3    3    0    0  0.68990358267E+01  0.80360300663E+01 -0.58996845935E+01  0.12123561889E+02  0.00000000000E+00 0.  1.
</event>
<event>
 7    1  0.9865694E-013  0.5052886E+02  0.7816164E-02  0.1300439E+00
        -11   -1    0    0    0    0  0.00000000000E+00  0.00000000000E+00  0.45593999997E+02  0.45594000000E+02  0.51100000000E-03 0.  1.
         11   -1    0    0    0    0 -0.00000000000E+00 -0.00000000000E+00 -0.45593999997E+02  0.45594000000E+02  0.51100000000E-03 0. -1.
    9900012    2    1    2    0    0 -0.15890652631E+02  0.17964951412E+02 -0.32831594625E+02  0.50528856798E+02  0.29999990724E+02 0.  0.
        -12    1    1    2    0    0  0.15890652631E+02 -0.17964951412E+02  0.32831594625E+02  0.40659143202E+02  0.00000000000E+00 0.  1.
         11    1    3    3    0    0 -0.10303157636E+02  0.19339656167E+02 -0.29053333931E+02  0.36390569804E+02  0.51100000000E-03 0. -1.
        -11    1    3    3    0    0 -0.31759758667E+01  0.81157365821E+00  0.43127135405E+01  0.54171000408E+01  0.51100000000E-03 0.  1.
         12    1    3    3    0    0 -0.24115191279E+01 -0.21862784131E+01 -0.80909742347E+01  0.87211869531E+01  0.00000000000E+00 0. -1.
</event>
<event>
 7    1  0.9865694E-013  0.5052886E+02  0.7816164E-02  0.1300439E+00
        -11   -1    0    0    0    0  0.00000000000E+00  0.00000000000E+00  0.45593999997E+02  0.45594000000E+02  0.51100000000E-03 0.  1.
         11   -1    0    0    0    0 -0.00000000000E+00 -0.00000000000E+00 -0.45593999997E+02  0.45594000000E+02  0.51100000000E-03 0. -1.
    9900012    2    1    2    0    0  0.28576873779E+02  0.37805526645E+01 -0.28674646012E+02  0.50528860593E+02  0.30000002258E+02 0.  0.
        -12    1    1    2    0    0 -0.28576873779E+02 -0.37805526645E+01  0.28674646012E+02  0.40659139407E+02  0.00000000000E+00 0.  1.
         11    1    3    3    0    0  0.75378500080E+01  0.25798669278E+00 -0.28106716621E+02  0.29101086910E+02  0.51100000000E-03 0. -1.
        -11    1    3    3    0    0  0.64513360609E+01  0.45988652272E+00  0.47835597932E+00  0.64853725636E+01  0.51100000000E-03 0.  1.
         12    1    3    3    0    0  0.14587687710E+02  0.30626794490E+01 -0.10462853705E+01  0.14942401119E+02  0.00000000000E+00 0. -1.
</event>
<event>
 7    1  0.9865694E-013  0.5052886E+02  0.7816164E-02  0.1300439E+00
        -11   -1    0    0    0    0  0.00000000000E+00  0.00000000000E+00  0.45593999997E+02  0.45594000000E+02  0.51100000000E-03 0. -1.
         11   -1    0    0    0    0 -0.00000000000E+00 -0.00000000000E+00 -0.45593999997E+02  0.45594000000E+02  0.51100000000E-03 0.  1.
    9900012    2    1    2    0    0  0.10700707690E+02  0.30072542828E+02 -0.25185361922E+02  0.50528862868E+02  0.30000009173E+02 0.  0.
        -12    1    1    2    0    0 -0.10700707690E+02 -0.30072542828E+02  0.25185361922E+02  0.40659137132E+02  0.00000000000E+00 0.  1.
         11    1    3    3    0    0  0.32042967926E+01  0.58935006800E+01 -0.13041724251E+02  0.14665859671E+02  0.51100000000E-03 0.  1.
        -11    1    3    3    0    0 -0.73319083355E+01  0.13389336415E+02 -0.38923057660E+01  0.15753769515E+02  0.51100000000E-03 0. -1.
         12    1    3    3    0    0  0.14828319232E+02  0.10789705733E+02 -0.82513319048E+01  0.20109233682E+02  0.00000000000E+00 0. -1.
</event>
<event>
 7    1  0.9865694E-013  0.5052886E+02  0.7816164E-02  0.1300439E+00
        -11   -1    0    0    0    0  0.00000000000E+00  0.00000000000E+00  0.45593999997E+02  0.45594000000E+02  0.51100000000E-03 0.  1.
         11   -1    0    0    0    0 -0.00000000000E+00 -0.00000000000E+00 -0.45593999997E+02  0.45594000000E+02  0.51100000000E-03 0. -1.
    9900012    2    1    2    0    0 -0.38970558080E+02 -0.10278180367E+02  0.53684569123E+01  0.50528859350E+02  0.29999998481E+02 0.  0.
        -12    1    1    2    0    0  0.38970558080E+02  0.10278180367E+02 -0.53684569123E+01  0.40659140650E+02  0.00000000000E+00 0.  1.
         11    1    3    3    0    0 -0.13841758968E+02 -0.26641951271E+01  0.16139190831E+02  0.21428152229E+02  0.51100000000E-03 0.  1.
        -11    1    3    3    0    0 -0.13158631341E+02 -0.29705402464E+01 -0.88120400166E+01  0.16112905934E+02  0.51100000000E-03 0. -1.
        -12    1    3    3    0    0 -0.11970167771E+02 -0.46434449933E+01 -0.19586939022E+01  0.12987801187E+02  0.00000000000E+00 0.  1.
</event>
<event>
 7    1  0.9865694E-013  0.5052886E+02  0.7816164E-02  0.1300439E+00
        -11   -1    0    0    0    0  0.00000000000E+00  0.00000000000E+00  0.45593999997E+02  0.45594000000E+02  0.51100000000E-03 0. -1.
         11   -1    0    0    0    0 -0.00000000000E+00 -0.00000000000E+00 -0.45593999997E+02  0.45594000000E+02  0.51100000000E-03 0.  1.
    9900012    2    1    2    0    0 -0.79048795524E+01 -0.22670506845E+02  0.32813511697E+02  0.50528861406E+02  0.30000004729E+02 0.  0.
        -12    1    1    2    0    0  0.79048795524E+01  0.22670506845E+02 -0.32813511697E+02  0.40659138594E+02  0.00000000000E+00 0.  1.
         11    1    3    3    0    0 -0.12006927820E+02 -0.23153450283E+02  0.14944362264E+02  0.30059649689E+02  0.51100000000E-03 0. -1.
        -11    1    3    3    0    0 -0.70132036126E+00 -0.75972163774E+00  0.14348014544E+02  0.14385219805E+02  0.51100000000E-03 0.  1.
         12    1    3    3    0    0  0.48033686291E+01  0.12426650760E+01  0.35211348889E+01  0.60839919119E+01  0.00000000000E+00 0. -1.
</event>
<event>
 7    1  0.9865694E-013  0.5052886E+02  0.7816164E-02  0.1300439E+00
        -11   -1    0    0    0    0  0.00000000000E+00  0.00000000000E+00  0.45593999997E+02  0.45594000000E+02  0.51100000000E-03 0.  1.
         11   -1    0    0    0    0 -0.00000000000E+00 -0.00000000000E+00 -0.45593999997E+02  0.45594000000E+02  0.51100000000E-03 0. -1.
    9900012    2    1    2    0    0 -0.68009628305E+01  0.28127738148E+02 -0.28561219932E+02  0.50528855484E+02  0.29999986730E+02 0.  0.
        -12    1    1    2    0    0  0.68009628305E+01 -0.28127738148E+02  0.28561219932E+02  0.40659144516E+02  0.00000000000E+00 0.  1.
         11    1    3    3    0    0 -0.41226873594E+01  0.22911022347E+02 -0.23539367264E+02  0.33106091698E+02  0.51100000000E-03 0. -1.
        -11    1    3    3    0    0 -0.12575162786E+01 -0.49104601426E+01 -0.51077589513E+01  0.71960522350E+01  0.51100000000E-03 0.  1.
         12    1    3    3    0    0 -0.14207591925E+01  0.10127175943E+02  0.85906282686E-01  0.10226711552E+02  0.00000000000E+00 0. -1.
</event>
<event>
 7    1  0.9865694E-013  0.5052886E+02  0.7816164E-02  0.1300439E+00
        -11   -1    0    0    0    0  0.00000000000E+00  0.00000000000E+00  0.45593999997E+02  0.45594000000E+02  0.51100000000E-03 0.  1.
         11   -1    0    0    0    0 -0.00000000000E+00 -0.00000000000E+00 -0.45593999997E+02  0.45594000000E+02  0.51100000000E-03 0. -1.
    9900012    2    1    2    0    0 -0.26726814110E+02 -0.25292746221E+01 -0.30535973321E+02  0.50528862168E+02  0.30000007046E+02 0.  0.
        -12    1    1    2    0    0  0.26726814110E+02  0.25292746221E+01  0.30535973321E+02  0.40659137832E+02  0.00000000000E+00 0.  1.
         11    1    3    3    0    0 -0.76324165987E+01 -0.97134381970E+01 -0.91443816131E+01  0.15369592711E+02  0.51100000000E-03 0. -1.
        -11    1    3    3    0    0  0.17990480432E+01  0.62294635496E+01 -0.24180587746E+01  0.69202455503E+01  0.51100000000E-03 0.  1.
        -12    1    3    3    0    0 -0.20893445555E+02  0.95470002529E+00 -0.18973532933E+02  0.28239023907E+02  0.00000000000E+00 0.  1.
</event>
<event>
 7    1  0.9865694E-013  0.5052885E+02  0.7816164E-02  0.1300439E+00
        -11   -1    0    0    0    0  0.00000000000E+00  0.00000000000E+00  0.45593999997E+02  0.45594000000E+02  0.51100000000E-03 0.  1.
         11   -1    0    0    0    0 -0.00000000000E+00 -0.00000000000E+00 -0.45593999997E+02  0.45594000000E+02  0.51100000000E-03 0. -1.
    9900012    2    1    2    0    0  0.25382728104E+02 -0.24242885163E+02  0.20522328098E+02  0.50528851981E+02  0.29999976082E+02 0.  0.
        -12    1    1    2    0    0 -0.25382728104E+02  0.24242885163E+02 -0.20522328098E+02  0.40659148019E+02  0.00000000000E+00 0.  1.
         11    1    3    3    0    0 -0.58334434729E+01 -0.41366921775E+01  0.39822172396E+01  0.81853124147E+01  0.51100000000E-03 0. -1.
        -11    1    3    3    0    0  0.17014592367E+02 -0.57882785626E+01  0.12181210528E+02  0.21711342942E+02  0.51100000000E-03 0.  1.
         12    1    3    3    0    0  0.14201579210E+02 -0.14317914423E+02  0.43589003305E+01  0.20632196625E+02  0.00000000000E+00 0. -1.
</event>
<event>
 7    1  0.9865694E-013  0.5052886E+02  0.7816164E-02  0.1300439E+00
        -11   -1    0    0    0    0  0.00000000000E+00  0.00000000000E+00  0.45593999997E+02  0.45594000000E+02  0.51100000000E-03 0. -1.
         11   -1    0    0    0    0 -0.00000000000E+00 -0.00000000000E+00 -0.45593999997E+02  0.45594000000E+02  0.51100000000E-03 0.  1.
    9900012    2    1    2    0    0 -0.28056262886E+02 -0.26988045861E+02  0.11732733397E+02  0.50528861550E+02  0.30000005166E+02 0.  0.
        -12    1    1    2    0    0  0.28056262886E+02  0.26988045861E+02 -0.11732733397E+02  0.40659138450E+02  0.00000000000E+00 0.  1.
         11    1    3    3    0    0 -0.48211838678E+01  0.55869117950E+01  0.27381895125E+01  0.78711548937E+01  0.51100000000E-03 0.  1.
        -11    1    3    3    0    0 -0.21380327034E+02 -0.24978580087E+02  0.10845940132E+02  0.34621991058E+02  0.51100000000E-03 0. -1.
        -12    1    3    3    0    0 -0.18547519842E+01 -0.75963775693E+01 -0.18513962469E+01  0.80357155974E+01  0.00000000000E+00 0.  1.
</event>
<event>
 7    1  0.9865694E-013  0.5052886E+02  0.7816164E-02  0.1300439E+00
        -11   -1    0    0    0    0  0.00000000000E+00  0.00000000000E+00  0.45593999997E+02  0.45594000000E+02  0.51100000000E-03 0.  1.
         11   -1    0    0    0    0 -0.00000000000E+00 -0.00000000000E+00 -0.45593999997E+02  0.45594000000E+02  0.51100000000E-03 0. -1.
    9900012    2    1    2    0    0 -0.35057870812E+02 -0.16729851401E+02 -0.12009298908E+02  0.50528862109E+02  0.30000006866E+02 0.  0.
        -12    1    1    2    0    0  0.35057870812E+02  0.16729851401E+02  0.12009298908E+02  0.40659137891E+02  0.00000000000E+00 0.  1.
         11    1    3    3    0    0 -0.28902466125E+01 -0.10666040698E+02  0.47441172461E+01  0.12025996772E+02  0.51100000000E-03 0. -1.
        -11    1    3    3    0    0 -0.22983409052E+02 -0.73685907501E+01 -0.16474397173E+02  0.29222234408E+02  0.51100000000E-03 0.  1.
        -12    1    3    3    0    0 -0.91842151476E+01  0.13047800470E+01 -0.27901898076E+00  0.92806309290E+01  0.00000000000E+00 0.  1.
</event>
<event>
 7    1  0.9865694E-013  0.5052882E+02  0.7816164E-02  0.1300439E+00
        -11   -1    0    0    0    0  0.00000000000E+00  0.00000000000E+00  0.45593999997E+02  0.45594000000E+02  0.51100000000E-03 0. -1.
         11   -1    0    0    0    0 -0.00000000000E+00 -0.00000000000E+00 -0.45593999997E+02  0.45594000000E+02  0.51100000000E-03 0.  1.
    9900012    2    1    2    0    0 -0.76429078285E+01 -0.28796651310E+01  0.39830417565E+02  0.50528822995E+02  0.29999887975E+02 0.  0.
        -12    1    1    2    0    0  0.76429078285E+01  0.28796651310E+01 -0.39830417565E+02  0.40659177005E+02  0.00000000000E+00 0.  1.
         11    1    3    3    0    0 -0.18299270980E+01  0.12340902026E+02  0.17514341901E+02  0.21503457128E+02  0.51100000000E-03 0. -1.
        -11    1    3    3    0    0 -0.45718775683E+01 -0.15948425738E+02  0.21996046765E+02  0.27551414148E+02  0.51100000000E-03 0.  1.
        -12    1    3    3    0    0 -0.12411031622E+01  0.72785858068E+00  0.32002889961E+00  0.14739517188E+01  0.00000000000E+00 0.  1.
</event>
<event>
 7    1  0.9865694E-013  0.5052884E+02  0.7816164E-02  0.1300439E+00
        -11   -1    0    0    0    0  0.00000000000E+00  0.00000000000E+00  0.45593999997E+02  0.45594000000E+02  0.51100000000E-03 0.  1.
         11   -1    0    0    0    0 -0.00000000000E+00 -0.00000000000E+00 -0.45593999997E+02  0.45594000000E+02  0.51100000000E-03 0. -1.
    9900012    2    1    2    0    0 -0.73742975408E+01  0.15101439543E+02 -0.37023415400E+02  0.50528843241E+02  0.29999949515E+02 0.  0.
        -12    1    1    2    0    0  0.73742975408E+01 -0.15101439543E+02  0.37023415400E+02  0.40659156759E+02  0.00000000000E+00 0.  1.
         11    1    3    3    0    0 -0.13887019058E+01 -0.27867984496E+00 -0.23966627330E+02  0.24008443958E+02  0.51100000000E-03 0. -1.
        -11    1    3    3    0    0  0.30439225096E+01  0.10887723110E+02 -0.18704184009E+01  0.11458902391E+02  0.51100000000E-03 0.  1.
         12    1    3    3    0    0 -0.90295181446E+01  0.44923962783E+01 -0.11186369669E+02  0.15061496892E+02  0.00000000000E+00 0. -1.
</event>
<event>
 7    1  0.9865694E-013  0.5052886E+02  0.7816164E-02  0.1300439E+00
        -11   -1    0    0    0    0  0.00000000000E+00  0.00000000000E+00  0.45593999997E+02  0.45594000000E+02  0.51100000000E-03 0. -1.
         11   -1    0    0    0    0 -0.00000000000E+00 -0.00000000000E+00 -0.45593999997E+02  0.45594000000E+02  0.51100000000E-03 0.  1.
    9900012    2    1    2    0    0  0.28135312337E+02 -0.29341340161E+02  0.80985084850E+00  0.50528857102E+02  0.29999991649E+02 0.  0.
        -12    1    1    2    0    0 -0.28135312337E+02  0.29341340161E+02 -0.80985084850E+00  0.40659142898E+02  0.00000000000E+00 0.  1.
         11    1    3    3    0    0  0.19877080521E+02 -0.10760759156E+02 -0.43587669526E+01  0.23019363963E+02  0.51100000000E-03 0. -1.
        -11    1    3    3    0    0 -0.48987844390E+00 -0.14600278703E+02 -0.29796045134E+01  0.14909264315E+02  0.51100000000E-03 0.  1.
         12    1    3    3    0    0  0.87481102600E+01 -0.39803023018E+01  0.81482223146E+01  0.12600228824E+02  0.00000000000E+00 0. -1.
</event>
<event>
 7    1  0.9865694E-013  0.5052887E+02  0.7816164E-02  0.1300439E+00
        -11   -1    0    0    0    0  0.00000000000E+00  0.00000000000E+00  0.45593999997E+02  0.45594000000E+02  0.51100000000E-03 0. -1.
         11   -1    0    0    0    0 -0.00000000000E+00 -0.00000000000E+00 -0.45593999997E+02  0.45594000000E+02  0.51100000000E-03 0.  1.
    9900012    2    1    2    0    0 -0.36970752067E+02 -0.89611983214E+01  0.14353594107E+02  0.50528865140E+02  0.30000016081E+02 0.  0.
        -12    1    1    2    0    0  0.36970752067E+02  0.89611983214E+01 -0.14353594107E+02  0.40659134860E+02  0.00000000000E+00 0.  1.
         11    1    3    3    0    0 -0.78830891831E+01 -0.26819749923E+00  0.14122816872E+02  0.16176185633E+02  0.51100000000E-03 0. -1.
        -11    1    3    3    0    0 -0.18642259100E+01  0.25171534524E+01 -0.34759621147E+01  0.46790717702E+01  0.51100000000E-03 0.  1.
         12    1    3    3    0    0 -0.27223436974E+02 -0.11210154275E+02  0.37067393492E+01  0.29673607737E+02  0.00000000000E+00 0. -1.
</event>
<event>
 7    1  0.9865694E-013  0.5052885E+02  0.7816164E-02  0.1300439E+00
        -11   -1    0    0    0    0  0.00000000000E+00  0.00000000000E+00  0.45593999997E+02  0.45594000000E+02  0.51100000000E-03 0.  1.
         11   -1    0    0    0    0 -0.00000000000E+00 -0.00000000000E+00 -0.45593999997E+02  0.45594000000E+02  0.51100000000E-03 0. -1.
    9900012    2    1    2    0    0 -0.30800784823E+02 -0.22880646920E+02 -0.13451916108E+02  0.50528851015E+02  0.29999973147E+02 0.  0.
        -12    1    1    2    0    0  0.30800784823E+02  0.22880646920E+02  0.13451916108E+02  0.40659148985E+02  0.00000000000E+00 0.  1.
         11    1    3    3    0    0 -0.79263161359E+01  0.40919192340E+01 -0.49180514210E+01  0.10186143556E+02  0.51100000000E-03 0. -1.
        -11    1    3    3    0    0 -0.11341638787E+02 -0.25324801230E+02 -0.52736090308E+01  0.28245163837E+02  0.51100000000E-03 0.  1.
         12    1    3    3    0    0 -0.11532829900E+02 -0.16477649237E+01 -0.32602556559E+01  0.12097543622E+02  0.00000000000E+00 0. -1.
</event>
<event>
 7    1  0.9865694E-013  0.5052886E+02  0.7816164E-02  0.1300439E+00
        -11   -1    0    0    0    0  0.00000000000E+00  0.00000000000E+00  0.45593999997E+02  0.45594000000E+02  0.51100000000E-03 0.  1.
         11   -1    0    0    0    0 -0.00000000000E+00 -0.00000000000E+00 -0.45593999997E+02  0.45594000000E+02  0.51100000000E-03 0. -1.
    9900012    2    1    2    0    0 -0.30173742870E+02  0.18754056175E+02 -0.19773635404E+02  0.50528855409E+02  0.29999986500E+02 0.  0.
        -12    1    1    2    0    0  0.30173742870E+02 -0.18754056175E+02  0.19773635404E+02  0.40659144591E+02  0.00000000000E+00 0.  1.
         11    1    3    3    0    0 -0.25054021216E+02  0.23736381922E+02 -0.16502884049E+02  0.38255260920E+02  0.51100000000E-03 0. -1.
        -11    1    3    3    0    0 -0.29241416526E+01 -0.30380320252E+01  0.31177482059E+01  0.52441011744E+01  0.51100000000E-03 0.  1.
         12    1    3    3    0    0 -0.21955800015E+01 -0.19442937216E+01 -0.63884995610E+01  0.70294933146E+01  0.00000000000E+00 0. -1.
</event>
<event>
 7    1  0.9865694E-013  0.5052886E+02  0.7816164E-02  0.1300439E+00
        -11   -1    0    0    0    0  0.00000000000E+00  0.00000000000E+00  0.45593999997E+02  0.45594000000E+02  0.51100000000E-03 0.  1.
         11   -1    0    0    0    0 -0.00000000000E+00 -0.00000000000E+00 -0.45593999997E+02  0.45594000000E+02  0.51100000000E-03 0. -1.
    9900012    2    1    2    0    0 -0.32879749699E+02 -0.22483334619E+02 -0.81601329605E+01  0.50528855324E+02  0.29999986243E+02 0.  0.
        -12    1    1    2    0    0  0.32879749699E+02  0.22483334619E+02  0.81601329605E+01  0.40659144676E+02  0.00000000000E+00 0.  1.
         11    1    3    3    0    0 -0.27129738456E+02 -0.89590996609E+01  0.84614235150E-01  0.28570882647E+02  0.51100000000E-03 0. -1.
        -11    1    3    3    0    0 -0.52378134217E+01 -0.16305651779E+02 -0.84975591098E+01  0.19118511460E+02  0.51100000000E-03 0.  1.
        -12    1    3    3    0    0 -0.51219782101E+00  0.27814168202E+01  0.25281191416E+00  0.28394612164E+01  0.00000000000E+00 0.  1.
</event>
<event>
 7    1  0.9865694E-013  0.5052886E+02  0.7816164E-02  0.1300439E+00
        -11   -1    0    0    0    0  0.00000000000E+00  0.00000000000E+00  0.45593999997E+02  0.45594000000E+02  0.51100000000E-03 0. -1.
         11   -1    0    0    0    0 -0.00000000000E+00 -0.00000000000E+00 -0.45593999997E+02  0.45594000000E+02  0.51100000000E-03 0.  1.
    9900012    2    1    2    0    0 -0.29953437009E+01 -0.20473403715E+02  0.35000478609E+02  0.50528857776E+02  0.29999993695E+02 0.  0.
        -12    1    1    2    0    0  0.29953437009E+01  0.20473403715E+02 -0.35000478609E+02  0.40659142224E+02  0.00000000000E+00 0.  1.
         11    1    3    3    0    0 -0.84932254465E+01 -0.81587178141E+01  0.20687074245E+02  0.23804507891E+02  0.51100000000E-03 0. -1.
        -11    1    3    3    0    0  0.82962746783E+01 -0.59934799295E+01 -0.63547077490E+00  0.10254452622E+02  0.51100000000E-03 0.  1.
        -12    1    3    3    0    0 -0.27983929327E+01 -0.63212059712E+01  0.14948875138E+02  0.16469897263E+02  0.00000000000E+00 0.  1.
</event>
<event>
 7    1  0.9865694E-013  0.5052899E+02  0.7816164E-02  0.1300438E+00
        -11   -1    0    0    0    0  0.00000000000E+00  0.00000000000E+00  0.45593999997E+02  0.45594000000E+02  0.51100000000E-03 0. -1.
         11   -1    0    0    0    0 -0.00000000000E+00 -0.00000000000E+00 -0.45593999997E+02  0.45594000000E+02  0.51100000000E-03 0.  1.
    9900012    2    1    2    0    0 -0.10935762982E+01 -0.39272255626E+02  0.10471335615E+02  0.50528993118E+02  0.30000405078E+02 0.  0.
        -12    1    1    2    0    0  0.10935762982E+01  0.39272255626E+02 -0.10471335615E+02  0.40659006882E+02  0.00000000000E+00 0.  1.
         11    1    3    3    0    0  0.14965102861E+00 -0.75982457421E+01  0.11519688504E+02  0.13800686841E+02  0.51100000000E-03 0. -1.
        -11    1    3    3    0    0 -0.47589056825E+01 -0.93856391347E+01 -0.78870641649E+01  0.13150786542E+02  0.51100000000E-03 0.  1.
        -12    1    3    3    0    0  0.35156783558E+01 -0.22288370749E+02  0.68387112758E+01  0.23577519735E+02  0.00000000000E+00 0.  1.
</event>
<event>
 7    1  0.9865694E-013  0.5052886E+02  0.7816164E-02  0.1300439E+00
        -11   -1    0    0    0    0  0.00000000000E+00  0.00000000000E+00  0.45593999997E+02  0.45594000000E+02  0.51100000000E-03 0. -1.
         11   -1    0    0    0    0 -0.00000000000E+00 -0.00000000000E+00 -0.45593999997E+02  0.45594000000E+02  0.51100000000E-03 0.  1.
    9900012    2    1    2    0    0  0.94669155736E+01 -0.38592131120E+02  0.86133882948E+01  0.50528861633E+02  0.30000005419E+02 0.  0.
        -12    1    1    2    0    0 -0.94669155736E+01  0.38592131120E+02 -0.86133882948E+01  0.40659138367E+02  0.00000000000E+00 0.  1.
         11    1    3    3    0    0  0.18082608337E+01 -0.25957491079E+02  0.70543798619E+01  0.26959700033E+02  0.51100000000E-03 0. -1.
        -11    1    3    3    0    0  0.13609318872E+02 -0.95520455102E+01 -0.24556226643E+00  0.16628753251E+02  0.51100000000E-03 0.  1.
        -12    1    3    3    0    0 -0.59506641317E+01 -0.30825945303E+01  0.18045706994E+01  0.69404083493E+01  0.00000000000E+00 0.  1.
</event>
<event>
 7    1  0.9865694E-013  0.5052887E+02  0.7816164E-02  0.1300439E+00
        -11   -1    0    0    0    0  0.00000000000E+00  0.00000000000E+00  0.45593999997E+02  0.45594000000E+02  0.51100000000E-03 0.  1.
         11   -1    0    0    0    0 -0.00000000000E+00 -0.00000000000E+00 -0.45593999997E+02  0.45594000000E+02  0.51100000000E-03 0. -1.
    9900012    2    1    2    0    0  0.97389268386E+01 -0.11538019442E+02 -0.37751717457E+02  0.50528871141E+02  0.30000034320E+02 0.  0.
        -12    1    1    2    0    0 -0.97389268386E+01  0.11538019442E+02  0.37751717457E+02  0.40659128859E+02  0.00000000000E+00 0.  1.
         11    1    3    3    0    0  0.62528048173E+01  0.33561213179E+01 -0.13437785200E+02  0.15196551903E+02  0.51100000000E-03 0. -1.
        -11    1    3    3    0    0 -0.47448761912E+01 -0.13367958300E+02 -0.22759230440E+02  0.26817880782E+02  0.51100000000E-03 0.  1.
        -12    1    3    3    0    0  0.82309982125E+01 -0.15261824604E+01 -0.15547018171E+01  0.85144384558E+01  0.00000000000E+00 0.  1.
</event>
<event>
 7    1  0.9865694E-013  0.5052886E+02  0.7816164E-02  0.1300439E+00
        -11   -1    0    0    0    0  0.00000000000E+00  0.00000000000E+00  0.45593999997E+02  0.45594000000E+02  0.51100000000E-03 0. -1.
         11   -1    0    0    0    0 -0.00000000000E+00 -0.00000000000E+00 -0.45593999997E+02  0.45594000000E+02  0.51100000000E-03 0.  1.
    9900012    2    1    2    0    0 -0.35144723623E+02 -0.19413729286E+02 -0.64125942895E+01  0.50528857746E+02  0.29999993605E+02 0.  0.
        -12    1    1    2    0    0  0.35144723623E+02  0.19413729286E+02  0.64125942895E+01  0.40659142254E+02  0.00000000000E+00 0.  1.
         11    1    3    3    0    0 -0.12061182334E+02 -0.23228355156E+02 -0.72571064965E+00  0.26183110181E+02  0.51100000000E-03 0. -1.
        -11    1    3    3    0    0 -0.14364450454E+02  0.18043904791E+01 -0.17950779737E+01  0.14588199581E+02  0.51100000000E-03 0.  1.
         12    1    3    3    0    0 -0.87190908347E+01  0.20102353906E+01 -0.38918056662E+01  0.97575479837E+01  0.00000000000E+00 0. -1.
</event>
<event>
 7    1  0.9865694E-013  0.5052887E+02  0.7816164E-02  0.1300439E+00
        -11   -1    0    0    0    0  0.00000000000E+00  0.00000000000E+00  0.45593999997E+02  0.45594000000E+02  0.51100000000E-03 0.  1.
         11   -1    0    0    0    0 -0.00000000000E+00 -0.00000000000E+00 -0.45593999997E+02  0.45594000000E+02  0.51100000000E-03 0. -1.
    9900012    2    1    2    0    0 -0.23910795874E+02 -0.30416078415E+02 -0.12502021130E+02  0.50528874115E+02  0.30000043359E+02 0.  0.
        -12    1    1    2    0    0  0.23910795874E+02  0.30416078415E+02  0.12502021130E+02  0.40659125885E+02  0.00000000000E+00 0.  1.
         11    1    3    3    0    0 -0.67120732956E+01  0.16422099999E+01  0.27584334996E+01  0.74402780353E+01  0.51100000000E-03 0. -1.
        -11    1    3    3    0    0 -0.15770451590E+01 -0.21159449096E+02 -0.88669154160E+01  0.22996337681E+02  0.51100000000E-03 0.  1.
         12    1    3    3    0    0 -0.15621677419E+02 -0.10898839319E+02 -0.63935392134E+01  0.20092258399E+02  0.00000000000E+00 0. -1.
</event>
<event>
 7    1  0.9865694E-013  0.5052891E+02  0.7816164E-02  0.1300439E+00
        -11   -1    0    0    0    0  0.00000000000E+00  0.00000000000E+00  0.45593999997E+02  0.45594000000E+02  0.51100000000E-03 0. -1.
         11   -1    0    0    0    0 -0.00000000000E+00 -0.00000000000E+00 -0.45593999997E+02  0.45594000000E+02  0.51100000000E-03 0.  1.
    9900012    2    1    2    0    0  0.38688264364E+02 -0.34775716628E+01  0.12011908058E+02  0.50528914430E+02  0.30000165902E+02 0.  0.
        -12    1    1    2    0    0 -0.38688264364E+02  0.34775716628E+01 -0.12011908058E+02  0.40659085570E+02  0.00000000000E+00 0.  1.
         11    1    3    3    0    0  0.29352383076E+02  0.58599344792E+01  0.62609791397E+00  0.29938156643E+02  0.51100000000E-03 0. -1.
        -11    1    3    3    0    0  0.20366961582E+01  0.17234369029E+00  0.78212218645E+01  0.80838941917E+01  0.51100000000E-03 0.  1.
         12    1    3    3    0    0  0.72991851294E+01 -0.95098498322E+01  0.35645882801E+01  0.12506863595E+02  0.00000000000E+00 0. -1.
</event>
<event>
 7    1  0.9865694E-013  0.5052886E+02  0.7816164E-02  0.1300439E+00
        -11   -1    0    0    0    0  0.00000000000E+00  0.00000000000E+00  0.45593999997E+02  0.45594000000E+02  0.51100000000E-03 0.  1.
         11   -1    0    0    0    0 -0.00000000000E+00 -0.00000000000E+00 -0.45593999997E+02  0.45594000000E+02  0.51100000000E-03 0. -1.
    9900012    2    1    2    0    0  0.22308233050E+02  0.33953244463E+02  0.16388033308E+01  0.50528858989E+02  0.29999997383E+02 0.  0.
        -12    1    1    2    0    0 -0.22308233050E+02 -0.33953244463E+02 -0.16388033308E+01  0.40659141011E+02  0.00000000000E+00 0.  1.
         11    1    3    3    0    0  0.90603221463E+01  0.25885769742E+02  0.26241514995E+01  0.27550838171E+02  0.51100000000E-03 0. -1.
        -11    1    3    3    0    0  0.93653257694E+01  0.41797788986E+01  0.76140797495E+01  0.12773178504E+02  0.51100000000E-03 0.  1.
         12    1    3    3    0    0  0.38825851345E+01  0.38876958221E+01 -0.85994279183E+01  0.10204842314E+02  0.00000000000E+00 0. -1.
</event>
<event>
 7    1  0.9865694E-013  0.5052887E+02  0.7816164E-02  0.1300439E+00
        -11   -1    0    0    0    0  0.00000000000E+00  0.00000000000E+00  0.45593999997E+02  0.45594000000E+02  0.51100000000E-03 0.  1.
         11   -1    0    0    0    0 -0.00000000000E+00 -0.00000000000E+00 -0.45593999997E+02  0.45594000000E+02  0.51100000000E-03 0. -1.
    9900012    2    1    2    0    0  0.37326197996E+02  0.47905644777E+01 -0.15393847744E+02  0.50528866792E+02  0.30000021101E+02 0.  0.
        -12    1    1    2    0    0 -0.37326197996E+02 -0.47905644777E+01  0.15393847744E+02  0.40659133208E+02  0.00000000000E+00 0.  1.
         11    1    3    3    0    0  0.35159170755E+02 -0.11424892513E+01 -0.12005836382E+02  0.37170050812E+02  0.51100000000E-03 0. -1.
        -11    1    3    3    0    0  0.47982253269E+01  0.60787971123E+01  0.14224032048E+01  0.78738790795E+01  0.51100000000E-03 0.  1.
         12    1    3    3    0    0 -0.26311980855E+01 -0.14574338334E+00 -0.48104145669E+01  0.54849369007E+01  0.00000000000E+00 0. -1.
</event>
<event>
 7    1  0.9865694E-013  0.5052886E+02  0.7816164E-02  0.1300439E+00
        -11   -1    0    0    0    0  0.00000000000E+00  0.00000000000E+00  0.45593999997E+02  0.45594000000E+02  0.51100000000E-03 0. -1.
         11   -1    0    0    0    0 -0.00000000000E+00 -0.00000000000E+00 -0.45593999997E+02  0.45594000000E+02  0.51100000000E-03 0.  1.
    9900012    2    1    2    0    0 -0.24891991347E+02 -0.16504930853E+02 -0.27588792528E+02  0.50528862665E+02  0.30000008557E+02 0.  0.
        -12    1    1    2    0    0  0.24891991347E+02  0.16504930853E+02  0.27588792528E+02  0.40659137335E+02  0.00000000000E+00 0.  1.
         11    1    3    3    0    0  0.40150926156E+00  0.51346562507E+01 -0.13063632670E+02  0.14042236407E+02  0.51100000000E-03 0. -1.
        -11    1    3    3    0    0 -0.96413942245E+01 -0.10292105557E+02 -0.52997864211E+01  0.15065578507E+02  0.51100000000E-03 0.  1.
         12    1    3    3    0    0 -0.15652106384E+02 -0.11347481546E+02 -0.92253734368E+01  0.21421047751E+02  0.00000000000E+00 0. -1.
</event>
<event>
 7    1  0.9865694E-013  0.5052886E+02  0.7816164E-02  0.1300439E+00
        -11   -1    0    0    0    0  0.00000000000E+00  0.00000000000E+00  0.45593999997E+02  0.45594000000E+02  0.51100000000E-03 0. -1.
         11   -1    0    0    0    0 -0.00000000000E+00 -0.00000000000E+00 -0.45593999997E+02  0.45594000000E+02  0.51100000000E-03 0.  1.
    9900012    2    1    2    0    0  0.21399696418E+02 -0.22147068324E+02  0.26546668940E+02  0.50528864816E+02  0.30000015094E+02 0.  0.
        -12    1    1    2    0    0 -0.21399696418E+02  0.22147068324E+02 -0.26546668940E+02  0.40659135184E+02  0.00000000000E+00 0.  1.
         11    1    3    3    0    0  0.14573526142E+02 -0.23298185789E+02  0.92708175053E+01  0.29002434083E+02  0.51100000000E-03 0. -1.
        -11    1    3    3    0    0 -0.89282701314E+00  0.42057577953E+01  0.40220949235E+01  0.58875110652E+01  0.51100000000E-03 0.  1.
         12    1    3    3    0    0  0.77189972891E+01 -0.30546403301E+01  0.13253756511E+02  0.15638919667E+02  0.00000000000E+00 0. -1.
</event>
<event>
 7    1  0.9865694E-013  0.5052886E+02  0.7816164E-02  0.1300439E+00
        -11   -1    0    0    0    0  0.00000000000E+00  0.00000000000E+00  0.45593999997E+02  0.45594000000E+02  0.51100000000E-03 0.  1.
         11   -1    0    0    0    0 -0.00000000000E+00 -0.00000000000E+00 -0.45593999997E+02  0.45594000000E+02  0.51100000000E-03 0. -1.
    9900012    2    1    2    0    0  0.26826226507E+02 -0.10604482289E+00 -0.30553360284E+02  0.50528862051E+02  0.30000006691E+02 0.  0.
        -12    1    1    2    0    0 -0.26826226507E+02  0.10604482289E+00  0.30553360284E+02  0.40659137949E+02  0.00000000000E+00 0.  1.
         11    1    3    3    0    0  0.29056001802E+02 -0.59282152355E+01 -0.18826573893E+02  0.35125985558E+02  0.51100000000E-03 0. -1.
        -11    1    3    3    0    0  0.17796449758E+01  0.50113998406E+01 -0.39799594799E+01  0.66423898052E+01  0.51100000000E-03 0.  1.
         12    1    3    3    0    0 -0.40094202707E+01  0.81077057204E+00 -0.77468269103E+01  0.87604866877E+01  0.00000000000E+00 0. -1.
</event>
<event>
 7    1  0.9865694E-013  0.5052884E+02  0.7816164E-02  0.1300439E+00
        -11   -1    0    0    0    0  0.00000000000E+00  0.00000000000E+00  0.45593999997E+02  0.45594000000E+02  0.51100000000E-03 0.  1.
         11   -1    0    0    0    0 -0.00000000000E+00 -0.00000000000E+00 -0.45593999997E+02  0.45594000000E+02  0.51100000000E-03 0. -1.
    9900012    2    1    2    0    0  0.17212609852E+02  0.22744369265E+02 -0.28975628144E+02  0.50528839931E+02  0.29999939454E+02 0.  0.
        -12    1    1    2    0    0 -0.17212609852E+02 -0.22744369265E+02  0.28975628144E+02  0.40659160069E+02  0.00000000000E+00 0.  1.
         11    1    3    3    0    0  0.70636791615E+01  0.10345317684E+02 -0.89782056987E+01  0.15411986864E+02  0.51100000000E-03 0. -1.
        -11    1    3    3    0    0  0.15377522271E+02  0.69050166666E+00 -0.71759443182E+01  0.16983496721E+02  0.51100000000E-03 0.  1.
        -12    1    3    3    0    0 -0.52285915799E+01  0.11708549915E+02 -0.12821478127E+02  0.18133356346E+02  0.00000000000E+00 0.  1.
</event>
<event>
 7    1  0.9865694E-013  0.5052886E+02  0.7816164E-02  0.1300439E+00
        -11   -1    0    0    0    0  0.00000000000E+00  0.00000000000E+00  0.45593999997E+02  0.45594000000E+02  0.51100000000E-03 0.  1.
         11   -1    0    0    0    0 -0.00000000000E+00 -0.00000000000E+00 -0.45593999997E+02  0.45594000000E+02  0.51100000000E-03 0. -1.
    9900012    2    1    2    0    0  0.22981267378E+02 -0.18876377695E+02 -0.27725605139E+02  0.50528862460E+02  0.30000007933E+02 0.  0.
        -12    1    1    2    0    0 -0.22981267378E+02  0.18876377695E+02  0.27725605139E+02  0.40659137540E+02  0.00000000000E+00 0.  1.
         11    1    3    3    0    0  0.90758389134E+01 -0.74543848808E-01 -0.10911233951E+02  0.14192654274E+02  0.51100000000E-03 0. -1.
        -11    1    3    3    0    0  0.61345877819E+01 -0.22143700509E+02 -0.85691506067E+01  0.24523600508E+02  0.51100000000E-03 0.  1.
        -12    1    3    3    0    0  0.77708406829E+01  0.33418666630E+01 -0.82452205815E+01  0.11812607678E+02  0.00000000000E+00 0.  1.
</event>
<event>
 7    1  0.9865694E-013  0.5052888E+02  0.7816164E-02  0.1300439E+00
        -11   -1    0    0    0    0  0.00000000000E+00  0.00000000000E+00  0.45593999997E+02  0.45594000000E+02  0.51100000000E-03 0.  1.
         11   -1    0    0    0    0 -0.00000000000E+00 -0.00000000000E+00 -0.45593999997E+02  0.45594000000E+02  0.51100000000E-03 0. -1.
    9900012    2    1    2    0    0  0.35786914458E+02 -0.56176453592E+00 -0.19291064335E+02  0.50528880617E+02  0.30000063123E+02 0.  0.
        -12    1    1    2    0    0 -0.35786914458E+02  0.56176453592E+00  0.19291064335E+02  0.40659119383E+02  0.00000000000E+00 0.  1.
         11    1    3    3    0    0  0.19186053919E+01 -0.55856235374E+01 -0.87512962239E+01  0.10557718637E+02  0.51100000000E-03 0. -1.
        -11    1    3    3    0    0  0.24296496883E+02 -0.12157511993E+01  0.14560215329E+00  0.24327330556E+02  0.51100000000E-03 0.  1.
         12    1    3    3    0    0  0.95718121834E+01  0.62396102007E+01 -0.10685370265E+02  0.15643831424E+02  0.00000000000E+00 0. -1.
</event>
<event>
 7    1  0.9865694E-013  0.5052884E+02  0.7816164E-02  0.1300439E+00
        -11   -1    0    0    0    0  0.00000000000E+00  0.00000000000E+00  0.45593999997E+02  0.45594000000E+02  0.51100000000E-03 0.  1.
         11   -1    0    0    0    0 -0.00000000000E+00 -0.00000000000E+00 -0.45593999997E+02  0.45594000000E+02  0.51100000000E-03 0. -1.
    9900012    2    1    2    0    0  0.79157184081E+01  0.39841694534E+02  0.17742068270E+01  0.50528843206E+02  0.29999949410E+02 0.  0.
        -12    1    1    2    0    0 -0.79157184081E+01 -0.39841694534E+02 -0.17742068270E+01  0.40659156794E+02  0.00000000000E+00 0.  1.
         11    1    3    3    0    0 -0.24522151304E+01  0.62017402810E+01 -0.32090371624E+01  0.74008689577E+01  0.51100000000E-03 0. -1.
        -11    1    3    3    0    0  0.17935317959E+02  0.26265512066E+02  0.64735595367E+01  0.32457044346E+02  0.51100000000E-03 0.  1.
        -12    1    3    3    0    0 -0.75673844205E+01  0.73744421880E+01 -0.14903155473E+01  0.10670929902E+02  0.00000000000E+00 0.  1.
</event>
<event>
 7    1  0.9865694E-013  0.5052886E+02  0.7816164E-02  0.1300439E+00
        -11   -1    0    0    0    0  0.00000000000E+00  0.00000000000E+00  0.45593999997E+02  0.45594000000E+02  0.51100000000E-03 0.  1.
         11   -1    0    0    0    0 -0.00000000000E+00 -0.00000000000E+00 -0.45593999997E+02  0.45594000000E+02  0.51100000000E-03 0. -1.
    9900012    2    1    2    0    0 -0.16593602999E+01 -0.13932413576E+02 -0.38161496274E+02  0.50528862989E+02  0.30000009541E+02 0.  0.
        -12    1    1    2    0    0  0.16593602999E+01  0.13932413576E+02  0.38161496274E+02  0.40659137011E+02  0.00000000000E+00 0.  1.
         11    1    3    3    0    0  0.69683011268E+01 -0.81623668795E+01 -0.23985059151E+02  0.26276691504E+02  0.51100000000E-03 0. -1.
        -11    1    3    3    0    0 -0.74115880572E+01 -0.11484311981E+02 -0.11329113497E+02  0.17753024309E+02  0.51100000000E-03 0.  1.
        -12    1    3    3    0    0 -0.12160733695E+01  0.57142652849E+01 -0.28473236257E+01  0.64991471761E+01  0.00000000000E+00 0.  1.
</event>
<event>
 7    1  0.9865694E-013  0.5052886E+02  0.7816164E-02  0.1300439E+00
        -11   -1    0    0    0    0  0.00000000000E+00  0.00000000000E+00  0.45593999997E+02  0.45594000000E+02  0.51100000000E-03 0.  1.
         11   -1    0    0    0    0 -0.00000000000E+00 -0.00000000000E+00 -0.45593999997E+02  0.45594000000E+02  0.51100000000E-03 0. -1.
    9900012    2    1    2    0    0 -0.32907964752E+02 -0.11891270449E+02 -0.20708194499E+02  0.50528858636E+02  0.29999996311E+02 0.  0.
        -12    1    1    2    0    0  0.32907964752E+02  0.11891270449E+02  0.20708194499E+02  0.40659141364E+02  0.00000000000E+00 0.  1.
         11    1    3    3    0    0 -0.26532347839E+02  0.13558497639E+01 -0.41700172245E+01  0.26892245246E+02  0.51100000000E-03 0. -1.
        -11    1    3    3    0    0 -0.33176267923E+01 -0.47485507994E+01 -0.12431425210E+02  0.13714799132E+02  0.51100000000E-03 0.  1.
        -12    1    3    3    0    0 -0.30579901204E+01 -0.84985694135E+01 -0.41067520645E+01  0.99218142581E+01  0.00000000000E+00 0.  1.
</event>
<event>
 7    1  0.9865694E-013  0.5052891E+02  0.7816164E-02  0.1300439E+00
        -11   -1    0    0    0    0  0.00000000000E+00  0.00000000000E+00  0.45593999997E+02  0.45594000000E+02  0.51100000000E-03 0.  1.
         11   -1    0    0    0    0 -0.00000000000E+00 -0.00000000000E+00 -0.45593999997E+02  0.45594000000E+02  0.51100000000E-03 0. -1.
    9900012    2    1    2    0    0 -0.23147132557E+02 -0.27990415444E+02 -0.18273159949E+02  0.50528911510E+02  0.30000157026E+02 0.  0.
        -12    1    1    2    0    0  0.23147132557E+02  0.27990415444E+02  0.18273159949E+02  0.40659088490E+02  0.00000000000E+00 0.  1.
         11    1    3    3    0    0 -0.10087920456E+02 -0.12345062360E+02  0.51011251441E+01  0.16738822592E+02  0.51100000000E-03 0. -1.
        -11    1    3    3    0    0  0.13825883567E+01  0.14554534781E+01 -0.22052149126E+01  0.29820912902E+01  0.51100000000E-03 0.  1.
         12    1    3    3    0    0 -0.14441800458E+02 -0.17100806562E+02 -0.21169070180E+02  0.30807997628E+02  0.00000000000E+00 0. -1.
</event>
<event>
 7    1  0.9865694E-013  0.5052886E+02  0.7816164E-02  0.1300439E+00
        -11   -1    0    0    0    0  0.00000000000E+00  0.00000000000E+00  0.45593999997E+02  0.45594000000E+02  0.51100000000E-03 0.  1.
         11   -1    0    0    0    0 -0.00000000000E+00 -0.00000000000E+00 -0.45593999997E+02  0.45594000000E+02  0.51100000000E-03 0. -1.
    9900012    2    1    2    0    0 -0.90541649905E+01  0.39328087518E+02 -0.49486691680E+01  0.50528859601E+02  0.29999999243E+02 0.  0.
        -12    1    1    2    0    0  0.90541649905E+01 -0.39328087518E+02  0.49486691680E+01  0.40659140399E+02  0.00000000000E+00 0.  1.
         11    1    3    3    0    0 -0.87516746681E+01  0.34591257317E+02 -0.10435876042E+01  0.35696441946E+02  0.51100000000E-03 0. -1.
        -11    1    3    3    0    0  0.59681384505E+01  0.29659710799E+00  0.46412697369E+00  0.59935015240E+01  0.51100000000E-03 0.  1.
         12    1    3    3    0    0 -0.62706287730E+01  0.44402330928E+01 -0.43692085375E+01  0.88389161310E+01  0.00000000000E+00 0. -1.
</event>
<event>
 7    1  0.9865694E-013  0.5052884E+02  0.7816164E-02  0.1300439E+00
        -11   -1    0    0    0    0  0.00000000000E+00  0.00000000000E+00  0.45593999997E+02  0.45594000000E+02  0.51100000000E-03 0.  1.
         11   -1    0    0    0    0 -0.00000000000E+00 -0.00000000000E+00 -0.45593999997E+02  0.45594000000E+02  0.51100000000E-03 0. -1.
    9900012    2    1    2    0    0 -0.52077887115E+01  0.38610142343E+02 -0.11632004684E+02  0.50528835129E+02  0.29999924858E+02 0.  0.
        -12    1    1    2    0    0  0.52077887115E+01 -0.38610142343E+02  0.11632004684E+02  0.40659164871E+02  0.00000000000E+00 0.  1.
         11    1    3    3    0    0 -0.73596230712E+01  0.10831099356E+02  0.51747501882E+01  0.14080298462E+02  0.51100000000E-03 0.  1.
        -11    1    3    3    0    0  0.70092734799E+01  0.24406084960E+02 -0.96496291417E+01  0.27164356069E+02  0.51100000000E-03 0. -1.
        -12    1    3    3    0    0 -0.48574391202E+01  0.33729580269E+01 -0.71571257301E+01  0.92841805979E+01  0.00000000000E+00 0.  1.
</event>
<event>
 7    1  0.9865694E-013  0.5052886E+02  0.7816164E-02  0.1300439E+00
        -11   -1    0    0    0    0  0.00000000000E+00  0.00000000000E+00  0.45593999997E+02  0.45594000000E+02  0.51100000000E-03 0. -1.
         11   -1    0    0    0    0 -0.00000000000E+00 -0.00000000000E+00 -0.45593999997E+02  0.45594000000E+02  0.51100000000E-03 0.  1.
    9900012    2    1    2    0    0  0.12478403857E+02  0.38406906791E+02  0.47291157802E+01  0.50528860952E+02  0.30000003350E+02 0.  0.
        -12    1    1    2    0    0 -0.12478403857E+02 -0.38406906791E+02 -0.47291157802E+01  0.40659139048E+02  0.00000000000E+00 0.  1.
         11    1    3    3    0    0  0.37194363433E+00  0.22469192474E+02 -0.85947408502E+01  0.24059769805E+02  0.51100000000E-03 0. -1.
        -11    1    3    3    0    0  0.32364822964E+01  0.12676478354E+02  0.99408239533E+01  0.16431308598E+02  0.51100000000E-03 0.  1.
        -12    1    3    3    0    0  0.88699779261E+01  0.32612359631E+01  0.33830326771E+01  0.10037782550E+02  0.00000000000E+00 0.  1.
</event>
<event>
 7    1  0.9865694E-013  0.5052886E+02  0.7816164E-02  0.1300439E+00
        -11   -1    0    0    0    0  0.00000000000E+00  0.00000000000E+00  0.45593999997E+02  0.45594000000E+02  0.51100000000E-03 0. -1.
         11   -1    0    0    0    0 -0.00000000000E+00 -0.00000000000E+00 -0.45593999997E+02  0.45594000000E+02  0.51100000000E-03 0.  1.
    9900012    2    1    2    0    0 -0.31690271586E+02 -0.25327507640E+02  0.27220590878E+01  0.50528861271E+02  0.30000004320E+02 0.  0.
        -12    1    1    2    0    0  0.31690271586E+02  0.25327507640E+02 -0.27220590878E+01  0.40659138729E+02  0.00000000000E+00 0.  1.
         11    1    3    3    0    0 -0.11744116331E+02 -0.17840245873E+01 -0.71504966802E+00  0.11900349088E+02  0.51100000000E-03 0. -1.
        -11    1    3    3    0    0  0.81853452768E+00 -0.16073807699E+02 -0.97600742558E+00  0.16124201794E+02  0.51100000000E-03 0.  1.
        -12    1    3    3    0    0 -0.20764689783E+02 -0.74696753538E+01  0.44131161814E+01  0.22504310389E+02  0.00000000000E+00 0.  1.
</event>
<event>
 7    1  0.9865694E-013  0.5052886E+02  0.7816164E-02  0.1300439E+00
        -11   -1    0    0    0    0  0.00000000000E+00  0.00000000000E+00  0.45593999997E+02  0.45594000000E+02  0.51100000000E-03 0. -1.
         11   -1    0    0    0    0 -0.00000000000E+00 -0.00000000000E+00 -0.45593999997E+02  0.45594000000E+02  0.51100000000E-03 0.  1.
    9900012    2    1    2    0    0 -0.17976899714E+02  0.35060337088E+02  0.10038390078E+02  0.50528862830E+02  0.30000009057E+02 0.  0.
        -12    1    1    2    0    0  0.17976899714E+02 -0.35060337088E+02 -0.10038390078E+02  0.40659137170E+02  0.00000000000E+00 0.  1.
         11    1    3    3    0    0 -0.15015748271E+02  0.17263048951E+02  0.11213939302E+02  0.25480148943E+02  0.51100000000E-03 0. -1.
        -11    1    3    3    0    0  0.66797141230E+01  0.72053824823E+01  0.27407977158E+01  0.10200396554E+02  0.51100000000E-03 0.  1.
         12    1    3    3    0    0 -0.96408655661E+01  0.10591905655E+02 -0.39163469396E+01  0.14848317333E+02  0.00000000000E+00 0. -1.
</event>
<event>
 7    1  0.9865694E-013  0.5052885E+02  0.7816164E-02  0.1300439E+00
        -11   -1    0    0    0    0  0.00000000000E+00  0.00000000000E+00  0.45593999997E+02  0.45594000000E+02  0.51100000000E-03 0.  1.
         11   -1    0    0    0    0 -0.00000000000E+00 -0.00000000000E+00 -0.45593999997E+02  0.45594000000E+02  0.51100000000E-03 0. -1.
    9900012    2    1    2    0    0 -0.37262061681E+02 -0.53011150616E+01  0.15381905464E+02  0.50528854936E+02  0.29999985063E+02 0.  0.
        -12    1    1    2    0    0  0.37262061681E+02  0.53011150616E+01 -0.15381905464E+02  0.40659145064E+02  0.00000000000E+00 0.  1.
         11    1    3    3    0    0 -0.17897423452E+02  0.21257225568E+01 -0.58940182333E+01  0.18962487015E+02  0.51100000000E-03 0. -1.
        -11    1    3    3    0    0 -0.73920028332E+01 -0.75077787115E+01  0.14120987075E+02  0.17618476759E+02  0.51100000000E-03 0.  1.
         12    1    3    3    0    0 -0.11972635396E+02  0.80941093169E-01  0.71549366228E+01  0.13947891162E+02  0.00000000000E+00 0. -1.
</event>
<event>
 7    1  0.9865694E-013  0.5052886E+02  0.7816164E-02  0.1300439E+00
        -11   -1    0    0    0    0  0.00000000000E+00  0.00000000000E+00  0.45593999997E+02  0.45594000000E+02  0.51100000000E-03 0.  1.
         11   -1    0    0    0    0 -0.00000000000E+00 -0.00000000000E+00 -0.45593999997E+02  0.45594000000E+02  0.51100000000E-03 0. -1.
    9900012    2    1    2    0    0 -0.24932859316E+02  0.20241995643E+02 -0.24935515602E+02  0.50528858351E+02  0.29999995445E+02 0.  0.
        -12    1    1    2    0    0  0.24932859316E+02 -0.20241995643E+02  0.24935515602E+02  0.40659141649E+02  0.00000000000E+00 0.  1.
         11    1    3    3    0    0 -0.37276357331E+01  0.18972313344E+02 -0.17689473283E+02  0.26206133005E+02  0.51100000000E-03 0. -1.
        -11    1    3    3    0    0 -0.26864341943E+01 -0.16804640355E+01  0.16440338518E+01  0.35698369181E+01  0.51100000000E-03 0.  1.
         12    1    3    3    0    0 -0.18518789389E+02  0.29501463344E+01 -0.88900761710E+01  0.20752888429E+02  0.00000000000E+00 0. -1.
</event>
<event>
 7    1  0.9865694E-013  0.5052886E+02  0.7816164E-02  0.1300439E+00
        -11   -1    0    0    0    0  0.00000000000E+00  0.00000000000E+00  0.45593999997E+02  0.45594000000E+02  0.51100000000E-03 0. -1.
         11   -1    0    0    0    0 -0.00000000000E+00 -0.00000000000E+00 -0.45593999997E+02  0.45594000000E+02  0.51100000000E-03 0.  1.
    9900012    2    1    2    0    0 -0.21163732699E+02  0.21474861728E+02  0.27278063071E+02  0.50528855975E+02  0.29999988221E+02 0.  0.
        -12    1    1    2    0    0  0.21163732699E+02 -0.21474861728E+02 -0.27278063071E+02  0.40659144025E+02  0.00000000000E+00 0.  1.
         11    1    3    3    0    0  0.34263095900E+01  0.38573559522E+01  0.93849240576E+01  0.10709602802E+02  0.51100000000E-03 0. -1.
        -11    1    3    3    0    0 -0.25986004431E+02  0.11689580326E+02  0.18044709714E+02  0.33727292560E+02  0.51100000000E-03 0.  1.
        -12    1    3    3    0    0  0.13959621414E+01  0.59279254490E+01 -0.15157070144E+00  0.60919606127E+01  0.00000000000E+00 0.  1.
</event>
<event>
 7    1  0.9865694E-013  0.5052887E+02  0.7816164E-02  0.1300439E+00
        -11   -1    0    0    0    0  0.00000000000E+00  0.00000000000E+00  0.45593999997E+02  0.45594000000E+02  0.51100000000E-03 0.  1.
         11   -1    0    0    0    0 -0.00000000000E+00 -0.00000000000E+00 -0.45593999997E+02  0.45594000000E+02  0.51100000000E-03 0. -1.
    9900012    2    1    2    0    0  0.24439467245E+02 -0.11564950039E+02 -0.30366583382E+02  0.50528868001E+02  0.30000024775E+02 0.  0.
        -12    1    1    2    0    0 -0.24439467245E+02  0.11564950039E+02  0.30366583382E+02  0.40659131999E+02  0.00000000000E+00 0.  1.
         11    1    3    3    0    0  0.68967237580E+01  0.47387520883E+00 -0.13066607257E+02  0.14782610791E+02  0.51100000000E-03 0. -1.
        -11    1    3    3    0    0  0.55438234924E+01 -0.13744578390E+02 -0.24361128031E+00  0.14822508585E+02  0.51100000000E-03 0.  1.
        -12    1    3    3    0    0  0.11998919995E+02  0.17057531423E+01 -0.17056364844E+02  0.20923748625E+02  0.00000000000E+00 0.  1.
</event>
<event>
 7    1  0.9865694E-013  0.5052886E+02  0.7816164E-02  0.1300439E+00
        -11   -1    0    0    0    0  0.00000000000E+00  0.00000000000E+00  0.45593999997E+02  0.45594000000E+02  0.51100000000E-03 0.  1.
         11   -1    0    0    0    0 -0.00000000000E+00 -0.00000000000E+00 -0.45593999997E+02  0.45594000000E+02  0.51100000000E-03 0. -1.
    9900012    2    1    2    0    0  0.26188608485E+02 -0.40449978237E+01 -0.30837641732E+02  0.50528863642E+02  0.30000011525E+02 0.  0.
        -12    1    1    2    0    0 -0.26188608485E+02  0.40449978237E+01  0.30837641732E+02  0.40659136358E+02  0.00000000000E+00 0.  1.
         11    1    3    3    0    0 -0.26388460925E+01 -0.73140895031E+00 -0.57239653469E+01  0.63452539197E+01  0.51100000000E-03 0. -1.
        -11    1    3    3    0    0  0.29729729081E+02  0.14067622621E+01 -0.15784974987E+02  0.33689778967E+02  0.51100000000E-03 0.  1.
        -12    1    3    3    0    0 -0.90227450293E+00 -0.47203511355E+01 -0.93287013986E+01  0.10493830755E+02  0.00000000000E+00 0.  1.
</event>
<event>
 7    1  0.9865694E-013  0.5052874E+02  0.7816164E-02  0.1300439E+00
        -11   -1    0    0    0    0  0.00000000000E+00  0.00000000000E+00  0.45593999997E+02  0.45594000000E+02  0.51100000000E-03 0.  1.
         11   -1    0    0    0    0 -0.00000000000E+00 -0.00000000000E+00 -0.45593999997E+02  0.45594000000E+02  0.51100000000E-03 0. -1.
    9900012    2    1    2    0    0 -0.11704698110E+02 -0.28282923561E+02 -0.26762872233E+02  0.50528744557E+02  0.29999649552E+02 0.  0.
        -12    1    1    2    0    0  0.11704698110E+02  0.28282923561E+02  0.26762872233E+02  0.40659255443E+02  0.00000000000E+00 0.  1.
         11    1    3    3    0    0 -0.35366257160E+01 -0.31583457426E+02 -0.22428136034E+02  0.38897863574E+02  0.51100000000E-03 0. -1.
        -11    1    3    3    0    0 -0.16356811804E+01  0.17500131599E+01  0.14230267442E+01  0.27862168544E+01  0.51100000000E-03 0.  1.
         12    1    3    3    0    0 -0.65323912139E+01  0.15505207044E+01 -0.57577629437E+01  0.88446641283E+01  0.00000000000E+00 0. -1.
</event>
<event>
 7    1  0.9865694E-013  0.5052886E+02  0.7816164E-02  0.1300439E+00
        -11   -1    0    0    0    0  0.00000000000E+00  0.00000000000E+00  0.45593999997E+02  0.45594000000E+02  0.51100000000E-03 0. -1.
         11   -1    0    0    0    0 -0.00000000000E+00 -0.00000000000E+00 -0.45593999997E+02  0.45594000000E+02  0.51100000000E-03 0.  1.
    9900012    2    1    2    0    0 -0.34492123723E+02 -0.76546326011E+01  0.20121265652E+02  0.50528864119E+02  0.30000012975E+02 0.  0.
        -12    1    1    2    0    0  0.34492123723E+02  0.76546326011E+01 -0.20121265652E+02  0.40659135881E+02  0.00000000000E+00 0.  1.
         11    1    3    3    0    0 -0.24226159200E+02  0.68355105513E+01  0.12377175754E+02  0.28050409515E+02  0.51100000000E-03 0. -1.
        -11    1    3    3    0    0 -0.77217188814E+01 -0.10930403562E+02 -0.22781017798E+00  0.13384713753E+02  0.51100000000E-03 0.  1.
         12    1    3    3    0    0 -0.25442456420E+01 -0.35597395906E+01  0.79719000757E+01  0.90937408505E+01  0.00000000000E+00 0. -1.
</event>
<event>
 7    1  0.9865694E-013  0.5052885E+02  0.7816164E-02  0.1300439E+00
        -11   -1    0    0    0    0  0.00000000000E+00  0.00000000000E+00  0.45593999997E+02  0.45594000000E+02  0.51100000000E-03 0.  1.
         11   -1    0    0    0    0 -0.00000000000E+00 -0.00000000000E+00 -0.45593999997E+02  0.45594000000E+02  0.51100000000E-03 0. -1.
    9900012    2    1    2    0    0 -0.95109707278E+01 -0.21585263546E+02 -0.33117733394E+02  0.50528850578E+02  0.29999971818E+02 0.  0.
        -12    1    1    2    0    0  0.95109707278E+01  0.21585263546E+02  0.33117733394E+02  0.40659149422E+02  0.00000000000E+00 0.  1.
         11    1    3    3    0    0 -0.13881359505E+01 -0.98326640457E+00 -0.68831211119E+01  0.70902109095E+01  0.51100000000E-03 0. -1.
        -11    1    3    3    0    0  0.73189498835E+01 -0.10950342244E+02 -0.23098282529E+01  0.13372072744E+02  0.51100000000E-03 0.  1.
        -12    1    3    3    0    0 -0.15441784661E+02 -0.96516548972E+01 -0.23924784030E+02  0.30066566925E+02  0.00000000000E+00 0.  1.
</event>
<event>
 7    1  0.9865694E-013  0.5052886E+02  0.7816164E-02  0.1300439E+00
        -11   -1    0    0    0    0  0.00000000000E+00  0.00000000000E+00  0.45593999997E+02  0.45594000000E+02  0.51100000000E-03 0. -1.
         11   -1    0    0    0    0 -0.00000000000E+00 -0.00000000000E+00 -0.45593999997E+02  0.45594000000E+02  0.51100000000E-03 0.  1.
    9900012    2    1    2    0    0  0.38443387222E+02  0.12230495893E+02 -0.50682015352E+01  0.50528859359E+02  0.29999998506E+02 0.  0.
        -12    1    1    2    0    0 -0.38443387222E+02 -0.12230495893E+02  0.50682015352E+01  0.40659140641E+02  0.00000000000E+00 0.  1.
         11    1    3    3    0    0  0.20228351889E+02  0.16929553621E+02  0.58952369933E+01  0.27028685233E+02  0.51100000000E-03 0. -1.
        -11    1    3    3    0    0  0.58859640123E+00 -0.17466359788E+01 -0.38426671003E+01  0.42618392357E+01  0.51100000000E-03 0.  1.
         12    1    3    3    0    0  0.17626438932E+02 -0.29524217492E+01 -0.71207714282E+01  0.19238334890E+02  0.00000000000E+00 0. -1.
</event>
<event>
 7    1  0.9865694E-013  0.5052889E+02  0.7816164E-02  0.1300439E+00
        -11   -1    0    0    0    0  0.00000000000E+00  0.00000000000E+00  0.45593999997E+02  0.45594000000E+02  0.51100000000E-03 0.  1.
         11   -1    0    0    0    0 -0.00000000000E+00 -0.00000000000E+00 -0.45593999997E+02  0.45594000000E+02  0.51100000000E-03 0. -1.
    9900012    2    1    2    0    0  0.34990290242E+02  0.12997426029E+02 -0.16121716628E+02  0.50528889808E+02  0.30000091060E+02 0.  0.
        -12    1    1    2    0    0 -0.34990290242E+02 -0.12997426029E+02  0.16121716628E+02  0.40659110192E+02  0.00000000000E+00 0.  1.
         11    1    3    3    0    0  0.17639513544E+02  0.10976749392E+02 -0.21199877868E+02  0.29682929221E+02  0.51100000000E-03 0. -1.
        -11    1    3    3    0    0 -0.63922968006E+00  0.16436601412E+01  0.18660358429E+01  0.25675519998E+01  0.51100000000E-03 0.  1.
         12    1    3    3    0    0  0.17990006378E+02  0.37701649618E+00  0.32121253967E+01  0.18278408587E+02  0.00000000000E+00 0. -1.
</event>
<event>
 7    1  0.9865694E-013  0.5052885E+02  0.7816164E-02  0.1300439E+00
        -11   -1    0    0    0    0  0.00000000000E+00  0.00000000000E+00  0.45593999997E+02  0.45594000000E+02  0.51100000000E-03 0. -1.
         11   -1    0    0    0    0 -0.00000000000E+00 -0.00000000000E+00 -0.45593999997E+02  0.45594000000E+02  0.51100000000E-03 0.  1.
    9900012    2    1    2    0    0  0.21196584659E+02  0.31520804176E+02 -0.14502088504E+02  0.50528845212E+02  0.29999955506E+02 0.  0.
        -12    1    1    2    0    0 -0.21196584659E+02 -0.31520804176E+02  0.14502088504E+02  0.40659154788E+02  0.00000000000E+00 0.  1.
         11    1    3    3    0    0  0.33055406292E-01  0.13740847119E+02 -0.13998180398E+01  0.13812004309E+02  0.51100000000E-03 0. -1.
        -11    1    3    3    0    0  0.14764576056E+02  0.84411445308E+01  0.27593747763E+01  0.17229619163E+02  0.51100000000E-03 0.  1.
        -12    1    3    3    0    0  0.63989531966E+01  0.93388125261E+01 -0.15861645240E+02  0.19487221740E+02  0.00000000000E+00 0.  1.
</event>
<event>
 7    1  0.9865694E-013  0.5052886E+02  0.7816164E-02  0.1300439E+00
        -11   -1    0    0    0    0  0.00000000000E+00  0.00000000000E+00  0.45593999997E+02  0.45594000000E+02  0.51100000000E-03 0.  1.
         11   -1    0    0    0    0 -0.00000000000E+00 -0.00000000000E+00 -0.45593999997E+02  0.45594000000E+02  0.51100000000E-03 0. -1.
    9900012    2    1    2    0    0 -0.32787832387E+02  0.16756986934E+02 -0.17243176831E+02  0.50528859441E+02  0.29999998757E+02 0.  0.
        -12    1    1    2    0    0  0.32787832387E+02 -0.16756986934E+02  0.17243176831E+02  0.40659140559E+02  0.00000000000E+00 0.  1.
         11    1    3    3    0    0 -0.27258445489E+02  0.98734649929E+01 -0.15106778214E+02  0.32691327745E+02  0.51100000000E-03 0. -1.
        -11    1    3    3    0    0 -0.46439047762E+01 -0.36736832975E+01  0.22994239586E+01  0.63520981843E+01  0.51100000000E-03 0.  1.
         12    1    3    3    0    0 -0.88548212253E+00  0.10557205239E+02 -0.44358225753E+01  0.11485433512E+02  0.00000000000E+00 0. -1.
</event>
<event>
 7    1  0.9865694E-013  0.5052885E+02  0.7816164E-02  0.1300439E+00
        -11   -1    0    0    0    0  0.00000000000E+00  0.00000000000E+00  0.45593999997E+02  0.45594000000E+02  0.51100000000E-03 0. -1.
         11   -1    0    0    0    0 -0.00000000000E+00 -0.00000000000E+00 -0.45593999997E+02  0.45594000000E+02  0.51100000000E-03 0.  1.
    9900012    2    1    2    0    0 -0.35301262549E+02 -0.17412043608E+00 -0.20173166344E+02  0.50528854709E+02  0.29999984373E+02 0.  0.
        -12    1    1    2    0    0  0.35301262549E+02  0.17412043608E+00  0.20173166344E+02  0.40659145291E+02  0.00000000000E+00 0.  1.
         11    1    3    3    0    0 -0.15108302522E+02 -0.58102365422E+01 -0.12022903069E+02  0.20163577367E+02  0.51100000000E-03 0. -1.
        -11    1    3    3    0    0 -0.50546754183E+01  0.67091770912E+01  0.54280660290E+01  0.10001335006E+02  0.51100000000E-03 0.  1.
        -12    1    3    3    0    0 -0.15138284608E+02 -0.10730609851E+01 -0.13578329304E+02  0.20363942336E+02  0.00000000000E+00 0.  1.
</event>
<event>
 7    1  0.9865694E-013  0.5052886E+02  0.7816164E-02  0.1300439E+00
        -11   -1    0    0    0    0  0.00000000000E+00  0.00000000000E+00  0.45593999997E+02  0.45594000000E+02  0.51100000000E-03 0.  1.
         11   -1    0    0    0    0 -0.00000000000E+00 -0.00000000000E+00 -0.45593999997E+02  0.45594000000E+02  0.51100000000E-03 0. -1.
    9900012    2    1    2    0    0 -0.24146728666E+02  0.23876866225E+01 -0.32625151088E+02  0.50528855442E+02  0.29999986602E+02 0.  0.
        -12    1    1    2    0    0  0.24146728666E+02 -0.23876866225E+01  0.32625151088E+02  0.40659144558E+02  0.00000000000E+00 0.  1.
         11    1    3    3    0    0 -0.20004093767E+02 -0.32731191431E+01 -0.10477281241E+02  0.22817767174E+02  0.51100000000E-03 0. -1.
        -11    1    3    3    0    0  0.45192979698E+01  0.17671874452E+01 -0.16590015160E+01  0.51282835235E+01  0.51100000000E-03 0.  1.
        -12    1    3    3    0    0 -0.86619328693E+01  0.38936183203E+01 -0.20488868331E+02  0.22582804745E+02  0.00000000000E+00 0.  1.
</event>
<event>
 7    1  0.9865694E-013  0.5052886E+02  0.7816164E-02  0.1300439E+00
        -11   -1    0    0    0    0  0.00000000000E+00  0.00000000000E+00  0.45593999997E+02  0.45594000000E+02  0.51100000000E-03 0. -1.
         11   -1    0    0    0    0 -0.00000000000E+00 -0.00000000000E+00 -0.45593999997E+02  0.45594000000E+02  0.51100000000E-03 0.  1.
    9900012    2    1    2    0    0  0.24678711016E+02 -0.23963274052E+02  0.21676901805E+02  0.50528863849E+02  0.30000012155E+02 0.  0.
        -12    1    1    2    0    0 -0.24678711016E+02  0.23963274052E+02 -0.21676901805E+02  0.40659136151E+02  0.00000000000E+00 0.  1.
         11    1    3    3    0    0  0.64674020342E+01 -0.29766564872E+01  0.24887886526E+01  0.75420051798E+01  0.51100000000E-03 0. -1.
        -11    1    3    3    0    0 -0.50465715886E+01 -0.64608906464E+01 -0.18747351839E+01  0.84098528533E+01  0.51100000000E-03 0.  1.
        -12    1    3    3    0    0  0.23257880570E+02 -0.14525726918E+02  0.21062848336E+02  0.34577005816E+02  0.00000000000E+00 0.  1.
</event>
<event>
 7    1  0.9865694E-013  0.5052885E+02  0.7816164E-02  0.1300439E+00
        -11   -1    0    0    0    0  0.00000000000E+00  0.00000000000E+00  0.45593999997E+02  0.45594000000E+02  0.51100000000E-03 0.  1.
         11   -1    0    0    0    0 -0.00000000000E+00 -0.00000000000E+00 -0.45593999997E+02  0.45594000000E+02  0.51100000000E-03 0. -1.
    9900012    2    1    2    0    0 -0.32425663079E+02 -0.20413456201E+02 -0.13602694163E+02  0.50528854551E+02  0.29999983892E+02 0.  0.
        -12    1    1    2    0    0  0.32425663079E+02  0.20413456201E+02  0.13602694163E+02  0.40659145449E+02  0.00000000000E+00 0.  1.
         11    1    3    3    0    0 -0.31705936005E+02 -0.80901396988E+01 -0.11438377941E+02  0.34663427823E+02  0.51100000000E-03 0. -1.
        -11    1    3    3    0    0  0.18328404902E+01 -0.51981788237E+00  0.23033719063E+01  0.29891532736E+01  0.51100000000E-03 0.  1.
         12    1    3    3    0    0 -0.25525675641E+01 -0.11803498620E+02 -0.44676881286E+01  0.12876273454E+02  0.00000000000E+00 0. -1.
</event>
<event>
 7    1  0.9865694E-013  0.5052891E+02  0.7816164E-02  0.1300439E+00
        -11   -1    0    0    0    0  0.00000000000E+00  0.00000000000E+00  0.45593999997E+02  0.45594000000E+02  0.51100000000E-03 0.  1.
         11   -1    0    0    0    0 -0.00000000000E+00 -0.00000000000E+00 -0.45593999997E+02  0.45594000000E+02  0.51100000000E-03 0. -1.
    9900012    2    1    2    0    0 -0.23164848617E+01  0.40028027007E+02 -0.67492359287E+01  0.50528914499E+02  0.30000166110E+02 0.  0.
        -12    1    1    2    0    0  0.23164848617E+01 -0.40028027007E+02  0.67492359287E+01  0.40659085501E+02  0.00000000000E+00 0.  1.
         11    1    3    3    0    0 -0.90884847190E+01  0.25962754135E+01 -0.10704891500E+01  0.95124732742E+01  0.51100000000E-03 0.  1.
        -11    1    3    3    0    0  0.74095675832E+01  0.19074235958E+02 -0.89920902163E+01  0.22351417312E+02  0.51100000000E-03 0. -1.
         12    1    3    3    0    0 -0.63756772591E+00  0.18357515635E+02  0.33133434376E+01  0.18665023912E+02  0.00000000000E+00 0. -1.
</event>
<event>
 7    1  0.9865694E-013  0.5052889E+02  0.7816164E-02  0.1300439E+00
        -11   -1    0    0    0    0  0.00000000000E+00  0.00000000000E+00  0.45593999997E+02  0.45594000000E+02  0.51100000000E-03 0.  1.
         11   -1    0    0    0    0 -0.00000000000E+00 -0.00000000000E+00 -0.45593999997E+02  0.45594000000E+02  0.51100000000E-03 0. -1.
    9900012    2    1    2    0    0  0.71019206821E+01  0.39690108940E+02 -0.52365299156E+01  0.50528889452E+02  0.30000089977E+02 0.  0.
        -12    1    1    2    0    0 -0.71019206821E+01 -0.39690108940E+02  0.52365299156E+01  0.40659110548E+02  0.00000000000E+00 0.  1.
         11    1    3    3    0    0  0.66301574812E+01  0.56679889375E+01  0.90046510778E+01  0.12536699251E+02  0.51100000000E-03 0.  1.
        -11    1    3    3    0    0 -0.82188602451E+00  0.32250266439E+02 -0.15120815609E+02  0.35628559429E+02  0.51100000000E-03 0. -1.
         12    1    3    3    0    0  0.12936492254E+01  0.17718535632E+01  0.87963461545E+00  0.23636307716E+01  0.00000000000E+00 0. -1.
</event>
<event>
 7    1  0.9865694E-013  0.5052894E+02  0.7816164E-02  0.1300439E+00
        -11   -1    0    0    0    0  0.00000000000E+00  0.00000000000E+00  0.45593999997E+02  0.45594000000E+02  0.51100000000E-03 0.  1.
         11   -1    0    0    0    0 -0.00000000000E+00 -0.00000000000E+00 -0.45593999997E+02  0.45594000000E+02  0.51100000000E-03 0. -1.
    9900012    2    1    2    0    0  0.12450681695E+02 -0.13321244924E+02 -0.36341221880E+02  0.50528936451E+02  0.30000232835E+02 0.  0.
        -12    1    1    2    0    0 -0.12450681695E+02  0.13321244924E+02  0.36341221880E+02  0.40659063549E+02  0.00000000000E+00 0.  1.
         11    1    3    3    0    0  0.16612520838E+02 -0.39523277554E+01 -0.26163243057E+02  0.31242791662E+02  0.51100000000E-03 0. -1.
        -11    1    3    3    0    0 -0.81182884060E+01 -0.72540319596E+01 -0.10021435861E+02  0.14797187682E+02  0.51100000000E-03 0.  1.
         12    1    3    3    0    0  0.39564492628E+01 -0.21148852085E+01 -0.15654296186E+00  0.44889571075E+01  0.00000000000E+00 0. -1.
</event>
<event>
 7    1  0.9865694E-013  0.5052886E+02  0.7816164E-02  0.1300439E+00
        -11   -1    0    0    0    0  0.00000000000E+00  0.00000000000E+00  0.45593999997E+02  0.45594000000E+02  0.51100000000E-03 0. -1.
         11   -1    0    0    0    0 -0.00000000000E+00 -0.00000000000E+00 -0.45593999997E+02  0.45594000000E+02  0.51100000000E-03 0.  1.
    9900012    2    1    2    0    0  0.97635434539E+01 -0.10241989359E+02  0.38117453692E+02  0.50528863232E+02  0.30000010279E+02 0.  0.
        -12    1    1    2    0    0 -0.97635434539E+01  0.10241989359E+02 -0.38117453692E+02  0.40659136768E+02  0.00000000000E+00 0.  1.
         11    1    3    3    0    0  0.21438462527E+01 -0.36515110957E+00  0.35647958774E+02  0.35714232137E+02  0.51100000000E-03 0. -1.
        -11    1    3    3    0    0 -0.53746840429E+00 -0.70374640379E+00 -0.16448758150E+01  0.18680867202E+01  0.51100000000E-03 0.  1.
         12    1    3    3    0    0  0.81571656055E+01 -0.91730918454E+01  0.41143707326E+01  0.12946544375E+02  0.00000000000E+00 0. -1.
</event>
<event>
 7    1  0.9865694E-013  0.5052887E+02  0.7816164E-02  0.1300439E+00
        -11   -1    0    0    0    0  0.00000000000E+00  0.00000000000E+00  0.45593999997E+02  0.45594000000E+02  0.51100000000E-03 0.  1.
         11   -1    0    0    0    0 -0.00000000000E+00 -0.00000000000E+00 -0.45593999997E+02  0.45594000000E+02  0.51100000000E-03 0. -1.
    9900012    2    1    2    0    0 -0.12514722508E+02 -0.26217781848E+01 -0.38596277688E+02  0.50528872468E+02  0.30000038354E+02 0.  0.
        -12    1    1    2    0    0  0.12514722508E+02  0.26217781848E+01  0.38596277688E+02  0.40659127532E+02  0.00000000000E+00 0.  1.
         11    1    3    3    0    0 -0.89756029407E+01 -0.48660198963E+01 -0.10322287845E+02  0.14518582038E+02  0.51100000000E-03 0. -1.
        -11    1    3    3    0    0  0.23026388579E+01  0.65806056105E+01 -0.27864506978E+02  0.28723461931E+02  0.51100000000E-03 0.  1.
        -12    1    3    3    0    0 -0.58417584252E+01 -0.43363638990E+01 -0.40948286520E+00  0.72868284994E+01  0.00000000000E+00 0.  1.
</event>
<event>
 7    1  0.9865694E-013  0.5052886E+02  0.7816164E-02  0.1300439E+00
        -11   -1    0    0    0    0  0.00000000000E+00  0.00000000000E+00  0.45593999997E+02  0.45594000000E+02  0.51100000000E-03 0.  1.
         11   -1    0    0    0    0 -0.00000000000E+00 -0.00000000000E+00 -0.45593999997E+02  0.45594000000E+02  0.51100000000E-03 0. -1.
    9900012    2    1    2    0    0 -0.24585023566E+02 -0.31445317269E+02 -0.77417271208E+01  0.50528859567E+02  0.29999999141E+02 0.  0.
        -12    1    1    2    0    0  0.24585023566E+02  0.31445317269E+02  0.77417271208E+01  0.40659140433E+02  0.00000000000E+00 0.  1.
         11    1    3    3    0    0 -0.10624675298E+02 -0.12058132601E+02 -0.81173777799E+01  0.18004835720E+02  0.51100000000E-03 0. -1.
        -11    1    3    3    0    0  0.40804702555E+00 -0.47129308359E+01  0.90641776553E+01  0.10224359944E+02  0.51100000000E-03 0.  1.
        -12    1    3    3    0    0 -0.14368395294E+02 -0.14674253832E+02 -0.86885269962E+01  0.22299663904E+02  0.00000000000E+00 0.  1.
</event>
<event>
 7    1  0.9865694E-013  0.5052886E+02  0.7816164E-02  0.1300439E+00
        -11   -1    0    0    0    0  0.00000000000E+00  0.00000000000E+00  0.45593999997E+02  0.45594000000E+02  0.51100000000E-03 0.  1.
         11   -1    0    0    0    0 -0.00000000000E+00 -0.00000000000E+00 -0.45593999997E+02  0.45594000000E+02  0.51100000000E-03 0. -1.
    9900012    2    1    2    0    0 -0.23145622104E+02 -0.30832404933E+01 -0.33285721467E+02  0.50528862674E+02  0.30000008583E+02 0.  0.
        -12    1    1    2    0    0  0.23145622104E+02  0.30832404933E+01  0.33285721467E+02  0.40659137326E+02  0.00000000000E+00 0.  1.
         11    1    3    3    0    0 -0.80706553756E+01  0.85774252800E+01 -0.18000394349E+02  0.21510971610E+02  0.51100000000E-03 0. -1.
        -11    1    3    3    0    0 -0.16311162896E+02 -0.59882547694E+01 -0.15390113153E+02  0.23211394041E+02  0.51100000000E-03 0.  1.
         12    1    3    3    0    0  0.12361961671E+01 -0.56724110039E+01  0.10478603509E+00  0.58064970226E+01  0.00000000000E+00 0. -1.
</event>
<event>
 7    1  0.9865694E-013  0.5052884E+02  0.7816164E-02  0.1300439E+00
        -11   -1    0    0    0    0  0.00000000000E+00  0.00000000000E+00  0.45593999997E+02  0.45594000000E+02  0.51100000000E-03 0. -1.
         11   -1    0    0    0    0 -0.00000000000E+00 -0.00000000000E+00 -0.45593999997E+02  0.45594000000E+02  0.51100000000E-03 0.  1.
    9900012    2    1    2    0    0  0.83623746092E+01  0.39770439076E+02  0.12450354461E+01  0.50528840556E+02  0.29999941355E+02 0.  0.
        -12    1    1    2    0    0 -0.83623746092E+01 -0.39770439076E+02 -0.12450354461E+01  0.40659159444E+02  0.00000000000E+00 0.  1.
         11    1    3    3    0    0  0.14365731238E+02  0.21051490672E+02  0.75186140993E+01  0.26571959878E+02  0.51100000000E-03 0. -1.
        -11    1    3    3    0    0 -0.22724792627E+01 -0.13406342442E+01 -0.13673149389E+01  0.29717019667E+01  0.51100000000E-03 0.  1.
         12    1    3    3    0    0 -0.37308773659E+01  0.20059582648E+02 -0.49062637143E+01  0.20985178712E+02  0.00000000000E+00 0. -1.
</event>
<event>
 7    1  0.9865694E-013  0.5052886E+02  0.7816164E-02  0.1300439E+00
        -11   -1    0    0    0    0  0.00000000000E+00  0.00000000000E+00  0.45593999997E+02  0.45594000000E+02  0.51100000000E-03 0. -1.
         11   -1    0    0    0    0 -0.00000000000E+00 -0.00000000000E+00 -0.45593999997E+02  0.45594000000E+02  0.51100000000E-03 0.  1.
    9900012    2    1    2    0    0  0.16399136493E+02  0.30015870872E+02  0.21983666621E+02  0.50528858592E+02  0.29999996176E+02 0.  0.
        -12    1    1    2    0    0 -0.16399136493E+02 -0.30015870872E+02 -0.21983666621E+02  0.40659141408E+02  0.00000000000E+00 0.  1.
         11    1    3    3    0    0  0.72781683944E+01  0.31435769354E+02  0.12053513478E+02  0.34445123276E+02  0.51100000000E-03 0. -1.
        -11    1    3    3    0    0  0.98618847067E+00  0.29087400225E+01  0.94508524618E+00  0.32134907191E+01  0.51100000000E-03 0.  1.
         12    1    3    3    0    0  0.81347796276E+01 -0.43286385038E+01  0.89850678967E+01  0.12870244597E+02  0.00000000000E+00 0. -1.
</event>
<event>
 7    1  0.9865694E-013  0.5052887E+02  0.7816164E-02  0.1300439E+00
        -11   -1    0    0    0    0  0.00000000000E+00  0.00000000000E+00  0.45593999997E+02  0.45594000000E+02  0.51100000000E-03 0.  1.
         11   -1    0    0    0    0 -0.00000000000E+00 -0.00000000000E+00 -0.45593999997E+02  0.45594000000E+02  0.51100000000E-03 0. -1.
    9900012    2    1    2    0    0  0.38560151705E+01 -0.21101856559E+02 -0.34539947712E+02  0.50528865834E+02  0.30000018189E+02 0.  0.
        -12    1    1    2    0    0 -0.38560151705E+01  0.21101856559E+02  0.34539947712E+02  0.40659134166E+02  0.00000000000E+00 0.  1.
         11    1    3    3    0    0  0.22800056398E+01 -0.26629132577E+02 -0.23928976123E+02  0.35873458518E+02  0.51100000000E-03 0. -1.
        -11    1    3    3    0    0  0.20056611720E+01  0.58406767522E+01 -0.27223484503E+01  0.67488786480E+01  0.51100000000E-03 0.  1.
        -12    1    3    3    0    0 -0.42965164125E+00 -0.31340073402E+00 -0.78886231384E+01  0.79065286677E+01  0.00000000000E+00 0.  1.
</event>
<event>
 7    1  0.9865694E-013  0.5052886E+02  0.7816164E-02  0.1300439E+00
        -11   -1    0    0    0    0  0.00000000000E+00  0.00000000000E+00  0.45593999997E+02  0.45594000000E+02  0.51100000000E-03 0.  1.
         11   -1    0    0    0    0 -0.00000000000E+00 -0.00000000000E+00 -0.45593999997E+02  0.45594000000E+02  0.51100000000E-03 0. -1.
    9900012    2    1    2    0    0  0.19786327202E+02 -0.45845716831E+01 -0.35222842105E+02  0.50528860221E+02  0.30000001126E+02 0.  0.
        -12    1    1    2    0    0 -0.19786327202E+02  0.45845716831E+01  0.35222842105E+02  0.40659139779E+02  0.00000000000E+00 0.  1.
         11    1    3    3    0    0  0.61515504632E+01  0.51218090794E+01 -0.16566913888E+01  0.81742967873E+01  0.51100000000E-03 0. -1.
        -11    1    3    3    0    0  0.18727660108E+02 -0.72500618858E+01 -0.27622803742E+02  0.34151250889E+02  0.51100000000E-03 0.  1.
        -12    1    3    3    0    0 -0.50928833694E+01 -0.24563188767E+01 -0.59433469745E+01  0.82033125442E+01  0.00000000000E+00 0.  1.
</event>
<event>
 7    1  0.9865694E-013  0.5052886E+02  0.7816164E-02  0.1300439E+00
        -11   -1    0    0    0    0  0.00000000000E+00  0.00000000000E+00  0.45593999997E+02  0.45594000000E+02  0.51100000000E-03 0.  1.
         11   -1    0    0    0    0 -0.00000000000E+00 -0.00000000000E+00 -0.45593999997E+02  0.45594000000E+02  0.51100000000E-03 0. -1.
    9900012    2    1    2    0    0 -0.12621479699E+02  0.24506360065E+02 -0.29888159028E+02  0.50528862239E+02  0.30000007261E+02 0.  0.
        -12    1    1    2    0    0  0.12621479699E+02 -0.24506360065E+02  0.29888159028E+02  0.40659137761E+02  0.00000000000E+00 0.  1.
         11    1    3    3    0    0 -0.97412497467E+01  0.17481609425E+02 -0.34262159268E+01  0.20303634418E+02  0.51100000000E-03 0.  1.
        -11    1    3    3    0    0 -0.57678367484E+01  0.65851487899E+01 -0.25780092965E+02  0.27225820812E+02  0.51100000000E-03 0. -1.
         12    1    3    3    0    0  0.28876067965E+01  0.43960184982E+00 -0.68185013560E+00  0.29994070089E+01  0.00000000000E+00 0. -1.
</event>
<event>
 7    1  0.9865694E-013  0.5052885E+02  0.7816164E-02  0.1300439E+00
        -11   -1    0    0    0    0  0.00000000000E+00  0.00000000000E+00  0.45593999997E+02  0.45594000000E+02  0.51100000000E-03 0. -1.
         11   -1    0    0    0    0 -0.00000000000E+00 -0.00000000000E+00 -0.45593999997E+02  0.45594000000E+02  0.51100000000E-03 0.  1.
    9900012    2    1    2    0    0  0.35872210754E+02 -0.10058986833E+02  0.16283970817E+02  0.50528850648E+02  0.29999972030E+02 0.  0.
        -12    1    1    2    0    0 -0.35872210754E+02  0.10058986833E+02 -0.16283970817E+02  0.40659149352E+02  0.00000000000E+00 0.  1.
         11    1    3    3    0    0  0.35173768249E+01  0.50448397952E+01  0.79813810872E+01  0.10075951201E+02  0.51100000000E-03 0. -1.
        -11    1    3    3    0    0  0.88127747307E+01 -0.41966590816E+01 -0.53533328147E+01  0.11132615074E+02  0.51100000000E-03 0.  1.
         12    1    3    3    0    0  0.23542059198E+02 -0.10907167546E+02  0.13655922544E+02  0.29320284373E+02  0.00000000000E+00 0. -1.
</event>
<event>
 7    1  0.9865694E-013  0.5052886E+02  0.7816164E-02  0.1300439E+00
        -11   -1    0    0    0    0  0.00000000000E+00  0.00000000000E+00  0.45593999997E+02  0.45594000000E+02  0.51100000000E-03 0.  1.
         11   -1    0    0    0    0 -0.00000000000E+00 -0.00000000000E+00 -0.45593999997E+02  0.45594000000E+02  0.51100000000E-03 0. -1.
    9900012    2    1    2    0    0 -0.17427325193E+01 -0.19759959505E+02 -0.35491869338E+02  0.50528857051E+02  0.29999991492E+02 0.  0.
        -12    1    1    2    0    0  0.17427325193E+01  0.19759959505E+02  0.35491869338E+02  0.40659142949E+02  0.00000000000E+00 0.  1.
         11    1    3    3    0    0  0.18219214973E+01 -0.15681622924E+02 -0.31339605372E+02  0.35091360198E+02  0.51100000000E-03 0. -1.
        -11    1    3    3    0    0  0.14863702493E+01  0.21272357320E+01  0.35059130685E+01  0.43618637166E+01  0.51100000000E-03 0.  1.
        -12    1    3    3    0    0 -0.50510242658E+01 -0.62055723131E+01 -0.76581770348E+01  0.11075633136E+02  0.00000000000E+00 0.  1.
</event>
<event>
 7    1  0.9865694E-013  0.5052886E+02  0.7816164E-02  0.1300439E+00
        -11   -1    0    0    0    0  0.00000000000E+00  0.00000000000E+00  0.45593999997E+02  0.45594000000E+02  0.51100000000E-03 0.  1.
         11   -1    0    0    0    0 -0.00000000000E+00 -0.00000000000E+00 -0.45593999997E+02  0.45594000000E+02  0.51100000000E-03 0. -1.
    9900012    2    1    2    0    0 -0.16322114303E+02 -0.18059321843E+02 -0.32567092453E+02  0.50528855499E+02  0.29999986774E+02 0.  0.
        -12    1    1    2    0    0  0.16322114303E+02  0.18059321843E+02  0.32567092453E+02  0.40659144501E+02  0.00000000000E+00 0.  1.
         11    1    3    3    0    0 -0.37069869870E+01 -0.15603146843E+02 -0.10377556783E+02  0.19102189115E+02  0.51100000000E-03 0. -1.
        -11    1    3    3    0    0 -0.14917929715E+02  0.52367894568E+00 -0.83919366969E+01  0.17124353080E+02  0.51100000000E-03 0.  1.
        -12    1    3    3    0    0  0.23028023989E+01 -0.29798539450E+01 -0.13797598973E+02  0.14302313304E+02  0.00000000000E+00 0.  1.
</event>
<event>
 7    1  0.1000419E-012  0.5052886E+02  0.7816164E-02  0.1300439E+00
        -11   -1    0    0    0    0  0.00000000000E+00  0.00000000000E+00  0.45593999997E+02  0.45594000000E+02  0.51100000000E-03 0. -1.
         11   -1    0    0    0    0 -0.00000000000E+00 -0.00000000000E+00 -0.45593999997E+02  0.45594000000E+02  0.51100000000E-03 0.  1.
    9900012    2    1    2    0    0  0.30844312368E+02  0.98396291235E+01  0.24596260780E+02  0.50528856488E+02  0.29999989782E+02 0.  0.
        -12    1    1    2    0    0 -0.30844312368E+02 -0.98396291235E+01 -0.24596260780E+02  0.40659143512E+02  0.00000000000E+00 0.  1.
         11    1    3    3    0    0  0.13932237041E+02  0.94653321942E+01  0.85916772451E+01  0.18908110975E+02  0.51100000000E-03 0. -1.
        -11    1    3    3    0    0  0.15787696453E+02 -0.55292301948E+01  0.25975338474E+01  0.16928405955E+02  0.51100000000E-03 0.  1.
        -12    1    3    3    0    0  0.11243788746E+01  0.59035271241E+01  0.13407049687E+02  0.14692339558E+02  0.00000000000E+00 0.  1.
</event>
<event>
 7    1  0.9865694E-013  0.5052886E+02  0.7816164E-02  0.1300439E+00
        -11   -1    0    0    0    0  0.00000000000E+00  0.00000000000E+00  0.45593999997E+02  0.45594000000E+02  0.51100000000E-03 0. -1.
         11   -1    0    0    0    0 -0.00000000000E+00 -0.00000000000E+00 -0.45593999997E+02  0.45594000000E+02  0.51100000000E-03 0.  1.
    9900012    2    1    2    0    0 -0.14897044852E+01  0.32452976322E+02 -0.24448947647E+02  0.50528856715E+02  0.29999990470E+02 0.  0.
        -12    1    1    2    0    0  0.14897044852E+01 -0.32452976322E+02  0.24448947647E+02  0.40659143285E+02  0.00000000000E+00 0.  1.
         11    1    3    3    0    0 -0.11995492534E+02  0.12849273082E+02 -0.29649113795E+01  0.17826563314E+02  0.51100000000E-03 0. -1.
        -11    1    3    3    0    0  0.10132564899E+02  0.20933319376E+02 -0.19982421382E+02  0.30662190008E+02  0.51100000000E-03 0.  1.
         12    1    3    3    0    0  0.37322314983E+00 -0.13296161352E+01 -0.15016148861E+01  0.20401033926E+01  0.00000000000E+00 0. -1.
</event>
<event>
 7    1  0.9865694E-013  0.5052888E+02  0.7816164E-02  0.1300439E+00
        -11   -1    0    0    0    0  0.00000000000E+00  0.00000000000E+00  0.45593999997E+02  0.45594000000E+02  0.51100000000E-03 0.  1.
         11   -1    0    0    0    0 -0.00000000000E+00 -0.00000000000E+00 -0.45593999997E+02  0.45594000000E+02  0.51100000000E-03 0. -1.
    9900012    2    1    2    0    0 -0.31590091914E+00  0.31895878710E+02 -0.25213429227E+02  0.50528881890E+02  0.30000066993E+02 0.  0.
        -12    1    1    2    0    0  0.31590091914E+00 -0.31895878710E+02  0.25213429227E+02  0.40659118110E+02  0.00000000000E+00 0.  1.
         11    1    3    3    0    0 -0.22855027674E+01 -0.20914362250E+01 -0.87450840635E+01  0.92776141288E+01  0.51100000000E-03 0. -1.
        -11    1    3    3    0    0  0.43699721604E+01  0.28511844642E+02 -0.64071134657E+01  0.29547809476E+02  0.51100000000E-03 0.  1.
        -12    1    3    3    0    0 -0.24003703122E+01  0.54754702928E+01 -0.10061231698E+02  0.11703458286E+02  0.00000000000E+00 0.  1.
</event>
<event>
 7    1  0.9865694E-013  0.5052886E+02  0.7816164E-02  0.1300439E+00
        -11   -1    0    0    0    0  0.00000000000E+00  0.00000000000E+00  0.45593999997E+02  0.45594000000E+02  0.51100000000E-03 0.  1.
         11   -1    0    0    0    0 -0.00000000000E+00 -0.00000000000E+00 -0.45593999997E+02  0.45594000000E+02  0.51100000000E-03 0. -1.
    9900012    2    1    2    0    0  0.25061987719E+02 -0.30028696934E+02 -0.11105851966E+02  0.50528858151E+02  0.29999994837E+02 0.  0.
        -12    1    1    2    0    0 -0.25061987719E+02  0.30028696934E+02  0.11105851966E+02  0.40659141849E+02  0.00000000000E+00 0.  1.
         11    1    3    3    0    0  0.19254717485E+02 -0.17081655281E+02 -0.11102884107E+02  0.28032144554E+02  0.51100000000E-03 0. -1.
        -11    1    3    3    0    0 -0.21569115685E+01  0.34677529713E+01  0.10658175737E+01  0.42206096179E+01  0.51100000000E-03 0.  1.
        -12    1    3    3    0    0  0.79641818022E+01 -0.16414794625E+02 -0.10687854328E+01  0.18276103979E+02  0.00000000000E+00 0.  1.
</event>
<event>
 7    1  0.9865694E-013  0.5052888E+02  0.7816164E-02  0.1300439E+00
        -11   -1    0    0    0    0  0.00000000000E+00  0.00000000000E+00  0.45593999997E+02  0.45594000000E+02  0.51100000000E-03 0.  1.
         11   -1    0    0    0    0 -0.00000000000E+00 -0.00000000000E+00 -0.45593999997E+02  0.45594000000E+02  0.51100000000E-03 0. -1.
    9900012    2    1    2    0    0 -0.27930031058E+02 -0.18746118007E+02 -0.22839892312E+02  0.50528877333E+02  0.30000053141E+02 0.  0.
        -12    1    1    2    0    0  0.27930031058E+02  0.18746118007E+02  0.22839892312E+02  0.40659122667E+02  0.00000000000E+00 0.  1.
         11    1    3    3    0    0 -0.11826049405E+02 -0.14353846833E+02 -0.41812979395E+01  0.19062308783E+02  0.51100000000E-03 0. -1.
        -11    1    3    3    0    0 -0.51963800266E+01  0.74992997341E+01 -0.55727850186E+01  0.10691014686E+02  0.51100000000E-03 0.  1.
         12    1    3    3    0    0 -0.10907601626E+02 -0.11891570909E+02 -0.13085809354E+02  0.20775553864E+02  0.00000000000E+00 0. -1.
</event>
<event>
 7    1  0.9865694E-013  0.5052886E+02  0.7816164E-02  0.1300439E+00
        -11   -1    0    0    0    0  0.00000000000E+00  0.00000000000E+00  0.45593999997E+02  0.45594000000E+02  0.51100000000E-03 0.  1.
         11   -1    0    0    0    0 -0.00000000000E+00 -0.00000000000E+00 -0.45593999997E+02  0.45594000000E+02  0.51100000000E-03 0. -1.
    9900012    2    1    2    0    0  0.28596485508E+02 -0.10441968779E+01 -0.28884540405E+02  0.50528855826E+02  0.29999987769E+02 0.  0.
        -12    1    1    2    0    0 -0.28596485508E+02  0.10441968779E+01  0.28884540405E+02  0.40659144174E+02  0.00000000000E+00 0.  1.
         11    1    3    3    0    0  0.22543131943E+02 -0.11859141648E+02 -0.99094445092E+01  0.27331833622E+02  0.51100000000E-03 0. -1.
        -11    1    3    3    0    0  0.11698926872E+01  0.63293769839E+01 -0.70057559435E+01  0.95136890061E+01  0.51100000000E-03 0.  1.
         12    1    3    3    0    0  0.48834608782E+01  0.44855677859E+01 -0.11969339952E+02  0.13683333198E+02  0.00000000000E+00 0. -1.
</event>
<event>
 7    1  0.9865694E-013  0.5052886E+02  0.7816164E-02  0.1300439E+00
        -11   -1    0    0    0    0  0.00000000000E+00  0.00000000000E+00  0.45593999997E+02  0.45594000000E+02  0.51100000000E-03 0.  1.
         11   -1    0    0    0    0 -0.00000000000E+00 -0.00000000000E+00 -0.45593999997E+02  0.45594000000E+02  0.51100000000E-03 0. -1.
    9900012    2    1    2    0    0  0.55638375600E+01 -0.19730085246E+02 -0.35113143686E+02  0.50528863121E+02  0.30000009944E+02 0.  0.
        -12    1    1    2    0    0 -0.55638375600E+01  0.19730085246E+02  0.35113143686E+02  0.40659136879E+02  0.00000000000E+00 0.  1.
         11    1    3    3    0    0  0.79881451155E+01 -0.14828764501E+02 -0.35397577620E+02  0.39200653320E+02  0.51100000000E-03 0. -1.
        -11    1    3    3    0    0 -0.20202037770E+01 -0.43665293328E+01  0.47805294287E+01  0.67824231359E+01  0.51100000000E-03 0.  1.
        -12    1    3    3    0    0 -0.40410377843E+00 -0.53479141170E+00 -0.44960954943E+01  0.45457866659E+01  0.00000000000E+00 0.  1.
</event>
<event>
 7    1  0.9865694E-013  0.5052887E+02  0.7816164E-02  0.1300439E+00
        -11   -1    0    0    0    0  0.00000000000E+00  0.00000000000E+00  0.45593999997E+02  0.45594000000E+02  0.51100000000E-03 0.  1.
         11   -1    0    0    0    0 -0.00000000000E+00 -0.00000000000E+00 -0.45593999997E+02  0.45594000000E+02  0.51100000000E-03 0. -1.
    9900012    2    1    2    0    0  0.31154365746E+02  0.17453421728E+02 -0.19440886092E+02  0.50528874492E+02  0.30000044505E+02 0.  0.
        -12    1    1    2    0    0 -0.31154365746E+02 -0.17453421728E+02  0.19440886092E+02  0.40659125508E+02  0.00000000000E+00 0.  1.
         11    1    3    3    0    0  0.21260555098E+02  0.94948285343E+01 -0.82762832549E+00  0.23299097426E+02  0.51100000000E-03 0. -1.
        -11    1    3    3    0    0 -0.28516780613E+01 -0.21792149221E+01 -0.33974233584E+01  0.49420169142E+01  0.51100000000E-03 0.  1.
         12    1    3    3    0    0  0.12745488709E+02  0.10137808115E+02 -0.15215834408E+02  0.22287760151E+02  0.00000000000E+00 0. -1.
</event>
<event>
 7    1  0.9865694E-013  0.5052886E+02  0.7816164E-02  0.1300439E+00
        -11   -1    0    0    0    0  0.00000000000E+00  0.00000000000E+00  0.45593999997E+02  0.45594000000E+02  0.51100000000E-03 0. -1.
         11   -1    0    0    0    0 -0.00000000000E+00 -0.00000000000E+00 -0.45593999997E+02  0.45594000000E+02  0.51100000000E-03 0.  1.
    9900012    2    1    2    0    0 -0.30213551596E+02 -0.25078299711E+02 -0.10553965879E+02  0.50528855737E+02  0.29999987497E+02 0.  0.
        -12    1    1    2    0    0  0.30213551596E+02  0.25078299711E+02  0.10553965879E+02  0.40659144263E+02  0.00000000000E+00 0.  1.
         11    1    3    3    0    0 -0.26917680824E+02 -0.41570046934E+01 -0.25508698067E+01  0.27355971304E+02  0.51100000000E-03 0. -1.
        -11    1    3    3    0    0 -0.60974361943E+00 -0.10442682269E+02 -0.63305999768E+01  0.12226933245E+02  0.51100000000E-03 0.  1.
         12    1    3    3    0    0 -0.26861271531E+01 -0.10478612748E+02 -0.16724960956E+01  0.10945951188E+02  0.00000000000E+00 0. -1.
</event>
<event>
 7    1  0.9865694E-013  0.5052884E+02  0.7816164E-02  0.1300439E+00
        -11   -1    0    0    0    0  0.00000000000E+00  0.00000000000E+00  0.45593999997E+02  0.45594000000E+02  0.51100000000E-03 0.  1.
         11   -1    0    0    0    0 -0.00000000000E+00 -0.00000000000E+00 -0.45593999997E+02  0.45594000000E+02  0.51100000000E-03 0. -1.
    9900012    2    1    2    0    0  0.28071584100E+02 -0.12719722363E+02 -0.26520973275E+02  0.50528841200E+02  0.29999943312E+02 0.  0.
        -12    1    1    2    0    0 -0.28071584100E+02  0.12719722363E+02  0.26520973275E+02  0.40659158800E+02  0.00000000000E+00 0.  1.
         11    1    3    3    0    0  0.14472823400E+02 -0.26851488252E+01 -0.20527692300E+02  0.25259825668E+02  0.51100000000E-03 0. -1.
        -11    1    3    3    0    0  0.95566620215E+01 -0.11224597273E+01  0.47550745667E+01  0.10733146753E+02  0.51100000000E-03 0.  1.
        -12    1    3    3    0    0  0.40420986785E+01 -0.89121138099E+01 -0.10748355542E+02  0.14535868778E+02  0.00000000000E+00 0.  1.
</event>
<event>
 7    1  0.9865694E-013  0.5052884E+02  0.7816164E-02  0.1300439E+00
        -11   -1    0    0    0    0  0.00000000000E+00  0.00000000000E+00  0.45593999997E+02  0.45594000000E+02  0.51100000000E-03 0. -1.
         11   -1    0    0    0    0 -0.00000000000E+00 -0.00000000000E+00 -0.45593999997E+02  0.45594000000E+02  0.51100000000E-03 0.  1.
    9900012    2    1    2    0    0  0.59155546803E+01  0.38536637015E+02  0.11536941430E+02  0.50528841165E+02  0.29999943206E+02 0.  0.
        -12    1    1    2    0    0 -0.59155546803E+01 -0.38536637015E+02 -0.11536941430E+02  0.40659158835E+02  0.00000000000E+00 0.  1.
         11    1    3    3    0    0  0.31711254350E+01  0.11151540312E+02  0.74270198614E+01  0.13768569720E+02  0.51100000000E-03 0. -1.
        -11    1    3    3    0    0  0.31715402878E+01  0.27694226817E+02 -0.44118435001E+01  0.28222211645E+02  0.51100000000E-03 0.  1.
        -12    1    3    3    0    0 -0.42711104247E+00 -0.30913011431E+00  0.85217650686E+01  0.85380598003E+01  0.00000000000E+00 0.  1.
</event>
<event>
 7    1  0.9865694E-013  0.5052886E+02  0.7816164E-02  0.1300439E+00
        -11   -1    0    0    0    0  0.00000000000E+00  0.00000000000E+00  0.45593999997E+02  0.45594000000E+02  0.51100000000E-03 0.  1.
         11   -1    0    0    0    0 -0.00000000000E+00 -0.00000000000E+00 -0.45593999997E+02  0.45594000000E+02  0.51100000000E-03 0. -1.
    9900012    2    1    2    0    0 -0.14509469513E+02 -0.17434049805E+02 -0.33744551960E+02  0.50528860989E+02  0.30000003461E+02 0.  0.
        -12    1    1    2    0    0  0.14509469513E+02  0.17434049805E+02  0.33744551960E+02  0.40659139011E+02  0.00000000000E+00 0.  1.
         11    1    3    3    0    0  0.31031449566E+01  0.45548400438E+01 -0.99457240815E+01  0.11370730153E+02  0.51100000000E-03 0. -1.
        -11    1    3    3    0    0 -0.15833926089E+02 -0.13917560208E+02 -0.22427871365E+02  0.30780206493E+02  0.51100000000E-03 0.  1.
        -12    1    3    3    0    0 -0.17786883804E+01 -0.80713296404E+01 -0.13709565139E+01  0.83779243421E+01  0.00000000000E+00 0.  1.
</event>
<event>
 7    1  0.9865694E-013  0.5052884E+02  0.7816164E-02  0.1300439E+00
        -11   -1    0    0    0    0  0.00000000000E+00  0.00000000000E+00  0.45593999997E+02  0.45594000000E+02  0.51100000000E-03 0.  1.
         11   -1    0    0    0    0 -0.00000000000E+00 -0.00000000000E+00 -0.45593999997E+02  0.45594000000E+02  0.51100000000E-03 0. -1.
    9900012    2    1    2    0    0  0.24845442649E+02 -0.25772701491E+02  0.19277937201E+02  0.50528843278E+02  0.29999949629E+02 0.  0.
        -12    1    1    2    0    0 -0.24845442649E+02  0.25772701491E+02 -0.19277937201E+02  0.40659156722E+02  0.00000000000E+00 0.  1.
         11    1    3    3    0    0  0.40277160360E+01  0.64387201288E+00 -0.41283578286E+01  0.58034822527E+01  0.51100000000E-03 0. -1.
        -11    1    3    3    0    0  0.23398201936E+02 -0.25648102989E+02  0.23671998601E+02  0.42019811504E+02  0.51100000000E-03 0.  1.
        -12    1    3    3    0    0 -0.25804753231E+01 -0.76847051482E+00 -0.26570357207E+00  0.27055495216E+01  0.00000000000E+00 0.  1.
</event>
<event>
 7    1  0.9865694E-013  0.5052886E+02  0.7816164E-02  0.1300439E+00
        -11   -1    0    0    0    0  0.00000000000E+00  0.00000000000E+00  0.45593999997E+02  0.45594000000E+02  0.51100000000E-03 0.  1.
         11   -1    0    0    0    0 -0.00000000000E+00 -0.00000000000E+00 -0.45593999997E+02  0.45594000000E+02  0.51100000000E-03 0. -1.
    9900012    2    1    2    0    0  0.24808599968E+02  0.12028899734E+02 -0.29883184848E+02  0.50528858373E+02  0.29999995511E+02 0.  0.
        -12    1    1    2    0    0 -0.24808599968E+02 -0.12028899734E+02  0.29883184848E+02  0.40659141627E+02  0.00000000000E+00 0.  1.
         11    1    3    3    0    0  0.13019694571E+02  0.13336019712E+02 -0.28307067125E+02  0.33891767702E+02  0.51100000000E-03 0. -1.
        -11    1    3    3    0    0  0.35287068378E+01 -0.17009025378E+01  0.47994796664E+01  0.61951470297E+01  0.51100000000E-03 0.  1.
        -12    1    3    3    0    0  0.82601985589E+01  0.39378256003E+00 -0.63755973898E+01  0.10441943642E+02  0.00000000000E+00 0.  1.
</event>
<event>
 7    1  0.9865694E-013  0.5052886E+02  0.7816164E-02  0.1300439E+00
        -11   -1    0    0    0    0  0.00000000000E+00  0.00000000000E+00  0.45593999997E+02  0.45594000000E+02  0.51100000000E-03 0.  1.
         11   -1    0    0    0    0 -0.00000000000E+00 -0.00000000000E+00 -0.45593999997E+02  0.45594000000E+02  0.51100000000E-03 0. -1.
    9900012    2    1    2    0    0 -0.24024576996E+02 -0.32540439051E+02  0.41358682937E+01  0.50528857363E+02  0.29999992439E+02 0.  0.
        -12    1    1    2    0    0  0.24024576996E+02  0.32540439051E+02 -0.41358682937E+01  0.40659142637E+02  0.00000000000E+00 0.  1.
         11    1    3    3    0    0 -0.10114858957E+02  0.11495865588E+01 -0.21158816541E+01  0.10397541844E+02  0.51100000000E-03 0. -1.
        -11    1    3    3    0    0 -0.19984185019E+00 -0.19878925904E+02  0.69065336950E+00  0.19891923844E+02  0.51100000000E-03 0.  1.
        -12    1    3    3    0    0 -0.13709876190E+02 -0.13811099706E+02  0.55610965783E+01  0.20239391675E+02  0.00000000000E+00 0.  1.
</event>
<event>
 7    1  0.9865694E-013  0.5052887E+02  0.7816164E-02  0.1300439E+00
        -11   -1    0    0    0    0  0.00000000000E+00  0.00000000000E+00  0.45593999997E+02  0.45594000000E+02  0.51100000000E-03 0.  1.
         11   -1    0    0    0    0 -0.00000000000E+00 -0.00000000000E+00 -0.45593999997E+02  0.45594000000E+02  0.51100000000E-03 0. -1.
    9900012    2    1    2    0    0  0.90908946073E+01 -0.33238700845E+02 -0.21580295703E+02  0.50528871120E+02  0.30000034258E+02 0.  0.
        -12    1    1    2    0    0 -0.90908946073E+01  0.33238700845E+02  0.21580295703E+02  0.40659128880E+02  0.00000000000E+00 0.  1.
         11    1    3    3    0    0 -0.82281852912E+00 -0.38977738018E+01 -0.12858382315E+01  0.41860543666E+01  0.51100000000E-03 0. -1.
        -11    1    3    3    0    0 -0.79969636688E+01 -0.64811578668E+01  0.98472095782E+00  0.10340527590E+02  0.51100000000E-03 0.  1.
        -12    1    3    3    0    0  0.17910676805E+02 -0.22859769177E+02 -0.21279178429E+02  0.36002289164E+02  0.00000000000E+00 0.  1.
</event>
<event>
 7    1  0.9865694E-013  0.5052887E+02  0.7816164E-02  0.1300439E+00
        -11   -1    0    0    0    0  0.00000000000E+00  0.00000000000E+00  0.45593999997E+02  0.45594000000E+02  0.51100000000E-03 0. -1.
         11   -1    0    0    0    0 -0.00000000000E+00 -0.00000000000E+00 -0.45593999997E+02  0.45594000000E+02  0.51100000000E-03 0.  1.
    9900012    2    1    2    0    0 -0.15615664634E+01 -0.40339703761E+02  0.48409551605E+01  0.50528867739E+02  0.30000023981E+02 0.  0.
        -12    1    1    2    0    0  0.15615664634E+01  0.40339703761E+02 -0.48409551605E+01  0.40659132261E+02  0.00000000000E+00 0.  1.
         11    1    3    3    0    0 -0.58200746243E+01 -0.31374169665E+02  0.11950003922E+02  0.34073661160E+02  0.51100000000E-03 0. -1.
        -11    1    3    3    0    0  0.50172687488E+01  0.76926285913E+00 -0.24023776696E+01  0.56157074151E+01  0.51100000000E-03 0.  1.
         12    1    3    3    0    0 -0.75876058794E+00 -0.97347969544E+01 -0.47066710920E+01  0.10839499165E+02  0.00000000000E+00 0. -1.
</event>
<event>
 7    1  0.9865694E-013  0.5052895E+02  0.7816164E-02  0.1300438E+00
        -11   -1    0    0    0    0  0.00000000000E+00  0.00000000000E+00  0.45593999997E+02  0.45594000000E+02  0.51100000000E-03 0.  1.
         11   -1    0    0    0    0 -0.00000000000E+00 -0.00000000000E+00 -0.45593999997E+02  0.45594000000E+02  0.51100000000E-03 0. -1.
    9900012    2    1    2    0    0  0.25276388459E+02  0.95988072120E+01 -0.30366511756E+02  0.50528954885E+02  0.30000288868E+02 0.  0.
        -12    1    1    2    0    0 -0.25276388459E+02 -0.95988072120E+01  0.30366511756E+02  0.40659045115E+02  0.00000000000E+00 0.  1.
         11    1    3    3    0    0 -0.25505772837E+01 -0.18716481048E+01  0.42158226688E+00  0.31915894123E+01  0.51100000000E-03 0. -1.
        -11    1    3    3    0    0  0.11153547692E+02  0.14181011815E+02 -0.10268865931E+02  0.20759391368E+02  0.51100000000E-03 0.  1.
        -12    1    3    3    0    0  0.16673418051E+02 -0.27105564981E+01 -0.20519228092E+02  0.26577974104E+02  0.00000000000E+00 0.  1.
</event>
<event>
 7    1  0.9865694E-013  0.5052887E+02  0.7816164E-02  0.1300439E+00
        -11   -1    0    0    0    0  0.00000000000E+00  0.00000000000E+00  0.45593999997E+02  0.45594000000E+02  0.51100000000E-03 0.  1.
         11   -1    0    0    0    0 -0.00000000000E+00 -0.00000000000E+00 -0.45593999997E+02  0.45594000000E+02  0.51100000000E-03 0. -1.
    9900012    2    1    2    0    0 -0.17301910835E+02  0.48880350144E+01 -0.36468011434E+02  0.50528869871E+02  0.30000030461E+02 0.  0.
        -12    1    1    2    0    0  0.17301910835E+02 -0.48880350144E+01  0.36468011434E+02  0.40659130129E+02  0.00000000000E+00 0.  1.
         11    1    3    3    0    0 -0.13206046060E+02  0.10124984498E+02 -0.18747629492E+02  0.25067679897E+02  0.51100000000E-03 0. -1.
        -11    1    3    3    0    0  0.32460197852E+01 -0.64777231400E+01 -0.12052077090E+01  0.73450709600E+01  0.51100000000E-03 0.  1.
        -12    1    3    3    0    0 -0.73418845600E+01  0.12407736566E+01 -0.16515174234E+02  0.18116119014E+02  0.00000000000E+00 0.  1.
</event>
<event>
 7    1  0.9865694E-013  0.5052886E+02  0.7816164E-02  0.1300439E+00
        -11   -1    0    0    0    0  0.00000000000E+00  0.00000000000E+00  0.45593999997E+02  0.45594000000E+02  0.51100000000E-03 0.  1.
         11   -1    0    0    0    0 -0.00000000000E+00 -0.00000000000E+00 -0.45593999997E+02  0.45594000000E+02  0.51100000000E-03 0. -1.
    9900012    2    1    2    0    0 -0.12049228303E+02 -0.24250502520E+02 -0.30329765098E+02  0.50528862945E+02  0.30000009407E+02 0.  0.
        -12    1    1    2    0    0  0.12049228303E+02  0.24250502520E+02  0.30329765098E+02  0.40659137055E+02  0.00000000000E+00 0.  1.
         11    1    3    3    0    0  0.73964020661E+01 -0.11745801484E+02 -0.17482851956E+02  0.22323098548E+02  0.51100000000E-03 0. -1.
        -11    1    3    3    0    0 -0.17566148692E+02 -0.12267619135E+02 -0.77770903067E+01  0.22793577889E+02  0.51100000000E-03 0.  1.
         12    1    3    3    0    0 -0.18794816776E+01 -0.23708190112E+00 -0.50698228355E+01  0.54121865071E+01  0.00000000000E+00 0. -1.
</event>
<event>
 7    1  0.9865694E-013  0.5052886E+02  0.7816164E-02  0.1300439E+00
        -11   -1    0    0    0    0  0.00000000000E+00  0.00000000000E+00  0.45593999997E+02  0.45594000000E+02  0.51100000000E-03 0.  1.
         11   -1    0    0    0    0 -0.00000000000E+00 -0.00000000000E+00 -0.45593999997E+02  0.45594000000E+02  0.51100000000E-03 0. -1.
    9900012    2    1    2    0    0 -0.70887375865E+01  0.20286624043E+02 -0.34516202737E+02  0.50528861212E+02  0.30000004140E+02 0.  0.
        -12    1    1    2    0    0  0.70887375865E+01 -0.20286624043E+02  0.34516202737E+02  0.40659138788E+02  0.00000000000E+00 0.  1.
         11    1    3    3    0    0 -0.12537479330E+02  0.11909108051E+02 -0.79802857963E+01  0.19044689658E+02  0.51100000000E-03 0. -1.
        -11    1    3    3    0    0  0.76414021896E+01  0.10732061846E+01 -0.66517273111E+01  0.10187653087E+02  0.51100000000E-03 0.  1.
         12    1    3    3    0    0 -0.21926604456E+01  0.73043098077E+01 -0.19884189629E+02  0.21296518467E+02  0.00000000000E+00 0. -1.
</event>
<event>
 7    1  0.9865694E-013  0.5052885E+02  0.7816164E-02  0.1300439E+00
        -11   -1    0    0    0    0  0.00000000000E+00  0.00000000000E+00  0.45593999997E+02  0.45594000000E+02  0.51100000000E-03 0.  1.
         11   -1    0    0    0    0 -0.00000000000E+00 -0.00000000000E+00 -0.45593999997E+02  0.45594000000E+02  0.51100000000E-03 0. -1.
    9900012    2    1    2    0    0 -0.39328590189E+02  0.85710997416E+01 -0.57414932387E+01  0.50528849718E+02  0.29999969202E+02 0.  0.
        -12    1    1    2    0    0  0.39328590189E+02 -0.85710997416E+01  0.57414932387E+01  0.40659150282E+02  0.00000000000E+00 0.  1.
         11    1    3    3    0    0  0.29248472846E+00  0.33562459696E+00  0.59102333936E+01  0.59269764817E+01  0.51100000000E-03 0. -1.
        -11    1    3    3    0    0 -0.12446609609E+02  0.97671113506E+01 -0.37336261080E+01  0.16255907206E+02  0.51100000000E-03 0.  1.
         12    1    3    3    0    0 -0.27174465309E+02 -0.15316362060E+01 -0.79181005244E+01  0.28345966030E+02  0.00000000000E+00 0. -1.
</event>
<event>
 7    1  0.9865694E-013  0.5052886E+02  0.7816164E-02  0.1300439E+00
        -11   -1    0    0    0    0  0.00000000000E+00  0.00000000000E+00  0.45593999997E+02  0.45594000000E+02  0.51100000000E-03 0.  1.
         11   -1    0    0    0    0 -0.00000000000E+00 -0.00000000000E+00 -0.45593999997E+02  0.45594000000E+02  0.51100000000E-03 0. -1.
    9900012    2    1    2    0    0  0.54956936709E+01  0.38831158861E+01 -0.40098434201E+02  0.50528860028E+02  0.30000000540E+02 0.  0.
        -12    1    1    2    0    0 -0.54956936709E+01 -0.38831158861E+01  0.40098434201E+02  0.40659139972E+02  0.00000000000E+00 0.  1.
         11    1    3    3    0    0 -0.78334585292E+01  0.97312135475E+01 -0.10568820955E+02  0.16363360482E+02  0.51100000000E-03 0. -1.
        -11    1    3    3    0    0  0.78736176824E+01 -0.42375690190E+01 -0.83457073484E+01  0.12231176477E+02  0.51100000000E-03 0.  1.
         12    1    3    3    0    0  0.54555345178E+01 -0.16105286424E+01 -0.21183905898E+02  0.21934323068E+02  0.00000000000E+00 0. -1.
</event>
<event>
 7    1  0.9865694E-013  0.5052886E+02  0.7816164E-02  0.1300439E+00
        -11   -1    0    0    0    0  0.00000000000E+00  0.00000000000E+00  0.45593999997E+02  0.45594000000E+02  0.51100000000E-03 0. -1.
         11   -1    0    0    0    0 -0.00000000000E+00 -0.00000000000E+00 -0.45593999997E+02  0.45594000000E+02  0.51100000000E-03 0.  1.
    9900012    2    1    2    0    0  0.15631846534E+02 -0.21523319706E+02 -0.30749928767E+02  0.50528855439E+02  0.29999986592E+02 0.  0.
        -12    1    1    2    0    0 -0.15631846534E+02  0.21523319706E+02  0.30749928767E+02  0.40659144561E+02  0.00000000000E+00 0.  1.
         11    1    3    3    0    0  0.12420916130E+02 -0.27898313829E+02 -0.18572974051E+02  0.35742837568E+02  0.51100000000E-03 0. -1.
        -11    1    3    3    0    0  0.27575431627E+01  0.62849541395E+01 -0.78202280074E+01  0.10404838258E+02  0.51100000000E-03 0.  1.
         12    1    3    3    0    0  0.45338724153E+00  0.90039983621E-01 -0.43567267085E+01  0.43811796131E+01  0.00000000000E+00 0. -1.
</event>
<event>
 7    1  0.9865694E-013  0.5052887E+02  0.7816164E-02  0.1300439E+00
        -11   -1    0    0    0    0  0.00000000000E+00  0.00000000000E+00  0.45593999997E+02  0.45594000000E+02  0.51100000000E-03 0.  1.
         11   -1    0    0    0    0 -0.00000000000E+00 -0.00000000000E+00 -0.45593999997E+02  0.45594000000E+02  0.51100000000E-03 0. -1.
    9900012    2    1    2    0    0 -0.11304703939E+02 -0.19881475472E+02 -0.33616888762E+02  0.50528873004E+02  0.30000039982E+02 0.  0.
        -12    1    1    2    0    0  0.11304703939E+02  0.19881475472E+02  0.33616888762E+02  0.40659126996E+02  0.00000000000E+00 0.  1.
         11    1    3    3    0    0 -0.10171593712E+02 -0.14184954349E+02 -0.11668338144E+02  0.20995817770E+02  0.51100000000E-03 0. -1.
        -11    1    3    3    0    0 -0.61957213412E-01  0.30514028419E+01 -0.20348027590E+02  0.20575643977E+02  0.51100000000E-03 0.  1.
        -12    1    3    3    0    0 -0.10711530127E+01 -0.87479239644E+01 -0.16005230281E+01  0.89574112570E+01  0.00000000000E+00 0.  1.
</event>
<event>
 7    1  0.9865694E-013  0.5052885E+02  0.7816164E-02  0.1300439E+00
        -11   -1    0    0    0    0  0.00000000000E+00  0.00000000000E+00  0.45593999997E+02  0.45594000000E+02  0.51100000000E-03 0.  1.
         11   -1    0    0    0    0 -0.00000000000E+00 -0.00000000000E+00 -0.45593999997E+02  0.45594000000E+02  0.51100000000E-03 0. -1.
    9900012    2    1    2    0    0 -0.31116247642E+02 -0.15322440628E+02 -0.21217178997E+02  0.50528846803E+02  0.29999960341E+02 0.  0.
        -12    1    1    2    0    0  0.31116247642E+02  0.15322440628E+02  0.21217178997E+02  0.40659153197E+02  0.00000000000E+00 0.  1.
         11    1    3    3    0    0 -0.16585116224E+02 -0.52353266251E+00 -0.19164429690E+02  0.25349862568E+02  0.51100000000E-03 0. -1.
        -11    1    3    3    0    0 -0.76315449248E+01 -0.10234390640E+02  0.55709867412E+01  0.13929074745E+02  0.51100000000E-03 0.  1.
        -12    1    3    3    0    0 -0.68995864930E+01 -0.45645173254E+01 -0.76237360486E+01  0.11249909490E+02  0.00000000000E+00 0.  1.
</event>
<event>
 7    1  0.9865694E-013  0.5052887E+02  0.7816164E-02  0.1300439E+00
        -11   -1    0    0    0    0  0.00000000000E+00  0.00000000000E+00  0.45593999997E+02  0.45594000000E+02  0.51100000000E-03 0.  1.
         11   -1    0    0    0    0 -0.00000000000E+00 -0.00000000000E+00 -0.45593999997E+02  0.45594000000E+02  0.51100000000E-03 0. -1.
    9900012    2    1    2    0    0  0.83926125599E+01  0.13145773044E+02 -0.37548869444E+02  0.50528869525E+02  0.30000029408E+02 0.  0.
        -12    1    1    2    0    0 -0.83926125599E+01 -0.13145773044E+02  0.37548869444E+02  0.40659130475E+02  0.00000000000E+00 0.  1.
         11    1    3    3    0    0  0.47286364343E+01  0.55504526005E+01 -0.74456705115E+01  0.10421397998E+02  0.51100000000E-03 0. -1.
        -11    1    3    3    0    0 -0.85063586070E+01 -0.41692721710E+01 -0.91414636825E+01  0.13164624024E+02  0.51100000000E-03 0.  1.
        -12    1    3    3    0    0  0.12170334733E+02  0.11764592614E+02 -0.20961735250E+02  0.26942847503E+02  0.00000000000E+00 0.  1.
</event>
<event>
 7    1  0.9865694E-013  0.5052885E+02  0.7816164E-02  0.1300439E+00
        -11   -1    0    0    0    0  0.00000000000E+00  0.00000000000E+00  0.45593999997E+02  0.45594000000E+02  0.51100000000E-03 0. -1.
         11   -1    0    0    0    0 -0.00000000000E+00 -0.00000000000E+00 -0.45593999997E+02  0.45594000000E+02  0.51100000000E-03 0.  1.
    9900012    2    1    2    0    0 -0.11552121632E+01 -0.12635013717E+02  0.38628851092E+02  0.50528853139E+02  0.29999979601E+02 0.  0.
        -12    1    1    2    0    0  0.11552121632E+01  0.12635013717E+02 -0.38628851092E+02  0.40659146861E+02  0.00000000000E+00 0.  1.
         11    1    3    3    0    0  0.60184142901E+01 -0.41339834603E+01  0.96857208701E+01  0.12129481393E+02  0.51100000000E-03 0. -1.
        -11    1    3    3    0    0 -0.91116992073E+01  0.64626873137E-01  0.28142398073E+02  0.29580767546E+02  0.51100000000E-03 0.  1.
        -12    1    3    3    0    0  0.19380727540E+01 -0.85656571300E+01  0.80073214932E+00  0.88186042004E+01  0.00000000000E+00 0.  1.
</event>
<event>
 7    1  0.9865694E-013  0.5052885E+02  0.7816164E-02  0.1300439E+00
        -11   -1    0    0    0    0  0.00000000000E+00  0.00000000000E+00  0.45593999997E+02  0.45594000000E+02  0.51100000000E-03 0.  1.
         11   -1    0    0    0    0 -0.00000000000E+00 -0.00000000000E+00 -0.45593999997E+02  0.45594000000E+02  0.51100000000E-03 0. -1.
    9900012    2    1    2    0    0 -0.17377852853E+02  0.32235054090E+02 -0.17665730845E+02  0.50528849391E+02  0.29999968208E+02 0.  0.
        -12    1    1    2    0    0  0.17377852853E+02 -0.32235054090E+02  0.17665730845E+02  0.40659150609E+02  0.00000000000E+00 0.  1.
         11    1    3    3    0    0  0.29630841825E+01 -0.38102069407E+01 -0.19189910245E+00  0.48305662536E+01  0.51100000000E-03 0. -1.
        -11    1    3    3    0    0 -0.23048919568E+01  0.21423111177E+01  0.68343379329E+00  0.32201096051E+01  0.51100000000E-03 0.  1.
         12    1    3    3    0    0 -0.18036045079E+02  0.33902949913E+02 -0.18157265536E+02  0.42478173532E+02  0.00000000000E+00 0. -1.
</event>
<event>
 7    1  0.9865694E-013  0.5052884E+02  0.7816164E-02  0.1300439E+00
        -11   -1    0    0    0    0  0.00000000000E+00  0.00000000000E+00  0.45593999997E+02  0.45594000000E+02  0.51100000000E-03 0.  1.
         11   -1    0    0    0    0 -0.00000000000E+00 -0.00000000000E+00 -0.45593999997E+02  0.45594000000E+02  0.51100000000E-03 0. -1.
    9900012    2    1    2    0    0  0.10151030890E+01 -0.19684871775E+01 -0.40598790725E+02  0.50528841322E+02  0.29999943682E+02 0.  0.
        -12    1    1    2    0    0 -0.10151030890E+01  0.19684871775E+01  0.40598790725E+02  0.40659158678E+02  0.00000000000E+00 0.  1.
         11    1    3    3    0    0  0.45619772802E+01 -0.36403518623E+01 -0.41598855656E+01  0.71671784244E+01  0.51100000000E-03 0. -1.
        -11    1    3    3    0    0 -0.45768578048E+00  0.11254164787E+02 -0.28152823253E+02  0.30322387088E+02  0.51100000000E-03 0.  1.
        -12    1    3    3    0    0 -0.30891884106E+01 -0.95823001020E+01 -0.82860819066E+01  0.13039275810E+02  0.00000000000E+00 0.  1.
</event>
<event>
 7    1  0.9865694E-013  0.5052887E+02  0.7816164E-02  0.1300439E+00
        -11   -1    0    0    0    0  0.00000000000E+00  0.00000000000E+00  0.45593999997E+02  0.45594000000E+02  0.51100000000E-03 0.  1.
         11   -1    0    0    0    0 -0.00000000000E+00 -0.00000000000E+00 -0.45593999997E+02  0.45594000000E+02  0.51100000000E-03 0. -1.
    9900012    2    1    2    0    0 -0.11247677842E+02  0.30945521489E+02 -0.23854341682E+02  0.50528866043E+02  0.30000018825E+02 0.  0.
        -12    1    1    2    0    0  0.11247677842E+02 -0.30945521489E+02  0.23854341682E+02  0.40659133957E+02  0.00000000000E+00 0.  1.
         11    1    3    3    0    0 -0.11023144662E+02  0.15817991588E+02 -0.10423705175E+02  0.21917395054E+02  0.51100000000E-03 0. -1.
        -11    1    3    3    0    0  0.82978895905E+01  0.14247355346E+02 -0.10542441804E+02  0.19570007293E+02  0.51100000000E-03 0.  1.
        -12    1    3    3    0    0 -0.85224227701E+01  0.88017455493E+00 -0.28881947024E+01  0.90414636956E+01  0.00000000000E+00 0.  1.
</event>
<event>
 7    1  0.9865694E-013  0.5052886E+02  0.7816164E-02  0.1300439E+00
        -11   -1    0    0    0    0  0.00000000000E+00  0.00000000000E+00  0.45593999997E+02  0.45594000000E+02  0.51100000000E-03 0.  1.
         11   -1    0    0    0    0 -0.00000000000E+00 -0.00000000000E+00 -0.45593999997E+02  0.45594000000E+02  0.51100000000E-03 0. -1.
    9900012    2    1    2    0    0 -0.39264596325E+01 -0.22792444376E+02 -0.33440290116E+02  0.50528860696E+02  0.30000002572E+02 0.  0.
        -12    1    1    2    0    0  0.39264596325E+01  0.22792444376E+02  0.33440290116E+02  0.40659139304E+02  0.00000000000E+00 0.  1.
         11    1    3    3    0    0  0.28458086862E+01 -0.10354240551E+02  0.23235331681E+00  0.10740712863E+02  0.51100000000E-03 0. -1.
        -11    1    3    3    0    0 -0.70251060966E+00  0.34919493738E+01 -0.10005513831E+02  0.10620618573E+02  0.51100000000E-03 0.  1.
         12    1    3    3    0    0 -0.60697577090E+01 -0.15930153199E+02 -0.23667129602E+02  0.29167529261E+02  0.00000000000E+00 0. -1.
</event>
<event>
 7    1  0.9865694E-013  0.5052887E+02  0.7816164E-02  0.1300439E+00
        -11   -1    0    0    0    0  0.00000000000E+00  0.00000000000E+00  0.45593999997E+02  0.45594000000E+02  0.51100000000E-03 0.  1.
         11   -1    0    0    0    0 -0.00000000000E+00 -0.00000000000E+00 -0.45593999997E+02  0.45594000000E+02  0.51100000000E-03 0. -1.
    9900012    2    1    2    0    0  0.37474640254E+02  0.15407352823E+02 -0.33808187363E+01  0.50528866727E+02  0.30000020903E+02 0.  0.
        -12    1    1    2    0    0 -0.37474640254E+02 -0.15407352823E+02  0.33808187363E+01  0.40659133273E+02  0.00000000000E+00 0.  1.
         11    1    3    3    0    0  0.56766722116E+01  0.12936322000E+02  0.50676131088E+01  0.15008455522E+02  0.51100000000E-03 0. -1.
        -11    1    3    3    0    0  0.89478504090E+01  0.19741446989E+01 -0.87401968833E+01  0.12663029498E+02  0.51100000000E-03 0.  1.
         12    1    3    3    0    0  0.22850117633E+02  0.49688612503E+00  0.29176503820E+00  0.22857381707E+02  0.00000000000E+00 0. -1.
</event>
<event>
 7    1  0.9865694E-013  0.5052887E+02  0.7816164E-02  0.1300439E+00
        -11   -1    0    0    0    0  0.00000000000E+00  0.00000000000E+00  0.45593999997E+02  0.45594000000E+02  0.51100000000E-03 0.  1.
         11   -1    0    0    0    0 -0.00000000000E+00 -0.00000000000E+00 -0.45593999997E+02  0.45594000000E+02  0.51100000000E-03 0. -1.
    9900012    2    1    2    0    0  0.42040748192E+01  0.33880853094E+01 -0.40299029886E+02  0.50528866009E+02  0.30000018721E+02 0.  0.
        -12    1    1    2    0    0 -0.42040748192E+01 -0.33880853094E+01  0.40299029886E+02  0.40659133991E+02  0.00000000000E+00 0.  1.
         11    1    3    3    0    0  0.97466797992E+01  0.16498158052E+01 -0.25221419190E+02  0.27089474811E+02  0.51100000000E-03 0. -1.
        -11    1    3    3    0    0 -0.11079886344E+02 -0.16572737778E+01 -0.11361617712E+02  0.15956089591E+02  0.51100000000E-03 0.  1.
        -12    1    3    3    0    0  0.55372813635E+01  0.33955432819E+01 -0.37159929841E+01  0.74833016066E+01  0.00000000000E+00 0.  1.
</event>
<event>
 7    1  0.9865694E-013  0.5052887E+02  0.7816164E-02  0.1300439E+00
        -11   -1    0    0    0    0  0.00000000000E+00  0.00000000000E+00  0.45593999997E+02  0.45594000000E+02  0.51100000000E-03 0.  1.
         11   -1    0    0    0    0 -0.00000000000E+00 -0.00000000000E+00 -0.45593999997E+02  0.45594000000E+02  0.51100000000E-03 0. -1.
    9900012    2    1    2    0    0 -0.40444811284E+02 -0.22119533022E+01  0.35340830839E+01  0.50528865228E+02  0.30000016346E+02 0.  0.
        -12    1    1    2    0    0  0.40444811284E+02  0.22119533022E+01 -0.35340830839E+01  0.40659134772E+02  0.00000000000E+00 0.  1.
         11    1    3    3    0    0 -0.85990731674E+01  0.61418210918E+01 -0.92331077456E+01  0.14032687004E+02  0.51100000000E-03 0.  1.
        -11    1    3    3    0    0 -0.56507254335E+01  0.19941099156E+01  0.16365769048E+01  0.62117273368E+01  0.51100000000E-03 0. -1.
         12    1    3    3    0    0 -0.26195012683E+02 -0.10347884310E+02  0.11130613925E+02  0.30284450886E+02  0.00000000000E+00 0. -1.
</event>
<event>
 7    1  0.9865694E-013  0.5052891E+02  0.7816164E-02  0.1300439E+00
        -11   -1    0    0    0    0  0.00000000000E+00  0.00000000000E+00  0.45593999997E+02  0.45594000000E+02  0.51100000000E-03 0.  1.
         11   -1    0    0    0    0 -0.00000000000E+00 -0.00000000000E+00 -0.45593999997E+02  0.45594000000E+02  0.51100000000E-03 0. -1.
    9900012    2    1    2    0    0  0.26882976033E+02  0.26051164679E+02 -0.15868346064E+02  0.50528905220E+02  0.30000137905E+02 0.  0.
        -12    1    1    2    0    0 -0.26882976033E+02 -0.26051164679E+02  0.15868346064E+02  0.40659094780E+02  0.00000000000E+00 0.  1.
         11    1    3    3    0    0  0.14437089151E+02  0.29556340291E+01 -0.15330494227E+02  0.21264744747E+02  0.51100000000E-03 0. -1.
        -11    1    3    3    0    0 -0.13133597995E+01  0.87536744775E+01 -0.27443103863E+01  0.92673065439E+01  0.51100000000E-03 0.  1.
         12    1    3    3    0    0  0.13759246681E+02  0.14341856173E+02  0.22064585485E+01  0.19996853928E+02  0.00000000000E+00 0. -1.
</event>
<event>
 7    1  0.1284633E-012  0.5052886E+02  0.7816164E-02  0.1300439E+00
        -11   -1    0    0    0    0  0.00000000000E+00  0.00000000000E+00  0.45593999997E+02  0.45594000000E+02  0.51100000000E-03 0.  1.
         11   -1    0    0    0    0 -0.00000000000E+00 -0.00000000000E+00 -0.45593999997E+02  0.45594000000E+02  0.51100000000E-03 0. -1.
    9900012    2    1    2    0    0 -0.15062418724E+02 -0.34965023596E+02 -0.14273633059E+02  0.50528856704E+02  0.29999990436E+02 0.  0.
        -12    1    1    2    0    0  0.15062418724E+02  0.34965023596E+02  0.14273633059E+02  0.40659143296E+02  0.00000000000E+00 0.  1.
         11    1    3    3    0    0 -0.89324537715E+01 -0.17173786536E+02 -0.60960434447E+01  0.20295059012E+02  0.51100000000E-03 0. -1.
        -11    1    3    3    0    0 -0.83581023121E+01  0.11774959389E+01 -0.72255480118E+01  0.11110936742E+02  0.51100000000E-03 0.  1.
        -12    1    3    3    0    0  0.22281373602E+01 -0.18968732999E+02 -0.95204160273E+00  0.19122860950E+02  0.00000000000E+00 0.  1.
</event>
<event>
 7    1  0.9865694E-013  0.5052883E+02  0.7816164E-02  0.1300439E+00
        -11   -1    0    0    0    0  0.00000000000E+00  0.00000000000E+00  0.45593999997E+02  0.45594000000E+02  0.51100000000E-03 0. -1.
         11   -1    0    0    0    0 -0.00000000000E+00 -0.00000000000E+00 -0.45593999997E+02  0.45594000000E+02  0.51100000000E-03 0.  1.
    9900012    2    1    2    0    0  0.34175835604E+02 -0.11067899895E+02  0.19044203967E+02  0.50528833112E+02  0.29999918727E+02 0.  0.
        -12    1    1    2    0    0 -0.34175835604E+02  0.11067899895E+02 -0.19044203967E+02  0.40659166888E+02  0.00000000000E+00 0.  1.
         11    1    3    3    0    0  0.85030641317E+01 -0.11281847813E+02  0.86784203806E+00  0.14153986709E+02  0.51100000000E-03 0. -1.
        -11    1    3    3    0    0  0.44271343577E+01  0.47086276785E+01  0.12273221793E+02  0.13870928832E+02  0.51100000000E-03 0.  1.
         12    1    3    3    0    0  0.21245637114E+02 -0.44946797604E+01  0.59031401361E+01  0.22503917570E+02  0.00000000000E+00 0. -1.
</event>
<event>
 7    1  0.9865694E-013  0.5052886E+02  0.7816164E-02  0.1300439E+00
        -11   -1    0    0    0    0  0.00000000000E+00  0.00000000000E+00  0.45593999997E+02  0.45594000000E+02  0.51100000000E-03 0.  1.
         11   -1    0    0    0    0 -0.00000000000E+00 -0.00000000000E+00 -0.45593999997E+02  0.45594000000E+02  0.51100000000E-03 0. -1.
    9900012    2    1    2    0    0 -0.31751178283E+02  0.42739687113E+01 -0.25035204076E+02  0.50528861125E+02  0.30000003876E+02 0.  0.
        -12    1    1    2    0    0  0.31751178283E+02 -0.42739687113E+01  0.25035204076E+02  0.40659138875E+02  0.00000000000E+00 0.  1.
         11    1    3    3    0    0 -0.29451516410E+02  0.62603632297E+01 -0.13961834441E+02  0.33189106463E+02  0.51100000000E-03 0. -1.
        -11    1    3    3    0    0  0.48976344486E+01 -0.24451199616E+01 -0.75161595305E+01  0.92982842056E+01  0.51100000000E-03 0.  1.
        -12    1    3    3    0    0 -0.71972963218E+01  0.45872544327E+00 -0.35572101046E+01  0.80414704566E+01  0.00000000000E+00 0.  1.
</event>
<event>
 7    1  0.9865694E-013  0.5052886E+02  0.7816164E-02  0.1300439E+00
        -11   -1    0    0    0    0  0.00000000000E+00  0.00000000000E+00  0.45593999997E+02  0.45594000000E+02  0.51100000000E-03 0. -1.
         11   -1    0    0    0    0 -0.00000000000E+00 -0.00000000000E+00 -0.45593999997E+02  0.45594000000E+02  0.51100000000E-03 0.  1.
    9900012    2    1    2    0    0 -0.20583115885E+02 -0.32090483885E+02  0.14131594674E+02  0.50528858549E+02  0.29999996045E+02 0.  0.
        -12    1    1    2    0    0  0.20583115885E+02  0.32090483885E+02 -0.14131594674E+02  0.40659141451E+02  0.00000000000E+00 0.  1.
         11    1    3    3    0    0  0.52250814296E-01 -0.30663012309E+01  0.14204313684E+02  0.14531602144E+02  0.51100000000E-03 0. -1.
        -11    1    3    3    0    0 -0.95648096406E+01 -0.16053798751E+02  0.21088006043E+01  0.18805772466E+02  0.51100000000E-03 0.  1.
         12    1    3    3    0    0 -0.11070557059E+02 -0.12970383903E+02 -0.21815196142E+01  0.17191483938E+02  0.00000000000E+00 0. -1.
</event>
<event>
 7    1  0.9865694E-013  0.5052886E+02  0.7816164E-02  0.1300439E+00
        -11   -1    0    0    0    0  0.00000000000E+00  0.00000000000E+00  0.45593999997E+02  0.45594000000E+02  0.51100000000E-03 0.  1.
         11   -1    0    0    0    0 -0.00000000000E+00 -0.00000000000E+00 -0.45593999997E+02  0.45594000000E+02  0.51100000000E-03 0. -1.
    9900012    2    1    2    0    0 -0.10021738784E+02 -0.17615130047E+02 -0.35248223616E+02  0.50528864214E+02  0.30000013264E+02 0.  0.
        -12    1    1    2    0    0  0.10021738784E+02  0.17615130047E+02  0.35248223616E+02  0.40659135786E+02  0.00000000000E+00 0.  1.
         11    1    3    3    0    0 -0.92575276799E+01 -0.11282730165E+02 -0.34385031196E+02  0.37354145544E+02  0.51100000000E-03 0. -1.
        -11    1    3    3    0    0 -0.35141197728E+01  0.90982280285E-01  0.34809212612E+01  0.49471333761E+01  0.51100000000E-03 0.  1.
         12    1    3    3    0    0  0.27499086683E+01 -0.64233821627E+01 -0.43441136812E+01  0.82275852938E+01  0.00000000000E+00 0. -1.
</event>
<event>
 7    1  0.9865694E-013  0.5052886E+02  0.7816164E-02  0.1300439E+00
        -11   -1    0    0    0    0  0.00000000000E+00  0.00000000000E+00  0.45593999997E+02  0.45594000000E+02  0.51100000000E-03 0. -1.
         11   -1    0    0    0    0 -0.00000000000E+00 -0.00000000000E+00 -0.45593999997E+02  0.45594000000E+02  0.51100000000E-03 0.  1.
    9900012    2    1    2    0    0  0.98738994972E+01  0.33656640344E+02  0.20564586877E+02  0.50528861250E+02  0.30000004255E+02 0.  0.
        -12    1    1    2    0    0 -0.98738994972E+01 -0.33656640344E+02 -0.20564586877E+02  0.40659138750E+02  0.00000000000E+00 0.  1.
         11    1    3    3    0    0  0.29662542654E+01  0.32193340042E+01 -0.71742508393E+01  0.84043233615E+01  0.51100000000E-03 0.  1.
        -11    1    3    3    0    0  0.70063624972E+01  0.19325716103E+02  0.18923314102E+02  0.27940369274E+02  0.51100000000E-03 0. -1.
        -12    1    3    3    0    0 -0.98717265480E-01  0.11111590237E+02  0.88155236139E+01  0.14184168614E+02  0.00000000000E+00 0.  1.
</event>
<event>
 7    1  0.9865694E-013  0.5052886E+02  0.7816164E-02  0.1300439E+00
        -11   -1    0    0    0    0  0.00000000000E+00  0.00000000000E+00  0.45593999997E+02  0.45594000000E+02  0.51100000000E-03 0. -1.
         11   -1    0    0    0    0 -0.00000000000E+00 -0.00000000000E+00 -0.45593999997E+02  0.45594000000E+02  0.51100000000E-03 0.  1.
    9900012    2    1    2    0    0  0.19723136344E+02 -0.25310838557E+02  0.24970485097E+02  0.50528858572E+02  0.29999996115E+02 0.  0.
        -12    1    1    2    0    0 -0.19723136344E+02  0.25310838557E+02 -0.24970485097E+02  0.40659141428E+02  0.00000000000E+00 0.  1.
         11    1    3    3    0    0 -0.68732659720E+01 -0.65873102524E+01  0.92773205903E+01  0.13292972545E+02  0.51100000000E-03 0. -1.
        -11    1    3    3    0    0  0.76986006438E+01 -0.28630686027E+01  0.43048674620E+00  0.82250187110E+01  0.51100000000E-03 0.  1.
         12    1    3    3    0    0  0.18897801672E+02 -0.15860459702E+02  0.15262677760E+02  0.29010867316E+02  0.00000000000E+00 0. -1.
</event>
<event>
 7    1  0.9865694E-013  0.5052886E+02  0.7816164E-02  0.1300439E+00
        -11   -1    0    0    0    0  0.00000000000E+00  0.00000000000E+00  0.45593999997E+02  0.45594000000E+02  0.51100000000E-03 0. -1.
         11   -1    0    0    0    0 -0.00000000000E+00 -0.00000000000E+00 -0.45593999997E+02  0.45594000000E+02  0.51100000000E-03 0.  1.
    9900012    2    1    2    0    0 -0.24527544780E+02  0.31601119688E+02 -0.72756090955E+01  0.50528859500E+02  0.29999998937E+02 0.  0.
        -12    1    1    2    0    0  0.24527544780E+02 -0.31601119688E+02  0.72756090955E+01  0.40659140500E+02  0.00000000000E+00 0.  1.
         11    1    3    3    0    0 -0.17021253802E+02  0.17476533134E+02 -0.45154946432E+01  0.24810118571E+02  0.51100000000E-03 0. -1.
        -11    1    3    3    0    0  0.53167175096E+01  0.97900473769E+01 -0.46107655460E+01  0.12057017538E+02  0.51100000000E-03 0.  1.
        -12    1    3    3    0    0 -0.12823008488E+02  0.43345391769E+01  0.18506510936E+01  0.13661723391E+02  0.00000000000E+00 0.  1.
</event>
<event>
 7    1  0.9865694E-013  0.5052886E+02  0.7816164E-02  0.1300439E+00
        -11   -1    0    0    0    0  0.00000000000E+00  0.00000000000E+00  0.45593999997E+02  0.45594000000E+02  0.51100000000E-03 0. -1.
         11   -1    0    0    0    0 -0.00000000000E+00 -0.00000000000E+00 -0.45593999997E+02  0.45594000000E+02  0.51100000000E-03 0.  1.
    9900012    2    1    2    0    0 -0.20664173088E+02  0.11948681735E+02  0.32914839746E+02  0.50528859329E+02  0.29999998416E+02 0.  0.
        -12    1    1    2    0    0  0.20664173088E+02 -0.11948681735E+02 -0.32914839746E+02  0.40659140671E+02  0.00000000000E+00 0.  1.
         11    1    3    3    0    0 -0.10454105769E+01  0.14857833255E+02  0.24448744843E+02  0.28628468645E+02  0.51100000000E-03 0. -1.
        -11    1    3    3    0    0 -0.40819474794E+01 -0.21237906489E+01  0.25187344644E+01  0.52456463385E+01  0.51100000000E-03 0.  1.
         12    1    3    3    0    0 -0.15536815032E+02 -0.78536087087E+00  0.59473604388E+01  0.16654744345E+02  0.00000000000E+00 0. -1.
</event>
<event>
 7    1  0.9865694E-013  0.5052886E+02  0.7816164E-02  0.1300439E+00
        -11   -1    0    0    0    0  0.00000000000E+00  0.00000000000E+00  0.45593999997E+02  0.45594000000E+02  0.51100000000E-03 0. -1.
         11   -1    0    0    0    0 -0.00000000000E+00 -0.00000000000E+00 -0.45593999997E+02  0.45594000000E+02  0.51100000000E-03 0.  1.
    9900012    2    1    2    0    0 -0.29656758559E+02 -0.24753274821E+02  0.12685342680E+02  0.50528857590E+02  0.29999993131E+02 0.  0.
        -12    1    1    2    0    0  0.29656758559E+02  0.24753274821E+02 -0.12685342680E+02  0.40659142410E+02  0.00000000000E+00 0.  1.
         11    1    3    3    0    0 -0.11126987784E+02 -0.11218954794E+01  0.16072597161E+02  0.19580523138E+02  0.51100000000E-03 0. -1.
        -11    1    3    3    0    0 -0.17960010444E+02 -0.19651308288E+02 -0.20080778425E+01  0.26697720305E+02  0.51100000000E-03 0.  1.
         12    1    3    3    0    0 -0.56976033158E+00 -0.39800710533E+01 -0.13791766392E+01  0.42506141470E+01  0.00000000000E+00 0. -1.
</event>
<event>
 7    1  0.9865694E-013  0.5052887E+02  0.7816164E-02  0.1300439E+00
        -11   -1    0    0    0    0  0.00000000000E+00  0.00000000000E+00  0.45593999997E+02  0.45594000000E+02  0.51100000000E-03 0.  1.
         11   -1    0    0    0    0 -0.00000000000E+00 -0.00000000000E+00 -0.45593999997E+02  0.45594000000E+02  0.51100000000E-03 0. -1.
    9900012    2    1    2    0    0  0.38336864253E+02  0.56188599464E+01 -0.12323871336E+02  0.50528873687E+02  0.30000042058E+02 0.  0.
        -12    1    1    2    0    0 -0.38336864253E+02 -0.56188599464E+01  0.12323871336E+02  0.40659126313E+02  0.00000000000E+00 0.  1.
         11    1    3    3    0    0  0.39967510124E+02  0.21884607833E+01 -0.98288803968E+01  0.41216478698E+02  0.51100000000E-03 0. -1.
        -11    1    3    3    0    0 -0.23577801984E+01  0.51943844195E+01  0.53738241731E+00  0.57297065444E+01  0.51100000000E-03 0.  1.
        -12    1    3    3    0    0  0.72713432683E+00 -0.17639852565E+01 -0.30323733568E+01  0.35826884444E+01  0.00000000000E+00 0.  1.
</event>
<event>
 7    1  0.9865694E-013  0.5052886E+02  0.7816164E-02  0.1300439E+00
        -11   -1    0    0    0    0  0.00000000000E+00  0.00000000000E+00  0.45593999997E+02  0.45594000000E+02  0.51100000000E-03 0.  1.
         11   -1    0    0    0    0 -0.00000000000E+00 -0.00000000000E+00 -0.45593999997E+02  0.45594000000E+02  0.51100000000E-03 0. -1.
    9900012    2    1    2    0    0  0.91069280724E+01 -0.63737531694E+01 -0.39110160383E+02  0.50528861869E+02  0.30000006138E+02 0.  0.
        -12    1    1    2    0    0 -0.91069280724E+01  0.63737531694E+01  0.39110160383E+02  0.40659138131E+02  0.00000000000E+00 0.  1.
         11    1    3    3    0    0  0.10319355194E+02 -0.87988750676E+01 -0.26030776045E+02  0.29351500743E+02  0.51100000000E-03 0. -1.
        -11    1    3    3    0    0 -0.70045838270E+01 -0.33411809111E+01 -0.94674284441E+01  0.12241727251E+02  0.51100000000E-03 0.  1.
         12    1    3    3    0    0  0.57921567052E+01  0.57663028093E+01 -0.36119558932E+01  0.89356338757E+01  0.00000000000E+00 0. -1.
</event>
<event>
 7    1  0.9865694E-013  0.5052883E+02  0.7816164E-02  0.1300439E+00
        -11   -1    0    0    0    0  0.00000000000E+00  0.00000000000E+00  0.45593999997E+02  0.45594000000E+02  0.51100000000E-03 0.  1.
         11   -1    0    0    0    0 -0.00000000000E+00 -0.00000000000E+00 -0.45593999997E+02  0.45594000000E+02  0.51100000000E-03 0. -1.
    9900012    2    1    2    0    0  0.38545184725E+02  0.12879241124E+02  0.12496332708E+01  0.50528834973E+02  0.29999924383E+02 0.  0.
        -12    1    1    2    0    0 -0.38545184725E+02 -0.12879241124E+02 -0.12496332708E+01  0.40659165027E+02  0.00000000000E+00 0.  1.
         11    1    3    3    0    0  0.14963884238E+02  0.11167724103E+02  0.82427114199E+01  0.20410247057E+02  0.51100000000E-03 0. -1.
        -11    1    3    3    0    0  0.77708047010E+01 -0.72019613095E+01 -0.54192413828E+01  0.11900497041E+02  0.51100000000E-03 0.  1.
        -12    1    3    3    0    0  0.15810495786E+02  0.89134783306E+01 -0.15738367663E+01  0.18218090874E+02  0.00000000000E+00 0.  1.
</event>
<event>
 7    1  0.9865694E-013  0.5052884E+02  0.7816164E-02  0.1300439E+00
        -11   -1    0    0    0    0  0.00000000000E+00  0.00000000000E+00  0.45593999997E+02  0.45594000000E+02  0.51100000000E-03 0.  1.
         11   -1    0    0    0    0 -0.00000000000E+00 -0.00000000000E+00 -0.45593999997E+02  0.45594000000E+02  0.51100000000E-03 0. -1.
    9900012    2    1    2    0    0 -0.37520927264E+01 -0.13618364833E+02 -0.38126488500E+02  0.50528841304E+02  0.29999943627E+02 0.  0.
        -12    1    1    2    0    0  0.37520927264E+01  0.13618364833E+02  0.38126488500E+02  0.40659158696E+02  0.00000000000E+00 0.  1.
         11    1    3    3    0    0 -0.18602570122E+01 -0.21580827984E+00 -0.27372503097E+02  0.27436491311E+02  0.51100000000E-03 0. -1.
        -11    1    3    3    0    0  0.31174319222E+01 -0.13328101537E+02 -0.32477842276E+01  0.14067863200E+02  0.51100000000E-03 0.  1.
        -12    1    3    3    0    0 -0.50092676364E+01 -0.74455017028E-01 -0.75062011749E+01  0.90244867932E+01  0.00000000000E+00 0.  1.
</event>
<event>
 7    1  0.9865694E-013  0.5052886E+02  0.7816164E-02  0.1300439E+00
        -11   -1    0    0    0    0  0.00000000000E+00  0.00000000000E+00  0.45593999997E+02  0.45594000000E+02  0.51100000000E-03 0.  1.
         11   -1    0    0    0    0 -0.00000000000E+00 -0.00000000000E+00 -0.45593999997E+02  0.45594000000E+02  0.51100000000E-03 0. -1.
    9900012    2    1    2    0    0  0.91524842477E+01 -0.17597315663E+02 -0.35492704174E+02  0.50528861592E+02  0.30000005296E+02 0.  0.
        -12    1    1    2    0    0 -0.91524842477E+01  0.17597315663E+02  0.35492704174E+02  0.40659138408E+02  0.00000000000E+00 0.  1.
         11    1    3    3    0    0  0.41894990852E+00 -0.18540612429E+02 -0.19389637087E+02  0.26830725948E+02  0.51100000000E-03 0. -1.
        -11    1    3    3    0    0  0.99003674653E-01  0.49613027023E+01 -0.12614894590E+02  0.13555806579E+02  0.51100000000E-03 0.  1.
         12    1    3    3    0    0  0.86345306645E+01 -0.40180059362E+01 -0.34881724972E+01  0.10142329065E+02  0.00000000000E+00 0. -1.
</event>
<event>
 7    1  0.9865694E-013  0.5052887E+02  0.7816164E-02  0.1300439E+00
        -11   -1    0    0    0    0  0.00000000000E+00  0.00000000000E+00  0.45593999997E+02  0.45594000000E+02  0.51100000000E-03 0. -1.
         11   -1    0    0    0    0 -0.00000000000E+00 -0.00000000000E+00 -0.45593999997E+02  0.45594000000E+02  0.51100000000E-03 0.  1.
    9900012    2    1    2    0    0 -0.19631102002E+02  0.28993659550E+02  0.20667673721E+02  0.50528865762E+02  0.30000017970E+02 0.  0.
        -12    1    1    2    0    0  0.19631102002E+02 -0.28993659550E+02 -0.20667673721E+02  0.40659134238E+02  0.00000000000E+00 0.  1.
         11    1    3    3    0    0 -0.17930715710E+02  0.16277953278E+02  0.11236814246E+02  0.26697346749E+02  0.51100000000E-03 0. -1.
        -11    1    3    3    0    0  0.31431021322E+01 -0.12674255898E+01 -0.29838531805E+01  0.45154001709E+01  0.51100000000E-03 0.  1.
         12    1    3    3    0    0 -0.48434884243E+01  0.13983131862E+02  0.12414712656E+02  0.19316118842E+02  0.00000000000E+00 0. -1.
</event>
<event>
 7    1  0.9865694E-013  0.5052887E+02  0.7816164E-02  0.1300439E+00
        -11   -1    0    0    0    0  0.00000000000E+00  0.00000000000E+00  0.45593999997E+02  0.45594000000E+02  0.51100000000E-03 0. -1.
         11   -1    0    0    0    0 -0.00000000000E+00 -0.00000000000E+00 -0.45593999997E+02  0.45594000000E+02  0.51100000000E-03 0.  1.
    9900012    2    1    2    0    0 -0.36021436352E+02  0.17143001981E+02 -0.78573859931E+01  0.50528869310E+02  0.30000028756E+02 0.  0.
        -12    1    1    2    0    0  0.36021436352E+02 -0.17143001981E+02  0.78573859931E+01  0.40659130690E+02  0.00000000000E+00 0.  1.
         11    1    3    3    0    0 -0.22550237880E+01  0.96046713212E+01  0.51211133716E+01  0.11115783639E+02  0.51100000000E-03 0.  1.
        -11    1    3    3    0    0 -0.13440892203E+02  0.86895654961E+01 -0.99105440956E+01  0.18825116633E+02  0.51100000000E-03 0. -1.
         12    1    3    3    0    0 -0.20325520361E+02 -0.11512348365E+01 -0.30679552692E+01  0.20587969038E+02  0.00000000000E+00 0. -1.
</event>
<event>
 7    1  0.9865694E-013  0.5052885E+02  0.7816164E-02  0.1300439E+00
        -11   -1    0    0    0    0  0.00000000000E+00  0.00000000000E+00  0.45593999997E+02  0.45594000000E+02  0.51100000000E-03 0.  1.
         11   -1    0    0    0    0 -0.00000000000E+00 -0.00000000000E+00 -0.45593999997E+02  0.45594000000E+02  0.51100000000E-03 0. -1.
    9900012    2    1    2    0    0 -0.11089641016E+02 -0.18156366229E+02 -0.34648707731E+02  0.50528847034E+02  0.29999961045E+02 0.  0.
        -12    1    1    2    0    0  0.11089641016E+02  0.18156366229E+02  0.34648707731E+02  0.40659152966E+02  0.00000000000E+00 0.  1.
         11    1    3    3    0    0 -0.40953126391E+01 -0.11219760439E+02 -0.22303351599E+02  0.25300081081E+02  0.51100000000E-03 0. -1.
        -11    1    3    3    0    0 -0.10179405052E+02 -0.10678154677E+02 -0.35812296013E+01  0.15181188367E+02  0.51100000000E-03 0.  1.
        -12    1    3    3    0    0  0.31850766744E+01  0.37415488874E+01 -0.87641265307E+01  0.10047577586E+02  0.00000000000E+00 0.  1.
</event>
<event>
 7    1  0.9865694E-013  0.5052886E+02  0.7816164E-02  0.1300439E+00
        -11   -1    0    0    0    0  0.00000000000E+00  0.00000000000E+00  0.45593999997E+02  0.45594000000E+02  0.51100000000E-03 0.  1.
         11   -1    0    0    0    0 -0.00000000000E+00 -0.00000000000E+00 -0.45593999997E+02  0.45594000000E+02  0.51100000000E-03 0. -1.
    9900012    2    1    2    0    0  0.37234467014E+01  0.26867604893E+02 -0.30289164360E+02  0.50528859260E+02  0.29999998208E+02 0.  0.
        -12    1    1    2    0    0 -0.37234467014E+01 -0.26867604893E+02  0.30289164360E+02  0.40659140740E+02  0.00000000000E+00 0.  1.
         11    1    3    3    0    0  0.48914439252E+00  0.65181884447E+00 -0.18002409676E+02  0.18020845830E+02  0.51100000000E-03 0. -1.
        -11    1    3    3    0    0 -0.45091328522E+01  0.92406176141E+01 -0.21295221421E+00  0.10284291024E+02  0.51100000000E-03 0.  1.
         12    1    3    3    0    0  0.77434351611E+01  0.16975168434E+02 -0.12073802470E+02  0.22223722406E+02  0.00000000000E+00 0. -1.
</event>
<event>
 7    1  0.9865694E-013  0.5052884E+02  0.7816164E-02  0.1300439E+00
        -11   -1    0    0    0    0  0.00000000000E+00  0.00000000000E+00  0.45593999997E+02  0.45594000000E+02  0.51100000000E-03 0.  1.
         11   -1    0    0    0    0 -0.00000000000E+00 -0.00000000000E+00 -0.45593999997E+02  0.45594000000E+02  0.51100000000E-03 0. -1.
    9900012    2    1    2    0    0  0.28413201487E+02 -0.26094841203E+02  0.12841969230E+02  0.50528844452E+02  0.29999953197E+02 0.  0.
        -12    1    1    2    0    0 -0.28413201487E+02  0.26094841203E+02 -0.12841969230E+02  0.40659155548E+02  0.00000000000E+00 0.  1.
         11    1    3    3    0    0  0.29649150921E+02 -0.27047726590E+02  0.11966526944E+02  0.41878985558E+02  0.51100000000E-03 0. -1.
        -11    1    3    3    0    0  0.11300984455E+01  0.61411557531E+00  0.42918070091E+01  0.44803870481E+01  0.51100000000E-03 0.  1.
         12    1    3    3    0    0 -0.23660478792E+01  0.33876981137E+00 -0.34163647236E+01  0.41694718462E+01  0.00000000000E+00 0. -1.
</event>
<event>
 7    1  0.9865694E-013  0.5052885E+02  0.7816164E-02  0.1300439E+00
        -11   -1    0    0    0    0  0.00000000000E+00  0.00000000000E+00  0.45593999997E+02  0.45594000000E+02  0.51100000000E-03 0.  1.
         11   -1    0    0    0    0 -0.00000000000E+00 -0.00000000000E+00 -0.45593999997E+02  0.45594000000E+02  0.51100000000E-03 0. -1.
    9900012    2    1    2    0    0  0.34562918762E+02 -0.13509648193E+02  0.16615060952E+02  0.50528853451E+02  0.29999980549E+02 0.  0.
        -12    1    1    2    0    0 -0.34562918762E+02  0.13509648193E+02 -0.16615060952E+02  0.40659146549E+02  0.00000000000E+00 0.  1.
         11    1    3    3    0    0  0.13422568431E+02  0.28941302902E+01  0.66307974928E+01  0.15248239540E+02  0.51100000000E-03 0. -1.
        -11    1    3    3    0    0 -0.25010274932E+01  0.74655037324E+00  0.50154792042E+01  0.56539815962E+01  0.51100000000E-03 0.  1.
        -12    1    3    3    0    0  0.23641377825E+02 -0.17150328856E+02  0.49687842548E+01  0.29626632314E+02  0.00000000000E+00 0.  1.
</event>
<event>
 7    1  0.9865694E-013  0.5052886E+02  0.7816164E-02  0.1300439E+00
        -11   -1    0    0    0    0  0.00000000000E+00  0.00000000000E+00  0.45593999997E+02  0.45594000000E+02  0.51100000000E-03 0. -1.
         11   -1    0    0    0    0 -0.00000000000E+00 -0.00000000000E+00 -0.45593999997E+02  0.45594000000E+02  0.51100000000E-03 0.  1.
    9900012    2    1    2    0    0 -0.24214006561E+02  0.25698087583E+02  0.20160756391E+02  0.50528856903E+02  0.29999991042E+02 0.  0.
        -12    1    1    2    0    0  0.24214006561E+02 -0.25698087583E+02 -0.20160756391E+02  0.40659143097E+02  0.00000000000E+00 0.  1.
         11    1    3    3    0    0 -0.86471767658E+01  0.13247224960E+01  0.14067239367E+01  0.88604417614E+01  0.51100000000E-03 0. -1.
        -11    1    3    3    0    0 -0.13063761588E+02  0.26514228547E+02  0.22150952275E+02  0.36936849747E+02  0.51100000000E-03 0.  1.
        -12    1    3    3    0    0 -0.25030682069E+01 -0.21408634606E+01 -0.33969198215E+01  0.47315653941E+01  0.00000000000E+00 0.  1.
</event>
<event>
 7    1  0.9865694E-013  0.5052884E+02  0.7816164E-02  0.1300439E+00
        -11   -1    0    0    0    0  0.00000000000E+00  0.00000000000E+00  0.45593999997E+02  0.45594000000E+02  0.51100000000E-03 0.  1.
         11   -1    0    0    0    0 -0.00000000000E+00 -0.00000000000E+00 -0.45593999997E+02  0.45594000000E+02  0.51100000000E-03 0. -1.
    9900012    2    1    2    0    0 -0.11397530681E+02  0.50156841175E+01 -0.38705378992E+02  0.50528841675E+02  0.29999944756E+02 0.  0.
        -12    1    1    2    0    0  0.11397530681E+02 -0.50156841175E+01  0.38705378992E+02  0.40659158325E+02  0.00000000000E+00 0.  1.
         11    1    3    3    0    0 -0.10181574573E+02  0.13430570831E+02 -0.19704223350E+02  0.25928769961E+02  0.51100000000E-03 0. -1.
        -11    1    3    3    0    0 -0.52900904891E+01 -0.95189170077E+01 -0.10595349446E+02  0.15193954999E+02  0.51100000000E-03 0.  1.
        -12    1    3    3    0    0  0.40741343805E+01  0.11040302944E+01 -0.84058061965E+01  0.94061167149E+01  0.00000000000E+00 0.  1.
</event>
<event>
 7    1  0.9865694E-013  0.5052890E+02  0.7816164E-02  0.1300439E+00
        -11   -1    0    0    0    0  0.00000000000E+00  0.00000000000E+00  0.45593999997E+02  0.45594000000E+02  0.51100000000E-03 0. -1.
         11   -1    0    0    0    0 -0.00000000000E+00 -0.00000000000E+00 -0.45593999997E+02  0.45594000000E+02  0.51100000000E-03 0.  1.
    9900012    2    1    2    0    0  0.12116610929E+02  0.38788866874E+02  0.13318679397E+01  0.50528901068E+02  0.30000125286E+02 0.  0.
        -12    1    1    2    0    0 -0.12116610929E+02 -0.38788866874E+02 -0.13318679397E+01  0.40659098932E+02  0.00000000000E+00 0.  1.
         11    1    3    3    0    0 -0.15764526099E+00  0.17827132575E+01  0.68817658005E+01  0.71106694045E+01  0.51100000000E-03 0.  1.
        -11    1    3    3    0    0  0.15128595592E+02  0.32568725643E+02 -0.21023254772E+00  0.35911564886E+02  0.51100000000E-03 0. -1.
         12    1    3    3    0    0 -0.28543394028E+01  0.44374279734E+01 -0.53396653130E+01  0.75066667770E+01  0.00000000000E+00 0. -1.
</event>
<event>
 7    1  0.9865694E-013  0.5052885E+02  0.7816164E-02  0.1300439E+00
        -11   -1    0    0    0    0  0.00000000000E+00  0.00000000000E+00  0.45593999997E+02  0.45594000000E+02  0.51100000000E-03 0.  1.
         11   -1    0    0    0    0 -0.00000000000E+00 -0.00000000000E+00 -0.45593999997E+02  0.45594000000E+02  0.51100000000E-03 0. -1.
    9900012    2    1    2    0    0  0.28099124108E+02 -0.23574338752E+02 -0.17545822253E+02  0.50528854636E+02  0.29999984151E+02 0.  0.
        -12    1    1    2    0    0 -0.28099124108E+02  0.23574338752E+02  0.17545822253E+02  0.40659145364E+02  0.00000000000E+00 0.  1.
         11    1    3    3    0    0  0.12761378040E+02 -0.16481376565E+02 -0.11368969711E+02  0.23743252000E+02  0.51100000000E-03 0. -1.
        -11    1    3    3    0    0  0.17194917634E+02 -0.18614849990E+01  0.14458363074E+01  0.17355712654E+02  0.51100000000E-03 0.  1.
        -12    1    3    3    0    0 -0.18571715655E+01 -0.52314771878E+01 -0.76226888491E+01  0.94298899824E+01  0.00000000000E+00 0.  1.
</event>
<event>
 7    1  0.9865694E-013  0.5052879E+02  0.7816164E-02  0.1300439E+00
        -11   -1    0    0    0    0  0.00000000000E+00  0.00000000000E+00  0.45593999997E+02  0.45594000000E+02  0.51100000000E-03 0.  1.
         11   -1    0    0    0    0 -0.00000000000E+00 -0.00000000000E+00 -0.45593999997E+02  0.45594000000E+02  0.51100000000E-03 0. -1.
    9900012    2    1    2    0    0 -0.13821581524E+02 -0.38218271283E+02  0.12242283983E+01  0.50528793037E+02  0.29999796914E+02 0.  0.
        -12    1    1    2    0    0  0.13821581524E+02  0.38218271283E+02 -0.12242283983E+01  0.40659206963E+02  0.00000000000E+00 0.  1.
         11    1    3    3    0    0 -0.61654011092E+01 -0.32401362223E+02 -0.14313299886E+01  0.33013772134E+02  0.51100000000E-03 0. -1.
        -11    1    3    3    0    0  0.20974968193E+01  0.12511684036E+01  0.47006189249E+01  0.52972383200E+01  0.51100000000E-03 0.  1.
         12    1    3    3    0    0 -0.97536772345E+01 -0.70680774641E+01 -0.20450605379E+01  0.12217782583E+02  0.00000000000E+00 0. -1.
</event>
<event>
 7    1  0.9865694E-013  0.5052887E+02  0.7816164E-02  0.1300439E+00
        -11   -1    0    0    0    0  0.00000000000E+00  0.00000000000E+00  0.45593999997E+02  0.45594000000E+02  0.51100000000E-03 0. -1.
         11   -1    0    0    0    0 -0.00000000000E+00 -0.00000000000E+00 -0.45593999997E+02  0.45594000000E+02  0.51100000000E-03 0.  1.
    9900012    2    1    2    0    0 -0.22799903639E+02 -0.17853902065E+02  0.28540633500E+02  0.50528865904E+02  0.30000018401E+02 0.  0.
        -12    1    1    2    0    0  0.22799903639E+02  0.17853902065E+02 -0.28540633500E+02  0.40659134096E+02  0.00000000000E+00 0.  1.
         11    1    3    3    0    0  0.40892794084E+01 -0.85911494204E+01  0.18886458172E+01  0.97003627627E+01  0.51100000000E-03 0. -1.
        -11    1    3    3    0    0 -0.10008013412E+02  0.86241534884E+00  0.39839369045E+01  0.10806287346E+02  0.51100000000E-03 0.  1.
         12    1    3    3    0    0 -0.16881169635E+02 -0.10125167994E+02  0.22668050778E+02  0.30022215795E+02  0.00000000000E+00 0. -1.
</event>
<event>
 7    1  0.9865694E-013  0.5052879E+02  0.7816164E-02  0.1300439E+00
        -11   -1    0    0    0    0  0.00000000000E+00  0.00000000000E+00  0.45593999997E+02  0.45594000000E+02  0.51100000000E-03 0.  1.
         11   -1    0    0    0    0 -0.00000000000E+00 -0.00000000000E+00 -0.45593999997E+02  0.45594000000E+02  0.51100000000E-03 0. -1.
    9900012    2    1    2    0    0 -0.57477492326E+01  0.32500508951E+02 -0.23745558062E+02  0.50528791560E+02  0.29999792425E+02 0.  0.
        -12    1    1    2    0    0  0.57477492326E+01 -0.32500508951E+02  0.23745558062E+02  0.40659208440E+02  0.00000000000E+00 0.  1.
         11    1    3    3    0    0 -0.10153149815E+02  0.30735890499E+02 -0.27528694440E+02  0.42492475025E+02  0.51100000000E-03 0. -1.
        -11    1    3    3    0    0  0.26511755179E+01  0.36518984289E+01  0.23525345182E+01  0.50891563821E+01  0.51100000000E-03 0.  1.
         12    1    3    3    0    0  0.17542250642E+01 -0.18872799768E+01  0.14306018599E+01  0.29471601531E+01  0.00000000000E+00 0. -1.
</event>
<event>
 7    1  0.9865694E-013  0.5052893E+02  0.7816164E-02  0.1300439E+00
        -11   -1    0    0    0    0  0.00000000000E+00  0.00000000000E+00  0.45593999997E+02  0.45594000000E+02  0.51100000000E-03 0. -1.
         11   -1    0    0    0    0 -0.00000000000E+00 -0.00000000000E+00 -0.45593999997E+02  0.45594000000E+02  0.51100000000E-03 0.  1.
    9900012    2    1    2    0    0  0.82688960359E+01 -0.37955189914E+02  0.12007860955E+02  0.50528932035E+02  0.30000219413E+02 0.  0.
        -12    1    1    2    0    0 -0.82688960359E+01  0.37955189914E+02 -0.12007860955E+02  0.40659067965E+02  0.00000000000E+00 0.  1.
         11    1    3    3    0    0 -0.60835711148E+01 -0.24922547498E+02  0.62685093519E+01  0.26409040517E+02  0.51100000000E-03 0. -1.
        -11    1    3    3    0    0  0.69996054080E+01 -0.11502940407E+02 -0.16717956727E+01  0.13568604014E+02  0.51100000000E-03 0.  1.
         12    1    3    3    0    0  0.73528617426E+01 -0.15297020099E+01  0.74111472755E+01  0.10551287504E+02  0.00000000000E+00 0. -1.
</event>
<event>
 7    1  0.9865694E-013  0.5052886E+02  0.7816164E-02  0.1300439E+00
        -11   -1    0    0    0    0  0.00000000000E+00  0.00000000000E+00  0.45593999997E+02  0.45594000000E+02  0.51100000000E-03 0. -1.
         11   -1    0    0    0    0 -0.00000000000E+00 -0.00000000000E+00 -0.45593999997E+02  0.45594000000E+02  0.51100000000E-03 0.  1.
    9900012    2    1    2    0    0  0.14746349389E+02 -0.25220469182E+02 -0.28277886731E+02  0.50528858789E+02  0.29999996774E+02 0.  0.
        -12    1    1    2    0    0 -0.14746349389E+02  0.25220469182E+02  0.28277886731E+02  0.40659141211E+02  0.00000000000E+00 0.  1.
         11    1    3    3    0    0 -0.20695554384E+01 -0.14793253514E+02 -0.11724897547E+01  0.14983262052E+02  0.51100000000E-03 0. -1.
        -11    1    3    3    0    0  0.43191907524E+01 -0.56387954193E+00 -0.14789592529E+02  0.15417698153E+02  0.51100000000E-03 0.  1.
         12    1    3    3    0    0  0.12496714075E+02 -0.98633361265E+01 -0.12315804447E+02  0.20127898583E+02  0.00000000000E+00 0. -1.
</event>
<event>
 7    1  0.9865694E-013  0.5052886E+02  0.7816164E-02  0.1300439E+00
        -11   -1    0    0    0    0  0.00000000000E+00  0.00000000000E+00  0.45593999997E+02  0.45594000000E+02  0.51100000000E-03 0. -1.
         11   -1    0    0    0    0 -0.00000000000E+00 -0.00000000000E+00 -0.45593999997E+02  0.45594000000E+02  0.51100000000E-03 0.  1.
    9900012    2    1    2    0    0 -0.35115416735E+02 -0.94862227111E+01  0.18168227350E+02  0.50528863280E+02  0.30000010424E+02 0.  0.
        -12    1    1    2    0    0  0.35115416735E+02  0.94862227111E+01 -0.18168227350E+02  0.40659136720E+02  0.00000000000E+00 0.  1.
         11    1    3    3    0    0  0.26567332626E+01  0.10242579575E+01 -0.29192463651E+01  0.40779082375E+01  0.51100000000E-03 0. -1.
        -11    1    3    3    0    0 -0.29304900248E+02 -0.12372894489E+02  0.20322879478E+02  0.37747650617E+02  0.51100000000E-03 0.  1.
        -12    1    3    3    0    0 -0.84672497495E+01  0.18624138204E+01  0.76459423704E+00  0.87033044246E+01  0.00000000000E+00 0.  1.
</event>
<event>
 7    1  0.9865694E-013  0.5052886E+02  0.7816164E-02  0.1300439E+00
        -11   -1    0    0    0    0  0.00000000000E+00  0.00000000000E+00  0.45593999997E+02  0.45594000000E+02  0.51100000000E-03 0. -1.
         11   -1    0    0    0    0 -0.00000000000E+00 -0.00000000000E+00 -0.45593999997E+02  0.45594000000E+02  0.51100000000E-03 0.  1.
    9900012    2    1    2    0    0  0.31522779122E+02 -0.13611534397E+02  0.21776279638E+02  0.50528858013E+02  0.29999994418E+02 0.  0.
        -12    1    1    2    0    0 -0.31522779122E+02  0.13611534397E+02 -0.21776279638E+02  0.40659141987E+02  0.00000000000E+00 0.  1.
         11    1    3    3    0    0  0.37978460539E+01 -0.39938766366E+01  0.13502731447E+02  0.14584184654E+02  0.51100000000E-03 0. -1.
        -11    1    3    3    0    0  0.26999352646E+01 -0.77251813846E+01 -0.26105151805E+01  0.85896954327E+01  0.51100000000E-03 0.  1.
        -12    1    3    3    0    0  0.25024997803E+02 -0.18924763759E+01  0.10884063372E+02  0.27354977927E+02  0.00000000000E+00 0.  1.
</event>
<event>
 7    1  0.9865694E-013  0.5052886E+02  0.7816164E-02  0.1300439E+00
        -11   -1    0    0    0    0  0.00000000000E+00  0.00000000000E+00  0.45593999997E+02  0.45594000000E+02  0.51100000000E-03 0.  1.
         11   -1    0    0    0    0 -0.00000000000E+00 -0.00000000000E+00 -0.45593999997E+02  0.45594000000E+02  0.51100000000E-03 0. -1.
    9900012    2    1    2    0    0 -0.15055691713E+02  0.47416929601E+01 -0.37470100103E+02  0.50528857033E+02  0.29999991437E+02 0.  0.
        -12    1    1    2    0    0  0.15055691713E+02 -0.47416929601E+01  0.37470100103E+02  0.40659142967E+02  0.00000000000E+00 0.  1.
         11    1    3    3    0    0 -0.27902309191E+01 -0.84373187484E+01 -0.15894516651E+02  0.18210145416E+02  0.51100000000E-03 0. -1.
        -11    1    3    3    0    0 -0.11300204159E+02  0.13139237066E+02 -0.24060841307E+02  0.29652289108E+02  0.51100000000E-03 0.  1.
        -12    1    3    3    0    0 -0.96525663499E+00  0.39774642198E-01  0.24852578543E+01  0.26664225089E+01  0.00000000000E+00 0.  1.
</event>
<event>
 7    1  0.9865694E-013  0.5052890E+02  0.7816164E-02  0.1300439E+00
        -11   -1    0    0    0    0  0.00000000000E+00  0.00000000000E+00  0.45593999997E+02  0.45594000000E+02  0.51100000000E-03 0. -1.
         11   -1    0    0    0    0 -0.00000000000E+00 -0.00000000000E+00 -0.45593999997E+02  0.45594000000E+02  0.51100000000E-03 0.  1.
    9900012    2    1    2    0    0 -0.52403654504E+01 -0.38900193058E+02  0.10605469237E+02  0.50528899816E+02  0.30000121482E+02 0.  0.
        -12    1    1    2    0    0  0.52403654504E+01  0.38900193058E+02 -0.10605469237E+02  0.40659100184E+02  0.00000000000E+00 0.  1.
         11    1    3    3    0    0 -0.32501033940E+01 -0.24711211432E+02  0.17883805234E+02  0.30676336685E+02  0.51100000000E-03 0. -1.
        -11    1    3    3    0    0 -0.53654579578E+01 -0.40429333861E+01 -0.61367552814E+01  0.90990777063E+01  0.51100000000E-03 0.  1.
        -12    1    3    3    0    0  0.33751959013E+01 -0.10146048240E+02 -0.11415807154E+01  0.10753485425E+02  0.00000000000E+00 0.  1.
</event>
<event>
 7    1  0.9865694E-013  0.5052886E+02  0.7816164E-02  0.1300439E+00
        -11   -1    0    0    0    0  0.00000000000E+00  0.00000000000E+00  0.45593999997E+02  0.45594000000E+02  0.51100000000E-03 0.  1.
         11   -1    0    0    0    0 -0.00000000000E+00 -0.00000000000E+00 -0.45593999997E+02  0.45594000000E+02  0.51100000000E-03 0. -1.
    9900012    2    1    2    0    0 -0.17753079373E+02 -0.36502949597E+02  0.23513100895E+01  0.50528858154E+02  0.29999994844E+02 0.  0.
        -12    1    1    2    0    0  0.17753079373E+02  0.36502949597E+02 -0.23513100895E+01  0.40659141846E+02  0.00000000000E+00 0.  1.
         11    1    3    3    0    0 -0.27961477086E+01 -0.49197090346E+01 -0.10958868354E+02  0.12333644022E+02  0.51100000000E-03 0. -1.
        -11    1    3    3    0    0 -0.12572426278E+01 -0.95273247966E+01  0.55434581254E+01  0.11094165361E+02  0.51100000000E-03 0.  1.
         12    1    3    3    0    0 -0.13699689037E+02 -0.22055915766E+02  0.77667203180E+01  0.27101048771E+02  0.00000000000E+00 0. -1.
</event>
<event>
 7    1  0.9865694E-013  0.5052886E+02  0.7816164E-02  0.1300439E+00
        -11   -1    0    0    0    0  0.00000000000E+00  0.00000000000E+00  0.45593999997E+02  0.45594000000E+02  0.51100000000E-03 0.  1.
         11   -1    0    0    0    0 -0.00000000000E+00 -0.00000000000E+00 -0.45593999997E+02  0.45594000000E+02  0.51100000000E-03 0. -1.
    9900012    2    1    2    0    0 -0.15152732574E+02  0.34095800642E+02 -0.16156618902E+02  0.50528864984E+02  0.30000015606E+02 0.  0.
        -12    1    1    2    0    0  0.15152732574E+02 -0.34095800642E+02  0.16156618902E+02  0.40659135016E+02  0.00000000000E+00 0.  1.
         11    1    3    3    0    0 -0.54225432704E+01  0.35130003983E+02 -0.12189092384E+02  0.37577854233E+02  0.51100000000E-03 0. -1.
        -11    1    3    3    0    0  0.33152639282E+00 -0.18680532645E+01  0.41915792665E+00  0.19429941783E+01  0.51100000000E-03 0.  1.
         12    1    3    3    0    0 -0.10061715696E+02  0.83384992365E+00 -0.43866844452E+01  0.11008016573E+02  0.00000000000E+00 0. -1.
</event>
<event>
 7    1  0.9865694E-013  0.5052887E+02  0.7816164E-02  0.1300439E+00
        -11   -1    0    0    0    0  0.00000000000E+00  0.00000000000E+00  0.45593999997E+02  0.45594000000E+02  0.51100000000E-03 0.  1.
         11   -1    0    0    0    0 -0.00000000000E+00 -0.00000000000E+00 -0.45593999997E+02  0.45594000000E+02  0.51100000000E-03 0. -1.
    9900012    2    1    2    0    0 -0.16181856878E+01 -0.15846573319E+02 -0.37408992639E+02  0.50528866449E+02  0.30000020057E+02 0.  0.
        -12    1    1    2    0    0  0.16181856878E+01  0.15846573319E+02  0.37408992639E+02  0.40659133551E+02  0.00000000000E+00 0.  1.
         11    1    3    3    0    0 -0.11086541728E+02 -0.15369584333E+02 -0.29626750401E+02  0.35169302945E+02  0.51100000000E-03 0. -1.
        -11    1    3    3    0    0  0.75830905664E+01 -0.50178827721E+00 -0.25945428586E+00  0.76041022350E+01  0.51100000000E-03 0.  1.
         12    1    3    3    0    0  0.18852654742E+01  0.24799291446E-01 -0.75227879523E+01  0.77554612685E+01  0.00000000000E+00 0. -1.
</event>
<event>
 7    1  0.9865694E-013  0.5052884E+02  0.7816164E-02  0.1300439E+00
        -11   -1    0    0    0    0  0.00000000000E+00  0.00000000000E+00  0.45593999997E+02  0.45594000000E+02  0.51100000000E-03 0. -1.
         11   -1    0    0    0    0 -0.00000000000E+00 -0.00000000000E+00 -0.45593999997E+02  0.45594000000E+02  0.51100000000E-03 0.  1.
    9900012    2    1    2    0    0 -0.69762993297E+01 -0.11857997115E+02  0.38260773395E+02  0.50528835858E+02  0.29999927074E+02 0.  0.
        -12    1    1    2    0    0  0.69762993297E+01  0.11857997115E+02 -0.38260773395E+02  0.40659164142E+02  0.00000000000E+00 0.  1.
         11    1    3    3    0    0 -0.84882215259E+01 -0.59743825085E+01  0.12547704166E+02  0.16284594902E+02  0.51100000000E-03 0. -1.
        -11    1    3    3    0    0  0.11342220256E+02 -0.50755195201E+00  0.14172987757E+02  0.18159767386E+02  0.51100000000E-03 0.  1.
        -12    1    3    3    0    0 -0.98302980597E+01 -0.53760626550E+01  0.11540081472E+02  0.16084473569E+02  0.00000000000E+00 0.  1.
</event>
<event>
 7    1  0.9865694E-013  0.5052885E+02  0.7816164E-02  0.1300439E+00
        -11   -1    0    0    0    0  0.00000000000E+00  0.00000000000E+00  0.45593999997E+02  0.45594000000E+02  0.51100000000E-03 0. -1.
         11   -1    0    0    0    0 -0.00000000000E+00 -0.00000000000E+00 -0.45593999997E+02  0.45594000000E+02  0.51100000000E-03 0.  1.
    9900012    2    1    2    0    0  0.24026230388E+02 -0.12991939898E+02 -0.30118366723E+02  0.50528852653E+02  0.29999978124E+02 0.  0.
        -12    1    1    2    0    0 -0.24026230388E+02  0.12991939898E+02  0.30118366723E+02  0.40659147347E+02  0.00000000000E+00 0.  1.
         11    1    3    3    0    0  0.19542612476E+02 -0.89780987329E+01 -0.91221262283E+01  0.23360932054E+02  0.51100000000E-03 0. -1.
        -11    1    3    3    0    0 -0.71530934280E+00  0.52979175811E+01 -0.12284111423E+02  0.13396976967E+02  0.51100000000E-03 0.  1.
        -12    1    3    3    0    0  0.51989272542E+01 -0.93117587460E+01 -0.87121290713E+01  0.13770943631E+02  0.00000000000E+00 0.  1.
</event>
<event>
 7    1  0.9865694E-013  0.5052887E+02  0.7816164E-02  0.1300439E+00
        -11   -1    0    0    0    0  0.00000000000E+00  0.00000000000E+00  0.45593999997E+02  0.45594000000E+02  0.51100000000E-03 0.  1.
         11   -1    0    0    0    0 -0.00000000000E+00 -0.00000000000E+00 -0.45593999997E+02  0.45594000000E+02  0.51100000000E-03 0. -1.
    9900012    2    1    2    0    0  0.63119540840E+01  0.38236490787E+02 -0.12300184289E+02  0.50528874018E+02  0.30000043065E+02 0.  0.
        -12    1    1    2    0    0 -0.63119540840E+01 -0.38236490787E+02  0.12300184289E+02  0.40659125982E+02  0.00000000000E+00 0.  1.
         11    1    3    3    0    0 -0.58609287818E+01  0.21827155950E+02 -0.26276320566E+01  0.22752575097E+02  0.51100000000E-03 0. -1.
        -11    1    3    3    0    0  0.86186588363E+01  0.45055506656E+01  0.28526789252E+01  0.10135040417E+02  0.51100000000E-03 0.  1.
         12    1    3    3    0    0  0.35542240294E+01  0.11903784172E+02 -0.12525231158E+02  0.17641258504E+02  0.00000000000E+00 0. -1.
</event>
<event>
 7    1  0.9865694E-013  0.5052885E+02  0.7816164E-02  0.1300439E+00
        -11   -1    0    0    0    0  0.00000000000E+00  0.00000000000E+00  0.45593999997E+02  0.45594000000E+02  0.51100000000E-03 0.  1.
         11   -1    0    0    0    0 -0.00000000000E+00 -0.00000000000E+00 -0.45593999997E+02  0.45594000000E+02  0.51100000000E-03 0. -1.
    9900012    2    1    2    0    0 -0.74836210996E+01  0.39543989754E+02  0.57822724770E+01  0.50528851147E+02  0.29999973548E+02 0.  0.
        -12    1    1    2    0    0  0.74836210996E+01 -0.39543989754E+02 -0.57822724770E+01  0.40659148853E+02  0.00000000000E+00 0.  1.
         11    1    3    3    0    0 -0.93788356203E+01  0.57487168658E+01 -0.74420824839E+01  0.13281373994E+02  0.51100000000E-03 0. -1.
        -11    1    3    3    0    0  0.88519732908E+00  0.44951824226E+01  0.50354845906E+01  0.68078149686E+01  0.51100000000E-03 0.  1.
         12    1    3    3    0    0  0.10100171916E+01  0.29300090465E+02  0.81888703704E+01  0.30439662185E+02  0.00000000000E+00 0. -1.
</event>
<event>
 7    1  0.9865694E-013  0.5052887E+02  0.7816164E-02  0.1300439E+00
        -11   -1    0    0    0    0  0.00000000000E+00  0.00000000000E+00  0.45593999997E+02  0.45594000000E+02  0.51100000000E-03 0. -1.
         11   -1    0    0    0    0 -0.00000000000E+00 -0.00000000000E+00 -0.45593999997E+02  0.45594000000E+02  0.51100000000E-03 0.  1.
    9900012    2    1    2    0    0 -0.47935121253E+01  0.37466880522E+02  0.15047260838E+02  0.50528868759E+02  0.30000027080E+02 0.  0.
        -12    1    1    2    0    0  0.47935121253E+01 -0.37466880522E+02 -0.15047260838E+02  0.40659131241E+02  0.00000000000E+00 0.  1.
         11    1    3    3    0    0  0.36463274628E+01  0.11240502155E+02  0.14205739467E+02  0.18478301511E+02  0.51100000000E-03 0. -1.
        -11    1    3    3    0    0 -0.22408320668E+01  0.25591911464E+02 -0.41767741579E+00  0.25693223142E+02  0.51100000000E-03 0.  1.
         12    1    3    3    0    0 -0.61990075213E+01  0.63446690294E+00  0.12591987871E+01  0.63573441063E+01  0.00000000000E+00 0. -1.
</event>
<event>
 7    1  0.9865694E-013  0.5052886E+02  0.7816164E-02  0.1300439E+00
        -11   -1    0    0    0    0  0.00000000000E+00  0.00000000000E+00  0.45593999997E+02  0.45594000000E+02  0.51100000000E-03 0. -1.
         11   -1    0    0    0    0 -0.00000000000E+00 -0.00000000000E+00 -0.45593999997E+02  0.45594000000E+02  0.51100000000E-03 0.  1.
    9900012    2    1    2    0    0  0.27360418169E+02 -0.29495406386E+02 -0.58816695807E+01  0.50528861823E+02  0.30000005998E+02 0.  0.
        -12    1    1    2    0    0 -0.27360418169E+02  0.29495406386E+02  0.58816695807E+01  0.40659138177E+02  0.00000000000E+00 0.  1.
         11    1    3    3    0    0  0.14080842466E+02 -0.23183243657E+01 -0.80996922946E+01  0.16408832010E+02  0.51100000000E-03 0. -1.
        -11    1    3    3    0    0  0.46556967705E+01 -0.16940344336E+02 -0.58193390222E+01  0.18507173895E+02  0.51100000000E-03 0.  1.
         12    1    3    3    0    0  0.86238789325E+01 -0.10236737684E+02  0.80373617361E+01  0.15612855918E+02  0.00000000000E+00 0. -1.
</event>
<event>
 7    1  0.9865694E-013  0.5052884E+02  0.7816164E-02  0.1300439E+00
        -11   -1    0    0    0    0  0.00000000000E+00  0.00000000000E+00  0.45593999997E+02  0.45594000000E+02  0.51100000000E-03 0. -1.
         11   -1    0    0    0    0 -0.00000000000E+00 -0.00000000000E+00 -0.45593999997E+02  0.45594000000E+02  0.51100000000E-03 0.  1.
    9900012    2    1    2    0    0  0.25308901890E+02 -0.11952596400E+02  0.29491725679E+02  0.50528844093E+02  0.29999952104E+02 0.  0.
        -12    1    1    2    0    0 -0.25308901890E+02  0.11952596400E+02 -0.29491725679E+02  0.40659155907E+02  0.00000000000E+00 0.  1.
         11    1    3    3    0    0  0.80790108733E+01 -0.12150908647E+02 -0.18939380437E+01  0.14714006905E+02  0.51100000000E-03 0. -1.
        -11    1    3    3    0    0  0.83133311449E+01  0.52377681525E+00  0.15133505638E+02  0.17274513308E+02  0.51100000000E-03 0.  1.
         12    1    3    3    0    0  0.89165598716E+01 -0.32546456823E+00  0.16252158085E+02  0.18540323880E+02  0.00000000000E+00 0. -1.
</event>
<event>
 7    1  0.9865694E-013  0.5052885E+02  0.7816164E-02  0.1300439E+00
        -11   -1    0    0    0    0  0.00000000000E+00  0.00000000000E+00  0.45593999997E+02  0.45594000000E+02  0.51100000000E-03 0.  1.
         11   -1    0    0    0    0 -0.00000000000E+00 -0.00000000000E+00 -0.45593999997E+02  0.45594000000E+02  0.51100000000E-03 0. -1.
    9900012    2    1    2    0    0 -0.15232557897E+02 -0.22806772217E+02 -0.30016438998E+02  0.50528852331E+02  0.29999977145E+02 0.  0.
        -12    1    1    2    0    0  0.15232557897E+02  0.22806772217E+02  0.30016438998E+02  0.40659147669E+02  0.00000000000E+00 0.  1.
         11    1    3    3    0    0  0.38896347649E+01 -0.43166267587E+01 -0.19347999258E+02  0.20201673216E+02  0.51100000000E-03 0. -1.
        -11    1    3    3    0    0 -0.20070303641E+02 -0.17133965086E+02 -0.87688999192E+01  0.27807974645E+02  0.51100000000E-03 0.  1.
        -12    1    3    3    0    0  0.94811097890E+00 -0.13561803715E+01 -0.18995398215E+01  0.25192044700E+01  0.00000000000E+00 0.  1.
</event>
<event>
 7    1  0.9865694E-013  0.5052885E+02  0.7816164E-02  0.1300439E+00
        -11   -1    0    0    0    0  0.00000000000E+00  0.00000000000E+00  0.45593999997E+02  0.45594000000E+02  0.51100000000E-03 0. -1.
         11   -1    0    0    0    0 -0.00000000000E+00 -0.00000000000E+00 -0.45593999997E+02  0.45594000000E+02  0.51100000000E-03 0.  1.
    9900012    2    1    2    0    0  0.98258332856E+01 -0.25055711465E+02  0.30476719189E+02  0.50528854789E+02  0.29999984616E+02 0.  0.
        -12    1    1    2    0    0 -0.98258332856E+01  0.25055711465E+02 -0.30476719189E+02  0.40659145211E+02  0.00000000000E+00 0.  1.
         11    1    3    3    0    0  0.97299679165E+01 -0.92371580770E+01  0.19804384505E+02  0.23920932484E+02  0.51100000000E-03 0. -1.
        -11    1    3    3    0    0 -0.51794927138E+01 -0.15583768220E+02  0.12893934624E+02  0.20879045166E+02  0.51100000000E-03 0.  1.
        -12    1    3    3    0    0  0.52753580828E+01 -0.23478516727E+00 -0.22215999396E+01  0.57288771385E+01  0.00000000000E+00 0.  1.
</event>
<event>
 7    1  0.1173867E-012  0.5052886E+02  0.7816164E-02  0.1300439E+00
        -11   -1    0    0    0    0  0.00000000000E+00  0.00000000000E+00  0.45593999997E+02  0.45594000000E+02  0.51100000000E-03 0.  1.
         11   -1    0    0    0    0 -0.00000000000E+00 -0.00000000000E+00 -0.45593999997E+02  0.45594000000E+02  0.51100000000E-03 0. -1.
    9900012    2    1    2    0    0 -0.16046536401E+02 -0.37223358253E+02 -0.31774416745E+01  0.50528857538E+02  0.29999992974E+02 0.  0.
        -12    1    1    2    0    0  0.16046536401E+02  0.37223358253E+02  0.31774416745E+01  0.40659142462E+02  0.00000000000E+00 0.  1.
         11    1    3    3    0    0 -0.14311039275E+02 -0.13947154329E+02  0.11054664291E+01  0.20013770642E+02  0.51100000000E-03 0. -1.
        -11    1    3    3    0    0  0.15192415560E+00 -0.20519508905E+02 -0.10802140661E+02  0.23189643589E+02  0.51100000000E-03 0.  1.
        -12    1    3    3    0    0 -0.18874212817E+01 -0.27566950185E+01  0.65192325572E+01  0.73254433078E+01  0.00000000000E+00 0.  1.
</event>
<event>
 7    1  0.9865694E-013  0.5052887E+02  0.7816164E-02  0.1300439E+00
        -11   -1    0    0    0    0  0.00000000000E+00  0.00000000000E+00  0.45593999997E+02  0.45594000000E+02  0.51100000000E-03 0. -1.
         11   -1    0    0    0    0 -0.00000000000E+00 -0.00000000000E+00 -0.45593999997E+02  0.45594000000E+02  0.51100000000E-03 0.  1.
    9900012    2    1    2    0    0  0.74887404254E+01  0.32378413922E+02  0.23424822937E+02  0.50528865099E+02  0.30000015954E+02 0.  0.
        -12    1    1    2    0    0 -0.74887404254E+01 -0.32378413922E+02 -0.23424822937E+02  0.40659134901E+02  0.00000000000E+00 0.  1.
         11    1    3    3    0    0 -0.54911070466E+01  0.28696138624E+02  0.88995288708E+01  0.30542138807E+02  0.51100000000E-03 0. -1.
        -11    1    3    3    0    0  0.68521917952E+01  0.24278658913E+01  0.60771492424E+01  0.94751679858E+01  0.51100000000E-03 0.  1.
         12    1    3    3    0    0  0.61276556768E+01  0.12544094071E+01  0.84481448240E+01  0.10511558306E+02  0.00000000000E+00 0. -1.
</event>
<event>
 7    1  0.9865694E-013  0.5052886E+02  0.7816164E-02  0.1300439E+00
        -11   -1    0    0    0    0  0.00000000000E+00  0.00000000000E+00  0.45593999997E+02  0.45594000000E+02  0.51100000000E-03 0.  1.
         11   -1    0    0    0    0 -0.00000000000E+00 -0.00000000000E+00 -0.45593999997E+02  0.45594000000E+02  0.51100000000E-03 0. -1.
    9900012    2    1    2    0    0  0.12672543216E+02  0.13440924523E+02 -0.36220348407E+02  0.50528862745E+02  0.30000008801E+02 0.  0.
        -12    1    1    2    0    0 -0.12672543216E+02 -0.13440924523E+02  0.36220348407E+02  0.40659137255E+02  0.00000000000E+00 0.  1.
         11    1    3    3    0    0  0.16012289100E+02  0.91246544055E+01 -0.29242740580E+02  0.34565743115E+02  0.51100000000E-03 0. -1.
        -11    1    3    3    0    0  0.22425101436E+01  0.42657195697E+01  0.21393744747E+01  0.52727733306E+01  0.51100000000E-03 0.  1.
         12    1    3    3    0    0 -0.55822560274E+01  0.50550547676E-01 -0.91169823017E+01  0.10690346300E+02  0.00000000000E+00 0. -1.
</event>
<event>
 7    1  0.9865694E-013  0.5052886E+02  0.7816164E-02  0.1300439E+00
        -11   -1    0    0    0    0  0.00000000000E+00  0.00000000000E+00  0.45593999997E+02  0.45594000000E+02  0.51100000000E-03 0.  1.
         11   -1    0    0    0    0 -0.00000000000E+00 -0.00000000000E+00 -0.45593999997E+02  0.45594000000E+02  0.51100000000E-03 0. -1.
    9900012    2    1    2    0    0 -0.32940190493E+02  0.23725359957E+02 -0.22840644905E+01  0.50528858280E+02  0.29999995227E+02 0.  0.
        -12    1    1    2    0    0  0.32940190493E+02 -0.23725359957E+02  0.22840644905E+01  0.40659141720E+02  0.00000000000E+00 0.  1.
         11    1    3    3    0    0 -0.14833165233E+02  0.86510454370E+01 -0.57632838901E+01  0.18112946183E+02  0.51100000000E-03 0. -1.
        -11    1    3    3    0    0 -0.35760746949E+01  0.13551768758E+02  0.91560349657E+01  0.16741317846E+02  0.51100000000E-03 0.  1.
        -12    1    3    3    0    0 -0.14530950566E+02  0.15225457627E+01 -0.56768155662E+01  0.15674594250E+02  0.00000000000E+00 0.  1.
</event>
<event>
 7    1  0.9865694E-013  0.5052887E+02  0.7816164E-02  0.1300439E+00
        -11   -1    0    0    0    0  0.00000000000E+00  0.00000000000E+00  0.45593999997E+02  0.45594000000E+02  0.51100000000E-03 0. -1.
         11   -1    0    0    0    0 -0.00000000000E+00 -0.00000000000E+00 -0.45593999997E+02  0.45594000000E+02  0.51100000000E-03 0.  1.
    9900012    2    1    2    0    0  0.74277392671E+01  0.18227231659E+02  0.35577547374E+02  0.50528866196E+02  0.30000019289E+02 0.  0.
        -12    1    1    2    0    0 -0.74277392671E+01 -0.18227231659E+02 -0.35577547374E+02  0.40659133804E+02  0.00000000000E+00 0.  1.
         11    1    3    3    0    0  0.91185935553E+01  0.30439408914E+01  0.12914654801E+02  0.16099771224E+02  0.51100000000E-03 0. -1.
        -11    1    3    3    0    0 -0.52038587900E+01  0.19590642971E+02  0.17292082465E+02  0.26643752636E+02  0.51100000000E-03 0.  1.
        -12    1    3    3    0    0  0.35130045018E+01 -0.44073522028E+01  0.53708101074E+01  0.77853423354E+01  0.00000000000E+00 0.  1.
</event>
<event>
 7    1  0.9865694E-013  0.5052885E+02  0.7816164E-02  0.1300439E+00
        -11   -1    0    0    0    0  0.00000000000E+00  0.00000000000E+00  0.45593999997E+02  0.45594000000E+02  0.51100000000E-03 0. -1.
         11   -1    0    0    0    0 -0.00000000000E+00 -0.00000000000E+00 -0.45593999997E+02  0.45594000000E+02  0.51100000000E-03 0.  1.
    9900012    2    1    2    0    0  0.38109766307E+02 -0.11364018344E+02  0.84658729539E+01  0.50528853356E+02  0.29999980262E+02 0.  0.
        -12    1    1    2    0    0 -0.38109766307E+02  0.11364018344E+02 -0.84658729539E+01  0.40659146644E+02  0.00000000000E+00 0.  1.
         11    1    3    3    0    0  0.18218556944E+02 -0.35914080147E+01 -0.21441253746E+01  0.18692546711E+02  0.51100000000E-03 0. -1.
        -11    1    3    3    0    0  0.17829212455E+02 -0.14186723400E+02  0.10525401389E+02  0.25098366725E+02  0.51100000000E-03 0.  1.
        -12    1    3    3    0    0  0.20619969084E+01  0.64141130707E+01  0.84596939064E-01  0.67379399208E+01  0.00000000000E+00 0.  1.
</event>
<event>
 7    1  0.9865694E-013  0.5052885E+02  0.7816164E-02  0.1300439E+00
        -11   -1    0    0    0    0  0.00000000000E+00  0.00000000000E+00  0.45593999997E+02  0.45594000000E+02  0.51100000000E-03 0.  1.
         11   -1    0    0    0    0 -0.00000000000E+00 -0.00000000000E+00 -0.45593999997E+02  0.45594000000E+02  0.51100000000E-03 0. -1.
    9900012    2    1    2    0    0  0.81555471451E+00 -0.18986259340E+02 -0.35944722853E+02  0.50528852515E+02  0.29999977706E+02 0.  0.
        -12    1    1    2    0    0 -0.81555471451E+00  0.18986259340E+02  0.35944722853E+02  0.40659147485E+02  0.00000000000E+00 0.  1.
         11    1    3    3    0    0  0.14894409937E+02 -0.11985103989E+02 -0.20677777435E+02  0.28161261423E+02  0.51100000000E-03 0. -1.
        -11    1    3    3    0    0 -0.10743510470E+02 -0.33315908642E+01 -0.91966879840E+01  0.14529335327E+02  0.51100000000E-03 0.  1.
         12    1    3    3    0    0 -0.33353447525E+01 -0.36695644862E+01 -0.60702574341E+01  0.78382557659E+01  0.00000000000E+00 0. -1.
</event>
<event>
 7    1  0.9865694E-013  0.5052886E+02  0.7816164E-02  0.1300439E+00
        -11   -1    0    0    0    0  0.00000000000E+00  0.00000000000E+00  0.45593999997E+02  0.45594000000E+02  0.51100000000E-03 0. -1.
         11   -1    0    0    0    0 -0.00000000000E+00 -0.00000000000E+00 -0.45593999997E+02  0.45594000000E+02  0.51100000000E-03 0.  1.
    9900012    2    1    2    0    0 -0.28002226793E+01 -0.33095318647E+02 -0.23452597111E+02  0.50528859888E+02  0.30000000116E+02 0.  0.
        -12    1    1    2    0    0  0.28002226793E+01  0.33095318647E+02  0.23452597111E+02  0.40659140112E+02  0.00000000000E+00 0.  1.
         11    1    3    3    0    0 -0.37759470867E+01 -0.45048089168E+00 -0.40159381355E+01  0.55306842981E+01  0.51100000000E-03 0. -1.
        -11    1    3    3    0    0  0.62606316565E+01 -0.34438411759E+02 -0.16793210593E+02  0.38822823641E+02  0.51100000000E-03 0.  1.
        -12    1    3    3    0    0 -0.52849072490E+01  0.17935740037E+01 -0.26434483826E+01  0.61753519486E+01  0.00000000000E+00 0.  1.
</event>
<event>
 7    1  0.9865694E-013  0.5052887E+02  0.7816164E-02  0.1300439E+00
        -11   -1    0    0    0    0  0.00000000000E+00  0.00000000000E+00  0.45593999997E+02  0.45594000000E+02  0.51100000000E-03 0. -1.
         11   -1    0    0    0    0 -0.00000000000E+00 -0.00000000000E+00 -0.45593999997E+02  0.45594000000E+02  0.51100000000E-03 0.  1.
    9900012    2    1    2    0    0 -0.24170006213E+02 -0.82528170892E+01  0.31636482529E+02  0.50528865515E+02  0.30000017219E+02 0.  0.
        -12    1    1    2    0    0  0.24170006213E+02  0.82528170892E+01 -0.31636482529E+02  0.40659134485E+02  0.00000000000E+00 0.  1.
         11    1    3    3    0    0 -0.14580483621E+02 -0.15327917782E+02  0.27783801849E+02  0.34920985261E+02  0.51100000000E-03 0. -1.
        -11    1    3    3    0    0 -0.76130914964E+00  0.61799824809E+01  0.20289981752E+01  0.65489395280E+01  0.51100000000E-03 0.  1.
         12    1    3    3    0    0 -0.88282134426E+01  0.89511821142E+00  0.18236825051E+01  0.90589407261E+01  0.00000000000E+00 0. -1.
</event>
<event>
 7    1  0.9865694E-013  0.5052886E+02  0.7816164E-02  0.1300439E+00
        -11   -1    0    0    0    0  0.00000000000E+00  0.00000000000E+00  0.45593999997E+02  0.45594000000E+02  0.51100000000E-03 0.  1.
         11   -1    0    0    0    0 -0.00000000000E+00 -0.00000000000E+00 -0.45593999997E+02  0.45594000000E+02  0.51100000000E-03 0. -1.
    9900012    2    1    2    0    0  0.33557092627E+02 -0.71798723941E+01 -0.21806807978E+02  0.50528857027E+02  0.29999991418E+02 0.  0.
        -12    1    1    2    0    0 -0.33557092627E+02  0.71798723941E+01  0.21806807978E+02  0.40659142973E+02  0.00000000000E+00 0.  1.
         11    1    3    3    0    0  0.23648414751E+02  0.46441965837E+01 -0.19643325091E+01  0.24180047242E+02  0.51100000000E-03 0. -1.
        -11    1    3    3    0    0 -0.16709327096E+00 -0.39004646249E+01 -0.79804560157E+01  0.88842120040E+01  0.51100000000E-03 0.  1.
         12    1    3    3    0    0  0.10075771147E+02 -0.79236043529E+01 -0.11862019453E+02  0.17464597781E+02  0.00000000000E+00 0. -1.
</event>
<event>
 7    1  0.9865694E-013  0.5052889E+02  0.7816164E-02  0.1300439E+00
        -11   -1    0    0    0    0  0.00000000000E+00  0.00000000000E+00  0.45593999997E+02  0.45594000000E+02  0.51100000000E-03 0. -1.
         11   -1    0    0    0    0 -0.00000000000E+00 -0.00000000000E+00 -0.45593999997E+02  0.45594000000E+02  0.51100000000E-03 0.  1.
    9900012    2    1    2    0    0  0.28761030463E+02  0.20716599387E+02  0.19919567818E+02  0.50528886071E+02  0.30000079700E+02 0.  0.
        -12    1    1    2    0    0 -0.28761030463E+02 -0.20716599387E+02 -0.19919567818E+02  0.40659113929E+02  0.00000000000E+00 0.  1.
         11    1    3    3    0    0 -0.33035948057E+01 -0.13886304030E+01  0.34423351128E+01  0.49690747958E+01  0.51100000000E-03 0. -1.
        -11    1    3    3    0    0  0.29358345717E+02  0.15756293908E+02  0.73557958384E+01  0.34121562004E+02  0.51100000000E-03 0.  1.
         12    1    3    3    0    0  0.27062795515E+01  0.63489358824E+01  0.91214368673E+01  0.11438249270E+02  0.00000000000E+00 0. -1.
</event>
<event>
 7    1  0.9865694E-013  0.5052886E+02  0.7816164E-02  0.1300439E+00
        -11   -1    0    0    0    0  0.00000000000E+00  0.00000000000E+00  0.45593999997E+02  0.45594000000E+02  0.51100000000E-03 0. -1.
         11   -1    0    0    0    0 -0.00000000000E+00 -0.00000000000E+00 -0.45593999997E+02  0.45594000000E+02  0.51100000000E-03 0.  1.
    9900012    2    1    2    0    0  0.14737858918E+02  0.32039436895E+02  0.20234519713E+02  0.50528858469E+02  0.29999995803E+02 0.  0.
        -12    1    1    2    0    0 -0.14737858918E+02 -0.32039436895E+02 -0.20234519713E+02  0.40659141531E+02  0.00000000000E+00 0.  1.
         11    1    3    3    0    0  0.15847271282E+01  0.95545877293E+01  0.94628359333E+01  0.13540560214E+02  0.51100000000E-03 0. -1.
        -11    1    3    3    0    0  0.17623790243E+02  0.23367044863E+02  0.50938295601E+01  0.29707976505E+02  0.51100000000E-03 0.  1.
        -12    1    3    3    0    0 -0.44706584534E+01 -0.88219569726E+00  0.56778542195E+01  0.72803217506E+01  0.00000000000E+00 0.  1.
</event>
<event>
 7    1  0.9865694E-013  0.5052892E+02  0.7816164E-02  0.1300439E+00
        -11   -1    0    0    0    0  0.00000000000E+00  0.00000000000E+00  0.45593999997E+02  0.45594000000E+02  0.51100000000E-03 0.  1.
         11   -1    0    0    0    0 -0.00000000000E+00 -0.00000000000E+00 -0.45593999997E+02  0.45594000000E+02  0.51100000000E-03 0. -1.
    9900012    2    1    2    0    0  0.34285052455E+02  0.25934764583E+01 -0.21701842618E+02  0.50528918419E+02  0.30000178027E+02 0.  0.
        -12    1    1    2    0    0 -0.34285052455E+02 -0.25934764583E+01  0.21701842618E+02  0.40659081581E+02  0.00000000000E+00 0.  1.
         11    1    3    3    0    0  0.31326666448E+02  0.58380046042E+01 -0.16157900524E+02  0.35728421153E+02  0.51100000000E-03 0. -1.
        -11    1    3    3    0    0  0.65487950791E+00 -0.42001452455E+01  0.34452825620E+01  0.54717510402E+01  0.51100000000E-03 0.  1.
         12    1    3    3    0    0  0.23035064991E+01  0.95561709967E+00 -0.89892246560E+01  0.93287462260E+01  0.00000000000E+00 0. -1.
</event>
<event>
 7    1  0.9865694E-013  0.5052887E+02  0.7816164E-02  0.1300439E+00
        -11   -1    0    0    0    0  0.00000000000E+00  0.00000000000E+00  0.45593999997E+02  0.45594000000E+02  0.51100000000E-03 0. -1.
         11   -1    0    0    0    0 -0.00000000000E+00 -0.00000000000E+00 -0.45593999997E+02  0.45594000000E+02  0.51100000000E-03 0.  1.
    9900012    2    1    2    0    0 -0.21338038906E+02  0.28284203536E+02 -0.19946352725E+02  0.50528867433E+02  0.30000023051E+02 0.  0.
        -12    1    1    2    0    0  0.21338038906E+02 -0.28284203536E+02  0.19946352725E+02  0.40659132567E+02  0.00000000000E+00 0.  1.
         11    1    3    3    0    0 -0.14742828725E+02  0.82808167674E+01 -0.21254728918E+02  0.27160383406E+02  0.51100000000E-03 0. -1.
        -11    1    3    3    0    0  0.12253373301E+01  0.12234020070E+02  0.30335716565E+00  0.12298972497E+02  0.51100000000E-03 0.  1.
         12    1    3    3    0    0 -0.78205475113E+01  0.77693666985E+01  0.10050190270E+01  0.11069511530E+02  0.00000000000E+00 0. -1.
</event>
<event>
 7    1  0.9865694E-013  0.5052885E+02  0.7816164E-02  0.1300439E+00
        -11   -1    0    0    0    0  0.00000000000E+00  0.00000000000E+00  0.45593999997E+02  0.45594000000E+02  0.51100000000E-03 0.  1.
         11   -1    0    0    0    0 -0.00000000000E+00 -0.00000000000E+00 -0.45593999997E+02  0.45594000000E+02  0.51100000000E-03 0. -1.
    9900012    2    1    2    0    0 -0.21182265805E+02 -0.79697213915E+01 -0.33778122134E+02  0.50528851231E+02  0.29999973803E+02 0.  0.
        -12    1    1    2    0    0  0.21182265805E+02  0.79697213915E+01  0.33778122134E+02  0.40659148769E+02  0.00000000000E+00 0.  1.
         11    1    3    3    0    0 -0.16158443507E+02  0.23329309175E+01 -0.12953380704E+02  0.20840535865E+02  0.51100000000E-03 0. -1.
        -11    1    3    3    0    0 -0.27114893671E+01 -0.11740790174E+02 -0.23156017523E+02  0.26103629561E+02  0.51100000000E-03 0.  1.
        -12    1    3    3    0    0 -0.23123329309E+01  0.14381378651E+01  0.23312760924E+01  0.35846858051E+01  0.00000000000E+00 0.  1.
</event>
<event>
 7    1  0.9865694E-013  0.5052880E+02  0.7816164E-02  0.1300439E+00
        -11   -1    0    0    0    0  0.00000000000E+00  0.00000000000E+00  0.45593999997E+02  0.45594000000E+02  0.51100000000E-03 0. -1.
         11   -1    0    0    0    0 -0.00000000000E+00 -0.00000000000E+00 -0.45593999997E+02  0.45594000000E+02  0.51100000000E-03 0.  1.
    9900012    2    1    2    0    0  0.10531721805E+01 -0.40641106910E+02  0.60121825552E+00  0.50528804166E+02  0.29999830743E+02 0.  0.
        -12    1    1    2    0    0 -0.10531721805E+01  0.40641106910E+02 -0.60121825552E+00  0.40659195834E+02  0.00000000000E+00 0.  1.
         11    1    3    3    0    0 -0.40714908095E-01 -0.41912881831E+02  0.34422925981E+01  0.42054021207E+02  0.51100000000E-03 0. -1.
        -11    1    3    3    0    0  0.11949257136E+01 -0.11423082519E+00  0.25975086596E+01  0.28614590055E+01  0.51100000000E-03 0.  1.
         12    1    3    3    0    0 -0.10103862506E+00  0.13860057469E+01 -0.54385830022E+01  0.56133239534E+01  0.00000000000E+00 0. -1.
</event>
<event>
 7    1  0.9865694E-013  0.5052886E+02  0.7816164E-02  0.1300439E+00
        -11   -1    0    0    0    0  0.00000000000E+00  0.00000000000E+00  0.45593999997E+02  0.45594000000E+02  0.51100000000E-03 0.  1.
         11   -1    0    0    0    0 -0.00000000000E+00 -0.00000000000E+00 -0.45593999997E+02  0.45594000000E+02  0.51100000000E-03 0. -1.
    9900012    2    1    2    0    0  0.22280527206E+01 -0.40460661217E+02  0.33371153679E+01  0.50528860019E+02  0.30000000513E+02 0.  0.
        -12    1    1    2    0    0 -0.22280527206E+01  0.40460661217E+02 -0.33371153679E+01  0.40659139981E+02  0.00000000000E+00 0.  1.
         11    1    3    3    0    0 -0.79377656493E+01 -0.31296711756E+02  0.66312792506E+01  0.32961586051E+02  0.51100000000E-03 0. -1.
        -11    1    3    3    0    0  0.33112297307E+01  0.18635770308E+01 -0.25211956772E+01  0.45599988578E+01  0.51100000000E-03 0.  1.
         12    1    3    3    0    0  0.68545886392E+01 -0.11027526492E+02 -0.77296820550E+00  0.13007275110E+02  0.00000000000E+00 0. -1.
</event>
<event>
 7    1  0.9865694E-013  0.5052888E+02  0.7816164E-02  0.1300439E+00
        -11   -1    0    0    0    0  0.00000000000E+00  0.00000000000E+00  0.45593999997E+02  0.45594000000E+02  0.51100000000E-03 0.  1.
         11   -1    0    0    0    0 -0.00000000000E+00 -0.00000000000E+00 -0.45593999997E+02  0.45594000000E+02  0.51100000000E-03 0. -1.
    9900012    2    1    2    0    0 -0.23327952836E+01 -0.13151795609E+01 -0.40570834895E+02  0.50528877098E+02  0.30000052426E+02 0.  0.
        -12    1    1    2    0    0  0.23327952836E+01  0.13151795609E+01  0.40570834895E+02  0.40659122902E+02  0.00000000000E+00 0.  1.
         11    1    3    3    0    0  0.60973195309E+01  0.57925988912E+01 -0.20760959386E+02  0.22399753174E+02  0.51100000000E-03 0. -1.
        -11    1    3    3    0    0 -0.10246244490E+02 -0.10283232501E+02 -0.99143805955E+01  0.17579116578E+02  0.51100000000E-03 0.  1.
         12    1    3    3    0    0  0.18161296751E+01  0.31754540487E+01 -0.98954949137E+01  0.10550007346E+02  0.00000000000E+00 0. -1.
</event>
<event>
 7    1  0.9865694E-013  0.5052884E+02  0.7816164E-02  0.1300439E+00
        -11   -1    0    0    0    0  0.00000000000E+00  0.00000000000E+00  0.45593999997E+02  0.45594000000E+02  0.51100000000E-03 0.  1.
         11   -1    0    0    0    0 -0.00000000000E+00 -0.00000000000E+00 -0.45593999997E+02  0.45594000000E+02  0.51100000000E-03 0. -1.
    9900012    2    1    2    0    0 -0.18321552956E+02 -0.32233893368E+02 -0.16687237427E+02  0.50528842639E+02  0.29999947685E+02 0.  0.
        -12    1    1    2    0    0  0.18321552956E+02  0.32233893368E+02  0.16687237427E+02  0.40659157361E+02  0.00000000000E+00 0.  1.
         11    1    3    3    0    0  0.63860770410E+01 -0.10688084985E+01 -0.35300610995E+01  0.73746635996E+01  0.51100000000E-03 0. -1.
        -11    1    3    3    0    0 -0.66384890336E+01 -0.16242196633E+02 -0.72581574606E+01  0.18988400093E+02  0.51100000000E-03 0.  1.
         12    1    3    3    0    0 -0.18069140964E+02 -0.14922888236E+02 -0.58990188671E+01  0.24165778946E+02  0.00000000000E+00 0. -1.
</event>
<event>
 7    1  0.9865694E-013  0.5052886E+02  0.7816164E-02  0.1300439E+00
        -11   -1    0    0    0    0  0.00000000000E+00  0.00000000000E+00  0.45593999997E+02  0.45594000000E+02  0.51100000000E-03 0. -1.
         11   -1    0    0    0    0 -0.00000000000E+00 -0.00000000000E+00 -0.45593999997E+02  0.45594000000E+02  0.51100000000E-03 0.  1.
    9900012    2    1    2    0    0 -0.24259704760E+02  0.10258226854E+02  0.30974203565E+02  0.50528858595E+02  0.29999996186E+02 0.  0.
        -12    1    1    2    0    0  0.24259704760E+02 -0.10258226854E+02 -0.30974203565E+02  0.40659141405E+02  0.00000000000E+00 0.  1.
         11    1    3    3    0    0 -0.16320500906E+02  0.27088652939E+01  0.72999005837E+01  0.18082733472E+02  0.51100000000E-03 0. -1.
        -11    1    3    3    0    0  0.35592687879E+01  0.93448508403E+01  0.14564237026E+02  0.17666681407E+02  0.51100000000E-03 0.  1.
        -12    1    3    3    0    0 -0.11498472642E+02 -0.17954892800E+01  0.91100659555E+01  0.14779443716E+02  0.00000000000E+00 0.  1.
</event>
<event>
 7    1  0.9865694E-013  0.5052887E+02  0.7816164E-02  0.1300439E+00
        -11   -1    0    0    0    0  0.00000000000E+00  0.00000000000E+00  0.45593999997E+02  0.45594000000E+02  0.51100000000E-03 0.  1.
         11   -1    0    0    0    0 -0.00000000000E+00 -0.00000000000E+00 -0.45593999997E+02  0.45594000000E+02  0.51100000000E-03 0. -1.
    9900012    2    1    2    0    0 -0.29504522863E+02  0.20912018478E+02 -0.18583210427E+02  0.50528867004E+02  0.30000021746E+02 0.  0.
        -12    1    1    2    0    0  0.29504522863E+02 -0.20912018478E+02  0.18583210427E+02  0.40659132996E+02  0.00000000000E+00 0.  1.
         11    1    3    3    0    0 -0.41106993103E+01  0.70408634902E+01  0.21894990591E+01  0.84418904220E+01  0.51100000000E-03 0. -1.
        -11    1    3    3    0    0 -0.10077240100E+02 -0.58296840943E+01 -0.69936223282E+01  0.13581116972E+02  0.51100000000E-03 0.  1.
        -12    1    3    3    0    0 -0.15316583453E+02  0.19700839082E+02 -0.13779087158E+02  0.28505859610E+02  0.00000000000E+00 0.  1.
</event>
<event>
 7    1  0.9865694E-013  0.5052886E+02  0.7816164E-02  0.1300439E+00
        -11   -1    0    0    0    0  0.00000000000E+00  0.00000000000E+00  0.45593999997E+02  0.45594000000E+02  0.51100000000E-03 0.  1.
         11   -1    0    0    0    0 -0.00000000000E+00 -0.00000000000E+00 -0.45593999997E+02  0.45594000000E+02  0.51100000000E-03 0. -1.
    9900012    2    1    2    0    0  0.47925842009E+01  0.70184558424E+01 -0.39761012822E+02  0.50528859252E+02  0.29999998181E+02 0.  0.
        -12    1    1    2    0    0 -0.47925842009E+01 -0.70184558424E+01  0.39761012822E+02  0.40659140748E+02  0.00000000000E+00 0.  1.
         11    1    3    3    0    0  0.62549090322E+01 -0.42713252193E+01 -0.18160596266E+02  0.19676772173E+02  0.51100000000E-03 0. -1.
        -11    1    3    3    0    0  0.26179359352E+01  0.14210667003E+02 -0.83627997870E+01  0.16695300709E+02  0.51100000000E-03 0.  1.
        -12    1    3    3    0    0 -0.40802607665E+01 -0.29208859409E+01 -0.13237616769E+02  0.14156786370E+02  0.00000000000E+00 0.  1.
</event>
<event>
 7    1  0.9865694E-013  0.5052886E+02  0.7816164E-02  0.1300439E+00
        -11   -1    0    0    0    0  0.00000000000E+00  0.00000000000E+00  0.45593999997E+02  0.45594000000E+02  0.51100000000E-03 0.  1.
         11   -1    0    0    0    0 -0.00000000000E+00 -0.00000000000E+00 -0.45593999997E+02  0.45594000000E+02  0.51100000000E-03 0. -1.
    9900012    2    1    2    0    0 -0.21471564529E+02 -0.42182973513E+01 -0.34268699449E+02  0.50528857390E+02  0.29999992522E+02 0.  0.
        -12    1    1    2    0    0  0.21471564529E+02  0.42182973513E+01  0.34268699449E+02  0.40659142610E+02  0.00000000000E+00 0.  1.
         11    1    3    3    0    0 -0.51940533525E+01 -0.62646965511E+01 -0.15357438971E+02  0.17380320627E+02  0.51100000000E-03 0. -1.
        -11    1    3    3    0    0 -0.15124566120E+02  0.10265986333E+02 -0.16176747470E+02  0.24409632006E+02  0.51100000000E-03 0.  1.
        -12    1    3    3    0    0 -0.11529450566E+01 -0.82195871337E+01 -0.27345130088E+01  0.87389047567E+01  0.00000000000E+00 0.  1.
</event>
<event>
 7    1  0.9865694E-013  0.5052897E+02  0.7816164E-02  0.1300438E+00
        -11   -1    0    0    0    0  0.00000000000E+00  0.00000000000E+00  0.45593999997E+02  0.45594000000E+02  0.51100000000E-03 0.  1.
         11   -1    0    0    0    0 -0.00000000000E+00 -0.00000000000E+00 -0.45593999997E+02  0.45594000000E+02  0.51100000000E-03 0. -1.
    9900012    2    1    2    0    0 -0.23626847938E+02  0.30470917110E+02 -0.12901613849E+02  0.50528974275E+02  0.30000347805E+02 0.  0.
        -12    1    1    2    0    0  0.23626847938E+02 -0.30470917110E+02  0.12901613849E+02  0.40659025725E+02  0.00000000000E+00 0.  1.
         11    1    3    3    0    0 -0.18456406243E+02  0.51372438611E+01 -0.82518945522E+01  0.20859625353E+02  0.51100000000E-03 0. -1.
        -11    1    3    3    0    0  0.28386808527E+01  0.16809632117E+02  0.93266497218E-01  0.17047889600E+02  0.51100000000E-03 0.  1.
        -12    1    3    3    0    0 -0.80091225478E+01  0.85240411314E+01 -0.47429857936E+01  0.12621459323E+02  0.00000000000E+00 0.  1.
</event>
<event>
 7    1  0.9865694E-013  0.5052886E+02  0.7816164E-02  0.1300439E+00
        -11   -1    0    0    0    0  0.00000000000E+00  0.00000000000E+00  0.45593999997E+02  0.45594000000E+02  0.51100000000E-03 0. -1.
         11   -1    0    0    0    0 -0.00000000000E+00 -0.00000000000E+00 -0.45593999997E+02  0.45594000000E+02  0.51100000000E-03 0.  1.
    9900012    2    1    2    0    0  0.89846913678E+01  0.35883690227E+02 -0.16876071666E+02  0.50528859599E+02  0.29999999238E+02 0.  0.
        -12    1    1    2    0    0 -0.89846913678E+01 -0.35883690227E+02  0.16876071666E+02  0.40659140401E+02  0.00000000000E+00 0.  1.
         11    1    3    3    0    0  0.12303358389E+01  0.27734165884E+02 -0.65748074723E+01  0.28529384450E+02  0.51100000000E-03 0. -1.
        -11    1    3    3    0    0 -0.26161200336E+01 -0.12071808288E+01 -0.71104510678E+01  0.76720195668E+01  0.51100000000E-03 0.  1.
        -12    1    3    3    0    0  0.10370475563E+02  0.93567051719E+01 -0.31908131258E+01  0.14327455583E+02  0.00000000000E+00 0.  1.
</event>
<event>
 7    1  0.9865694E-013  0.5052886E+02  0.7816164E-02  0.1300439E+00
        -11   -1    0    0    0    0  0.00000000000E+00  0.00000000000E+00  0.45593999997E+02  0.45594000000E+02  0.51100000000E-03 0. -1.
         11   -1    0    0    0    0 -0.00000000000E+00 -0.00000000000E+00 -0.45593999997E+02  0.45594000000E+02  0.51100000000E-03 0.  1.
    9900012    2    1    2    0    0  0.26873857737E+02 -0.14503394918E+02  0.26844234538E+02  0.50528860539E+02  0.30000002094E+02 0.  0.
        -12    1    1    2    0    0 -0.26873857737E+02  0.14503394918E+02 -0.26844234538E+02  0.40659139461E+02  0.00000000000E+00 0.  1.
         11    1    3    3    0    0  0.18622856589E+02 -0.48764943402E+01  0.18307393094E+02  0.26565986275E+02  0.51100000000E-03 0. -1.
        -11    1    3    3    0    0 -0.49118578226E+01 -0.11816463514E+01  0.64379410923E+01  0.81835029870E+01  0.51100000000E-03 0.  1.
         12    1    3    3    0    0  0.13162858970E+02 -0.84452542265E+01  0.20989003512E+01  0.15779371277E+02  0.00000000000E+00 0. -1.
</event>
<event>
 7    1  0.9865694E-013  0.5052886E+02  0.7816164E-02  0.1300439E+00
        -11   -1    0    0    0    0  0.00000000000E+00  0.00000000000E+00  0.45593999997E+02  0.45594000000E+02  0.51100000000E-03 0. -1.
         11   -1    0    0    0    0 -0.00000000000E+00 -0.00000000000E+00 -0.45593999997E+02  0.45594000000E+02  0.51100000000E-03 0.  1.
    9900012    2    1    2    0    0 -0.34125653307E+02 -0.28927034496E+01  0.21914326274E+02  0.50528860278E+02  0.30000001302E+02 0.  0.
        -12    1    1    2    0    0  0.34125653307E+02  0.28927034496E+01 -0.21914326274E+02  0.40659139722E+02  0.00000000000E+00 0.  1.
         11    1    3    3    0    0 -0.93655841509E+01 -0.13272524668E+02  0.15434516658E+02  0.22407551903E+02  0.51100000000E-03 0. -1.
        -11    1    3    3    0    0 -0.99999256521E+01  0.28054156028E+01  0.21659771974E+00  0.10388252239E+02  0.51100000000E-03 0.  1.
        -12    1    3    3    0    0 -0.14760143504E+02  0.75744056154E+01  0.62632118971E+01  0.17733056137E+02  0.00000000000E+00 0.  1.
</event>
<event>
 7    1  0.9865694E-013  0.5052885E+02  0.7816164E-02  0.1300439E+00
        -11   -1    0    0    0    0  0.00000000000E+00  0.00000000000E+00  0.45593999997E+02  0.45594000000E+02  0.51100000000E-03 0. -1.
         11   -1    0    0    0    0 -0.00000000000E+00 -0.00000000000E+00 -0.45593999997E+02  0.45594000000E+02  0.51100000000E-03 0.  1.
    9900012    2    1    2    0    0 -0.37896271534E+02  0.41615331035E+01  0.14132263770E+02  0.50528848100E+02  0.29999964284E+02 0.  0.
        -12    1    1    2    0    0  0.37896271534E+02 -0.41615331035E+01 -0.14132263770E+02  0.40659151900E+02  0.00000000000E+00 0.  1.
         11    1    3    3    0    0 -0.41401370041E+01 -0.37759897264E+01  0.96768560416E+01  0.11182145409E+02  0.51100000000E-03 0. -1.
        -11    1    3    3    0    0 -0.29117085998E+02  0.91787805313E+01  0.98926805325E+01  0.32092364161E+02  0.51100000000E-03 0.  1.
        -12    1    3    3    0    0 -0.46390485326E+01 -0.12412577014E+01 -0.54372728044E+01  0.72543385307E+01  0.00000000000E+00 0.  1.
</event>
<event>
 7    1  0.9865694E-013  0.5052897E+02  0.7816164E-02  0.1300438E+00
        -11   -1    0    0    0    0  0.00000000000E+00  0.00000000000E+00  0.45593999997E+02  0.45594000000E+02  0.51100000000E-03 0.  1.
         11   -1    0    0    0    0 -0.00000000000E+00 -0.00000000000E+00 -0.45593999997E+02  0.45594000000E+02  0.51100000000E-03 0. -1.
    9900012    2    1    2    0    0 -0.39185757277E+02  0.10674389349E+02  0.19210271617E+01  0.50528972630E+02  0.30000342803E+02 0.  0.
        -12    1    1    2    0    0  0.39185757277E+02 -0.10674389349E+02 -0.19210271617E+01  0.40659027370E+02  0.00000000000E+00 0.  1.
         11    1    3    3    0    0 -0.36596055871E+02  0.62063035130E+01  0.24734564659E+01  0.37200907190E+02  0.51100000000E-03 0. -1.
        -11    1    3    3    0    0 -0.81127741047E+00  0.10441547883E+01  0.57709808815E+01  0.59205279202E+01  0.51100000000E-03 0.  1.
         12    1    3    3    0    0 -0.17784239958E+01  0.34239310476E+01 -0.63234101857E+01  0.74075375196E+01  0.00000000000E+00 0. -1.
</event>
<event>
 7    1  0.9865694E-013  0.5052887E+02  0.7816164E-02  0.1300439E+00
        -11   -1    0    0    0    0  0.00000000000E+00  0.00000000000E+00  0.45593999997E+02  0.45594000000E+02  0.51100000000E-03 0.  1.
         11   -1    0    0    0    0 -0.00000000000E+00 -0.00000000000E+00 -0.45593999997E+02  0.45594000000E+02  0.51100000000E-03 0. -1.
    9900012    2    1    2    0    0 -0.35136651989E+02 -0.70195367782E+01 -0.19217351045E+02  0.50528870757E+02  0.30000033154E+02 0.  0.
        -12    1    1    2    0    0  0.35136651989E+02  0.70195367782E+01  0.19217351045E+02  0.40659129243E+02  0.00000000000E+00 0.  1.
         11    1    3    3    0    0 -0.23670001602E+02 -0.29718589394E+01 -0.19557938829E+02  0.30848239705E+02  0.51100000000E-03 0. -1.
        -11    1    3    3    0    0 -0.94023429187E+00  0.53813987418E+01 -0.71386603535E+00  0.55093645659E+01  0.51100000000E-03 0.  1.
         12    1    3    3    0    0 -0.10526416095E+02 -0.94290765806E+01  0.10544538190E+01  0.14171266486E+02  0.00000000000E+00 0. -1.
</event>
<event>
 7    1  0.9865694E-013  0.5052887E+02  0.7816164E-02  0.1300439E+00
        -11   -1    0    0    0    0  0.00000000000E+00  0.00000000000E+00  0.45593999997E+02  0.45594000000E+02  0.51100000000E-03 0. -1.
         11   -1    0    0    0    0 -0.00000000000E+00 -0.00000000000E+00 -0.45593999997E+02  0.45594000000E+02  0.51100000000E-03 0.  1.
    9900012    2    1    2    0    0 -0.22557934263E+02  0.11026323636E+02  0.31980069937E+02  0.50528867147E+02  0.30000022181E+02 0.  0.
        -12    1    1    2    0    0  0.22557934263E+02 -0.11026323636E+02 -0.31980069937E+02  0.40659132853E+02  0.00000000000E+00 0.  1.
         11    1    3    3    0    0 -0.13733455612E+02  0.46078437328E+00  0.29633785809E+02  0.32664681031E+02  0.51100000000E-03 0. -1.
        -11    1    3    3    0    0 -0.20699437174E+01  0.32108782701E+01 -0.43894410262E+01  0.58190720086E+01  0.51100000000E-03 0.  1.
         12    1    3    3    0    0 -0.67545349343E+01  0.73546609925E+01  0.67357251548E+01  0.12045114107E+02  0.00000000000E+00 0. -1.
</event>
<event>
 7    1  0.9865694E-013  0.5052886E+02  0.7816164E-02  0.1300439E+00
        -11   -1    0    0    0    0  0.00000000000E+00  0.00000000000E+00  0.45593999997E+02  0.45594000000E+02  0.51100000000E-03 0.  1.
         11   -1    0    0    0    0 -0.00000000000E+00 -0.00000000000E+00 -0.45593999997E+02  0.45594000000E+02  0.51100000000E-03 0. -1.
    9900012    2    1    2    0    0  0.15290182416E+02 -0.80870735515E+01 -0.36796397773E+02  0.50528864175E+02  0.30000013146E+02 0.  0.
        -12    1    1    2    0    0 -0.15290182416E+02  0.80870735515E+01  0.36796397773E+02  0.40659135825E+02  0.00000000000E+00 0.  1.
         11    1    3    3    0    0 -0.13375191897E+01  0.46971445520E+01 -0.19685191693E+02  0.20281984538E+02  0.51100000000E-03 0. -1.
        -11    1    3    3    0    0  0.15611935833E+02 -0.93197146078E+01 -0.69530914392E+01  0.19466255461E+02  0.51100000000E-03 0.  1.
        -12    1    3    3    0    0  0.10157657729E+01 -0.34645034957E+01 -0.10158114641E+02  0.10780624177E+02  0.00000000000E+00 0.  1.
</event>
<event>
 7    1  0.9865694E-013  0.5052885E+02  0.7816164E-02  0.1300439E+00
        -11   -1    0    0    0    0  0.00000000000E+00  0.00000000000E+00  0.45593999997E+02  0.45594000000E+02  0.51100000000E-03 0.  1.
         11   -1    0    0    0    0 -0.00000000000E+00 -0.00000000000E+00 -0.45593999997E+02  0.45594000000E+02  0.51100000000E-03 0. -1.
    9900012    2    1    2    0    0 -0.31745668165E+02 -0.11728823775E+02 -0.22534724058E+02  0.50528849212E+02  0.29999967665E+02 0.  0.
        -12    1    1    2    0    0  0.31745668165E+02  0.11728823775E+02  0.22534724058E+02  0.40659150788E+02  0.00000000000E+00 0.  1.
         11    1    3    3    0    0 -0.24518588961E+01  0.53417536021E+01 -0.46433395985E+01  0.74904303268E+01  0.51100000000E-03 0. -1.
        -11    1    3    3    0    0 -0.97183764850E+01 -0.16844864781E+02 -0.10595498260E+02  0.22146351723E+02  0.51100000000E-03 0.  1.
         12    1    3    3    0    0 -0.19575432784E+02 -0.22571259621E+00 -0.72958861996E+01  0.20892067162E+02  0.00000000000E+00 0. -1.
</event>
<event>
 7    1  0.9865694E-013  0.5052886E+02  0.7816164E-02  0.1300439E+00
        -11   -1    0    0    0    0  0.00000000000E+00  0.00000000000E+00  0.45593999997E+02  0.45594000000E+02  0.51100000000E-03 0.  1.
         11   -1    0    0    0    0 -0.00000000000E+00 -0.00000000000E+00 -0.45593999997E+02  0.45594000000E+02  0.51100000000E-03 0. -1.
    9900012    2    1    2    0    0 -0.90642987286E+01  0.38571818642E+02 -0.91224253663E+01  0.50528863888E+02  0.30000012273E+02 0.  0.
        -12    1    1    2    0    0  0.90642987286E+01 -0.38571818642E+02  0.91224253663E+01  0.40659136112E+02  0.00000000000E+00 0.  1.
         11    1    3    3    0    0 -0.48332990546E+01  0.59454745105E+01 -0.11325413440E+02  0.13673859614E+02  0.51100000000E-03 0. -1.
        -11    1    3    3    0    0  0.10868037092E+01  0.15894233168E+02  0.86788230414E+01  0.18141933743E+02  0.51100000000E-03 0.  1.
        -12    1    3    3    0    0 -0.53178033832E+01  0.16732110964E+02 -0.64758349676E+01  0.18713070530E+02  0.00000000000E+00 0.  1.
</event>
<event>
 7    1  0.9865694E-013  0.5052886E+02  0.7816164E-02  0.1300439E+00
        -11   -1    0    0    0    0  0.00000000000E+00  0.00000000000E+00  0.45593999997E+02  0.45594000000E+02  0.51100000000E-03 0.  1.
         11   -1    0    0    0    0 -0.00000000000E+00 -0.00000000000E+00 -0.45593999997E+02  0.45594000000E+02  0.51100000000E-03 0. -1.
    9900012    2    1    2    0    0  0.66991401344E+01 -0.95947577279E+01 -0.38938771031E+02  0.50528859038E+02  0.29999997532E+02 0.  0.
        -12    1    1    2    0    0 -0.66991401344E+01  0.95947577279E+01  0.38938771031E+02  0.40659140962E+02  0.00000000000E+00 0.  1.
         11    1    3    3    0    0  0.12564772631E+02 -0.12968787174E+02 -0.16554618621E+02  0.24497313118E+02  0.51100000000E-03 0. -1.
        -11    1    3    3    0    0  0.50207252911E+00  0.55456091412E+01 -0.15205647457E+02  0.16193133496E+02  0.51100000000E-03 0.  1.
         12    1    3    3    0    0 -0.63677050262E+01 -0.21715796946E+01 -0.71785049532E+01  0.98384124244E+01  0.00000000000E+00 0. -1.
</event>
<event>
 7    1  0.9865694E-013  0.5052886E+02  0.7816164E-02  0.1300439E+00
        -11   -1    0    0    0    0  0.00000000000E+00  0.00000000000E+00  0.45593999997E+02  0.45594000000E+02  0.51100000000E-03 0. -1.
         11   -1    0    0    0    0 -0.00000000000E+00 -0.00000000000E+00 -0.45593999997E+02  0.45594000000E+02  0.51100000000E-03 0.  1.
    9900012    2    1    2    0    0  0.36298035650E+02  0.68403063011E+01  0.16994955519E+02  0.50528859632E+02  0.29999999339E+02 0.  0.
        -12    1    1    2    0    0 -0.36298035650E+02 -0.68403063011E+01 -0.16994955519E+02  0.40659140368E+02  0.00000000000E+00 0.  1.
         11    1    3    3    0    0  0.12769212438E+02  0.14519285159E+02  0.12113879328E+02  0.22816846856E+02  0.51100000000E-03 0. -1.
        -11    1    3    3    0    0  0.12126722148E+02 -0.19989484892E+01 -0.31057676246E+01  0.12676710059E+02  0.51100000000E-03 0.  1.
         12    1    3    3    0    0  0.11402101063E+02 -0.56800303691E+01  0.79868438162E+01  0.15035302717E+02  0.00000000000E+00 0. -1.
</event>
<event>
 7    1  0.9865694E-013  0.5052885E+02  0.7816164E-02  0.1300439E+00
        -11   -1    0    0    0    0  0.00000000000E+00  0.00000000000E+00  0.45593999997E+02  0.45594000000E+02  0.51100000000E-03 0.  1.
         11   -1    0    0    0    0 -0.00000000000E+00 -0.00000000000E+00 -0.45593999997E+02  0.45594000000E+02  0.51100000000E-03 0. -1.
    9900012    2    1    2    0    0 -0.26683820745E+02 -0.49194438791E+01 -0.30280999946E+02  0.50528853731E+02  0.29999981400E+02 0.  0.
        -12    1    1    2    0    0  0.26683820745E+02  0.49194438791E+01  0.30280999946E+02  0.40659146269E+02  0.00000000000E+00 0.  1.
         11    1    3    3    0    0 -0.25563034844E+02 -0.93263928721E+01 -0.23504461613E+02  0.35957058701E+02  0.51100000000E-03 0. -1.
        -11    1    3    3    0    0 -0.26859736123E+01  0.82872798111E+01 -0.47557513836E+01  0.99252522586E+01  0.51100000000E-03 0.  1.
         12    1    3    3    0    0  0.15651877113E+01 -0.38803308180E+01 -0.20207869489E+01  0.46465427709E+01  0.00000000000E+00 0. -1.
</event>
<event>
 7    1  0.9865694E-013  0.5052887E+02  0.7816164E-02  0.1300439E+00
        -11   -1    0    0    0    0  0.00000000000E+00  0.00000000000E+00  0.45593999997E+02  0.45594000000E+02  0.51100000000E-03 0.  1.
         11   -1    0    0    0    0 -0.00000000000E+00 -0.00000000000E+00 -0.45593999997E+02  0.45594000000E+02  0.51100000000E-03 0. -1.
    9900012    2    1    2    0    0 -0.99467151979E+01  0.16006797871E+02 -0.36027911420E+02  0.50528866677E+02  0.30000020750E+02 0.  0.
        -12    1    1    2    0    0  0.99467151979E+01 -0.16006797871E+02  0.36027911420E+02  0.40659133323E+02  0.00000000000E+00 0.  1.
         11    1    3    3    0    0 -0.94427438441E+01  0.13315510166E+02 -0.60141037715E+01  0.17396484321E+02  0.51100000000E-03 0. -1.
        -11    1    3    3    0    0  0.11309215476E+01 -0.50880748738E+01 -0.66250129103E+01  0.84296076890E+01  0.51100000000E-03 0.  1.
         12    1    3    3    0    0 -0.16348929014E+01  0.77793625789E+01 -0.23388794738E+02  0.24702774667E+02  0.00000000000E+00 0. -1.
</event>
<event>
 7    1  0.9865694E-013  0.5052885E+02  0.7816164E-02  0.1300439E+00
        -11   -1    0    0    0    0  0.00000000000E+00  0.00000000000E+00  0.45593999997E+02  0.45594000000E+02  0.51100000000E-03 0.  1.
         11   -1    0    0    0    0 -0.00000000000E+00 -0.00000000000E+00 -0.45593999997E+02  0.45594000000E+02  0.51100000000E-03 0. -1.
    9900012    2    1    2    0    0  0.15855548719E+01 -0.38062098211E+02  0.14210174936E+02  0.50528851261E+02  0.29999973894E+02 0.  0.
        -12    1    1    2    0    0 -0.15855548719E+01  0.38062098211E+02 -0.14210174936E+02  0.40659148739E+02  0.00000000000E+00 0.  1.
         11    1    3    3    0    0 -0.22136043891E+01 -0.28168083892E+02  0.10913613767E+00  0.28255139453E+02  0.51100000000E-03 0. -1.
        -11    1    3    3    0    0 -0.46271006411E+01 -0.66163023241E+01  0.80033812617E+01  0.11368360861E+02  0.51100000000E-03 0.  1.
         12    1    3    3    0    0  0.84262599021E+01 -0.32777119948E+01  0.60976575364E+01  0.10905350948E+02  0.00000000000E+00 0. -1.
</event>
<event>
 7    1  0.9865694E-013  0.5052882E+02  0.7816164E-02  0.1300439E+00
        -11   -1    0    0    0    0  0.00000000000E+00  0.00000000000E+00  0.45593999997E+02  0.45594000000E+02  0.51100000000E-03 0. -1.
         11   -1    0    0    0    0 -0.00000000000E+00 -0.00000000000E+00 -0.45593999997E+02  0.45594000000E+02  0.51100000000E-03 0.  1.
    9900012    2    1    2    0    0 -0.27169700485E+02 -0.17336171297E+02  0.24787766943E+02  0.50528820843E+02  0.29999881435E+02 0.  0.
        -12    1    1    2    0    0  0.27169700485E+02  0.17336171297E+02 -0.24787766943E+02  0.40659179157E+02  0.00000000000E+00 0.  1.
         11    1    3    3    0    0 -0.63821873118E+01 -0.71602316165E+01  0.23988862198E+02  0.25835377712E+02  0.51100000000E-03 0. -1.
        -11    1    3    3    0    0 -0.35830101367E+01 -0.17447276500E+01 -0.32123380420E+01  0.51187061031E+01  0.51100000000E-03 0.  1.
         12    1    3    3    0    0 -0.17204503036E+02 -0.84312120306E+01  0.40112427865E+01  0.19574737028E+02  0.00000000000E+00 0. -1.
</event>
<event>
 7    1  0.9865694E-013  0.5052888E+02  0.7816164E-02  0.1300439E+00
        -11   -1    0    0    0    0  0.00000000000E+00  0.00000000000E+00  0.45593999997E+02  0.45594000000E+02  0.51100000000E-03 0.  1.
         11   -1    0    0    0    0 -0.00000000000E+00 -0.00000000000E+00 -0.45593999997E+02  0.45594000000E+02  0.51100000000E-03 0. -1.
    9900012    2    1    2    0    0  0.38737430626E+02 -0.77253433482E+00  0.12327970378E+02  0.50528878091E+02  0.30000055446E+02 0.  0.
        -12    1    1    2    0    0 -0.38737430626E+02  0.77253433482E+00 -0.12327970378E+02  0.40659121909E+02  0.00000000000E+00 0.  1.
         11    1    3    3    0    0  0.13301237097E+02 -0.20450720329E+01  0.26285939095E+01  0.13711846489E+02  0.51100000000E-03 0. -1.
        -11    1    3    3    0    0  0.21154066525E+01 -0.48946513715E+01  0.11450416502E+02  0.12631096377E+02  0.51100000000E-03 0.  1.
        -12    1    3    3    0    0  0.23320786876E+02  0.61671890696E+01 -0.17510400334E+01  0.24185935225E+02  0.00000000000E+00 0.  1.
</event>
<event>
 7    1  0.9865694E-013  0.5052886E+02  0.7816164E-02  0.1300439E+00
        -11   -1    0    0    0    0  0.00000000000E+00  0.00000000000E+00  0.45593999997E+02  0.45594000000E+02  0.51100000000E-03 0.  1.
         11   -1    0    0    0    0 -0.00000000000E+00 -0.00000000000E+00 -0.45593999997E+02  0.45594000000E+02  0.51100000000E-03 0. -1.
    9900012    2    1    2    0    0  0.15522003271E+02  0.99920803767E+00 -0.37566400746E+02  0.50528862439E+02  0.30000007868E+02 0.  0.
        -12    1    1    2    0    0 -0.15522003271E+02 -0.99920803767E+00  0.37566400746E+02  0.40659137561E+02  0.00000000000E+00 0.  1.
         11    1    3    3    0    0  0.89850010401E+01 -0.46680406907E+01 -0.91050098198E+01  0.13616976598E+02  0.51100000000E-03 0. -1.
        -11    1    3    3    0    0 -0.74823143034E+01  0.47420414328E+01 -0.71403065881E+01  0.11377871625E+02  0.51100000000E-03 0.  1.
        -12    1    3    3    0    0  0.14019316535E+02  0.92520729557E+00 -0.21321084338E+02  0.25534014216E+02  0.00000000000E+00 0.  1.
</event>
<event>
 7    1  0.9865694E-013  0.5052884E+02  0.7816164E-02  0.1300439E+00
        -11   -1    0    0    0    0  0.00000000000E+00  0.00000000000E+00  0.45593999997E+02  0.45594000000E+02  0.51100000000E-03 0.  1.
         11   -1    0    0    0    0 -0.00000000000E+00 -0.00000000000E+00 -0.45593999997E+02  0.45594000000E+02  0.51100000000E-03 0. -1.
    9900012    2    1    2    0    0  0.16969104888E+02 -0.21474192825E+02 -0.30067854723E+02  0.50528839091E+02  0.29999936902E+02 0.  0.
        -12    1    1    2    0    0 -0.16969104888E+02  0.21474192825E+02  0.30067854723E+02  0.40659160909E+02  0.00000000000E+00 0.  1.
         11    1    3    3    0    0  0.16067485518E+02  0.74082525642E+00 -0.18473271165E+02  0.24494380186E+02  0.51100000000E-03 0. -1.
        -11    1    3    3    0    0  0.33496509489E+01 -0.70442940739E+01 -0.25655010100E+01  0.82112140499E+01  0.51100000000E-03 0.  1.
         12    1    3    3    0    0 -0.24480315784E+01 -0.15170724007E+02 -0.90290825478E+01  0.17823244855E+02  0.00000000000E+00 0. -1.
</event>
<event>
 7    1  0.9865694E-013  0.5052886E+02  0.7816164E-02  0.1300439E+00
        -11   -1    0    0    0    0  0.00000000000E+00  0.00000000000E+00  0.45593999997E+02  0.45594000000E+02  0.51100000000E-03 0.  1.
         11   -1    0    0    0    0 -0.00000000000E+00 -0.00000000000E+00 -0.45593999997E+02  0.45594000000E+02  0.51100000000E-03 0. -1.
    9900012    2    1    2    0    0 -0.17860263774E+02 -0.99320124971E+01 -0.35150132890E+02  0.50528859127E+02  0.29999997804E+02 0.  0.
        -12    1    1    2    0    0  0.17860263774E+02  0.99320124971E+01  0.35150132890E+02  0.40659140873E+02  0.00000000000E+00 0.  1.
         11    1    3    3    0    0 -0.93293185523E+01 -0.75742085280E+00  0.65751076531E+00  0.93830800735E+01  0.51100000000E-03 0. -1.
        -11    1    3    3    0    0  0.20842914639E+01 -0.84842410684E+01 -0.22313657204E+02  0.23963011403E+02  0.51100000000E-03 0.  1.
         12    1    3    3    0    0 -0.10615236686E+02 -0.69035057585E+00 -0.13493986451E+02  0.17182767651E+02  0.00000000000E+00 0. -1.
</event>
<event>
 7    1  0.9865694E-013  0.5052885E+02  0.7816164E-02  0.1300439E+00
        -11   -1    0    0    0    0  0.00000000000E+00  0.00000000000E+00  0.45593999997E+02  0.45594000000E+02  0.51100000000E-03 0. -1.
         11   -1    0    0    0    0 -0.00000000000E+00 -0.00000000000E+00 -0.45593999997E+02  0.45594000000E+02  0.51100000000E-03 0.  1.
    9900012    2    1    2    0    0 -0.23340627844E+02 -0.24670417191E+02  0.22355141117E+02  0.50528846948E+02  0.29999960783E+02 0.  0.
        -12    1    1    2    0    0  0.23340627844E+02  0.24670417191E+02 -0.22355141117E+02  0.40659153052E+02  0.00000000000E+00 0.  1.
         11    1    3    3    0    0 -0.47104602177E+01 -0.51260700867E+01  0.16597138323E+02  0.17998056306E+02  0.51100000000E-03 0. -1.
        -11    1    3    3    0    0 -0.94978952438E+01 -0.14862927797E+02 -0.43068226090E+01  0.18156689071E+02  0.51100000000E-03 0.  1.
        -12    1    3    3    0    0 -0.91322723830E+01 -0.46814193074E+01  0.10064825402E+02  0.14374101571E+02  0.00000000000E+00 0.  1.
</event>
<event>
 7    1  0.9865694E-013  0.5052887E+02  0.7816164E-02  0.1300439E+00
        -11   -1    0    0    0    0  0.00000000000E+00  0.00000000000E+00  0.45593999997E+02  0.45594000000E+02  0.51100000000E-03 0.  1.
         11   -1    0    0    0    0 -0.00000000000E+00 -0.00000000000E+00 -0.45593999997E+02  0.45594000000E+02  0.51100000000E-03 0. -1.
    9900012    2    1    2    0    0  0.25275080291E+02 -0.21895290494E+02 -0.23128591070E+02  0.50528866285E+02  0.30000019561E+02 0.  0.
        -12    1    1    2    0    0 -0.25275080291E+02  0.21895290494E+02  0.23128591070E+02  0.40659133715E+02  0.00000000000E+00 0.  1.
         11    1    3    3    0    0  0.24293525582E+02 -0.21499349225E+02 -0.14623489115E+02  0.35584320092E+02  0.51100000000E-03 0.  1.
        -11    1    3    3    0    0  0.22545167029E+01  0.31974541093E+01 -0.10085482275E+02  0.10817740583E+02  0.51100000000E-03 0. -1.
        -12    1    3    3    0    0 -0.12729619941E+01 -0.35933953789E+01  0.15803803196E+01  0.41268056099E+01  0.00000000000E+00 0.  1.
</event>
<event>
 7    1  0.9865694E-013  0.5052887E+02  0.7816164E-02  0.1300439E+00
        -11   -1    0    0    0    0  0.00000000000E+00  0.00000000000E+00  0.45593999997E+02  0.45594000000E+02  0.51100000000E-03 0.  1.
         11   -1    0    0    0    0 -0.00000000000E+00 -0.00000000000E+00 -0.45593999997E+02  0.45594000000E+02  0.51100000000E-03 0. -1.
    9900012    2    1    2    0    0 -0.19889536981E+02 -0.17311095823E+02 -0.30949919683E+02  0.50528865131E+02  0.30000016051E+02 0.  0.
        -12    1    1    2    0    0  0.19889536981E+02  0.17311095823E+02  0.30949919683E+02  0.40659134869E+02  0.00000000000E+00 0.  1.
         11    1    3    3    0    0 -0.95348547735E+01  0.40918819616E+01 -0.10325490394E+02  0.14638056759E+02  0.51100000000E-03 0. -1.
        -11    1    3    3    0    0  0.26068162982E+01 -0.13761323318E+02 -0.12593755715E+02  0.18835397366E+02  0.51100000000E-03 0.  1.
        -12    1    3    3    0    0 -0.12961498506E+02 -0.76416544657E+01 -0.80306735744E+01  0.17055411005E+02  0.00000000000E+00 0.  1.
</event>
<event>
 7    1  0.9865694E-013  0.5052885E+02  0.7816164E-02  0.1300439E+00
        -11   -1    0    0    0    0  0.00000000000E+00  0.00000000000E+00  0.45593999997E+02  0.45594000000E+02  0.51100000000E-03 0. -1.
         11   -1    0    0    0    0 -0.00000000000E+00 -0.00000000000E+00 -0.45593999997E+02  0.45594000000E+02  0.51100000000E-03 0.  1.
    9900012    2    1    2    0    0  0.35813699127E+02 -0.10599379842E+02 -0.16068546818E+02  0.50528854719E+02  0.29999984402E+02 0.  0.
        -12    1    1    2    0    0 -0.35813699127E+02  0.10599379842E+02  0.16068546818E+02  0.40659145281E+02  0.00000000000E+00 0.  1.
         11    1    3    3    0    0  0.56076541965E+01 -0.38968515883E+01 -0.53063068578E+01  0.86480131024E+01  0.51100000000E-03 0. -1.
        -11    1    3    3    0    0  0.60609059142E+01 -0.52080599818E+01  0.79688997121E+01  0.11285469957E+02  0.51100000000E-03 0.  1.
        -12    1    3    3    0    0  0.24145139016E+02 -0.14944682720E+01 -0.18731139672E+02  0.30595371659E+02  0.00000000000E+00 0.  1.
</event>
<event>
 7    1  0.9865694E-013  0.5052886E+02  0.7816164E-02  0.1300439E+00
        -11   -1    0    0    0    0  0.00000000000E+00  0.00000000000E+00  0.45593999997E+02  0.45594000000E+02  0.51100000000E-03 0.  1.
         11   -1    0    0    0    0 -0.00000000000E+00 -0.00000000000E+00 -0.45593999997E+02  0.45594000000E+02  0.51100000000E-03 0. -1.
    9900012    2    1    2    0    0  0.24328399522E+02 -0.15824617488E+02 -0.28475886582E+02  0.50528860086E+02  0.30000000716E+02 0.  0.
        -12    1    1    2    0    0 -0.24328399522E+02  0.15824617488E+02  0.28475886582E+02  0.40659139914E+02  0.00000000000E+00 0.  1.
         11    1    3    3    0    0  0.15836643666E+02 -0.11256951291E+02 -0.24576626882E+02  0.31329360417E+02  0.51100000000E-03 0. -1.
        -11    1    3    3    0    0 -0.30279694506E+01 -0.59700713820E+01  0.67015819868E+00  0.67275154086E+01  0.51100000000E-03 0.  1.
        -12    1    3    3    0    0  0.11519725307E+02  0.14024051853E+01 -0.45694178985E+01  0.12471984260E+02  0.00000000000E+00 0.  1.
</event>
<event>
 7    1  0.9865694E-013  0.5052886E+02  0.7816164E-02  0.1300439E+00
        -11   -1    0    0    0    0  0.00000000000E+00  0.00000000000E+00  0.45593999997E+02  0.45594000000E+02  0.51100000000E-03 0.  1.
         11   -1    0    0    0    0 -0.00000000000E+00 -0.00000000000E+00 -0.45593999997E+02  0.45594000000E+02  0.51100000000E-03 0. -1.
    9900012    2    1    2    0    0  0.39912571908E+02  0.75240193120E+01  0.18818296900E+01  0.50528861472E+02  0.30000004929E+02 0.  0.
        -12    1    1    2    0    0 -0.39912571908E+02 -0.75240193120E+01 -0.18818296900E+01  0.40659138528E+02  0.00000000000E+00 0.  1.
         11    1    3    3    0    0  0.29909996523E+02  0.73761117855E+01  0.51101302541E+01  0.31227045146E+02  0.51100000000E-03 0. -1.
        -11    1    3    3    0    0 -0.31270654556E-01  0.10697104021E+01  0.57240482797E+01  0.58232282427E+01  0.51100000000E-03 0.  1.
         12    1    3    3    0    0  0.10033846039E+02 -0.92180287560E+00 -0.89523488438E+01  0.13478588083E+02  0.00000000000E+00 0. -1.
</event>
<event>
 7    1  0.9865694E-013  0.5052884E+02  0.7816164E-02  0.1300439E+00
        -11   -1    0    0    0    0  0.00000000000E+00  0.00000000000E+00  0.45593999997E+02  0.45594000000E+02  0.51100000000E-03 0.  1.
         11   -1    0    0    0    0 -0.00000000000E+00 -0.00000000000E+00 -0.45593999997E+02  0.45594000000E+02  0.51100000000E-03 0. -1.
    9900012    2    1    2    0    0  0.23020384416E+02 -0.90580933175E+01 -0.32267327660E+02  0.50528836364E+02  0.29999928613E+02 0.  0.
        -12    1    1    2    0    0 -0.23020384416E+02  0.90580933175E+01  0.32267327660E+02  0.40659163636E+02  0.00000000000E+00 0.  1.
         11    1    3    3    0    0  0.12767391293E+02 -0.18243450590E+02 -0.23276190648E+02  0.32211967049E+02  0.51100000000E-03 0. -1.
        -11    1    3    3    0    0  0.81670586349E+01  0.68897922453E+01 -0.22828133006E+01  0.10926175944E+02  0.51100000000E-03 0.  1.
         12    1    3    3    0    0  0.20859344888E+01  0.22955650274E+01 -0.67083237118E+01  0.73906933714E+01  0.00000000000E+00 0. -1.
</event>
<event>
 7    1  0.9865694E-013  0.5052886E+02  0.7816164E-02  0.1300439E+00
        -11   -1    0    0    0    0  0.00000000000E+00  0.00000000000E+00  0.45593999997E+02  0.45594000000E+02  0.51100000000E-03 0.  1.
         11   -1    0    0    0    0 -0.00000000000E+00 -0.00000000000E+00 -0.45593999997E+02  0.45594000000E+02  0.51100000000E-03 0. -1.
    9900012    2    1    2    0    0  0.94940460560E+01 -0.43330767570E+01 -0.39296982148E+02  0.50528864856E+02  0.30000015217E+02 0.  0.
        -12    1    1    2    0    0 -0.94940460560E+01  0.43330767570E+01  0.39296982148E+02  0.40659135144E+02  0.00000000000E+00 0.  1.
         11    1    3    3    0    0 -0.74000428268E+01 -0.52112077113E+01 -0.20339475440E+02  0.22262335481E+02  0.51100000000E-03 0. -1.
        -11    1    3    3    0    0  0.90957979501E+01  0.38761167088E+01 -0.31326968412E+01  0.10371673483E+02  0.51100000000E-03 0.  1.
         12    1    3    3    0    0  0.77982909327E+01 -0.29979857545E+01 -0.15824809867E+02  0.17894855892E+02  0.00000000000E+00 0. -1.
</event>
<event>
 7    1  0.9865694E-013  0.5052885E+02  0.7816164E-02  0.1300439E+00
        -11   -1    0    0    0    0  0.00000000000E+00  0.00000000000E+00  0.45593999997E+02  0.45594000000E+02  0.51100000000E-03 0.  1.
         11   -1    0    0    0    0 -0.00000000000E+00 -0.00000000000E+00 -0.45593999997E+02  0.45594000000E+02  0.51100000000E-03 0. -1.
    9900012    2    1    2    0    0  0.19717343232E+02  0.70408013709E+01 -0.34854262305E+02  0.50528854548E+02  0.29999983883E+02 0.  0.
        -12    1    1    2    0    0 -0.19717343232E+02 -0.70408013709E+01  0.34854262305E+02  0.40659145452E+02  0.00000000000E+00 0.  1.
         11    1    3    3    0    0  0.22113531249E+02  0.10730746579E+02 -0.13076720330E+02  0.27841655865E+02  0.51100000000E-03 0. -1.
        -11    1    3    3    0    0 -0.77197501556E+00 -0.44159276205E+01 -0.17241111962E+02  0.17814384753E+02  0.51100000000E-03 0.  1.
         12    1    3    3    0    0 -0.16242130011E+01  0.72598241229E+00 -0.45364300126E+01  0.48728139299E+01  0.00000000000E+00 0. -1.
</event>
<event>
 7    1  0.9865694E-013  0.5052889E+02  0.7816164E-02  0.1300439E+00
        -11   -1    0    0    0    0  0.00000000000E+00  0.00000000000E+00  0.45593999997E+02  0.45594000000E+02  0.51100000000E-03 0. -1.
         11   -1    0    0    0    0 -0.00000000000E+00 -0.00000000000E+00 -0.45593999997E+02  0.45594000000E+02  0.51100000000E-03 0.  1.
    9900012    2    1    2    0    0 -0.37327100801E+02  0.16071935975E+02  0.12424791013E+01  0.50528888666E+02  0.30000087588E+02 0.  0.
        -12    1    1    2    0    0  0.37327100801E+02 -0.16071935975E+02 -0.12424791013E+01  0.40659111334E+02  0.00000000000E+00 0.  1.
         11    1    3    3    0    0 -0.30978434853E+02  0.17270384150E+02 -0.55302180069E+01  0.35895861963E+02  0.51100000000E-03 0. -1.
        -11    1    3    3    0    0  0.43668227103E+00 -0.43626873095E+01 -0.21789058761E+00  0.43898984653E+01  0.51100000000E-03 0.  1.
         12    1    3    3    0    0 -0.67853482189E+01  0.31642391343E+01  0.69905876958E+01  0.10243128237E+02  0.00000000000E+00 0. -1.
</event>
<event>
 7    1  0.9865694E-013  0.5052886E+02  0.7816164E-02  0.1300439E+00
        -11   -1    0    0    0    0  0.00000000000E+00  0.00000000000E+00  0.45593999997E+02  0.45594000000E+02  0.51100000000E-03 0.  1.
         11   -1    0    0    0    0 -0.00000000000E+00 -0.00000000000E+00 -0.45593999997E+02  0.45594000000E+02  0.51100000000E-03 0. -1.
    9900012    2    1    2    0    0  0.39944253798E+02  0.11836479699E+01 -0.74980885943E+01  0.50528858758E+02  0.29999996681E+02 0.  0.
        -12    1    1    2    0    0 -0.39944253798E+02 -0.11836479699E+01  0.74980885943E+01  0.40659141242E+02  0.00000000000E+00 0.  1.
         11    1    3    3    0    0  0.10858594611E+02  0.12157011047E+02  0.97512031515E-01  0.16300659599E+02  0.51100000000E-03 0. -1.
        -11    1    3    3    0    0  0.35383262780E+01 -0.30596397545E+01  0.28930454524E+01  0.55000782292E+01  0.51100000000E-03 0.  1.
         12    1    3    3    0    0  0.25547332909E+02 -0.79137233224E+01 -0.10488646078E+02  0.28728120930E+02  0.00000000000E+00 0. -1.
</event>
<event>
 7    1  0.9865694E-013  0.5052886E+02  0.7816164E-02  0.1300439E+00
        -11   -1    0    0    0    0  0.00000000000E+00  0.00000000000E+00  0.45593999997E+02  0.45594000000E+02  0.51100000000E-03 0.  1.
         11   -1    0    0    0    0 -0.00000000000E+00 -0.00000000000E+00 -0.45593999997E+02  0.45594000000E+02  0.51100000000E-03 0. -1.
    9900012    2    1    2    0    0 -0.14285186531E+02  0.13030734526E+02 -0.35767288720E+02  0.50528861557E+02  0.30000005189E+02 0.  0.
        -12    1    1    2    0    0  0.14285186531E+02 -0.13030734526E+02  0.35767288720E+02  0.40659138443E+02  0.00000000000E+00 0.  1.
         11    1    3    3    0    0 -0.21729559884E+02  0.33497833993E+01 -0.29408946256E+02  0.36718945270E+02  0.51100000000E-03 0. -1.
        -11    1    3    3    0    0  0.29539319381E+01  0.43862178615E+01 -0.22854285789E+01  0.57608857890E+01  0.51100000000E-03 0.  1.
         12    1    3    3    0    0  0.44904414149E+01  0.52947332651E+01 -0.40729138853E+01  0.80490304985E+01  0.00000000000E+00 0. -1.
</event>
<event>
 7    1  0.9865694E-013  0.5052886E+02  0.7816164E-02  0.1300439E+00
        -11   -1    0    0    0    0  0.00000000000E+00  0.00000000000E+00  0.45593999997E+02  0.45594000000E+02  0.51100000000E-03 0.  1.
         11   -1    0    0    0    0 -0.00000000000E+00 -0.00000000000E+00 -0.45593999997E+02  0.45594000000E+02  0.51100000000E-03 0. -1.
    9900012    2    1    2    0    0 -0.21301761398E+02 -0.23542374809E+02 -0.25399940723E+02  0.50528862785E+02  0.30000008921E+02 0.  0.
        -12    1    1    2    0    0  0.21301761398E+02  0.23542374809E+02  0.25399940723E+02  0.40659137215E+02  0.00000000000E+00 0.  1.
         11    1    3    3    0    0 -0.21244041706E+02 -0.35570358156E+01 -0.17532456799E+02  0.27773167869E+02  0.51100000000E-03 0. -1.
        -11    1    3    3    0    0 -0.19555748128E+01 -0.19184160532E+02 -0.69127443076E+01  0.20485173231E+02  0.51100000000E-03 0.  1.
         12    1    3    3    0    0  0.18978551209E+01 -0.80117846166E+00 -0.95473961668E+00  0.22705216852E+01  0.00000000000E+00 0. -1.
</event>
<event>
 7    1  0.9865694E-013  0.5052886E+02  0.7816164E-02  0.1300439E+00
        -11   -1    0    0    0    0  0.00000000000E+00  0.00000000000E+00  0.45593999997E+02  0.45594000000E+02  0.51100000000E-03 0.  1.
         11   -1    0    0    0    0 -0.00000000000E+00 -0.00000000000E+00 -0.45593999997E+02  0.45594000000E+02  0.51100000000E-03 0. -1.
    9900012    2    1    2    0    0 -0.18371383968E+02  0.10886289015E+02 -0.34599810713E+02  0.50528856640E+02  0.29999990242E+02 0.  0.
        -12    1    1    2    0    0  0.18371383968E+02 -0.10886289015E+02  0.34599810713E+02  0.40659143360E+02  0.00000000000E+00 0.  1.
         11    1    3    3    0    0  0.91918603181E+00 -0.80161705892E+01 -0.53652731071E+01  0.96896877995E+01  0.51100000000E-03 0. -1.
        -11    1    3    3    0    0 -0.96843738950E+01  0.14432094238E+02 -0.21872852717E+02  0.27937324999E+02  0.51100000000E-03 0.  1.
        -12    1    3    3    0    0 -0.96061961045E+01  0.44703653658E+01 -0.73616848893E+01  0.12901843842E+02  0.00000000000E+00 0.  1.
</event>
<event>
 7    1  0.9865694E-013  0.5052886E+02  0.7816164E-02  0.1300439E+00
        -11   -1    0    0    0    0  0.00000000000E+00  0.00000000000E+00  0.45593999997E+02  0.45594000000E+02  0.51100000000E-03 0. -1.
         11   -1    0    0    0    0 -0.00000000000E+00 -0.00000000000E+00 -0.45593999997E+02  0.45594000000E+02  0.51100000000E-03 0.  1.
    9900012    2    1    2    0    0  0.26690889654E+02  0.15242871562E+02  0.26616097729E+02  0.50528863483E+02  0.30000011043E+02 0.  0.
        -12    1    1    2    0    0 -0.26690889654E+02 -0.15242871562E+02 -0.26616097729E+02  0.40659136517E+02  0.00000000000E+00 0.  1.
         11    1    3    3    0    0  0.94334917558E+01  0.38226312196E+01  0.24066659818E+02  0.26130583445E+02  0.51100000000E-03 0. -1.
        -11    1    3    3    0    0  0.58551724403E+01  0.11320853664E+02  0.25379626217E+01  0.12995615666E+02  0.51100000000E-03 0.  1.
        -12    1    3    3    0    0  0.11402225458E+02  0.99386678267E-01  0.11475289424E-01  0.11402664372E+02  0.00000000000E+00 0.  1.
</event>
<event>
 7    1  0.1519585E-012  0.5052885E+02  0.7816164E-02  0.1300439E+00
        -11   -1    0    0    0    0  0.00000000000E+00  0.00000000000E+00  0.45593999997E+02  0.45594000000E+02  0.51100000000E-03 0. -1.
         11   -1    0    0    0    0 -0.00000000000E+00 -0.00000000000E+00 -0.45593999997E+02  0.45594000000E+02  0.51100000000E-03 0.  1.
    9900012    2    1    2    0    0  0.32961693485E+02  0.22872186402E+02  0.65997131455E+01  0.50528851437E+02  0.29999974429E+02 0.  0.
        -12    1    1    2    0    0 -0.32961693485E+02 -0.22872186402E+02 -0.65997131455E+01  0.40659148563E+02  0.00000000000E+00 0.  1.
         11    1    3    3    0    0  0.29933037135E+02  0.21443030671E+02  0.90207592174E+01  0.37909950852E+02  0.51100000000E-03 0. -1.
        -11    1    3    3    0    0  0.10732636668E+01 -0.44519628921E+01  0.20089405271E+01  0.50007710200E+01  0.51100000000E-03 0.  1.
        -12    1    3    3    0    0  0.19553926838E+01  0.58811186231E+01 -0.44299865990E+01  0.76181295653E+01  0.00000000000E+00 0.  1.
</event>
<event>
 7    1  0.9865694E-013  0.5052886E+02  0.7816164E-02  0.1300439E+00
        -11   -1    0    0    0    0  0.00000000000E+00  0.00000000000E+00  0.45593999997E+02  0.45594000000E+02  0.51100000000E-03 0.  1.
         11   -1    0    0    0    0 -0.00000000000E+00 -0.00000000000E+00 -0.45593999997E+02  0.45594000000E+02  0.51100000000E-03 0. -1.
    9900012    2    1    2    0    0  0.11932334244E+02  0.12960182366E+02 -0.36644493576E+02  0.50528857893E+02  0.29999994051E+02 0.  0.
        -12    1    1    2    0    0 -0.11932334244E+02 -0.12960182366E+02  0.36644493576E+02  0.40659142107E+02  0.00000000000E+00 0.  1.
         11    1    3    3    0    0 -0.86716087220E+00  0.11524564964E+02 -0.54109575590E+01  0.12761113884E+02  0.51100000000E-03 0. -1.
        -11    1    3    3    0    0  0.15744943279E+02  0.30552249174E+01 -0.17977073864E+02  0.24091758406E+02  0.51100000000E-03 0.  1.
        -12    1    3    3    0    0 -0.29454481628E+01 -0.16196075157E+01 -0.13256462153E+02  0.13675985603E+02  0.00000000000E+00 0.  1.
</event>
<event>
 7    1  0.9865694E-013  0.5052886E+02  0.7816164E-02  0.1300439E+00
        -11   -1    0    0    0    0  0.00000000000E+00  0.00000000000E+00  0.45593999997E+02  0.45594000000E+02  0.51100000000E-03 0. -1.
         11   -1    0    0    0    0 -0.00000000000E+00 -0.00000000000E+00 -0.45593999997E+02  0.45594000000E+02  0.51100000000E-03 0.  1.
    9900012    2    1    2    0    0  0.21518672254E+02 -0.21981725815E+02  0.26587900013E+02  0.50528856471E+02  0.29999989730E+02 0.  0.
        -12    1    1    2    0    0 -0.21518672254E+02  0.21981725815E+02 -0.26587900013E+02  0.40659143529E+02  0.00000000000E+00 0.  1.
         11    1    3    3    0    0  0.11686106037E+02 -0.27540837655E+02  0.18895933922E+02  0.35385295422E+02  0.51100000000E-03 0. -1.
        -11    1    3    3    0    0  0.26635581572E+00  0.20577619815E+01 -0.42537639295E+00  0.21180828902E+01  0.51100000000E-03 0.  1.
         12    1    3    3    0    0  0.95662104017E+01  0.35013498584E+01  0.81173424838E+01  0.13025478159E+02  0.00000000000E+00 0. -1.
</event>
<event>
 7    1  0.9865694E-013  0.5052887E+02  0.7816164E-02  0.1300439E+00
        -11   -1    0    0    0    0  0.00000000000E+00  0.00000000000E+00  0.45593999997E+02  0.45594000000E+02  0.51100000000E-03 0. -1.
         11   -1    0    0    0    0 -0.00000000000E+00 -0.00000000000E+00 -0.45593999997E+02  0.45594000000E+02  0.51100000000E-03 0.  1.
    9900012    2    1    2    0    0  0.26577980479E+02  0.48912982482E+01  0.30378465698E+02  0.50528867901E+02  0.30000024471E+02 0.  0.
        -12    1    1    2    0    0 -0.26577980479E+02 -0.48912982482E+01 -0.30378465698E+02  0.40659132099E+02  0.00000000000E+00 0.  1.
         11    1    3    3    0    0 -0.78200301258E+00 -0.13390844707E+01  0.94071110618E+01  0.95340660120E+01  0.51100000000E-03 0. -1.
        -11    1    3    3    0    0  0.27588476028E+02  0.62421178140E+01  0.24522783133E+02  0.37436011235E+02  0.51100000000E-03 0.  1.
        -12    1    3    3    0    0 -0.22849253627E+00 -0.11735095125E-01 -0.35514284966E+01  0.35587906539E+01  0.00000000000E+00 0.  1.
</event>
<event>
 7    1  0.9865694E-013  0.5052882E+02  0.7816164E-02  0.1300439E+00
        -11   -1    0    0    0    0  0.00000000000E+00  0.00000000000E+00  0.45593999997E+02  0.45594000000E+02  0.51100000000E-03 0.  1.
         11   -1    0    0    0    0 -0.00000000000E+00 -0.00000000000E+00 -0.45593999997E+02  0.45594000000E+02  0.51100000000E-03 0. -1.
    9900012    2    1    2    0    0  0.33474582269E+01 -0.30602633940E+02 -0.26560158630E+02  0.50528822597E+02  0.29999886765E+02 0.  0.
        -12    1    1    2    0    0 -0.33474582269E+01  0.30602633940E+02  0.26560158630E+02  0.40659177403E+02  0.00000000000E+00 0.  1.
         11    1    3    3    0    0  0.11879273094E+02 -0.21528395004E+01 -0.80483947450E+01  0.14509600456E+02  0.51100000000E-03 0. -1.
        -11    1    3    3    0    0 -0.66188647483E+01 -0.82711770324E+01 -0.55395516916E+01  0.11954429023E+02  0.51100000000E-03 0.  1.
         12    1    3    3    0    0 -0.19129501186E+01 -0.20178617407E+02 -0.12972212193E+02  0.24064793118E+02  0.00000000000E+00 0. -1.
</event>
<event>
 7    1  0.9865694E-013  0.5052886E+02  0.7816164E-02  0.1300439E+00
        -11   -1    0    0    0    0  0.00000000000E+00  0.00000000000E+00  0.45593999997E+02  0.45594000000E+02  0.51100000000E-03 0. -1.
         11   -1    0    0    0    0 -0.00000000000E+00 -0.00000000000E+00 -0.45593999997E+02  0.45594000000E+02  0.51100000000E-03 0.  1.
    9900012    2    1    2    0    0  0.22619946610E+02 -0.78998308354E+01  0.32849599283E+02  0.50528862221E+02  0.30000007207E+02 0.  0.
        -12    1    1    2    0    0 -0.22619946610E+02  0.78998308354E+01 -0.32849599283E+02  0.40659137779E+02  0.00000000000E+00 0.  1.
         11    1    3    3    0    0  0.10886162909E+02 -0.74081372949E+01  0.43225982003E+01  0.13859072715E+02  0.51100000000E-03 0. -1.
        -11    1    3    3    0    0 -0.41609325452E+00 -0.79627339338E+01  0.15125350201E+02  0.17098376656E+02  0.51100000000E-03 0.  1.
         12    1    3    3    0    0  0.12149876956E+02  0.74710403933E+01  0.13401650882E+02  0.19571412850E+02  0.00000000000E+00 0. -1.
</event>
<event>
 7    1  0.9865694E-013  0.5052886E+02  0.7816164E-02  0.1300439E+00
        -11   -1    0    0    0    0  0.00000000000E+00  0.00000000000E+00  0.45593999997E+02  0.45594000000E+02  0.51100000000E-03 0.  1.
         11   -1    0    0    0    0 -0.00000000000E+00 -0.00000000000E+00 -0.45593999997E+02  0.45594000000E+02  0.51100000000E-03 0. -1.
    9900012    2    1    2    0    0  0.23098700983E+02  0.49785177015E+01 -0.33088218125E+02  0.50528858294E+02  0.29999995270E+02 0.  0.
        -12    1    1    2    0    0 -0.23098700983E+02 -0.49785177015E+01  0.33088218125E+02  0.40659141706E+02  0.00000000000E+00 0.  1.
         11    1    3    3    0    0  0.25181716968E+02  0.11715102557E+02 -0.20855656199E+02  0.34732130558E+02  0.51100000000E-03 0. -1.
        -11    1    3    3    0    0 -0.46562606882E+01 -0.34443010321E+01 -0.65529426280E+01  0.87455720535E+01  0.51100000000E-03 0.  1.
         12    1    3    3    0    0  0.25732447031E+01 -0.32922838236E+01 -0.56796192981E+01  0.70511556818E+01  0.00000000000E+00 0. -1.
</event>
<event>
 7    1  0.9865694E-013  0.5052886E+02  0.7816164E-02  0.1300439E+00
        -11   -1    0    0    0    0  0.00000000000E+00  0.00000000000E+00  0.45593999997E+02  0.45594000000E+02  0.51100000000E-03 0. -1.
         11   -1    0    0    0    0 -0.00000000000E+00 -0.00000000000E+00 -0.45593999997E+02  0.45594000000E+02  0.51100000000E-03 0.  1.
    9900012    2    1    2    0    0 -0.28961172517E+02  0.26593822751E+02 -0.10353012319E+02  0.50528858516E+02  0.29999995946E+02 0.  0.
        -12    1    1    2    0    0  0.28961172517E+02 -0.26593822751E+02  0.10353012319E+02  0.40659141484E+02  0.00000000000E+00 0.  1.
         11    1    3    3    0    0 -0.15082796334E+02  0.11196761598E+01  0.48618821855E+01  0.15886545207E+02  0.51100000000E-03 0. -1.
        -11    1    3    3    0    0 -0.12269335774E+02  0.23725995399E+02 -0.93255851629E+01  0.28291800878E+02  0.51100000000E-03 0.  1.
         12    1    3    3    0    0 -0.16090404094E+01  0.17481511927E+01 -0.58893093412E+01  0.63505124319E+01  0.00000000000E+00 0. -1.
</event>
<event>
 7    1  0.9865694E-013  0.5052886E+02  0.7816164E-02  0.1300439E+00
        -11   -1    0    0    0    0  0.00000000000E+00  0.00000000000E+00  0.45593999997E+02  0.45594000000E+02  0.51100000000E-03 0.  1.
         11   -1    0    0    0    0 -0.00000000000E+00 -0.00000000000E+00 -0.45593999997E+02  0.45594000000E+02  0.51100000000E-03 0. -1.
    9900012    2    1    2    0    0  0.13357512881E+02  0.32427155858E+02 -0.20572358068E+02  0.50528861988E+02  0.30000006498E+02 0.  0.
        -12    1    1    2    0    0 -0.13357512881E+02 -0.32427155858E+02  0.20572358068E+02  0.40659138012E+02  0.00000000000E+00 0.  1.
         11    1    3    3    0    0 -0.21858683109E+01  0.10839785740E+02 -0.74723919078E+01  0.13345996263E+02  0.51100000000E-03 0. -1.
        -11    1    3    3    0    0  0.21159207093E+02  0.18772920961E+02 -0.12319513627E+02  0.30852958083E+02  0.51100000000E-03 0.  1.
        -12    1    3    3    0    0 -0.56158259005E+01  0.28144491566E+01 -0.78045253382E+00  0.63299076421E+01  0.00000000000E+00 0.  1.
</event>
<event>
 7    1  0.9865694E-013  0.5052886E+02  0.7816164E-02  0.1300439E+00
        -11   -1    0    0    0    0  0.00000000000E+00  0.00000000000E+00  0.45593999997E+02  0.45594000000E+02  0.51100000000E-03 0.  1.
         11   -1    0    0    0    0 -0.00000000000E+00 -0.00000000000E+00 -0.45593999997E+02  0.45594000000E+02  0.51100000000E-03 0. -1.
    9900012    2    1    2    0    0 -0.34336891906E+02 -0.17324585949E+02 -0.13190980367E+02  0.50528863424E+02  0.30000010863E+02 0.  0.
        -12    1    1    2    0    0  0.34336891906E+02  0.17324585949E+02  0.13190980367E+02  0.40659136576E+02  0.00000000000E+00 0.  1.
         11    1    3    3    0    0 -0.20123930074E+02 -0.14842744396E+02 -0.11029257273E+02  0.27329912899E+02  0.51100000000E-03 0. -1.
        -11    1    3    3    0    0  0.33920527225E+00  0.70782365234E+00  0.61091613269E+01  0.61593771535E+01  0.51100000000E-03 0.  1.
        -12    1    3    3    0    0 -0.14552167105E+02 -0.31896652057E+01 -0.82708844202E+01  0.17039573371E+02  0.00000000000E+00 0.  1.
</event>
<event>
 7    1  0.9865694E-013  0.5052885E+02  0.7816164E-02  0.1300439E+00
        -11   -1    0    0    0    0  0.00000000000E+00  0.00000000000E+00  0.45593999997E+02  0.45594000000E+02  0.51100000000E-03 0. -1.
         11   -1    0    0    0    0 -0.00000000000E+00 -0.00000000000E+00 -0.45593999997E+02  0.45594000000E+02  0.51100000000E-03 0.  1.
    9900012    2    1    2    0    0  0.12328825520E+02 -0.20147259288E+02  0.33094625123E+02  0.50528853334E+02  0.29999980195E+02 0.  0.
        -12    1    1    2    0    0 -0.12328825520E+02  0.20147259288E+02 -0.33094625123E+02  0.40659146666E+02  0.00000000000E+00 0.  1.
         11    1    3    3    0    0  0.10848972359E+01 -0.14651880355E+02  0.98412354569E+01  0.17683453157E+02  0.51100000000E-03 0. -1.
        -11    1    3    3    0    0  0.61568620143E+01  0.14366063169E+01 -0.16210886832E+01  0.65267692124E+01  0.51100000000E-03 0.  1.
        -12    1    3    3    0    0  0.50870662700E+01 -0.69319852492E+01  0.24874478350E+02  0.26318630966E+02  0.00000000000E+00 0.  1.
</event>
<event>
 7    1  0.9865694E-013  0.5052888E+02  0.7816164E-02  0.1300439E+00
        -11   -1    0    0    0    0  0.00000000000E+00  0.00000000000E+00  0.45593999997E+02  0.45594000000E+02  0.51100000000E-03 0.  1.
         11   -1    0    0    0    0 -0.00000000000E+00 -0.00000000000E+00 -0.45593999997E+02  0.45594000000E+02  0.51100000000E-03 0. -1.
    9900012    2    1    2    0    0 -0.36143232431E+02 -0.11345124520E+02  0.14768852925E+02  0.50528879035E+02  0.30000058315E+02 0.  0.
        -12    1    1    2    0    0  0.36143232431E+02  0.11345124520E+02 -0.14768852925E+02  0.40659120965E+02  0.00000000000E+00 0.  1.
         11    1    3    3    0    0 -0.17430308338E+02 -0.19487106303E+01 -0.19205780771E+01  0.17643745132E+02  0.51100000000E-03 0. -1.
        -11    1    3    3    0    0  0.33219648706E+01 -0.47740598408E+01  0.31834395794E+01  0.66303382857E+01  0.51100000000E-03 0.  1.
        -12    1    3    3    0    0 -0.22034888963E+02 -0.46223540492E+01  0.13505991423E+02  0.26254795617E+02  0.00000000000E+00 0.  1.
</event>
<event>
 7    1  0.9865694E-013  0.5052886E+02  0.7816164E-02  0.1300439E+00
        -11   -1    0    0    0    0  0.00000000000E+00  0.00000000000E+00  0.45593999997E+02  0.45594000000E+02  0.51100000000E-03 0. -1.
         11   -1    0    0    0    0 -0.00000000000E+00 -0.00000000000E+00 -0.45593999997E+02  0.45594000000E+02  0.51100000000E-03 0.  1.
    9900012    2    1    2    0    0  0.40433046612E+02  0.40021094825E+01 -0.15223179501E+01  0.50528860922E+02  0.30000003259E+02 0.  0.
        -12    1    1    2    0    0 -0.40433046612E+02 -0.40021094825E+01  0.15223179501E+01  0.40659139078E+02  0.00000000000E+00 0.  1.
         11    1    3    3    0    0  0.84634769155E+01  0.83842161111E+01  0.27572928989E+01  0.12228171805E+02  0.51100000000E-03 0. -1.
        -11    1    3    3    0    0  0.33542717777E+02 -0.48445453432E+01 -0.18640680328E+00  0.33891271490E+02  0.51100000000E-03 0.  1.
        -12    1    3    3    0    0 -0.15731480810E+01  0.46243871455E+00 -0.40932040457E+01  0.44094176270E+01  0.00000000000E+00 0.  1.
</event>
<event>
 7    1  0.9865694E-013  0.5052886E+02  0.7816164E-02  0.1300439E+00
        -11   -1    0    0    0    0  0.00000000000E+00  0.00000000000E+00  0.45593999997E+02  0.45594000000E+02  0.51100000000E-03 0.  1.
         11   -1    0    0    0    0 -0.00000000000E+00 -0.00000000000E+00 -0.45593999997E+02  0.45594000000E+02  0.51100000000E-03 0. -1.
    9900012    2    1    2    0    0  0.23474373973E+02 -0.31916931615E+02  0.91339506750E+01  0.50528858199E+02  0.29999994980E+02 0.  0.
        -12    1    1    2    0    0 -0.23474373973E+02  0.31916931615E+02 -0.91339506750E+01  0.40659141801E+02  0.00000000000E+00 0.  1.
         11    1    3    3    0    0  0.56152405777E+01 -0.22704596198E+02 -0.69612560783E+01  0.24402637188E+02  0.51100000000E-03 0. -1.
        -11    1    3    3    0    0  0.35160910432E+01 -0.62617565920E-01  0.20950645253E+01  0.40934231164E+01  0.51100000000E-03 0.  1.
         12    1    3    3    0    0  0.14343042352E+02 -0.91497178503E+01  0.14000142228E+02  0.22032797894E+02  0.00000000000E+00 0. -1.
</event>
<event>
 7    1  0.9865694E-013  0.5052887E+02  0.7816164E-02  0.1300439E+00
        -11   -1    0    0    0    0  0.00000000000E+00  0.00000000000E+00  0.45593999997E+02  0.45594000000E+02  0.51100000000E-03 0.  1.
         11   -1    0    0    0    0 -0.00000000000E+00 -0.00000000000E+00 -0.45593999997E+02  0.45594000000E+02  0.51100000000E-03 0. -1.
    9900012    2    1    2    0    0  0.19556355497E+02 -0.66544652922E+01 -0.35020447754E+02  0.50528871757E+02  0.30000036191E+02 0.  0.
        -12    1    1    2    0    0 -0.19556355497E+02  0.66544652922E+01  0.35020447754E+02  0.40659128243E+02  0.00000000000E+00 0.  1.
         11    1    3    3    0    0  0.18921227063E+02 -0.18598142731E+01 -0.29177682537E+02  0.34825405973E+02  0.51100000000E-03 0. -1.
        -11    1    3    3    0    0  0.52469702983E+01 -0.34464397958E+00  0.19551032645E+01  0.56099826933E+01  0.51100000000E-03 0.  1.
         12    1    3    3    0    0 -0.46118418648E+01 -0.44500070396E+01 -0.77978684816E+01  0.10093483090E+02  0.00000000000E+00 0. -1.
</event>
<event>
 7    1  0.9865694E-013  0.5052886E+02  0.7816164E-02  0.1300439E+00
        -11   -1    0    0    0    0  0.00000000000E+00  0.00000000000E+00  0.45593999997E+02  0.45594000000E+02  0.51100000000E-03 0.  1.
         11   -1    0    0    0    0 -0.00000000000E+00 -0.00000000000E+00 -0.45593999997E+02  0.45594000000E+02  0.51100000000E-03 0. -1.
    9900012    2    1    2    0    0 -0.18238079420E+02 -0.13318350658E+02 -0.33810642725E+02  0.50528861216E+02  0.30000004152E+02 0.  0.
        -12    1    1    2    0    0  0.18238079420E+02  0.13318350658E+02  0.33810642725E+02  0.40659138784E+02  0.00000000000E+00 0.  1.
         11    1    3    3    0    0 -0.67760631553E+01 -0.16017928193E+02 -0.26705691601E+02  0.31869782234E+02  0.51100000000E-03 0. -1.
        -11    1    3    3    0    0 -0.18141082184E+01  0.65151489771E+01 -0.17602419451E+01  0.69883193106E+01  0.51100000000E-03 0.  1.
        -12    1    3    3    0    0 -0.96479080465E+01 -0.38155714419E+01 -0.53447091794E+01  0.11670759672E+02  0.00000000000E+00 0.  1.
</event>
<event>
 7    1  0.9865694E-013  0.5052886E+02  0.7816164E-02  0.1300439E+00
        -11   -1    0    0    0    0  0.00000000000E+00  0.00000000000E+00  0.45593999997E+02  0.45594000000E+02  0.51100000000E-03 0. -1.
         11   -1    0    0    0    0 -0.00000000000E+00 -0.00000000000E+00 -0.45593999997E+02  0.45594000000E+02  0.51100000000E-03 0.  1.
    9900012    2    1    2    0    0 -0.17280238348E+02 -0.30645323779E+02  0.20381933300E+02  0.50528859429E+02  0.29999998722E+02 0.  0.
        -12    1    1    2    0    0  0.17280238348E+02  0.30645323779E+02 -0.20381933300E+02  0.40659140571E+02  0.00000000000E+00 0.  1.
         11    1    3    3    0    0 -0.39602612303E+01 -0.19955751294E+01 -0.14815508747E+01  0.46755729450E+01  0.51100000000E-03 0.  1.
        -11    1    3    3    0    0 -0.12727846727E+02 -0.29082984055E+02  0.26380856134E+02  0.41276720006E+02  0.51100000000E-03 0. -1.
        -12    1    3    3    0    0 -0.59213039087E+00  0.43323540519E+00 -0.45173719590E+01  0.45765664785E+01  0.00000000000E+00 0.  1.
</event>
<event>
 7    1  0.9865694E-013  0.5052888E+02  0.7816164E-02  0.1300439E+00
        -11   -1    0    0    0    0  0.00000000000E+00  0.00000000000E+00  0.45593999997E+02  0.45594000000E+02  0.51100000000E-03 0.  1.
         11   -1    0    0    0    0 -0.00000000000E+00 -0.00000000000E+00 -0.45593999997E+02  0.45594000000E+02  0.51100000000E-03 0. -1.
    9900012    2    1    2    0    0  0.12395189183E+02  0.29907113438E+02 -0.24598539809E+02  0.50528876672E+02  0.30000051133E+02 0.  0.
        -12    1    1    2    0    0 -0.12395189183E+02 -0.29907113438E+02  0.24598539809E+02  0.40659123328E+02  0.00000000000E+00 0.  1.
         11    1    3    3    0    0  0.96012383090E+01  0.81390848342E+01 -0.34358924800E+01  0.13047368946E+02  0.51100000000E-03 0. -1.
        -11    1    3    3    0    0 -0.31682846784E+01  0.24079378573E+02 -0.14695913984E+02  0.28387046136E+02  0.51100000000E-03 0.  1.
        -12    1    3    3    0    0  0.59622355524E+01 -0.23113499695E+01 -0.64667333453E+01  0.90944615906E+01  0.00000000000E+00 0.  1.
</event>
<event>
 7    1  0.9865694E-013  0.5052886E+02  0.7816164E-02  0.1300439E+00
        -11   -1    0    0    0    0  0.00000000000E+00  0.00000000000E+00  0.45593999997E+02  0.45594000000E+02  0.51100000000E-03 0.  1.
         11   -1    0    0    0    0 -0.00000000000E+00 -0.00000000000E+00 -0.45593999997E+02  0.45594000000E+02  0.51100000000E-03 0. -1.
    9900012    2    1    2    0    0 -0.21442638447E+02 -0.23900067105E+02 -0.24943243187E+02  0.50528864104E+02  0.30000012930E+02 0.  0.
        -12    1    1    2    0    0  0.21442638447E+02  0.23900067105E+02  0.24943243187E+02  0.40659135896E+02  0.00000000000E+00 0.  1.
         11    1    3    3    0    0 -0.37081069851E+01 -0.72076514161E+01 -0.22836606958E+01  0.84211283557E+01  0.51100000000E-03 0. -1.
        -11    1    3    3    0    0 -0.11947783952E+02  0.47457397511E+01 -0.52303974789E+01  0.13879072202E+02  0.51100000000E-03 0.  1.
        -12    1    3    3    0    0 -0.57867475098E+01 -0.21438155440E+02 -0.17429185012E+02  0.28228663546E+02  0.00000000000E+00 0.  1.
</event>
<event>
 7    1  0.9865694E-013  0.5052882E+02  0.7816164E-02  0.1300439E+00
        -11   -1    0    0    0    0  0.00000000000E+00  0.00000000000E+00  0.45593999997E+02  0.45594000000E+02  0.51100000000E-03 0.  1.
         11   -1    0    0    0    0 -0.00000000000E+00 -0.00000000000E+00 -0.45593999997E+02  0.45594000000E+02  0.51100000000E-03 0. -1.
    9900012    2    1    2    0    0 -0.25177002709E+02 -0.12870801795E+02 -0.29216946583E+02  0.50528819341E+02  0.29999876868E+02 0.  0.
        -12    1    1    2    0    0  0.25177002709E+02  0.12870801795E+02  0.29216946583E+02  0.40659180659E+02  0.00000000000E+00 0.  1.
         11    1    3    3    0    0 -0.10163439744E+01  0.19614281001E+01 -0.26840759002E+01  0.34762650885E+01  0.51100000000E-03 0. -1.
        -11    1    3    3    0    0 -0.18318851398E+02 -0.21456574883E+02 -0.13418559308E+02  0.31241361308E+02  0.51100000000E-03 0.  1.
        -12    1    3    3    0    0 -0.58418073371E+01  0.66243449882E+01 -0.13114311375E+02  0.15811192944E+02  0.00000000000E+00 0.  1.
</event>
<event>
 7    1  0.9865694E-013  0.5052885E+02  0.7816164E-02  0.1300439E+00
        -11   -1    0    0    0    0  0.00000000000E+00  0.00000000000E+00  0.45593999997E+02  0.45594000000E+02  0.51100000000E-03 0. -1.
         11   -1    0    0    0    0 -0.00000000000E+00 -0.00000000000E+00 -0.45593999997E+02  0.45594000000E+02  0.51100000000E-03 0.  1.
    9900012    2    1    2    0    0  0.10630970200E+02  0.31128221618E+02 -0.23899425039E+02  0.50528853112E+02  0.29999979520E+02 0.  0.
        -12    1    1    2    0    0 -0.10630970200E+02 -0.31128221618E+02  0.23899425039E+02  0.40659146888E+02  0.00000000000E+00 0.  1.
         11    1    3    3    0    0  0.64443526247E+00  0.23010356048E+01  0.37783282265E+01  0.44705509851E+01  0.51100000000E-03 0. -1.
        -11    1    3    3    0    0  0.14943665811E+02  0.27444430662E+02 -0.25982557910E+02  0.40639921728E+02  0.51100000000E-03 0.  1.
        -12    1    3    3    0    0 -0.49571308737E+01  0.13827553509E+01 -0.16951953555E+01  0.54183803994E+01  0.00000000000E+00 0.  1.
</event>
<event>
 7    1  0.9865694E-013  0.5052886E+02  0.7816164E-02  0.1300439E+00
        -11   -1    0    0    0    0  0.00000000000E+00  0.00000000000E+00  0.45593999997E+02  0.45594000000E+02  0.51100000000E-03 0. -1.
         11   -1    0    0    0    0 -0.00000000000E+00 -0.00000000000E+00 -0.45593999997E+02  0.45594000000E+02  0.51100000000E-03 0.  1.
    9900012    2    1    2    0    0  0.17330895320E+01  0.26177007155E+01  0.40537758268E+02  0.50528858325E+02  0.29999995365E+02 0.  0.
        -12    1    1    2    0    0 -0.17330895320E+01 -0.26177007155E+01 -0.40537758268E+02  0.40659141675E+02  0.00000000000E+00 0.  1.
         11    1    3    3    0    0  0.16207365028E+01  0.97856531575E+01  0.30473088029E+02  0.32046760972E+02  0.51100000000E-03 0. -1.
        -11    1    3    3    0    0  0.44276129914E+01 -0.94394379223E+01  0.81871971698E+01  0.13256581115E+02  0.51100000000E-03 0.  1.
        -12    1    3    3    0    0 -0.43152599622E+01  0.22714854803E+01  0.18774730690E+01  0.52255162380E+01  0.00000000000E+00 0.  1.
</event>
<event>
 7    1  0.9865694E-013  0.5052887E+02  0.7816164E-02  0.1300439E+00
        -11   -1    0    0    0    0  0.00000000000E+00  0.00000000000E+00  0.45593999997E+02  0.45594000000E+02  0.51100000000E-03 0.  1.
         11   -1    0    0    0    0 -0.00000000000E+00 -0.00000000000E+00 -0.45593999997E+02  0.45594000000E+02  0.51100000000E-03 0. -1.
    9900012    2    1    2    0    0 -0.95849056055E+01  0.63853443135E+01 -0.38993871334E+02  0.50528867704E+02  0.30000023872E+02 0.  0.
        -12    1    1    2    0    0  0.95849056055E+01 -0.63853443135E+01  0.38993871334E+02  0.40659132296E+02  0.00000000000E+00 0.  1.
         11    1    3    3    0    0 -0.80073265157E+01 -0.83721075309E+01 -0.18802778170E+02  0.22085151790E+02  0.51100000000E-03 0. -1.
        -11    1    3    3    0    0  0.58280488285E+01  0.86605419905E+01 -0.10289322176E+02  0.14657465396E+02  0.51100000000E-03 0.  1.
        -12    1    3    3    0    0 -0.74056279183E+01  0.60969098539E+01 -0.99017709880E+01  0.13786250517E+02  0.00000000000E+00 0.  1.
</event>
<event>
 7    1  0.9865694E-013  0.5052887E+02  0.7816164E-02  0.1300439E+00
        -11   -1    0    0    0    0  0.00000000000E+00  0.00000000000E+00  0.45593999997E+02  0.45594000000E+02  0.51100000000E-03 0.  1.
         11   -1    0    0    0    0 -0.00000000000E+00 -0.00000000000E+00 -0.45593999997E+02  0.45594000000E+02  0.51100000000E-03 0. -1.
    9900012    2    1    2    0    0 -0.20147839497E+02  0.12026510250E+02  0.33205307013E+02  0.50528870656E+02  0.30000032845E+02 0.  0.
        -12    1    1    2    0    0  0.20147839497E+02 -0.12026510250E+02 -0.33205307013E+02  0.40659129344E+02  0.00000000000E+00 0.  1.
         11    1    3    3    0    0 -0.19317050218E+01  0.11623270877E+02  0.40268133328E+01  0.12451792483E+02  0.51100000000E-03 0. -1.
        -11    1    3    3    0    0 -0.12425311486E+02  0.43306163076E+01  0.28058951599E+02  0.30991085303E+02  0.51100000000E-03 0.  1.
         12    1    3    3    0    0 -0.57908229891E+01 -0.39273769343E+01  0.11195420807E+01  0.70859928695E+01  0.00000000000E+00 0. -1.
</event>
<event>
 7    1  0.9865694E-013  0.5052886E+02  0.7816164E-02  0.1300439E+00
        -11   -1    0    0    0    0  0.00000000000E+00  0.00000000000E+00  0.45593999997E+02  0.45594000000E+02  0.51100000000E-03 0.  1.
         11   -1    0    0    0    0 -0.00000000000E+00 -0.00000000000E+00 -0.45593999997E+02  0.45594000000E+02  0.51100000000E-03 0. -1.
    9900012    2    1    2    0    0 -0.13351271846E+02  0.32068426513E+02 -0.21131136655E+02  0.50528863569E+02  0.30000011305E+02 0.  0.
        -12    1    1    2    0    0  0.13351271846E+02 -0.32068426513E+02  0.21131136655E+02  0.40659136431E+02  0.00000000000E+00 0.  1.
         11    1    3    3    0    0 -0.33755347960E+01  0.49909950150E+01  0.72664752292E+00  0.60689606427E+01  0.51100000000E-03 0. -1.
        -11    1    3    3    0    0 -0.15826343024E+01  0.29463921628E+02 -0.19677250443E+02  0.35465780610E+02  0.51100000000E-03 0.  1.
        -12    1    3    3    0    0 -0.83931027480E+01 -0.23864901294E+01 -0.21805337344E+01  0.89941223164E+01  0.00000000000E+00 0.  1.
</event>
<event>
 7    1  0.9865694E-013  0.5052886E+02  0.7816164E-02  0.1300439E+00
        -11   -1    0    0    0    0  0.00000000000E+00  0.00000000000E+00  0.45593999997E+02  0.45594000000E+02  0.51100000000E-03 0.  1.
         11   -1    0    0    0    0 -0.00000000000E+00 -0.00000000000E+00 -0.45593999997E+02  0.45594000000E+02  0.51100000000E-03 0. -1.
    9900012    2    1    2    0    0  0.24308260138E+02 -0.58663337797E+00 -0.32587265896E+02  0.50528861442E+02  0.30000004840E+02 0.  0.
        -12    1    1    2    0    0 -0.24308260138E+02  0.58663337797E+00  0.32587265896E+02  0.40659138558E+02  0.00000000000E+00 0.  1.
         11    1    3    3    0    0  0.10779835413E+02 -0.10436866059E+02 -0.96404999802E+01  0.17834580590E+02  0.51100000000E-03 0. -1.
        -11    1    3    3    0    0 -0.17461646217E+01  0.70651351401E+01 -0.10596266264E+02  0.12854807833E+02  0.51100000000E-03 0.  1.
         12    1    3    3    0    0  0.15274589347E+02  0.27850975414E+01 -0.12350499653E+02  0.19839473020E+02  0.00000000000E+00 0. -1.
</event>
<event>
 7    1  0.9865694E-013  0.5052886E+02  0.7816164E-02  0.1300439E+00
        -11   -1    0    0    0    0  0.00000000000E+00  0.00000000000E+00  0.45593999997E+02  0.45594000000E+02  0.51100000000E-03 0.  1.
         11   -1    0    0    0    0 -0.00000000000E+00 -0.00000000000E+00 -0.45593999997E+02  0.45594000000E+02  0.51100000000E-03 0. -1.
    9900012    2    1    2    0    0  0.30363932697E+02 -0.17625601098E+02 -0.20506957610E+02  0.50528861626E+02  0.30000005399E+02 0.  0.
        -12    1    1    2    0    0 -0.30363932697E+02  0.17625601098E+02  0.20506957610E+02  0.40659138374E+02  0.00000000000E+00 0.  1.
         11    1    3    3    0    0  0.17059662239E+02 -0.17411376654E+02 -0.29304332047E+01  0.24551487770E+02  0.51100000000E-03 0. -1.
        -11    1    3    3    0    0  0.47521904106E+01 -0.36265303385E+00 -0.16714453407E+02  0.17380672710E+02  0.51100000000E-03 0.  1.
        -12    1    3    3    0    0  0.85520800474E+01  0.14842858983E+00 -0.86207099847E+00  0.85967011458E+01  0.00000000000E+00 0.  1.
</event>
<event>
 7    1  0.9865694E-013  0.5052886E+02  0.7816164E-02  0.1300439E+00
        -11   -1    0    0    0    0  0.00000000000E+00  0.00000000000E+00  0.45593999997E+02  0.45594000000E+02  0.51100000000E-03 0.  1.
         11   -1    0    0    0    0 -0.00000000000E+00 -0.00000000000E+00 -0.45593999997E+02  0.45594000000E+02  0.51100000000E-03 0. -1.
    9900012    2    1    2    0    0  0.34297809683E+02  0.82846091231E+01 -0.20203749831E+02  0.50528855830E+02  0.29999987782E+02 0.  0.
        -12    1    1    2    0    0 -0.34297809683E+02 -0.82846091231E+01  0.20203749831E+02  0.40659144170E+02  0.00000000000E+00 0.  1.
         11    1    3    3    0    0  0.26739195248E+02  0.16498396030E+02 -0.16497669217E+02  0.35487388238E+02  0.51100000000E-03 0. -1.
        -11    1    3    3    0    0 -0.42211746012E+00  0.71360590728E+00  0.17089363956E+01  0.18994421303E+01  0.51100000000E-03 0.  1.
         12    1    3    3    0    0  0.79807318951E+01 -0.89273928143E+01 -0.54150170089E+01  0.13142025462E+02  0.00000000000E+00 0. -1.
</event>
<event>
 7    1  0.9865694E-013  0.5052886E+02  0.7816164E-02  0.1300439E+00
        -11   -1    0    0    0    0  0.00000000000E+00  0.00000000000E+00  0.45593999997E+02  0.45594000000E+02  0.51100000000E-03 0.  1.
         11   -1    0    0    0    0 -0.00000000000E+00 -0.00000000000E+00 -0.45593999997E+02  0.45594000000E+02  0.51100000000E-03 0. -1.
    9900012    2    1    2    0    0  0.24743867294E+01 -0.30230605523E+01 -0.40471027501E+02  0.50528861399E+02  0.30000004710E+02 0.  0.
        -12    1    1    2    0    0 -0.24743867294E+01  0.30230605523E+01  0.40471027501E+02  0.40659138601E+02  0.00000000000E+00 0.  1.
         11    1    3    3    0    0  0.53605096488E+01 -0.68980306181E+01 -0.21011616754E+02  0.22755349458E+02  0.51100000000E-03 0. -1.
        -11    1    3    3    0    0  0.59957470066E+01  0.17028503106E+01  0.44095918269E-01  0.62330270382E+01  0.51100000000E-03 0.  1.
        -12    1    3    3    0    0 -0.88818699260E+01  0.21721197553E+01 -0.19503506665E+02  0.21540484903E+02  0.00000000000E+00 0.  1.
</event>
<event>
 7    1  0.9865694E-013  0.5052887E+02  0.7816164E-02  0.1300439E+00
        -11   -1    0    0    0    0  0.00000000000E+00  0.00000000000E+00  0.45593999997E+02  0.45594000000E+02  0.51100000000E-03 0.  1.
         11   -1    0    0    0    0 -0.00000000000E+00 -0.00000000000E+00 -0.45593999997E+02  0.45594000000E+02  0.51100000000E-03 0. -1.
    9900012    2    1    2    0    0  0.30950046299E+02  0.16731731785E+02 -0.20379124425E+02  0.50528869086E+02  0.30000028073E+02 0.  0.
        -12    1    1    2    0    0 -0.30950046299E+02 -0.16731731785E+02  0.20379124425E+02  0.40659130914E+02  0.00000000000E+00 0.  1.
         11    1    3    3    0    0  0.62655721784E+01 -0.24661383203E+00 -0.12032418556E+02  0.13568246374E+02  0.51100000000E-03 0. -1.
        -11    1    3    3    0    0  0.19354700434E+02  0.16722855662E+02  0.16472034456E+01  0.25631457427E+02  0.51100000000E-03 0.  1.
        -12    1    3    3    0    0  0.53297736859E+01  0.25548995512E+00 -0.99939093139E+01  0.11329165284E+02  0.00000000000E+00 0.  1.
</event>
<event>
 7    1  0.9865694E-013  0.5052885E+02  0.7816164E-02  0.1300439E+00
        -11   -1    0    0    0    0  0.00000000000E+00  0.00000000000E+00  0.45593999997E+02  0.45594000000E+02  0.51100000000E-03 0.  1.
         11   -1    0    0    0    0 -0.00000000000E+00 -0.00000000000E+00 -0.45593999997E+02  0.45594000000E+02  0.51100000000E-03 0. -1.
    9900012    2    1    2    0    0  0.13727510749E+02  0.14296316986E+02 -0.35501225309E+02  0.50528853069E+02  0.29999979389E+02 0.  0.
        -12    1    1    2    0    0 -0.13727510749E+02 -0.14296316986E+02  0.35501225309E+02  0.40659146931E+02  0.00000000000E+00 0.  1.
         11    1    3    3    0    0  0.84568271665E+01  0.12805757727E+02 -0.30253926478E+02  0.33923523170E+02  0.51100000000E-03 0. -1.
        -11    1    3    3    0    0  0.41891038800E+01 -0.61509632366E+01 -0.48389564582E+01  0.88768485354E+01  0.51100000000E-03 0.  1.
         12    1    3    3    0    0  0.10815797025E+01  0.76415224952E+01 -0.40834237266E+00  0.77284813639E+01  0.00000000000E+00 0. -1.
</event>
<event>
 7    1  0.9865694E-013  0.5052880E+02  0.7816164E-02  0.1300439E+00
        -11   -1    0    0    0    0  0.00000000000E+00  0.00000000000E+00  0.45593999997E+02  0.45594000000E+02  0.51100000000E-03 0. -1.
         11   -1    0    0    0    0 -0.00000000000E+00 -0.00000000000E+00 -0.45593999997E+02  0.45594000000E+02  0.51100000000E-03 0.  1.
    9900012    2    1    2    0    0  0.24335099931E+02  0.24720462800E+02  0.21210186004E+02  0.50528802270E+02  0.29999824981E+02 0.  0.
        -12    1    1    2    0    0 -0.24335099931E+02 -0.24720462800E+02 -0.21210186004E+02  0.40659197730E+02  0.00000000000E+00 0.  1.
         11    1    3    3    0    0  0.25765662304E+02  0.73890375515E+01  0.11862312304E+02  0.29311801094E+02  0.51100000000E-03 0. -1.
        -11    1    3    3    0    0 -0.22940001758E+01  0.18998888958E+01  0.37268989686E+01  0.47709318593E+01  0.51100000000E-03 0.  1.
         12    1    3    3    0    0  0.86343780222E+00  0.15431536353E+02  0.56209747318E+01  0.16446069317E+02  0.00000000000E+00 0. -1.
</event>
<event>
 7    1  0.9865694E-013  0.5052886E+02  0.7816164E-02  0.1300439E+00
        -11   -1    0    0    0    0  0.00000000000E+00  0.00000000000E+00  0.45593999997E+02  0.45594000000E+02  0.51100000000E-03 0.  1.
         11   -1    0    0    0    0 -0.00000000000E+00 -0.00000000000E+00 -0.45593999997E+02  0.45594000000E+02  0.51100000000E-03 0. -1.
    9900012    2    1    2    0    0 -0.30017668233E+02  0.26099980833E+02 -0.84199914409E+01  0.50528860050E+02  0.30000000609E+02 0.  0.
        -12    1    1    2    0    0  0.30017668233E+02 -0.26099980833E+02  0.84199914409E+01  0.40659139950E+02  0.00000000000E+00 0.  1.
         11    1    3    3    0    0 -0.25425118399E+02  0.85805118301E+01  0.56859470194E+01  0.27429761622E+02  0.51100000000E-03 0. -1.
        -11    1    3    3    0    0 -0.38942364454E+01  0.10037603651E+02 -0.86983791868E+01  0.13841255914E+02  0.51100000000E-03 0.  1.
        -12    1    3    3    0    0 -0.69831338862E+00  0.74818653514E+01 -0.54075592735E+01  0.92578425144E+01  0.00000000000E+00 0.  1.
</event>
<event>
 7    1  0.9865694E-013  0.5052886E+02  0.7816164E-02  0.1300439E+00
        -11   -1    0    0    0    0  0.00000000000E+00  0.00000000000E+00  0.45593999997E+02  0.45594000000E+02  0.51100000000E-03 0. -1.
         11   -1    0    0    0    0 -0.00000000000E+00 -0.00000000000E+00 -0.45593999997E+02  0.45594000000E+02  0.51100000000E-03 0.  1.
    9900012    2    1    2    0    0  0.25247796624E+02 -0.30358311462E+02  0.96998739828E+01  0.50528857554E+02  0.29999993022E+02 0.  0.
        -12    1    1    2    0    0 -0.25247796624E+02  0.30358311462E+02 -0.96998739828E+01  0.40659142446E+02  0.00000000000E+00 0.  1.
         11    1    3    3    0    0  0.27547678381E+02 -0.18296395072E+02 -0.11438715679E+01  0.33089894217E+02  0.51100000000E-03 0. -1.
        -11    1    3    3    0    0 -0.25450384981E+01 -0.12435821929E+01  0.20826107643E+01  0.35158193190E+01  0.51100000000E-03 0.  1.
         12    1    3    3    0    0  0.24515674037E+00 -0.10818334197E+02  0.87611347864E+01  0.13923144019E+02  0.00000000000E+00 0. -1.
</event>
<event>
 7    1  0.9865694E-013  0.5052886E+02  0.7816164E-02  0.1300439E+00
        -11   -1    0    0    0    0  0.00000000000E+00  0.00000000000E+00  0.45593999997E+02  0.45594000000E+02  0.51100000000E-03 0.  1.
         11   -1    0    0    0    0 -0.00000000000E+00 -0.00000000000E+00 -0.45593999997E+02  0.45594000000E+02  0.51100000000E-03 0. -1.
    9900012    2    1    2    0    0 -0.31942595319E+02  0.24618930845E+02 -0.51714815789E+01  0.50528863592E+02  0.30000011376E+02 0.  0.
        -12    1    1    2    0    0  0.31942595319E+02 -0.24618930845E+02  0.51714815789E+01  0.40659136408E+02  0.00000000000E+00 0.  1.
         11    1    3    3    0    0  0.18994692628E+01  0.10736720735E+02  0.30906543269E+01  0.11333018135E+02  0.51100000000E-03 0.  1.
        -11    1    3    3    0    0 -0.18512023116E+02  0.91351009102E+01 -0.10209416491E+02  0.23029920838E+02  0.51100000000E-03 0. -1.
         12    1    3    3    0    0 -0.15330041467E+02  0.47471092000E+01  0.19472805848E+01  0.16165924619E+02  0.00000000000E+00 0. -1.
</event>
<event>
 7    1  0.9865694E-013  0.5052886E+02  0.7816164E-02  0.1300439E+00
        -11   -1    0    0    0    0  0.00000000000E+00  0.00000000000E+00  0.45593999997E+02  0.45594000000E+02  0.51100000000E-03 0.  1.
         11   -1    0    0    0    0 -0.00000000000E+00 -0.00000000000E+00 -0.45593999997E+02  0.45594000000E+02  0.51100000000E-03 0. -1.
    9900012    2    1    2    0    0  0.21617218252E+02  0.32777137252E+02 -0.10560334961E+02  0.50528861717E+02  0.30000005676E+02 0.  0.
        -12    1    1    2    0    0 -0.21617218252E+02 -0.32777137252E+02  0.10560334961E+02  0.40659138283E+02  0.00000000000E+00 0.  1.
         11    1    3    3    0    0  0.67214656355E+01  0.11455316066E+02 -0.76835814457E+00  0.13303861882E+02  0.51100000000E-03 0. -1.
        -11    1    3    3    0    0 -0.60695877045E+01  0.96247834605E+01 -0.22392280680E+00  0.11380970664E+02  0.51100000000E-03 0.  1.
        -12    1    3    3    0    0  0.20965340321E+02  0.11697037725E+02 -0.95680540097E+01  0.25844029172E+02  0.00000000000E+00 0.  1.
</event>
<event>
 7    1  0.9865694E-013  0.5052886E+02  0.7816164E-02  0.1300439E+00
        -11   -1    0    0    0    0  0.00000000000E+00  0.00000000000E+00  0.45593999997E+02  0.45594000000E+02  0.51100000000E-03 0. -1.
         11   -1    0    0    0    0 -0.00000000000E+00 -0.00000000000E+00 -0.45593999997E+02  0.45594000000E+02  0.51100000000E-03 0.  1.
    9900012    2    1    2    0    0  0.33736556022E+02 -0.19664535598E+02  0.11327690551E+02  0.50528859014E+02  0.29999997459E+02 0.  0.
        -12    1    1    2    0    0 -0.33736556022E+02  0.19664535598E+02 -0.11327690551E+02  0.40659140986E+02  0.00000000000E+00 0.  1.
         11    1    3    3    0    0  0.17598968962E+02 -0.37062157159E+01 -0.42605271934E+01  0.18482744268E+02  0.51100000000E-03 0. -1.
        -11    1    3    3    0    0 -0.16260536985E+01 -0.77017035757E+01  0.74370786633E+01  0.10829147146E+02  0.51100000000E-03 0.  1.
        -12    1    3    3    0    0  0.17763640758E+02 -0.82566163063E+01  0.81511390809E+01  0.21216967600E+02  0.00000000000E+00 0.  1.
</event>
<event>
 7    1  0.9865694E-013  0.5052884E+02  0.7816164E-02  0.1300439E+00
        -11   -1    0    0    0    0  0.00000000000E+00  0.00000000000E+00  0.45593999997E+02  0.45594000000E+02  0.51100000000E-03 0.  1.
         11   -1    0    0    0    0 -0.00000000000E+00 -0.00000000000E+00 -0.45593999997E+02  0.45594000000E+02  0.51100000000E-03 0. -1.
    9900012    2    1    2    0    0 -0.10032340892E+02 -0.20256990080E+02 -0.33796062053E+02  0.50528839640E+02  0.29999938570E+02 0.  0.
        -12    1    1    2    0    0  0.10032340892E+02  0.20256990080E+02  0.33796062053E+02  0.40659160360E+02  0.00000000000E+00 0.  1.
         11    1    3    3    0    0 -0.85488094199E+01 -0.12404812343E+02 -0.35463930362E+02  0.38531180474E+02  0.51100000000E-03 0. -1.
        -11    1    3    3    0    0 -0.29628609195E+01 -0.88785526891E+01  0.29197478546E+01  0.98047014476E+01  0.51100000000E-03 0.  1.
        -12    1    3    3    0    0  0.14793294476E+01  0.10263749521E+01 -0.12518795457E+01  0.21929577182E+01  0.00000000000E+00 0.  1.
</event>
<event>
 7    1  0.9865694E-013  0.5052887E+02  0.7816164E-02  0.1300439E+00
        -11   -1    0    0    0    0  0.00000000000E+00  0.00000000000E+00  0.45593999997E+02  0.45594000000E+02  0.51100000000E-03 0.  1.
         11   -1    0    0    0    0 -0.00000000000E+00 -0.00000000000E+00 -0.45593999997E+02  0.45594000000E+02  0.51100000000E-03 0. -1.
    9900012    2    1    2    0    0 -0.27957407774E+01 -0.18265907727E+02 -0.36217468840E+02  0.50528873095E+02  0.30000040258E+02 0.  0.
        -12    1    1    2    0    0  0.27957407774E+01  0.18265907727E+02  0.36217468840E+02  0.40659126905E+02  0.00000000000E+00 0.  1.
         11    1    3    3    0    0 -0.45936569884E+01 -0.13862078353E+02 -0.12886125939E+02  0.19475911860E+02  0.51100000000E-03 0. -1.
        -11    1    3    3    0    0 -0.40640929260E+01  0.46958822737E+01 -0.10732351475E+01  0.63023801522E+01  0.51100000000E-03 0.  1.
        -12    1    3    3    0    0  0.58620091370E+01 -0.90997116476E+01 -0.22258107753E+02  0.24750581083E+02  0.00000000000E+00 0.  1.
</event>
<event>
 7    1  0.9865694E-013  0.5052888E+02  0.7816164E-02  0.1300439E+00
        -11   -1    0    0    0    0  0.00000000000E+00  0.00000000000E+00  0.45593999997E+02  0.45594000000E+02  0.51100000000E-03 0. -1.
         11   -1    0    0    0    0 -0.00000000000E+00 -0.00000000000E+00 -0.45593999997E+02  0.45594000000E+02  0.51100000000E-03 0.  1.
    9900012    2    1    2    0    0  0.53890270150E+01  0.54077731969E+01  0.39935932886E+02  0.50528876072E+02  0.30000049308E+02 0.  0.
        -12    1    1    2    0    0 -0.53890270150E+01 -0.54077731969E+01 -0.39935932886E+02  0.40659123928E+02  0.00000000000E+00 0.  1.
         11    1    3    3    0    0 -0.68606895720E+01  0.12012834650E+02  0.28442090928E+02  0.31627990678E+02  0.51100000000E-03 0. -1.
        -11    1    3    3    0    0  0.69320601455E+01 -0.32508686890E+01  0.27584717320E+01  0.81382290243E+01  0.51100000000E-03 0.  1.
         12    1    3    3    0    0  0.53176564414E+01 -0.33541927646E+01  0.87353702264E+01  0.10762656369E+02  0.00000000000E+00 0. -1.
</event>
<event>
 7    1  0.9865694E-013  0.5052885E+02  0.7816164E-02  0.1300439E+00
        -11   -1    0    0    0    0  0.00000000000E+00  0.00000000000E+00  0.45593999997E+02  0.45594000000E+02  0.51100000000E-03 0.  1.
         11   -1    0    0    0    0 -0.00000000000E+00 -0.00000000000E+00 -0.45593999997E+02  0.45594000000E+02  0.51100000000E-03 0. -1.
    9900012    2    1    2    0    0 -0.25663985474E+02  0.13998085178E+02 -0.28259154950E+02  0.50528851244E+02  0.29999973841E+02 0.  0.
        -12    1    1    2    0    0  0.25663985474E+02 -0.13998085178E+02  0.28259154950E+02  0.40659148756E+02  0.00000000000E+00 0.  1.
         11    1    3    3    0    0 -0.27882668642E+02  0.37134914418E+01 -0.15971961401E+02  0.32347129402E+02  0.51100000000E-03 0. -1.
        -11    1    3    3    0    0  0.23708680368E+01  0.42448269565E+01 -0.43874594705E+00  0.48818100542E+01  0.51100000000E-03 0.  1.
         12    1    3    3    0    0 -0.15218486885E+00  0.60397667800E+01 -0.11848447602E+02  0.13299911788E+02  0.00000000000E+00 0. -1.
</event>
<event>
 7    1  0.9865694E-013  0.5052886E+02  0.7816164E-02  0.1300439E+00
        -11   -1    0    0    0    0  0.00000000000E+00  0.00000000000E+00  0.45593999997E+02  0.45594000000E+02  0.51100000000E-03 0.  1.
         11   -1    0    0    0    0 -0.00000000000E+00 -0.00000000000E+00 -0.45593999997E+02  0.45594000000E+02  0.51100000000E-03 0. -1.
    9900012    2    1    2    0    0 -0.19637796759E+02  0.28581346528E+02 -0.21228029351E+02  0.50528860056E+02  0.30000000626E+02 0.  0.
        -12    1    1    2    0    0  0.19637796759E+02 -0.28581346528E+02  0.21228029351E+02  0.40659139944E+02  0.00000000000E+00 0.  1.
         11    1    3    3    0    0 -0.26184982266E+02  0.16841151969E+02 -0.19959262034E+02  0.36981750054E+02  0.51100000000E-03 0. -1.
        -11    1    3    3    0    0  0.43451560925E+01  0.67451934585E+01 -0.57156078926E+00  0.80439230639E+01  0.51100000000E-03 0.  1.
         12    1    3    3    0    0  0.22020294137E+01  0.49950010998E+01 -0.69720652765E+00  0.55031869374E+01  0.00000000000E+00 0. -1.
</event>
<event>
 7    1  0.9865694E-013  0.5052886E+02  0.7816164E-02  0.1300439E+00
        -11   -1    0    0    0    0  0.00000000000E+00  0.00000000000E+00  0.45593999997E+02  0.45594000000E+02  0.51100000000E-03 0.  1.
         11   -1    0    0    0    0 -0.00000000000E+00 -0.00000000000E+00 -0.45593999997E+02  0.45594000000E+02  0.51100000000E-03 0. -1.
    9900012    2    1    2    0    0 -0.32673245038E+02  0.24185161781E+02 -0.83832573336E+00  0.50528858572E+02  0.29999996114E+02 0.  0.
        -12    1    1    2    0    0  0.32673245038E+02 -0.24185161781E+02  0.83832573336E+00  0.40659141428E+02  0.00000000000E+00 0.  1.
         11    1    3    3    0    0  0.15501426151E+01  0.10252666740E+02  0.53633356748E+01  0.11674137537E+02  0.51100000000E-03 0.  1.
        -11    1    3    3    0    0 -0.21757485533E+02  0.14031457800E+02 -0.40735523333E+01  0.26208086798E+02  0.51100000000E-03 0. -1.
        -12    1    3    3    0    0 -0.12465902120E+02 -0.98962759564E-01 -0.21281090749E+01  0.12646634237E+02  0.00000000000E+00 0.  1.
</event>
<event>
 7    1  0.9865694E-013  0.5052886E+02  0.7816164E-02  0.1300439E+00
        -11   -1    0    0    0    0  0.00000000000E+00  0.00000000000E+00  0.45593999997E+02  0.45594000000E+02  0.51100000000E-03 0. -1.
         11   -1    0    0    0    0 -0.00000000000E+00 -0.00000000000E+00 -0.45593999997E+02  0.45594000000E+02  0.51100000000E-03 0.  1.
    9900012    2    1    2    0    0  0.32319329196E+01  0.31454674495E+02 -0.25560200962E+02  0.50528858209E+02  0.29999995013E+02 0.  0.
        -12    1    1    2    0    0 -0.32319329196E+01 -0.31454674495E+02  0.25560200962E+02  0.40659141791E+02  0.00000000000E+00 0.  1.
         11    1    3    3    0    0  0.55484091661E+01  0.84483015559E+00  0.42541322954E+00  0.56284597310E+01  0.51100000000E-03 0. -1.
        -11    1    3    3    0    0 -0.84604612556E+00  0.26845604659E+02 -0.10404532296E+02  0.28803759756E+02  0.51100000000E-03 0.  1.
        -12    1    3    3    0    0 -0.14704301210E+01  0.37642396805E+01 -0.15581081896E+02  0.16096638722E+02  0.00000000000E+00 0.  1.
</event>
<event>
 7    1  0.9865694E-013  0.5052886E+02  0.7816164E-02  0.1300439E+00
        -11   -1    0    0    0    0  0.00000000000E+00  0.00000000000E+00  0.45593999997E+02  0.45594000000E+02  0.51100000000E-03 0.  1.
         11   -1    0    0    0    0 -0.00000000000E+00 -0.00000000000E+00 -0.45593999997E+02  0.45594000000E+02  0.51100000000E-03 0. -1.
    9900012    2    1    2    0    0 -0.28004911066E+02  0.89250711640E+01 -0.28093301474E+02  0.50528861706E+02  0.30000005641E+02 0.  0.
        -12    1    1    2    0    0  0.28004911066E+02 -0.89250711640E+01  0.28093301474E+02  0.40659138294E+02  0.00000000000E+00 0.  1.
         11    1    3    3    0    0 -0.32761231930E+01  0.77824974256E+01 -0.55909547507E+01  0.10127142965E+02  0.51100000000E-03 0. -1.
        -11    1    3    3    0    0 -0.28443116394E+02  0.34122508759E+01 -0.16738220213E+02  0.33178642865E+02  0.51100000000E-03 0.  1.
        -12    1    3    3    0    0  0.37143285209E+01 -0.22696771375E+01 -0.57641265105E+01  0.72230758752E+01  0.00000000000E+00 0.  1.
</event>
<event>
 7    1  0.9865694E-013  0.5052886E+02  0.7816164E-02  0.1300439E+00
        -11   -1    0    0    0    0  0.00000000000E+00  0.00000000000E+00  0.45593999997E+02  0.45594000000E+02  0.51100000000E-03 0.  1.
         11   -1    0    0    0    0 -0.00000000000E+00 -0.00000000000E+00 -0.45593999997E+02  0.45594000000E+02  0.51100000000E-03 0. -1.
    9900012    2    1    2    0    0 -0.21721056321E+02 -0.33504425699E+02 -0.76690759243E+01  0.50528861363E+02  0.30000004600E+02 0.  0.
        -12    1    1    2    0    0  0.21721056321E+02  0.33504425699E+02  0.76690759243E+01  0.40659138637E+02  0.00000000000E+00 0.  1.
         11    1    3    3    0    0 -0.11470639233E+02 -0.27987219744E+02 -0.28289214638E+01  0.30378657481E+02  0.51100000000E-03 0. -1.
        -11    1    3    3    0    0 -0.22100484122E+01  0.47054541113E+01  0.18583327985E+01  0.55207801468E+01  0.51100000000E-03 0.  1.
        -12    1    3    3    0    0 -0.80403686763E+01 -0.10222660066E+02 -0.66984872590E+01  0.14629423736E+02  0.00000000000E+00 0.  1.
</event>
<event>
 7    1  0.9865694E-013  0.5052886E+02  0.7816164E-02  0.1300439E+00
        -11   -1    0    0    0    0  0.00000000000E+00  0.00000000000E+00  0.45593999997E+02  0.45594000000E+02  0.51100000000E-03 0. -1.
         11   -1    0    0    0    0 -0.00000000000E+00 -0.00000000000E+00 -0.45593999997E+02  0.45594000000E+02  0.51100000000E-03 0.  1.
    9900012    2    1    2    0    0 -0.16993550646E+02  0.14265109707E+02 -0.34071856453E+02  0.50528861781E+02  0.30000005870E+02 0.  0.
        -12    1    1    2    0    0  0.16993550646E+02 -0.14265109707E+02  0.34071856453E+02  0.40659138219E+02  0.00000000000E+00 0.  1.
         11    1    3    3    0    0 -0.18163979011E+02  0.17806475284E+02 -0.20738508844E+02  0.32818995184E+02  0.51100000000E-03 0. -1.
        -11    1    3    3    0    0  0.46827032024E+01 -0.40653834122E+01 -0.32121531918E+01  0.69837654570E+01  0.51100000000E-03 0.  1.
        -12    1    3    3    0    0 -0.35122748375E+01  0.52401783553E+00 -0.10121194418E+02  0.10726101140E+02  0.00000000000E+00 0.  1.
</event>
<event>
 7    1  0.9865694E-013  0.5052886E+02  0.7816164E-02  0.1300439E+00
        -11   -1    0    0    0    0  0.00000000000E+00  0.00000000000E+00  0.45593999997E+02  0.45594000000E+02  0.51100000000E-03 0.  1.
         11   -1    0    0    0    0 -0.00000000000E+00 -0.00000000000E+00 -0.45593999997E+02  0.45594000000E+02  0.51100000000E-03 0. -1.
    9900012    2    1    2    0    0 -0.36329257434E+02  0.88652960702E+01 -0.15961125183E+02  0.50528856659E+02  0.29999990302E+02 0.  0.
        -12    1    1    2    0    0  0.36329257434E+02 -0.88652960702E+01  0.15961125183E+02  0.40659143341E+02  0.00000000000E+00 0.  1.
         11    1    3    3    0    0 -0.31881866305E+02 -0.18014012038E+01 -0.59228210459E+01  0.32477349873E+02  0.51100000000E-03 0. -1.
        -11    1    3    3    0    0 -0.39297158086E+01  0.53171821899E+01 -0.10759717673E+02  0.12628801109E+02  0.51100000000E-03 0.  1.
         12    1    3    3    0    0 -0.51767532016E+00  0.53495150840E+01  0.72141353625E+00  0.54227056772E+01  0.00000000000E+00 0. -1.
</event>
<event>
 7    1  0.9865694E-013  0.5052886E+02  0.7816164E-02  0.1300439E+00
        -11   -1    0    0    0    0  0.00000000000E+00  0.00000000000E+00  0.45593999997E+02  0.45594000000E+02  0.51100000000E-03 0.  1.
         11   -1    0    0    0    0 -0.00000000000E+00 -0.00000000000E+00 -0.45593999997E+02  0.45594000000E+02  0.51100000000E-03 0. -1.
    9900012    2    1    2    0    0  0.26911730927E+02  0.73247775760E+01 -0.29585002390E+02  0.50528855955E+02  0.29999988162E+02 0.  0.
        -12    1    1    2    0    0 -0.26911730927E+02 -0.73247775760E+01  0.29585002390E+02  0.40659144045E+02  0.00000000000E+00 0.  1.
         11    1    3    3    0    0  0.17940654912E+02 -0.64571631897E+00 -0.12690437839E+02  0.21984796134E+02  0.51100000000E-03 0. -1.
        -11    1    3    3    0    0 -0.33287152137E+01  0.98574778144E+01 -0.60337636728E+01  0.12027323815E+02  0.51100000000E-03 0.  1.
        -12    1    3    3    0    0  0.12299791228E+02 -0.18869839194E+01 -0.10860800878E+02  0.16516736006E+02  0.00000000000E+00 0.  1.
</event>
<event>
 7    1  0.9865694E-013  0.5052886E+02  0.7816164E-02  0.1300439E+00
        -11   -1    0    0    0    0  0.00000000000E+00  0.00000000000E+00  0.45593999997E+02  0.45594000000E+02  0.51100000000E-03 0.  1.
         11   -1    0    0    0    0 -0.00000000000E+00 -0.00000000000E+00 -0.45593999997E+02  0.45594000000E+02  0.51100000000E-03 0. -1.
    9900012    2    1    2    0    0 -0.14202736646E+01  0.16068786733E+02 -0.37322147669E+02  0.50528858458E+02  0.29999995769E+02 0.  0.
        -12    1    1    2    0    0  0.14202736646E+01 -0.16068786733E+02  0.37322147669E+02  0.40659141542E+02  0.00000000000E+00 0.  1.
         11    1    3    3    0    0 -0.81359633317E+01  0.94197357615E+01 -0.16872370639E+02  0.20966692930E+02  0.51100000000E-03 0. -1.
        -11    1    3    3    0    0  0.10075851567E+01 -0.66880150492E+01 -0.53598745402E+01  0.86297756920E+01  0.51100000000E-03 0.  1.
        -12    1    3    3    0    0  0.57081045105E+01  0.13337066020E+02 -0.15089902489E+02  0.20932389836E+02  0.00000000000E+00 0.  1.
</event>
<event>
 7    1  0.9865694E-013  0.5052886E+02  0.7816164E-02  0.1300439E+00
        -11   -1    0    0    0    0  0.00000000000E+00  0.00000000000E+00  0.45593999997E+02  0.45594000000E+02  0.51100000000E-03 0.  1.
         11   -1    0    0    0    0 -0.00000000000E+00 -0.00000000000E+00 -0.45593999997E+02  0.45594000000E+02  0.51100000000E-03 0. -1.
    9900012    2    1    2    0    0 -0.18797207983E+02 -0.25411620729E+02 -0.25574994011E+02  0.50528858166E+02  0.29999994881E+02 0.  0.
        -12    1    1    2    0    0  0.18797207983E+02  0.25411620729E+02  0.25574994011E+02  0.40659141834E+02  0.00000000000E+00 0.  1.
         11    1    3    3    0    0 -0.14391702572E+02 -0.21820309571E+02 -0.77821606400E+01  0.27272862651E+02  0.51100000000E-03 0. -1.
        -11    1    3    3    0    0  0.83107604054E+00 -0.13632798741E+01 -0.17484010344E+02  0.17556760446E+02  0.51100000000E-03 0.  1.
        -12    1    3    3    0    0 -0.52365814517E+01 -0.22280312833E+01 -0.30882302732E+00  0.56992350681E+01  0.00000000000E+00 0.  1.
</event>
<event>
 7    1  0.9865694E-013  0.5052887E+02  0.7816164E-02  0.1300439E+00
        -11   -1    0    0    0    0  0.00000000000E+00  0.00000000000E+00  0.45593999997E+02  0.45594000000E+02  0.51100000000E-03 0. -1.
         11   -1    0    0    0    0 -0.00000000000E+00 -0.00000000000E+00 -0.45593999997E+02  0.45594000000E+02  0.51100000000E-03 0.  1.
    9900012    2    1    2    0    0 -0.16615599040E+02 -0.36288306565E+01  0.36931269946E+02  0.50528865194E+02  0.30000016242E+02 0.  0.
        -12    1    1    2    0    0  0.16615599040E+02  0.36288306565E+01 -0.36931269946E+02  0.40659134806E+02  0.00000000000E+00 0.  1.
         11    1    3    3    0    0 -0.16263148388E+02 -0.12022765049E+02  0.27614751205E+02  0.34228808908E+02  0.51100000000E-03 0. -1.
        -11    1    3    3    0    0 -0.86723038178E+00  0.89503159473E+01  0.11145221752E+02  0.14320482264E+02  0.51100000000E-03 0.  1.
        -12    1    3    3    0    0  0.51477972965E+00 -0.55638155506E+00 -0.18287030112E+01  0.19795740219E+01  0.00000000000E+00 0.  1.
</event>
<event>
 7    1  0.9865694E-013  0.5052885E+02  0.7816164E-02  0.1300439E+00
        -11   -1    0    0    0    0  0.00000000000E+00  0.00000000000E+00  0.45593999997E+02  0.45594000000E+02  0.51100000000E-03 0. -1.
         11   -1    0    0    0    0 -0.00000000000E+00 -0.00000000000E+00 -0.45593999997E+02  0.45594000000E+02  0.51100000000E-03 0.  1.
    9900012    2    1    2    0    0  0.38823575487E+02 -0.76509260598E+01 -0.93466589979E+01  0.50528847063E+02  0.29999961132E+02 0.  0.
        -12    1    1    2    0    0 -0.38823575487E+02  0.76509260598E+01  0.93466589979E+01  0.40659152937E+02  0.00000000000E+00 0.  1.
         11    1    3    3    0    0  0.41304798320E+01  0.81267667336E+01 -0.56559268959E+00  0.91337339865E+01  0.51100000000E-03 0. -1.
        -11    1    3    3    0    0  0.83677807183E+01 -0.99579160812E+01  0.10563216068E+00  0.13007344281E+02  0.51100000000E-03 0.  1.
         12    1    3    3    0    0  0.26325314937E+02 -0.58197767122E+01 -0.88866984690E+01  0.28387768795E+02  0.00000000000E+00 0. -1.
</event>
<event>
 7    1  0.9865694E-013  0.5052887E+02  0.7816164E-02  0.1300439E+00
        -11   -1    0    0    0    0  0.00000000000E+00  0.00000000000E+00  0.45593999997E+02  0.45594000000E+02  0.51100000000E-03 0.  1.
         11   -1    0    0    0    0 -0.00000000000E+00 -0.00000000000E+00 -0.45593999997E+02  0.45594000000E+02  0.51100000000E-03 0. -1.
    9900012    2    1    2    0    0 -0.16090453570E+02 -0.32580813620E+01 -0.37197406748E+02  0.50528869918E+02  0.30000030604E+02 0.  0.
        -12    1    1    2    0    0  0.16090453570E+02  0.32580813620E+01  0.37197406748E+02  0.40659130082E+02  0.00000000000E+00 0.  1.
         11    1    3    3    0    0 -0.14438489527E+01  0.82918625685E+01 -0.61067246181E+01  0.10398642723E+02  0.51100000000E-03 0. -1.
        -11    1    3    3    0    0 -0.34699243917E+00 -0.11032155207E+02 -0.14455955562E+02  0.18188004391E+02  0.51100000000E-03 0.  1.
        -12    1    3    3    0    0 -0.14299612178E+02 -0.51778872326E+00 -0.16634726567E+02  0.21942222804E+02  0.00000000000E+00 0.  1.
</event>
<event>
 7    1  0.9865694E-013  0.5052886E+02  0.7816164E-02  0.1300439E+00
        -11   -1    0    0    0    0  0.00000000000E+00  0.00000000000E+00  0.45593999997E+02  0.45594000000E+02  0.51100000000E-03 0. -1.
         11   -1    0    0    0    0 -0.00000000000E+00 -0.00000000000E+00 -0.45593999997E+02  0.45594000000E+02  0.51100000000E-03 0.  1.
    9900012    2    1    2    0    0  0.14726123711E+02  0.23379652276E+02  0.29827814653E+02  0.50528863425E+02  0.30000010865E+02 0.  0.
        -12    1    1    2    0    0 -0.14726123711E+02 -0.23379652276E+02 -0.29827814653E+02  0.40659136575E+02  0.00000000000E+00 0.  1.
         11    1    3    3    0    0  0.12305036738E+02  0.11503432296E+02  0.16754248327E+02  0.23758108531E+02  0.51100000000E-03 0. -1.
        -11    1    3    3    0    0 -0.71674557737E+01  0.11741008288E+02  0.81898694523E+01  0.16009299166E+02  0.51100000000E-03 0.  1.
        -12    1    3    3    0    0  0.95885427468E+01  0.13521169114E+00  0.48836968738E+01  0.10761455727E+02  0.00000000000E+00 0.  1.
</event>
<event>
 7    1  0.9865694E-013  0.5052888E+02  0.7816164E-02  0.1300439E+00
        -11   -1    0    0    0    0  0.00000000000E+00  0.00000000000E+00  0.45593999997E+02  0.45594000000E+02  0.51100000000E-03 0. -1.
         11   -1    0    0    0    0 -0.00000000000E+00 -0.00000000000E+00 -0.45593999997E+02  0.45594000000E+02  0.51100000000E-03 0.  1.
    9900012    2    1    2    0    0  0.27502543612E+00  0.30600366148E+02  0.26771361285E+02  0.50528882542E+02  0.30000068975E+02 0.  0.
        -12    1    1    2    0    0 -0.27502543612E+00 -0.30600366148E+02 -0.26771361285E+02  0.40659117458E+02  0.00000000000E+00 0.  1.
         11    1    3    3    0    0 -0.54033827832E+01  0.30148992522E+02  0.16528104517E+02  0.34804260296E+02  0.51100000000E-03 0. -1.
        -11    1    3    3    0    0  0.22502824343E+01  0.21975013331E+01 -0.14143126456E+01  0.34486321439E+01  0.51100000000E-03 0.  1.
         12    1    3    3    0    0  0.34281257850E+01 -0.17461277063E+01  0.11657569413E+02  0.12275990102E+02  0.00000000000E+00 0. -1.
</event>
<event>
 7    1  0.9865694E-013  0.5052889E+02  0.7816164E-02  0.1300439E+00
        -11   -1    0    0    0    0  0.00000000000E+00  0.00000000000E+00  0.45593999997E+02  0.45594000000E+02  0.51100000000E-03 0.  1.
         11   -1    0    0    0    0 -0.00000000000E+00 -0.00000000000E+00 -0.45593999997E+02  0.45594000000E+02  0.51100000000E-03 0. -1.
    9900012    2    1    2    0    0  0.26641756658E+02  0.16022116188E+02 -0.26204420562E+02  0.50528892018E+02  0.30000097777E+02 0.  0.
        -12    1    1    2    0    0 -0.26641756658E+02 -0.16022116188E+02  0.26204420562E+02  0.40659107982E+02  0.00000000000E+00 0.  1.
         11    1    3    3    0    0  0.19027898014E+02  0.36715288051E+01 -0.11438090038E+02  0.22502687185E+02  0.51100000000E-03 0. -1.
        -11    1    3    3    0    0  0.75161616111E+00  0.18120996172E+01  0.45625152266E+01  0.49664048697E+01  0.51100000000E-03 0.  1.
        -12    1    3    3    0    0  0.68622424827E+01  0.10538487766E+02 -0.19328845750E+02  0.23059799963E+02  0.00000000000E+00 0.  1.
</event>
<event>
 7    1  0.9865694E-013  0.5052886E+02  0.7816164E-02  0.1300439E+00
        -11   -1    0    0    0    0  0.00000000000E+00  0.00000000000E+00  0.45593999997E+02  0.45594000000E+02  0.51100000000E-03 0.  1.
         11   -1    0    0    0    0 -0.00000000000E+00 -0.00000000000E+00 -0.45593999997E+02  0.45594000000E+02  0.51100000000E-03 0. -1.
    9900012    2    1    2    0    0  0.35624051702E+02  0.58486958733E+00  0.19589546952E+02  0.50528862258E+02  0.30000007320E+02 0.  0.
        -12    1    1    2    0    0 -0.35624051702E+02 -0.58486958733E+00 -0.19589546952E+02  0.40659137742E+02  0.00000000000E+00 0.  1.
         11    1    3    3    0    0  0.24462198688E+02 -0.60758542928E+01  0.11936264399E+02  0.27888879112E+02  0.51100000000E-03 0. -1.
        -11    1    3    3    0    0  0.50766315373E+01  0.12097890421E+02  0.52689522693E+01  0.14138352049E+02  0.51100000000E-03 0.  1.
        -12    1    3    3    0    0  0.60852214770E+01 -0.54371665404E+01  0.23843302829E+01  0.85016310970E+01  0.00000000000E+00 0.  1.
</event>
<event>
 7    1  0.9865694E-013  0.5052885E+02  0.7816164E-02  0.1300439E+00
        -11   -1    0    0    0    0  0.00000000000E+00  0.00000000000E+00  0.45593999997E+02  0.45594000000E+02  0.51100000000E-03 0.  1.
         11   -1    0    0    0    0 -0.00000000000E+00 -0.00000000000E+00 -0.45593999997E+02  0.45594000000E+02  0.51100000000E-03 0. -1.
    9900012    2    1    2    0    0  0.30390636639E+02  0.31573754669E+00 -0.27008814694E+02  0.50528849041E+02  0.29999967146E+02 0.  0.
        -12    1    1    2    0    0 -0.30390636639E+02 -0.31573754669E+00  0.27008814694E+02  0.40659150959E+02  0.00000000000E+00 0.  1.
         11    1    3    3    0    0  0.12136909213E+02  0.56980450064E+01 -0.40093273773E+01  0.13994534234E+02  0.51100000000E-03 0. -1.
        -11    1    3    3    0    0  0.10603064415E+02 -0.13183423545E+02 -0.17351515268E+02  0.24234329240E+02  0.51100000000E-03 0.  1.
        -12    1    3    3    0    0  0.76506630110E+01  0.78011160855E+01 -0.56479720482E+01  0.12299985567E+02  0.00000000000E+00 0.  1.
</event>
<event>
 7    1  0.9865694E-013  0.5052886E+02  0.7816164E-02  0.1300439E+00
        -11   -1    0    0    0    0  0.00000000000E+00  0.00000000000E+00  0.45593999997E+02  0.45594000000E+02  0.51100000000E-03 0.  1.
         11   -1    0    0    0    0 -0.00000000000E+00 -0.00000000000E+00 -0.45593999997E+02  0.45594000000E+02  0.51100000000E-03 0. -1.
    9900012    2    1    2    0    0  0.18321071817E+01 -0.27284043814E+02 -0.30089696735E+02  0.50528861874E+02  0.30000006151E+02 0.  0.
        -12    1    1    2    0    0 -0.18321071817E+01  0.27284043814E+02  0.30089696735E+02  0.40659138126E+02  0.00000000000E+00 0.  1.
         11    1    3    3    0    0  0.95497350659E+00 -0.22326207369E+02 -0.35745804780E+02  0.42156068004E+02  0.51100000000E-03 0. -1.
        -11    1    3    3    0    0  0.52402660758E-01  0.15623203964E+00  0.20604566743E+01  0.20670356690E+01  0.51100000000E-03 0.  1.
         12    1    3    3    0    0  0.82473101431E+00 -0.51140684842E+01  0.35956513706E+01  0.63057582007E+01  0.00000000000E+00 0. -1.
</event>
<event>
 7    1  0.9865694E-013  0.5052886E+02  0.7816164E-02  0.1300439E+00
        -11   -1    0    0    0    0  0.00000000000E+00  0.00000000000E+00  0.45593999997E+02  0.45594000000E+02  0.51100000000E-03 0. -1.
         11   -1    0    0    0    0 -0.00000000000E+00 -0.00000000000E+00 -0.45593999997E+02  0.45594000000E+02  0.51100000000E-03 0.  1.
    9900012    2    1    2    0    0 -0.24874393979E+02  0.28763240018E+02  0.14391194098E+02  0.50528856874E+02  0.29999990954E+02 0.  0.
        -12    1    1    2    0    0  0.24874393979E+02 -0.28763240018E+02 -0.14391194098E+02  0.40659143126E+02  0.00000000000E+00 0.  1.
         11    1    3    3    0    0 -0.13380327308E+02  0.25476033452E+02  0.18525068977E+02  0.34223378269E+02  0.51100000000E-03 0. -1.
        -11    1    3    3    0    0 -0.30662584796E+01 -0.30865510991E+01  0.11375600164E+01  0.44969747389E+01  0.51100000000E-03 0.  1.
         12    1    3    3    0    0 -0.84278081922E+01  0.63737576653E+01 -0.52714348949E+01  0.11808503866E+02  0.00000000000E+00 0. -1.
</event>
<event>
 7    1  0.9865694E-013  0.5052886E+02  0.7816164E-02  0.1300439E+00
        -11   -1    0    0    0    0  0.00000000000E+00  0.00000000000E+00  0.45593999997E+02  0.45594000000E+02  0.51100000000E-03 0.  1.
         11   -1    0    0    0    0 -0.00000000000E+00 -0.00000000000E+00 -0.45593999997E+02  0.45594000000E+02  0.51100000000E-03 0. -1.
    9900012    2    1    2    0    0  0.38667085297E+02  0.11748932959E+02 -0.44704604133E+01  0.50528856781E+02  0.29999990671E+02 0.  0.
        -12    1    1    2    0    0 -0.38667085297E+02 -0.11748932959E+02  0.44704604133E+01  0.40659143219E+02  0.00000000000E+00 0.  1.
         11    1    3    3    0    0  0.25462459128E+02  0.17793861428E+02  0.10220735591E+00  0.31063946562E+02  0.51100000000E-03 0. -1.
        -11    1    3    3    0    0  0.15304046840E+02 -0.39206394650E+01 -0.46782290701E+01  0.16476379791E+02  0.51100000000E-03 0.  1.
        -12    1    3    3    0    0 -0.20994206721E+01 -0.21242890048E+01  0.10556130097E+00  0.29885304286E+01  0.00000000000E+00 0.  1.
</event>
<event>
 7    1  0.9865694E-013  0.5052885E+02  0.7816164E-02  0.1300439E+00
        -11   -1    0    0    0    0  0.00000000000E+00  0.00000000000E+00  0.45593999997E+02  0.45594000000E+02  0.51100000000E-03 0.  1.
         11   -1    0    0    0    0 -0.00000000000E+00 -0.00000000000E+00 -0.45593999997E+02  0.45594000000E+02  0.51100000000E-03 0. -1.
    9900012    2    1    2    0    0 -0.64920500664E+00  0.37985771819E+02 -0.14485371158E+02  0.50528852131E+02  0.29999976538E+02 0.  0.
        -12    1    1    2    0    0  0.64920500664E+00 -0.37985771819E+02  0.14485371158E+02  0.40659147869E+02  0.00000000000E+00 0.  1.
         11    1    3    3    0    0  0.58191830530E+01  0.52196560358E+01 -0.10613079635E+02  0.13181242738E+02  0.51100000000E-03 0. -1.
        -11    1    3    3    0    0 -0.10054815421E+02  0.12647488073E+02  0.14730208913E+01  0.16224304562E+02  0.51100000000E-03 0.  1.
        -12    1    3    3    0    0  0.35864273617E+01  0.20118627711E+02 -0.53453124144E+01  0.21123304831E+02  0.00000000000E+00 0.  1.
</event>
<event>
 7    1  0.9865694E-013  0.5052886E+02  0.7816164E-02  0.1300439E+00
        -11   -1    0    0    0    0  0.00000000000E+00  0.00000000000E+00  0.45593999997E+02  0.45594000000E+02  0.51100000000E-03 0.  1.
         11   -1    0    0    0    0 -0.00000000000E+00 -0.00000000000E+00 -0.45593999997E+02  0.45594000000E+02  0.51100000000E-03 0. -1.
    9900012    2    1    2    0    0 -0.39845572413E+02  0.67146906764E+01  0.45176123060E+01  0.50528861633E+02  0.30000005421E+02 0.  0.
        -12    1    1    2    0    0  0.39845572413E+02 -0.67146906764E+01 -0.45176123060E+01  0.40659138367E+02  0.00000000000E+00 0.  1.
         11    1    3    3    0    0 -0.46564862137E+01  0.46812087559E+01 -0.46239209566E+01  0.80608451511E+01  0.51100000000E-03 0. -1.
        -11    1    3    3    0    0 -0.31594209792E+02 -0.30910954333E+01  0.43910802712E+00  0.31748098833E+02  0.51100000000E-03 0.  1.
        -12    1    3    3    0    0 -0.35948764064E+01  0.51245773537E+01  0.87024252355E+01  0.10719917649E+02  0.00000000000E+00 0.  1.
</event>
<event>
 7    1  0.9865694E-013  0.5052886E+02  0.7816164E-02  0.1300439E+00
        -11   -1    0    0    0    0  0.00000000000E+00  0.00000000000E+00  0.45593999997E+02  0.45594000000E+02  0.51100000000E-03 0.  1.
         11   -1    0    0    0    0 -0.00000000000E+00 -0.00000000000E+00 -0.45593999997E+02  0.45594000000E+02  0.51100000000E-03 0. -1.
    9900012    2    1    2    0    0  0.15550650959E+02 -0.28746997620E+02 -0.24185802785E+02  0.50528859898E+02  0.30000000147E+02 0.  0.
        -12    1    1    2    0    0 -0.15550650959E+02  0.28746997620E+02  0.24185802785E+02  0.40659140102E+02  0.00000000000E+00 0.  1.
         11    1    3    3    0    0  0.21956901893E+01 -0.17962618124E+02 -0.73280205075E+01  0.19523744264E+02  0.51100000000E-03 0. -1.
        -11    1    3    3    0    0  0.77518342405E+01 -0.54253602828E+01 -0.20395083000E+02  0.22482990885E+02  0.51100000000E-03 0.  1.
        -12    1    3    3    0    0  0.56031265295E+01 -0.53590192134E+01  0.35373007226E+01  0.85221247490E+01  0.00000000000E+00 0.  1.
</event>
<event>
 7    1  0.9865694E-013  0.5052887E+02  0.7816164E-02  0.1300439E+00
        -11   -1    0    0    0    0  0.00000000000E+00  0.00000000000E+00  0.45593999997E+02  0.45594000000E+02  0.51100000000E-03 0.  1.
         11   -1    0    0    0    0 -0.00000000000E+00 -0.00000000000E+00 -0.45593999997E+02  0.45594000000E+02  0.51100000000E-03 0. -1.
    9900012    2    1    2    0    0  0.13973022015E+02 -0.37579006980E+02  0.67629970374E+01  0.50528865248E+02  0.30000016409E+02 0.  0.
        -12    1    1    2    0    0 -0.13973022015E+02  0.37579006980E+02 -0.67629970374E+01  0.40659134752E+02  0.00000000000E+00 0.  1.
         11    1    3    3    0    0  0.12095675864E+02 -0.34070930125E+02  0.29572939450E+01  0.36275049854E+02  0.51100000000E-03 0. -1.
        -11    1    3    3    0    0  0.35479041984E-03 -0.72792425025E-01 -0.47994957369E+01  0.48000477552E+01  0.51100000000E-03 0.  1.
         12    1    3    3    0    0  0.18769913613E+01 -0.34352844301E+01  0.86051988293E+01  0.94537676393E+01  0.00000000000E+00 0. -1.
</event>
<event>
 7    1  0.9865694E-013  0.5052885E+02  0.7816164E-02  0.1300439E+00
        -11   -1    0    0    0    0  0.00000000000E+00  0.00000000000E+00  0.45593999997E+02  0.45594000000E+02  0.51100000000E-03 0. -1.
         11   -1    0    0    0    0 -0.00000000000E+00 -0.00000000000E+00 -0.45593999997E+02  0.45594000000E+02  0.51100000000E-03 0.  1.
    9900012    2    1    2    0    0  0.87488452607E+01 -0.23886153088E+02  0.31718692823E+02  0.50528854938E+02  0.29999985070E+02 0.  0.
        -12    1    1    2    0    0 -0.87488452607E+01  0.23886153088E+02 -0.31718692823E+02  0.40659145062E+02  0.00000000000E+00 0.  1.
         11    1    3    3    0    0  0.98962719185E+01 -0.87776849672E+01  0.14455076064E+02  0.19594212807E+02  0.51100000000E-03 0. -1.
        -11    1    3    3    0    0 -0.91564160443E+01 -0.56091270806E+01  0.14771798603E+02  0.18262209495E+02  0.51100000000E-03 0.  1.
        -12    1    3    3    0    0  0.80089893865E+01 -0.94993410402E+01  0.24918181562E+01  0.12672432636E+02  0.00000000000E+00 0.  1.
</event>
<event>
 7    1  0.9865694E-013  0.5052886E+02  0.7816164E-02  0.1300439E+00
        -11   -1    0    0    0    0  0.00000000000E+00  0.00000000000E+00  0.45593999997E+02  0.45594000000E+02  0.51100000000E-03 0. -1.
         11   -1    0    0    0    0 -0.00000000000E+00 -0.00000000000E+00 -0.45593999997E+02  0.45594000000E+02  0.51100000000E-03 0.  1.
    9900012    2    1    2    0    0  0.87133144295E+01  0.13876192779E+02  0.37211493844E+02  0.50528857750E+02  0.29999993617E+02 0.  0.
        -12    1    1    2    0    0 -0.87133144295E+01 -0.13876192779E+02 -0.37211493844E+02  0.40659142250E+02  0.00000000000E+00 0.  1.
         11    1    3    3    0    0  0.10347628914E+02  0.17895432424E+02  0.31436617783E+02  0.37624205822E+02  0.51100000000E-03 0. -1.
        -11    1    3    3    0    0 -0.54572953241E+01  0.61237219620E+00  0.33169976200E+01  0.64155705462E+01  0.51100000000E-03 0.  1.
         12    1    3    3    0    0  0.38229808398E+01 -0.46316118416E+01  0.24578784410E+01  0.64890813821E+01  0.00000000000E+00 0. -1.
</event>
<event>
 7    1  0.9865694E-013  0.5052885E+02  0.7816164E-02  0.1300439E+00
        -11   -1    0    0    0    0  0.00000000000E+00  0.00000000000E+00  0.45593999997E+02  0.45594000000E+02  0.51100000000E-03 0. -1.
         11   -1    0    0    0    0 -0.00000000000E+00 -0.00000000000E+00 -0.45593999997E+02  0.45594000000E+02  0.51100000000E-03 0.  1.
    9900012    2    1    2    0    0 -0.25275320534E+02 -0.15654992751E+02 -0.27735275046E+02  0.50528854558E+02  0.29999983916E+02 0.  0.
        -12    1    1    2    0    0  0.25275320534E+02  0.15654992751E+02  0.27735275046E+02  0.40659145442E+02  0.00000000000E+00 0.  1.
         11    1    3    3    0    0 -0.96799375510E+01 -0.64629773999E+01  0.10004329341E+01  0.11682128838E+02  0.51100000000E-03 0. -1.
        -11    1    3    3    0    0 -0.31914951295E+01 -0.89821331471E+01 -0.23540373177E+02  0.25397116501E+02  0.51100000000E-03 0.  1.
        -12    1    3    3    0    0 -0.12403887854E+02 -0.20988220387E+00 -0.51953348037E+01  0.13449609219E+02  0.00000000000E+00 0.  1.
</event>
<event>
 7    1  0.9865694E-013  0.5052887E+02  0.7816164E-02  0.1300439E+00
        -11   -1    0    0    0    0  0.00000000000E+00  0.00000000000E+00  0.45593999997E+02  0.45594000000E+02  0.51100000000E-03 0.  1.
         11   -1    0    0    0    0 -0.00000000000E+00 -0.00000000000E+00 -0.45593999997E+02  0.45594000000E+02  0.51100000000E-03 0. -1.
    9900012    2    1    2    0    0  0.33913262720E+02  0.99017513740E+01 -0.20124886896E+02  0.50528866448E+02  0.30000020055E+02 0.  0.
        -12    1    1    2    0    0 -0.33913262720E+02 -0.99017513740E+01  0.20124886896E+02  0.40659133552E+02  0.00000000000E+00 0.  1.
         11    1    3    3    0    0  0.15776267809E+02  0.11348242961E+02  0.18751718404E+00  0.19434721692E+02  0.51100000000E-03 0. -1.
        -11    1    3    3    0    0  0.20554680985E+02 -0.24944308285E+01 -0.16582089828E+02  0.26527020166E+02  0.51100000000E-03 0.  1.
         12    1    3    3    0    0 -0.24176860736E+01  0.10479392412E+01 -0.37303142517E+01  0.45671245900E+01  0.00000000000E+00 0. -1.
</event>
<event>
 7    1  0.9865694E-013  0.5052887E+02  0.7816164E-02  0.1300439E+00
        -11   -1    0    0    0    0  0.00000000000E+00  0.00000000000E+00  0.45593999997E+02  0.45594000000E+02  0.51100000000E-03 0.  1.
         11   -1    0    0    0    0 -0.00000000000E+00 -0.00000000000E+00 -0.45593999997E+02  0.45594000000E+02  0.51100000000E-03 0. -1.
    9900012    2    1    2    0    0  0.38958328175E+02  0.56188696679E+01 -0.10190270146E+02  0.50528872658E+02  0.30000038932E+02 0.  0.
        -12    1    1    2    0    0 -0.38958328175E+02 -0.56188696679E+01  0.10190270146E+02  0.40659127342E+02  0.00000000000E+00 0.  1.
         11    1    3    3    0    0  0.63275081315E+01 -0.10692999605E+02 -0.44462968713E+01  0.13196482707E+02  0.51100000000E-03 0.  1.
        -11    1    3    3    0    0  0.11311939975E+02  0.84401830048E+01 -0.12725085350E+01  0.14170954569E+02  0.51100000000E-03 0. -1.
         12    1    3    3    0    0  0.21318880069E+02  0.78716862678E+01 -0.44714647398E+01  0.23161435383E+02  0.00000000000E+00 0. -1.
</event>
<event>
 7    1  0.9865694E-013  0.5052886E+02  0.7816164E-02  0.1300439E+00
        -11   -1    0    0    0    0  0.00000000000E+00  0.00000000000E+00  0.45593999997E+02  0.45594000000E+02  0.51100000000E-03 0.  1.
         11   -1    0    0    0    0 -0.00000000000E+00 -0.00000000000E+00 -0.45593999997E+02  0.45594000000E+02  0.51100000000E-03 0. -1.
    9900012    2    1    2    0    0 -0.88613410777E+01 -0.24439246628E+02 -0.31262849472E+02  0.50528857134E+02  0.29999991745E+02 0.  0.
        -12    1    1    2    0    0  0.88613410777E+01  0.24439246628E+02  0.31262849472E+02  0.40659142866E+02  0.00000000000E+00 0.  1.
         11    1    3    3    0    0  0.25881014076E+01  0.17880289174E+01 -0.15050868963E+02  0.15376084453E+02  0.51100000000E-03 0.  1.
        -11    1    3    3    0    0 -0.11520464613E+02 -0.12160785938E+02 -0.60945594678E+01  0.17825528741E+02  0.51100000000E-03 0. -1.
         12    1    3    3    0    0  0.71022127942E-01 -0.14066489608E+02 -0.10117421041E+02  0.17327243940E+02  0.00000000000E+00 0. -1.
</event>
<event>
 7    1  0.9865694E-013  0.5052886E+02  0.7816164E-02  0.1300439E+00
        -11   -1    0    0    0    0  0.00000000000E+00  0.00000000000E+00  0.45593999997E+02  0.45594000000E+02  0.51100000000E-03 0. -1.
         11   -1    0    0    0    0 -0.00000000000E+00 -0.00000000000E+00 -0.45593999997E+02  0.45594000000E+02  0.51100000000E-03 0.  1.
    9900012    2    1    2    0    0 -0.13272126725E+02  0.36654413986E+02  0.11552938696E+02  0.50528858285E+02  0.29999995244E+02 0.  0.
        -12    1    1    2    0    0  0.13272126725E+02 -0.36654413986E+02 -0.11552938696E+02  0.40659141715E+02  0.00000000000E+00 0.  1.
         11    1    3    3    0    0 -0.11777637823E+02  0.15213818103E+02  0.15208454162E+02  0.24524887200E+02  0.51100000000E-03 0. -1.
        -11    1    3    3    0    0  0.36844586582E+01  0.14766262290E+02  0.26685140513E+01  0.15451171643E+02  0.51100000000E-03 0.  1.
         12    1    3    3    0    0 -0.51789475599E+01  0.66743335931E+01 -0.63240295165E+01  0.10552799442E+02  0.00000000000E+00 0. -1.
</event>
<event>
 7    1  0.9865694E-013  0.5052885E+02  0.7816164E-02  0.1300439E+00
        -11   -1    0    0    0    0  0.00000000000E+00  0.00000000000E+00  0.45593999997E+02  0.45594000000E+02  0.51100000000E-03 0. -1.
         11   -1    0    0    0    0 -0.00000000000E+00 -0.00000000000E+00 -0.45593999997E+02  0.45594000000E+02  0.51100000000E-03 0.  1.
    9900012    2    1    2    0    0  0.24181030994E+01  0.29850580230E+02  0.27500215434E+02  0.50528853285E+02  0.29999980045E+02 0.  0.
        -12    1    1    2    0    0 -0.24181030994E+01 -0.29850580230E+02 -0.27500215434E+02  0.40659146715E+02  0.00000000000E+00 0.  1.
         11    1    3    3    0    0 -0.44960261446E+01  0.13591715810E+02  0.16646282296E+02  0.21955584809E+02  0.51100000000E-03 0. -1.
        -11    1    3    3    0    0  0.33818756101E+01  0.16509736236E+02 -0.31593972705E+00  0.16855512197E+02  0.51100000000E-03 0.  1.
        -12    1    3    3    0    0  0.35322536339E+01 -0.25087181659E+00  0.11169872865E+02  0.11717756280E+02  0.00000000000E+00 0.  1.
</event>
<event>
 7    1  0.9865694E-013  0.5052887E+02  0.7816164E-02  0.1300439E+00
        -11   -1    0    0    0    0  0.00000000000E+00  0.00000000000E+00  0.45593999997E+02  0.45594000000E+02  0.51100000000E-03 0.  1.
         11   -1    0    0    0    0 -0.00000000000E+00 -0.00000000000E+00 -0.45593999997E+02  0.45594000000E+02  0.51100000000E-03 0. -1.
    9900012    2    1    2    0    0  0.31777458668E+02  0.17415958382E+02 -0.18440247844E+02  0.50528865402E+02  0.30000016875E+02 0.  0.
        -12    1    1    2    0    0 -0.31777458668E+02 -0.17415958382E+02  0.18440247844E+02  0.40659134598E+02  0.00000000000E+00 0.  1.
         11    1    3    3    0    0  0.21446361254E+01  0.65379307019E+01 -0.83606504080E-02  0.68807028809E+01  0.51100000000E-03 0. -1.
        -11    1    3    3    0    0  0.32641462096E+02  0.51622736684E+01 -0.14516764853E+02  0.36095021530E+02  0.51100000000E-03 0.  1.
        -12    1    3    3    0    0 -0.30086395536E+01  0.57157540118E+01 -0.39151223402E+01  0.75531409908E+01  0.00000000000E+00 0.  1.
</event>
<event>
 7    1  0.9865694E-013  0.5052886E+02  0.7816164E-02  0.1300439E+00
        -11   -1    0    0    0    0  0.00000000000E+00  0.00000000000E+00  0.45593999997E+02  0.45594000000E+02  0.51100000000E-03 0. -1.
         11   -1    0    0    0    0 -0.00000000000E+00 -0.00000000000E+00 -0.45593999997E+02  0.45594000000E+02  0.51100000000E-03 0.  1.
    9900012    2    1    2    0    0 -0.99419993874E+01 -0.30174352977E+02  0.25373822227E+02  0.50528858545E+02  0.29999996034E+02 0.  0.
        -12    1    1    2    0    0  0.99419993874E+01  0.30174352977E+02 -0.25373822227E+02  0.40659141455E+02  0.00000000000E+00 0.  1.
         11    1    3    3    0    0  0.68564825722E+01 -0.20738117925E+02  0.12964621263E+02  0.25400045140E+02  0.51100000000E-03 0. -1.
        -11    1    3    3    0    0 -0.11694738520E+02 -0.13499224892E+01  0.41158149937E+01  0.12471131990E+02  0.51100000000E-03 0.  1.
         12    1    3    3    0    0 -0.51037434392E+01 -0.80863125627E+01  0.82933859709E+01  0.12657681415E+02  0.00000000000E+00 0. -1.
</event>
<event>
 7    1  0.9865694E-013  0.5052886E+02  0.7816164E-02  0.1300439E+00
        -11   -1    0    0    0    0  0.00000000000E+00  0.00000000000E+00  0.45593999997E+02  0.45594000000E+02  0.51100000000E-03 0.  1.
         11   -1    0    0    0    0 -0.00000000000E+00 -0.00000000000E+00 -0.45593999997E+02  0.45594000000E+02  0.51100000000E-03 0. -1.
    9900012    2    1    2    0    0 -0.11032757459E+02  0.16961652409E+02 -0.35266790187E+02  0.50528857367E+02  0.29999992452E+02 0.  0.
        -12    1    1    2    0    0  0.11032757459E+02 -0.16961652409E+02  0.35266790187E+02  0.40659142633E+02  0.00000000000E+00 0.  1.
         11    1    3    3    0    0 -0.87058878379E+01  0.56787491138E+01 -0.77848400321E+01  0.12986316226E+02  0.51100000000E-03 0. -1.
        -11    1    3    3    0    0  0.48009411907E+01 -0.97783246990E+00  0.16269874538E+01  0.51625847298E+01  0.51100000000E-03 0.  1.
        -12    1    3    3    0    0 -0.71278108115E+01  0.12260735765E+02 -0.29108937608E+02  0.32379956411E+02  0.00000000000E+00 0.  1.
</event>
<event>
 7    1  0.9865694E-013  0.5052888E+02  0.7816164E-02  0.1300439E+00
        -11   -1    0    0    0    0  0.00000000000E+00  0.00000000000E+00  0.45593999997E+02  0.45594000000E+02  0.51100000000E-03 0. -1.
         11   -1    0    0    0    0 -0.00000000000E+00 -0.00000000000E+00 -0.45593999997E+02  0.45594000000E+02  0.51100000000E-03 0.  1.
    9900012    2    1    2    0    0 -0.18441936305E+02  0.36227109289E+02  0.80947285170E+00  0.50528884067E+02  0.30000073611E+02 0.  0.
        -12    1    1    2    0    0  0.18441936305E+02 -0.36227109289E+02 -0.80947285170E+00  0.40659115933E+02  0.00000000000E+00 0.  1.
         11    1    3    3    0    0 -0.10128392462E+02  0.83805014015E+01  0.38732245337E+01  0.13704707445E+02  0.51100000000E-03 0. -1.
        -11    1    3    3    0    0  0.20214499441E+01  0.79738571502E+01 -0.10394376920E+02  0.13255630107E+02  0.51100000000E-03 0.  1.
        -12    1    3    3    0    0 -0.10334993788E+02  0.19872750737E+02  0.73306252380E+01  0.23568546515E+02  0.00000000000E+00 0.  1.
</event>
<event>
 7    1  0.9865694E-013  0.5052889E+02  0.7816164E-02  0.1300439E+00
        -11   -1    0    0    0    0  0.00000000000E+00  0.00000000000E+00  0.45593999997E+02  0.45594000000E+02  0.51100000000E-03 0.  1.
         11   -1    0    0    0    0 -0.00000000000E+00 -0.00000000000E+00 -0.45593999997E+02  0.45594000000E+02  0.51100000000E-03 0. -1.
    9900012    2    1    2    0    0 -0.12682253078E+02 -0.36021055257E+02  0.13957335448E+02  0.50528890593E+02  0.30000093446E+02 0.  0.
        -12    1    1    2    0    0  0.12682253078E+02  0.36021055257E+02 -0.13957335448E+02  0.40659109407E+02  0.00000000000E+00 0.  1.
         11    1    3    3    0    0 -0.12371201078E+02 -0.13290708706E+02 -0.39359666939E+01  0.18579057783E+02  0.51100000000E-03 0. -1.
        -11    1    3    3    0    0  0.57718116673E+01 -0.54622474612E+01  0.36055731476E+01  0.87264033389E+01  0.51100000000E-03 0.  1.
         12    1    3    3    0    0 -0.60828636671E+01 -0.17268099090E+02  0.14287728994E+02  0.23223429471E+02  0.00000000000E+00 0. -1.
</event>
<event>
 7    1  0.9865694E-013  0.5052886E+02  0.7816164E-02  0.1300439E+00
        -11   -1    0    0    0    0  0.00000000000E+00  0.00000000000E+00  0.45593999997E+02  0.45594000000E+02  0.51100000000E-03 0.  1.
         11   -1    0    0    0    0 -0.00000000000E+00 -0.00000000000E+00 -0.45593999997E+02  0.45594000000E+02  0.51100000000E-03 0. -1.
    9900012    2    1    2    0    0  0.31101531922E+02  0.17967884951E+02 -0.19052971448E+02  0.50528857135E+02  0.29999991747E+02 0.  0.
        -12    1    1    2    0    0 -0.31101531922E+02 -0.17967884951E+02  0.19052971448E+02  0.40659142865E+02  0.00000000000E+00 0.  1.
         11    1    3    3    0    0  0.17421365124E+02  0.89447576097E+01  0.41540801669E+01  0.20019216612E+02  0.51100000000E-03 0. -1.
        -11    1    3    3    0    0 -0.10241716065E+01  0.75584279730E+00 -0.70062388138E+01  0.71209274951E+01  0.51100000000E-03 0.  1.
         12    1    3    3    0    0  0.14704338405E+02  0.82672845441E+01 -0.16200812801E+02  0.23388713027E+02  0.00000000000E+00 0. -1.
</event>
<event>
 7    1  0.9865694E-013  0.5052887E+02  0.7816164E-02  0.1300439E+00
        -11   -1    0    0    0    0  0.00000000000E+00  0.00000000000E+00  0.45593999997E+02  0.45594000000E+02  0.51100000000E-03 0.  1.
         11   -1    0    0    0    0 -0.00000000000E+00 -0.00000000000E+00 -0.45593999997E+02  0.45594000000E+02  0.51100000000E-03 0. -1.
    9900012    2    1    2    0    0 -0.12857646648E+02 -0.55277012724E+01 -0.38174473193E+02  0.50528868649E+02  0.30000026746E+02 0.  0.
        -12    1    1    2    0    0  0.12857646648E+02  0.55277012724E+01  0.38174473193E+02  0.40659131351E+02  0.00000000000E+00 0.  1.
         11    1    3    3    0    0 -0.32860045370E+01 -0.23871752328E+01 -0.21659473928E+01  0.46030163783E+01  0.51100000000E-03 0. -1.
        -11    1    3    3    0    0 -0.78772415709E+01 -0.97262788115E+01 -0.36994625188E+02  0.39054496890E+02  0.51100000000E-03 0.  1.
        -12    1    3    3    0    0 -0.16944005397E+01  0.65857527719E+01  0.98609938813E+00  0.68713553805E+01  0.00000000000E+00 0.  1.
</event>
<event>
 7    1  0.9865694E-013  0.5052886E+02  0.7816164E-02  0.1300439E+00
        -11   -1    0    0    0    0  0.00000000000E+00  0.00000000000E+00  0.45593999997E+02  0.45594000000E+02  0.51100000000E-03 0. -1.
         11   -1    0    0    0    0 -0.00000000000E+00 -0.00000000000E+00 -0.45593999997E+02  0.45594000000E+02  0.51100000000E-03 0.  1.
    9900012    2    1    2    0    0  0.27621853860E+02 -0.16947066777E+02  0.24555964647E+02  0.50528864708E+02  0.30000014765E+02 0.  0.
        -12    1    1    2    0    0 -0.27621853860E+02  0.16947066777E+02 -0.24555964647E+02  0.40659135292E+02  0.00000000000E+00 0.  1.
         11    1    3    3    0    0  0.54209377806E+01  0.22699351350E+01  0.13093152378E+02  0.14351648386E+02  0.51100000000E-03 0. -1.
        -11    1    3    3    0    0 -0.50450353352E+00 -0.85016028327E+01 -0.14278566541E+00  0.85177557225E+01  0.51100000000E-03 0.  1.
         12    1    3    3    0    0  0.22705419613E+02 -0.10715399079E+02  0.11605597934E+02  0.27659460599E+02  0.00000000000E+00 0. -1.
</event>
<event>
 7    1  0.9865694E-013  0.5052886E+02  0.7816164E-02  0.1300439E+00
        -11   -1    0    0    0    0  0.00000000000E+00  0.00000000000E+00  0.45593999997E+02  0.45594000000E+02  0.51100000000E-03 0.  1.
         11   -1    0    0    0    0 -0.00000000000E+00 -0.00000000000E+00 -0.45593999997E+02  0.45594000000E+02  0.51100000000E-03 0. -1.
    9900012    2    1    2    0    0  0.63806846797E+01 -0.61595695879E+01 -0.39680126883E+02  0.50528857068E+02  0.29999991545E+02 0.  0.
        -12    1    1    2    0    0 -0.63806846797E+01  0.61595695879E+01  0.39680126883E+02  0.40659142932E+02  0.00000000000E+00 0.  1.
         11    1    3    3    0    0 -0.36762608286E+00 -0.60359502690E+01 -0.18477972538E+01  0.63231479137E+01  0.51100000000E-03 0. -1.
        -11    1    3    3    0    0  0.14624833940E+02  0.81789951874E-01 -0.28150716589E+02  0.31723103601E+02  0.51100000000E-03 0.  1.
        -12    1    3    3    0    0 -0.78765231778E+01 -0.20540927075E+00 -0.96816130405E+01  0.12482605554E+02  0.00000000000E+00 0.  1.
</event>
<event>
 7    1  0.9865694E-013  0.5052886E+02  0.7816164E-02  0.1300439E+00
        -11   -1    0    0    0    0  0.00000000000E+00  0.00000000000E+00  0.45593999997E+02  0.45594000000E+02  0.51100000000E-03 0.  1.
         11   -1    0    0    0    0 -0.00000000000E+00 -0.00000000000E+00 -0.45593999997E+02  0.45594000000E+02  0.51100000000E-03 0. -1.
    9900012    2    1    2    0    0  0.12212962502E+02  0.35628722340E+02  0.15316765555E+02  0.50528860612E+02  0.30000002316E+02 0.  0.
        -12    1    1    2    0    0 -0.12212962502E+02 -0.35628722340E+02 -0.15316765555E+02  0.40659139388E+02  0.00000000000E+00 0.  1.
         11    1    3    3    0    0 -0.43291894587E+01  0.23467670538E+02 -0.60156513784E+00  0.23871223737E+02  0.51100000000E-03 0. -1.
        -11    1    3    3    0    0  0.38250999750E+01  0.17830454493E+01  0.64510428995E+01  0.77088647442E+01  0.51100000000E-03 0.  1.
         12    1    3    3    0    0  0.12717051986E+02  0.10378006353E+02  0.94672877938E+01  0.18948772130E+02  0.00000000000E+00 0. -1.
</event>
<event>
 7    1  0.9865694E-013  0.5052886E+02  0.7816164E-02  0.1300439E+00
        -11   -1    0    0    0    0  0.00000000000E+00  0.00000000000E+00  0.45593999997E+02  0.45594000000E+02  0.51100000000E-03 0.  1.
         11   -1    0    0    0    0 -0.00000000000E+00 -0.00000000000E+00 -0.45593999997E+02  0.45594000000E+02  0.51100000000E-03 0. -1.
    9900012    2    1    2    0    0  0.37899785258E+02  0.14215214099E+02  0.38339836083E+01  0.50528862469E+02  0.30000007961E+02 0.  0.
        -12    1    1    2    0    0 -0.37899785258E+02 -0.14215214099E+02 -0.38339836083E+01  0.40659137531E+02  0.00000000000E+00 0.  1.
         11    1    3    3    0    0  0.24519632355E+02  0.13218727401E+02  0.82144975437E+01  0.29041781885E+02  0.51100000000E-03 0. -1.
        -11    1    3    3    0    0  0.46917556695E+01 -0.30858611854E+01 -0.91746788366E+01  0.10756850958E+02  0.51100000000E-03 0.  1.
        -12    1    3    3    0    0  0.86883972335E+01  0.40823478827E+01  0.47941649011E+01  0.10730229626E+02  0.00000000000E+00 0.  1.
</event>
<event>
 7    1  0.9865694E-013  0.5052885E+02  0.7816164E-02  0.1300439E+00
        -11   -1    0    0    0    0  0.00000000000E+00  0.00000000000E+00  0.45593999997E+02  0.45594000000E+02  0.51100000000E-03 0.  1.
         11   -1    0    0    0    0 -0.00000000000E+00 -0.00000000000E+00 -0.45593999997E+02  0.45594000000E+02  0.51100000000E-03 0. -1.
    9900012    2    1    2    0    0  0.21599067458E+01 -0.39046096590E+02  0.11131186160E+02  0.50528853902E+02  0.29999981920E+02 0.  0.
        -12    1    1    2    0    0 -0.21599067458E+01  0.39046096590E+02 -0.11131186160E+02  0.40659146098E+02  0.00000000000E+00 0.  1.
         11    1    3    3    0    0  0.62805171745E+01 -0.32649931252E+01 -0.18487292201E+01  0.73159330285E+01  0.51100000000E-03 0. -1.
        -11    1    3    3    0    0 -0.67624615754E+00 -0.30512170638E+02  0.17758039613E+02  0.35310024597E+02  0.51100000000E-03 0.  1.
        -12    1    3    3    0    0 -0.34443642712E+01 -0.52689328273E+01 -0.47781242327E+01  0.79028962763E+01  0.00000000000E+00 0.  1.
</event>
<event>
 7    1  0.1160881E-012  0.5052886E+02  0.7816164E-02  0.1300439E+00
        -11   -1    0    0    0    0  0.00000000000E+00  0.00000000000E+00  0.45593999997E+02  0.45594000000E+02  0.51100000000E-03 0.  1.
         11   -1    0    0    0    0 -0.00000000000E+00 -0.00000000000E+00 -0.45593999997E+02  0.45594000000E+02  0.51100000000E-03 0. -1.
    9900012    2    1    2    0    0 -0.33313503907E+02  0.10234023854E+02 -0.20943758920E+02  0.50528858045E+02  0.29999994513E+02 0.  0.
        -12    1    1    2    0    0  0.33313503907E+02 -0.10234023854E+02  0.20943758920E+02  0.40659141955E+02  0.00000000000E+00 0.  1.
         11    1    3    3    0    0 -0.27446136088E+02  0.60558371479E+01 -0.16658683233E+02  0.32672240159E+02  0.51100000000E-03 0. -1.
        -11    1    3    3    0    0  0.16066004831E+01  0.65706502282E+00 -0.84345203306E+01  0.86112736006E+01  0.51100000000E-03 0.  1.
        -12    1    3    3    0    0 -0.74739683024E+01  0.35211216835E+01  0.41494446436E+01  0.92453442849E+01  0.00000000000E+00 0.  1.
</event>
<event>
 7    1  0.9865694E-013  0.5052886E+02  0.7816164E-02  0.1300439E+00
        -11   -1    0    0    0    0  0.00000000000E+00  0.00000000000E+00  0.45593999997E+02  0.45594000000E+02  0.51100000000E-03 0. -1.
         11   -1    0    0    0    0 -0.00000000000E+00 -0.00000000000E+00 -0.45593999997E+02  0.45594000000E+02  0.51100000000E-03 0.  1.
    9900012    2    1    2    0    0 -0.21569185532E+02  0.34207033954E+02  0.42207564516E+01  0.50528859312E+02  0.29999998365E+02 0.  0.
        -12    1    1    2    0    0  0.21569185532E+02 -0.34207033954E+02 -0.42207564516E+01  0.40659140688E+02  0.00000000000E+00 0.  1.
         11    1    3    3    0    0 -0.19284985661E+01  0.72714028918E+01  0.39153676144E+01  0.84807140355E+01  0.51100000000E-03 0. -1.
        -11    1    3    3    0    0 -0.93357051284E+01  0.22331185126E+01 -0.95358313419E+01  0.13530494750E+02  0.51100000000E-03 0.  1.
        -12    1    3    3    0    0 -0.10304981837E+02  0.24702512550E+02  0.98412201791E+01  0.28517650527E+02  0.00000000000E+00 0.  1.
</event>
<event>
 7    1  0.9865694E-013  0.5052883E+02  0.7816164E-02  0.1300439E+00
        -11   -1    0    0    0    0  0.00000000000E+00  0.00000000000E+00  0.45593999997E+02  0.45594000000E+02  0.51100000000E-03 0.  1.
         11   -1    0    0    0    0 -0.00000000000E+00 -0.00000000000E+00 -0.45593999997E+02  0.45594000000E+02  0.51100000000E-03 0. -1.
    9900012    2    1    2    0    0  0.30262847956E+02  0.23547114264E+02 -0.13522624352E+02  0.50528832203E+02  0.29999915965E+02 0.  0.
        -12    1    1    2    0    0 -0.30262847956E+02 -0.23547114264E+02  0.13522624352E+02  0.40659167797E+02  0.00000000000E+00 0.  1.
         11    1    3    3    0    0  0.53512960335E+01  0.12768811412E+02 -0.57401598456E+01  0.14987606527E+02  0.51100000000E-03 0. -1.
        -11    1    3    3    0    0  0.25373231472E+02  0.49857290211E+01 -0.11853827451E+02  0.28445941621E+02  0.51100000000E-03 0.  1.
        -12    1    3    3    0    0 -0.46167954974E+00  0.57925738314E+01  0.40713629443E+01  0.70952840552E+01  0.00000000000E+00 0.  1.
</event>
<event>
 7    1  0.9865694E-013  0.5052884E+02  0.7816164E-02  0.1300439E+00
        -11   -1    0    0    0    0  0.00000000000E+00  0.00000000000E+00  0.45593999997E+02  0.45594000000E+02  0.51100000000E-03 0.  1.
         11   -1    0    0    0    0 -0.00000000000E+00 -0.00000000000E+00 -0.45593999997E+02  0.45594000000E+02  0.51100000000E-03 0. -1.
    9900012    2    1    2    0    0 -0.72186853965E+01  0.50993291308E+01 -0.39686954893E+02  0.50528844018E+02  0.29999951878E+02 0.  0.
        -12    1    1    2    0    0  0.72186853965E+01 -0.50993291308E+01  0.39686954893E+02  0.40659155982E+02  0.00000000000E+00 0.  1.
         11    1    3    3    0    0 -0.12264043700E+02  0.13052466459E+02 -0.17906019967E+02  0.25325860298E+02  0.51100000000E-03 0. -1.
        -11    1    3    3    0    0  0.46478248277E+01 -0.16746184333E+00 -0.59080505662E+01  0.75190013201E+01  0.51100000000E-03 0.  1.
         12    1    3    3    0    0  0.39753347531E+00 -0.77856754846E+01 -0.15872884360E+02  0.17683982400E+02  0.00000000000E+00 0. -1.
</event>
<event>
 7    1  0.9865694E-013  0.5052886E+02  0.7816164E-02  0.1300439E+00
        -11   -1    0    0    0    0  0.00000000000E+00  0.00000000000E+00  0.45593999997E+02  0.45594000000E+02  0.51100000000E-03 0.  1.
         11   -1    0    0    0    0 -0.00000000000E+00 -0.00000000000E+00 -0.45593999997E+02  0.45594000000E+02  0.51100000000E-03 0. -1.
    9900012    2    1    2    0    0  0.16986616677E+01  0.17388955127E+02 -0.36713813830E+02  0.50528864031E+02  0.30000012707E+02 0.  0.
        -12    1    1    2    0    0 -0.16986616677E+01 -0.17388955127E+02  0.36713813830E+02  0.40659135969E+02  0.00000000000E+00 0.  1.
         11    1    3    3    0    0 -0.12274066728E+00  0.21699323442E+01 -0.22519830775E+02  0.22624465741E+02  0.51100000000E-03 0. -1.
        -11    1    3    3    0    0 -0.77199858092E+01  0.10946740981E+02 -0.96294741864E+01  0.16497154069E+02  0.51100000000E-03 0.  1.
        -12    1    3    3    0    0  0.95413881442E+01  0.42722818021E+01 -0.45645088677E+01  0.11407244221E+02  0.00000000000E+00 0.  1.
</event>
<event>
 7    1  0.9865694E-013  0.5052887E+02  0.7816164E-02  0.1300439E+00
        -11   -1    0    0    0    0  0.00000000000E+00  0.00000000000E+00  0.45593999997E+02  0.45594000000E+02  0.51100000000E-03 0. -1.
         11   -1    0    0    0    0 -0.00000000000E+00 -0.00000000000E+00 -0.45593999997E+02  0.45594000000E+02  0.51100000000E-03 0.  1.
    9900012    2    1    2    0    0 -0.18301459096E+02 -0.36285946671E+02 -0.12456393227E+01  0.50528868822E+02  0.30000027272E+02 0.  0.
        -12    1    1    2    0    0  0.18301459096E+02  0.36285946671E+02  0.12456393227E+01  0.40659131178E+02  0.00000000000E+00 0.  1.
         11    1    3    3    0    0 -0.66919621694E+01 -0.23754486806E+02  0.12478127611E+02  0.27654324617E+02  0.51100000000E-03 0. -1.
        -11    1    3    3    0    0 -0.45365381076E+01 -0.78472219990E+01 -0.10315568770E+02  0.13732080338E+02  0.51100000000E-03 0.  1.
        -12    1    3    3    0    0 -0.70729588188E+01 -0.46842378656E+01 -0.34081981645E+01  0.91424638672E+01  0.00000000000E+00 0.  1.
</event>
<event>
 7    1  0.1117228E-012  0.5052885E+02  0.7816164E-02  0.1300439E+00
        -11   -1    0    0    0    0  0.00000000000E+00  0.00000000000E+00  0.45593999997E+02  0.45594000000E+02  0.51100000000E-03 0.  1.
         11   -1    0    0    0    0 -0.00000000000E+00 -0.00000000000E+00 -0.45593999997E+02  0.45594000000E+02  0.51100000000E-03 0. -1.
    9900012    2    1    2    0    0 -0.37845036529E+02 -0.14862706584E+02  0.14027594113E+00  0.50528849564E+02  0.29999968734E+02 0.  0.
        -12    1    1    2    0    0  0.37845036529E+02  0.14862706584E+02 -0.14027594113E+00  0.40659150436E+02  0.00000000000E+00 0.  1.
         11    1    3    3    0    0 -0.21142311690E+02 -0.11738098034E+02 -0.69129938865E+01  0.25150939819E+02  0.51100000000E-03 0. -1.
        -11    1    3    3    0    0 -0.11465389298E+02 -0.72594380431E+01  0.11136469703E+02  0.17554929512E+02  0.51100000000E-03 0.  1.
        -12    1    3    3    0    0 -0.52373355405E+01  0.41348294926E+01 -0.40831998756E+01  0.78229802327E+01  0.00000000000E+00 0.  1.
</event>
<event>
 7    1  0.9865694E-013  0.5052886E+02  0.7816164E-02  0.1300439E+00
        -11   -1    0    0    0    0  0.00000000000E+00  0.00000000000E+00  0.45593999997E+02  0.45594000000E+02  0.51100000000E-03 0.  1.
         11   -1    0    0    0    0 -0.00000000000E+00 -0.00000000000E+00 -0.45593999997E+02  0.45594000000E+02  0.51100000000E-03 0. -1.
    9900012    2    1    2    0    0 -0.12375124162E+02 -0.15406075400E+02 -0.35534138445E+02  0.50528857704E+02  0.29999993476E+02 0.  0.
        -12    1    1    2    0    0  0.12375124162E+02  0.15406075400E+02  0.35534138445E+02  0.40659142296E+02  0.00000000000E+00 0.  1.
         11    1    3    3    0    0 -0.13411434277E+01 -0.62953488103E+01  0.35681616556E+01  0.73594741795E+01  0.51100000000E-03 0. -1.
        -11    1    3    3    0    0  0.19660351698E+01 -0.23716027886E+01 -0.11715476389E+02  0.12113718725E+02  0.51100000000E-03 0.  1.
         12    1    3    3    0    0 -0.13000015904E+02 -0.67391238015E+01 -0.27386823711E+02  0.31055664799E+02  0.00000000000E+00 0. -1.
</event>
<event>
 7    1  0.9865694E-013  0.5052887E+02  0.7816164E-02  0.1300439E+00
        -11   -1    0    0    0    0  0.00000000000E+00  0.00000000000E+00  0.45593999997E+02  0.45594000000E+02  0.51100000000E-03 0.  1.
         11   -1    0    0    0    0 -0.00000000000E+00 -0.00000000000E+00 -0.45593999997E+02  0.45594000000E+02  0.51100000000E-03 0. -1.
    9900012    2    1    2    0    0 -0.30230139764E+02 -0.27112163666E+02  0.20577265957E+01  0.50528868092E+02  0.30000025051E+02 0.  0.
        -12    1    1    2    0    0  0.30230139764E+02  0.27112163666E+02 -0.20577265957E+01  0.40659131908E+02  0.00000000000E+00 0.  1.
         11    1    3    3    0    0 -0.16398026507E+02 -0.17564404735E+01 -0.31977113457E+01  0.16798979570E+02  0.51100000000E-03 0. -1.
        -11    1    3    3    0    0 -0.14636733989E+02 -0.20965867186E+02  0.97785958448E+01  0.27375582289E+02  0.51100000000E-03 0.  1.
        -12    1    3    3    0    0  0.80462073188E+00 -0.43898560060E+01 -0.45231579035E+01  0.63543062325E+01  0.00000000000E+00 0.  1.
</event>
<event>
 7    1  0.9865694E-013  0.5052884E+02  0.7816164E-02  0.1300439E+00
        -11   -1    0    0    0    0  0.00000000000E+00  0.00000000000E+00  0.45593999997E+02  0.45594000000E+02  0.51100000000E-03 0.  1.
         11   -1    0    0    0    0 -0.00000000000E+00 -0.00000000000E+00 -0.45593999997E+02  0.45594000000E+02  0.51100000000E-03 0. -1.
    9900012    2    1    2    0    0 -0.56866704321E+00  0.23566220906E+02 -0.33128190997E+02  0.50528841268E+02  0.29999943520E+02 0.  0.
        -12    1    1    2    0    0  0.56866704321E+00 -0.23566220906E+02  0.33128190997E+02  0.40659158732E+02  0.00000000000E+00 0.  1.
         11    1    3    3    0    0  0.76610027022E+01 -0.19263906443E+01 -0.10100058052E+02  0.12822367809E+02  0.51100000000E-03 0. -1.
        -11    1    3    3    0    0 -0.43629679505E+01  0.21786083861E+02 -0.11552931932E+02  0.25042746971E+02  0.51100000000E-03 0.  1.
         12    1    3    3    0    0 -0.38667017949E+01  0.37065276891E+01 -0.11475201013E+02  0.12663726489E+02  0.00000000000E+00 0. -1.
</event>
<event>
 7    1  0.9865694E-013  0.5052886E+02  0.7816164E-02  0.1300439E+00
        -11   -1    0    0    0    0  0.00000000000E+00  0.00000000000E+00  0.45593999997E+02  0.45594000000E+02  0.51100000000E-03 0.  1.
         11   -1    0    0    0    0 -0.00000000000E+00 -0.00000000000E+00 -0.45593999997E+02  0.45594000000E+02  0.51100000000E-03 0. -1.
    9900012    2    1    2    0    0 -0.23762605656E+02 -0.10021490238E+02 -0.31433650078E+02  0.50528855255E+02  0.29999986034E+02 0.  0.
        -12    1    1    2    0    0  0.23762605656E+02  0.10021490238E+02  0.31433650078E+02  0.40659144745E+02  0.00000000000E+00 0.  1.
         11    1    3    3    0    0 -0.11094418616E+02 -0.78557506871E+01 -0.22368369029E+02  0.26175234031E+02  0.51100000000E-03 0. -1.
        -11    1    3    3    0    0 -0.42659217253E+01 -0.72721420885E+01  0.28552276198E+01  0.89013742616E+01  0.51100000000E-03 0.  1.
        -12    1    3    3    0    0 -0.84022653144E+01  0.51064025373E+01 -0.11920508669E+02  0.15452246963E+02  0.00000000000E+00 0.  1.
</event>
<event>
 7    1  0.9865694E-013  0.5052886E+02  0.7816164E-02  0.1300439E+00
        -11   -1    0    0    0    0  0.00000000000E+00  0.00000000000E+00  0.45593999997E+02  0.45594000000E+02  0.51100000000E-03 0.  1.
         11   -1    0    0    0    0 -0.00000000000E+00 -0.00000000000E+00 -0.45593999997E+02  0.45594000000E+02  0.51100000000E-03 0. -1.
    9900012    2    1    2    0    0  0.49016242579E+01  0.11122819422E+02 -0.38799779484E+02  0.50528856868E+02  0.29999990936E+02 0.  0.
        -12    1    1    2    0    0 -0.49016242579E+01 -0.11122819422E+02  0.38799779484E+02  0.40659143132E+02  0.00000000000E+00 0.  1.
         11    1    3    3    0    0 -0.13010383632E+01  0.15106321440E+01 -0.37789737324E+02  0.37842290597E+02  0.51100000000E-03 0. -1.
        -11    1    3    3    0    0  0.51662980562E+01  0.99036890168E+01  0.57594316450E-01  0.11170362980E+02  0.51100000000E-03 0.  1.
        -12    1    3    3    0    0  0.10363645649E+01 -0.29150173892E+00 -0.10676364758E+01  0.15162032910E+01  0.00000000000E+00 0.  1.
</event>
<event>
 7    1  0.9865694E-013  0.5052886E+02  0.7816164E-02  0.1300439E+00
        -11   -1    0    0    0    0  0.00000000000E+00  0.00000000000E+00  0.45593999997E+02  0.45594000000E+02  0.51100000000E-03 0.  1.
         11   -1    0    0    0    0 -0.00000000000E+00 -0.00000000000E+00 -0.45593999997E+02  0.45594000000E+02  0.51100000000E-03 0. -1.
    9900012    2    1    2    0    0 -0.54946288034E+01  0.24983555089E+02 -0.31603742110E+02  0.50528862209E+02  0.30000007171E+02 0.  0.
        -12    1    1    2    0    0  0.54946288034E+01 -0.24983555089E+02  0.31603742110E+02  0.40659137791E+02  0.00000000000E+00 0.  1.
         11    1    3    3    0    0  0.15052165099E+01  0.14592445522E+02 -0.20320804198E+02  0.25062725841E+02  0.51100000000E-03 0. -1.
        -11    1    3    3    0    0 -0.41191275777E+01  0.95775920802E+00  0.49258378060E+01  0.64921793763E+01  0.51100000000E-03 0.  1.
        -12    1    3    3    0    0 -0.28807177356E+01  0.94333503589E+01 -0.16208775718E+02  0.18973956992E+02  0.00000000000E+00 0.  1.
</event>
<event>
 7    1  0.9865694E-013  0.5052888E+02  0.7816164E-02  0.1300439E+00
        -11   -1    0    0    0    0  0.00000000000E+00  0.00000000000E+00  0.45593999997E+02  0.45594000000E+02  0.51100000000E-03 0.  1.
         11   -1    0    0    0    0 -0.00000000000E+00 -0.00000000000E+00 -0.45593999997E+02  0.45594000000E+02  0.51100000000E-03 0. -1.
    9900012    2    1    2    0    0 -0.11411710486E+02  0.36618435983E+02 -0.13491740035E+02  0.50528879999E+02  0.30000061244E+02 0.  0.
        -12    1    1    2    0    0  0.11411710486E+02 -0.36618435983E+02  0.13491740035E+02  0.40659120001E+02  0.00000000000E+00 0.  1.
         11    1    3    3    0    0  0.47535860786E+01  0.14419339243E+02 -0.14416117373E+02  0.20936531832E+02  0.51100000000E-03 0. -1.
        -11    1    3    3    0    0 -0.12509604344E+02  0.14333916948E+02 -0.42485379478E+01  0.19493625904E+02  0.51100000000E-03 0.  1.
         12    1    3    3    0    0 -0.36556922208E+01  0.78651797930E+01  0.51729152855E+01  0.10098722263E+02  0.00000000000E+00 0. -1.
</event>
<event>
 7    1  0.9865694E-013  0.5052887E+02  0.7816164E-02  0.1300439E+00
        -11   -1    0    0    0    0  0.00000000000E+00  0.00000000000E+00  0.45593999997E+02  0.45594000000E+02  0.51100000000E-03 0. -1.
         11   -1    0    0    0    0 -0.00000000000E+00 -0.00000000000E+00 -0.45593999997E+02  0.45594000000E+02  0.51100000000E-03 0.  1.
    9900012    2    1    2    0    0  0.32164267028E+02  0.11640258634E+02  0.21980204487E+02  0.50528867153E+02  0.30000022199E+02 0.  0.
        -12    1    1    2    0    0 -0.32164267028E+02 -0.11640258634E+02 -0.21980204487E+02  0.40659132847E+02  0.00000000000E+00 0.  1.
         11    1    3    3    0    0  0.15991670687E+02  0.16619530553E+02  0.94305304651E+01  0.24917408218E+02  0.51100000000E-03 0. -1.
        -11    1    3    3    0    0  0.66444236504E+01 -0.27623800802E+01  0.13981508389E+02  0.15724556796E+02  0.51100000000E-03 0.  1.
         12    1    3    3    0    0  0.95281726910E+01 -0.22168918391E+01 -0.14318343668E+01  0.98869021391E+01  0.00000000000E+00 0. -1.
</event>
<event>
 7    1  0.9865694E-013  0.5052886E+02  0.7816164E-02  0.1300439E+00
        -11   -1    0    0    0    0  0.00000000000E+00  0.00000000000E+00  0.45593999997E+02  0.45594000000E+02  0.51100000000E-03 0. -1.
         11   -1    0    0    0    0 -0.00000000000E+00 -0.00000000000E+00 -0.45593999997E+02  0.45594000000E+02  0.51100000000E-03 0.  1.
    9900012    2    1    2    0    0  0.14973038462E+02 -0.27774094747E+01  0.37699598349E+02  0.50528860808E+02  0.30000002912E+02 0.  0.
        -12    1    1    2    0    0 -0.14973038462E+02  0.27774094747E+01 -0.37699598349E+02  0.40659139192E+02  0.00000000000E+00 0.  1.
         11    1    3    3    0    0 -0.27572034364E+01 -0.89478945377E+01  0.18144897918E+02  0.20418234698E+02  0.51100000000E-03 0.  1.
        -11    1    3    3    0    0  0.13769038015E+02  0.83587937957E+00  0.60559468444E+01  0.15065178215E+02  0.51100000000E-03 0. -1.
        -12    1    3    3    0    0  0.39612038833E+01  0.53346056834E+01  0.13498753586E+02  0.15045447896E+02  0.00000000000E+00 0.  1.
</event>
<event>
 7    1  0.9865694E-013  0.5052887E+02  0.7816164E-02  0.1300439E+00
        -11   -1    0    0    0    0  0.00000000000E+00  0.00000000000E+00  0.45593999997E+02  0.45594000000E+02  0.51100000000E-03 0.  1.
         11   -1    0    0    0    0 -0.00000000000E+00 -0.00000000000E+00 -0.45593999997E+02  0.45594000000E+02  0.51100000000E-03 0. -1.
    9900012    2    1    2    0    0 -0.16598031765E+02  0.14730087995E+02 -0.34068965612E+02  0.50528873489E+02  0.30000041457E+02 0.  0.
        -12    1    1    2    0    0  0.16598031765E+02 -0.14730087995E+02  0.34068965612E+02  0.40659126511E+02  0.00000000000E+00 0.  1.
         11    1    3    3    0    0 -0.19174901447E+02  0.37186422184E+01 -0.33529067312E+02  0.38803395476E+02  0.51100000000E-03 0. -1.
        -11    1    3    3    0    0  0.18742872374E+00  0.68933862117E+01  0.24425855719E+00  0.69002583643E+01  0.51100000000E-03 0.  1.
         12    1    3    3    0    0  0.23894409589E+01  0.41180595650E+01 -0.78415685722E+00  0.48252196482E+01  0.00000000000E+00 0. -1.
</event>
<event>
 7    1  0.9865694E-013  0.5052890E+02  0.7816164E-02  0.1300439E+00
        -11   -1    0    0    0    0  0.00000000000E+00  0.00000000000E+00  0.45593999997E+02  0.45594000000E+02  0.51100000000E-03 0. -1.
         11   -1    0    0    0    0 -0.00000000000E+00 -0.00000000000E+00 -0.45593999997E+02  0.45594000000E+02  0.51100000000E-03 0.  1.
    9900012    2    1    2    0    0 -0.18877755730E+02 -0.36009784807E+02  0.29706170489E+00  0.50528898818E+02  0.30000118447E+02 0.  0.
        -12    1    1    2    0    0  0.18877755730E+02  0.36009784807E+02 -0.29706170489E+00  0.40659101182E+02  0.00000000000E+00 0.  1.
         11    1    3    3    0    0 -0.18985255218E+01 -0.12062427822E+02  0.79312103584E+01  0.14560585913E+02  0.51100000000E-03 0. -1.
        -11    1    3    3    0    0 -0.15545631599E+02 -0.62505545887E+01 -0.71223817192E+01  0.18206164234E+02  0.51100000000E-03 0.  1.
        -12    1    3    3    0    0 -0.14335986091E+01 -0.17696802396E+02 -0.51176693429E+00  0.17762148671E+02  0.00000000000E+00 0.  1.
</event>
<event>
 7    1  0.9865694E-013  0.5052887E+02  0.7816164E-02  0.1300439E+00
        -11   -1    0    0    0    0  0.00000000000E+00  0.00000000000E+00  0.45593999997E+02  0.45594000000E+02  0.51100000000E-03 0. -1.
         11   -1    0    0    0    0 -0.00000000000E+00 -0.00000000000E+00 -0.45593999997E+02  0.45594000000E+02  0.51100000000E-03 0.  1.
    9900012    2    1    2    0    0 -0.38526270518E+02 -0.57712340204E+01 -0.11644071072E+02  0.50528867529E+02  0.30000023342E+02 0.  0.
        -12    1    1    2    0    0  0.38526270518E+02  0.57712340204E+01  0.11644071072E+02  0.40659132471E+02  0.00000000000E+00 0.  1.
         11    1    3    3    0    0 -0.18010071771E+02 -0.12087480468E+02 -0.72565632899E+01  0.22871982431E+02  0.51100000000E-03 0. -1.
        -11    1    3    3    0    0 -0.76548132738E+01  0.95837127219E+01 -0.70141525671E+01  0.14129474593E+02  0.51100000000E-03 0.  1.
        -12    1    3    3    0    0 -0.12861385473E+02 -0.32674662742E+01  0.26266447855E+01  0.13527410505E+02  0.00000000000E+00 0.  1.
</event>
<event>
 7    1  0.9865694E-013  0.5052887E+02  0.7816164E-02  0.1300439E+00
        -11   -1    0    0    0    0  0.00000000000E+00  0.00000000000E+00  0.45593999997E+02  0.45594000000E+02  0.51100000000E-03 0.  1.
         11   -1    0    0    0    0 -0.00000000000E+00 -0.00000000000E+00 -0.45593999997E+02  0.45594000000E+02  0.51100000000E-03 0. -1.
    9900012    2    1    2    0    0 -0.54608375130E+01  0.32403484822E+02 -0.23944904924E+02  0.50528867609E+02  0.30000023584E+02 0.  0.
        -12    1    1    2    0    0  0.54608375130E+01 -0.32403484822E+02  0.23944904924E+02  0.40659132391E+02  0.00000000000E+00 0.  1.
         11    1    3    3    0    0  0.49685928432E+00 -0.30832226918E+01  0.21861321693E+01  0.38121261047E+01  0.51100000000E-03 0.  1.
        -11    1    3    3    0    0 -0.84050109063E+01  0.19754333406E+02 -0.20890658171E+02  0.29954924399E+02  0.51100000000E-03 0. -1.
         12    1    3    3    0    0  0.24473141089E+01  0.15732374108E+02 -0.52403789218E+01  0.16761817105E+02  0.00000000000E+00 0. -1.
</event>
<event>
 7    1  0.9865694E-013  0.5052887E+02  0.7816164E-02  0.1300439E+00
        -11   -1    0    0    0    0  0.00000000000E+00  0.00000000000E+00  0.45593999997E+02  0.45594000000E+02  0.51100000000E-03 0. -1.
         11   -1    0    0    0    0 -0.00000000000E+00 -0.00000000000E+00 -0.45593999997E+02  0.45594000000E+02  0.51100000000E-03 0.  1.
    9900012    2    1    2    0    0 -0.39071307050E+02 -0.22721400302E+01  0.11019776358E+02  0.50528866636E+02  0.30000020626E+02 0.  0.
        -12    1    1    2    0    0  0.39071307050E+02  0.22721400302E+01 -0.11019776358E+02  0.40659133364E+02  0.00000000000E+00 0.  1.
         11    1    3    3    0    0 -0.20691671402E+02 -0.88807721896E+01  0.33520439327E+01  0.22765095626E+02  0.51100000000E-03 0. -1.
        -11    1    3    3    0    0  0.26809766737E+01  0.17763286748E+01  0.50649081691E+01  0.59996895344E+01  0.51100000000E-03 0.  1.
        -12    1    3    3    0    0 -0.21060612322E+02  0.48323034847E+01  0.26028242566E+01  0.21764081476E+02  0.00000000000E+00 0.  1.
</event>
<event>
 7    1  0.9865694E-013  0.5052886E+02  0.7816164E-02  0.1300439E+00
        -11   -1    0    0    0    0  0.00000000000E+00  0.00000000000E+00  0.45593999997E+02  0.45594000000E+02  0.51100000000E-03 0. -1.
         11   -1    0    0    0    0 -0.00000000000E+00 -0.00000000000E+00 -0.45593999997E+02  0.45594000000E+02  0.51100000000E-03 0.  1.
    9900012    2    1    2    0    0 -0.25820864826E+02 -0.21066654873E+02  0.23294741797E+02  0.50528855846E+02  0.29999987831E+02 0.  0.
        -12    1    1    2    0    0  0.25820864826E+02  0.21066654873E+02 -0.23294741797E+02  0.40659144154E+02  0.00000000000E+00 0.  1.
         11    1    3    3    0    0 -0.72250314999E+01  0.17795941444E+01 -0.39066403569E+01  0.84041581751E+01  0.51100000000E-03 0.  1.
        -11    1    3    3    0    0 -0.16775915130E+02 -0.17481712067E+02  0.14547745626E+02  0.28260900344E+02  0.51100000000E-03 0. -1.
         12    1    3    3    0    0 -0.18199181969E+01 -0.53645369503E+01  0.12653636528E+02  0.13863797327E+02  0.00000000000E+00 0. -1.
</event>
<event>
 7    1  0.9865694E-013  0.5052886E+02  0.7816164E-02  0.1300439E+00
        -11   -1    0    0    0    0  0.00000000000E+00  0.00000000000E+00  0.45593999997E+02  0.45594000000E+02  0.51100000000E-03 0.  1.
         11   -1    0    0    0    0 -0.00000000000E+00 -0.00000000000E+00 -0.45593999997E+02  0.45594000000E+02  0.51100000000E-03 0. -1.
    9900012    2    1    2    0    0  0.13994465288E+02  0.17614160419E+01 -0.38134208894E+02  0.50528861628E+02  0.30000005405E+02 0.  0.
        -12    1    1    2    0    0 -0.13994465288E+02 -0.17614160419E+01  0.38134208894E+02  0.40659138372E+02  0.00000000000E+00 0.  1.
         11    1    3    3    0    0  0.71324348767E+01 -0.20866329326E+00 -0.17157211924E+02  0.18581848371E+02  0.51100000000E-03 0. -1.
        -11    1    3    3    0    0 -0.42952458431E+01 -0.21188476292E+01  0.26691626030E+01  0.54829810678E+01  0.51100000000E-03 0.  1.
        -12    1    3    3    0    0  0.11157276254E+02  0.40889269644E+01 -0.23646159573E+02  0.26464032189E+02  0.00000000000E+00 0.  1.
</event>
<event>
 7    1  0.9865694E-013  0.5052885E+02  0.7816164E-02  0.1300439E+00
        -11   -1    0    0    0    0  0.00000000000E+00  0.00000000000E+00  0.45593999997E+02  0.45594000000E+02  0.51100000000E-03 0.  1.
         11   -1    0    0    0    0 -0.00000000000E+00 -0.00000000000E+00 -0.45593999997E+02  0.45594000000E+02  0.51100000000E-03 0. -1.
    9900012    2    1    2    0    0 -0.18904112959E+02  0.11464950894E+02 -0.34122654404E+02  0.50528854296E+02  0.29999983119E+02 0.  0.
        -12    1    1    2    0    0  0.18904112959E+02 -0.11464950894E+02  0.34122654404E+02  0.40659145704E+02  0.00000000000E+00 0.  1.
         11    1    3    3    0    0 -0.14611392696E+02  0.21615465391E+02 -0.23345824275E+02  0.35010693395E+02  0.51100000000E-03 0. -1.
        -11    1    3    3    0    0 -0.15846250414E+01 -0.31619301148E+01 -0.46218151229E+01  0.58197950019E+01  0.51100000000E-03 0.  1.
         12    1    3    3    0    0 -0.27080952211E+01 -0.69885843828E+01 -0.61550150061E+01  0.96983658998E+01  0.00000000000E+00 0. -1.
</event>
<event>
 7    1  0.9865694E-013  0.5052886E+02  0.7816164E-02  0.1300439E+00
        -11   -1    0    0    0    0  0.00000000000E+00  0.00000000000E+00  0.45593999997E+02  0.45594000000E+02  0.51100000000E-03 0.  1.
         11   -1    0    0    0    0 -0.00000000000E+00 -0.00000000000E+00 -0.45593999997E+02  0.45594000000E+02  0.51100000000E-03 0. -1.
    9900012    2    1    2    0    0 -0.37432636662E+02  0.14992027287E+02 -0.52155774945E+01  0.50528863041E+02  0.30000009699E+02 0.  0.
        -12    1    1    2    0    0  0.37432636662E+02 -0.14992027287E+02  0.52155774945E+01  0.40659136959E+02  0.00000000000E+00 0.  1.
         11    1    3    3    0    0 -0.28840136858E+02  0.69427588661E+00  0.42825037202E+01  0.29164625000E+02  0.51100000000E-03 0. -1.
        -11    1    3    3    0    0  0.15499126044E+01  0.12760164947E+01 -0.30338998576E+01  0.36379933732E+01  0.51100000000E-03 0.  1.
         12    1    3    3    0    0 -0.10142412408E+02  0.13021734905E+02 -0.64641813570E+01  0.17726244668E+02  0.00000000000E+00 0. -1.
</event>
<event>
 7    1  0.9865694E-013  0.5052882E+02  0.7816164E-02  0.1300439E+00
        -11   -1    0    0    0    0  0.00000000000E+00  0.00000000000E+00  0.45593999997E+02  0.45594000000E+02  0.51100000000E-03 0.  1.
         11   -1    0    0    0    0 -0.00000000000E+00 -0.00000000000E+00 -0.45593999997E+02  0.45594000000E+02  0.51100000000E-03 0. -1.
    9900012    2    1    2    0    0 -0.64600859800E+01 -0.21303551490E+02 -0.34023450354E+02  0.50528816646E+02  0.29999868678E+02 0.  0.
        -12    1    1    2    0    0  0.64600859800E+01  0.21303551490E+02  0.34023450354E+02  0.40659183354E+02  0.00000000000E+00 0.  1.
         11    1    3    3    0    0  0.14715208460E+01 -0.94471136053E+01 -0.94020260445E+01  0.13409378176E+02  0.51100000000E-03 0. -1.
        -11    1    3    3    0    0 -0.86616590351E+01 -0.14285488616E+01 -0.25164652797E+02  0.26651920001E+02  0.51100000000E-03 0.  1.
        -12    1    3    3    0    0  0.73005220904E+00 -0.10427889023E+02  0.54322848701E+00  0.10467518469E+02  0.00000000000E+00 0.  1.
</event>
<event>
 7    1  0.9865694E-013  0.5052886E+02  0.7816164E-02  0.1300439E+00
        -11   -1    0    0    0    0  0.00000000000E+00  0.00000000000E+00  0.45593999997E+02  0.45594000000E+02  0.51100000000E-03 0.  1.
         11   -1    0    0    0    0 -0.00000000000E+00 -0.00000000000E+00 -0.45593999997E+02  0.45594000000E+02  0.51100000000E-03 0. -1.
    9900012    2    1    2    0    0  0.30281940054E+02 -0.52665097203E+01 -0.26616420423E+02  0.50528857680E+02  0.29999993404E+02 0.  0.
        -12    1    1    2    0    0 -0.30281940054E+02  0.52665097203E+01  0.26616420423E+02  0.40659142320E+02  0.00000000000E+00 0.  1.
         11    1    3    3    0    0  0.27163343495E+02 -0.57259862034E+01 -0.45493057021E+01  0.28130594207E+02  0.51100000000E-03 0.  1.
        -11    1    3    3    0    0  0.32019035319E+01  0.29021637679E+00 -0.21931566758E+02  0.22165965634E+02  0.51100000000E-03 0. -1.
        -12    1    3    3    0    0 -0.83306973295E-01  0.16926010639E+00 -0.13554796275E+00  0.23229783818E+00  0.00000000000E+00 0.  1.
</event>
<event>
 7    1  0.9865694E-013  0.5052885E+02  0.7816164E-02  0.1300439E+00
        -11   -1    0    0    0    0  0.00000000000E+00  0.00000000000E+00  0.45593999997E+02  0.45594000000E+02  0.51100000000E-03 0.  1.
         11   -1    0    0    0    0 -0.00000000000E+00 -0.00000000000E+00 -0.45593999997E+02  0.45594000000E+02  0.51100000000E-03 0. -1.
    9900012    2    1    2    0    0  0.28059887343E+01  0.36174835625E+02 -0.18348681627E+02  0.50528850688E+02  0.29999972152E+02 0.  0.
        -12    1    1    2    0    0 -0.28059887343E+01 -0.36174835625E+02  0.18348681627E+02  0.40659149312E+02  0.00000000000E+00 0.  1.
         11    1    3    3    0    0  0.13266597987E+02  0.21848230877E+02 -0.74533140177E+01  0.26625170510E+02  0.51100000000E-03 0. -1.
        -11    1    3    3    0    0 -0.90075342149E+01  0.16007857180E+02 -0.11408948927E+02  0.21622934121E+02  0.51100000000E-03 0.  1.
        -12    1    3    3    0    0 -0.14530750379E+01 -0.16812524318E+01  0.51358131740E+00  0.22807460566E+01  0.00000000000E+00 0.  1.
</event>
<event>
 7    1  0.9865694E-013  0.5052886E+02  0.7816164E-02  0.1300439E+00
        -11   -1    0    0    0    0  0.00000000000E+00  0.00000000000E+00  0.45593999997E+02  0.45594000000E+02  0.51100000000E-03 0.  1.
         11   -1    0    0    0    0 -0.00000000000E+00 -0.00000000000E+00 -0.45593999997E+02  0.45594000000E+02  0.51100000000E-03 0. -1.
    9900012    2    1    2    0    0 -0.38355719627E+02  0.48182784660E+01 -0.12601134423E+02  0.50528860508E+02  0.30000002000E+02 0.  0.
        -12    1    1    2    0    0  0.38355719627E+02 -0.48182784660E+01  0.12601134423E+02  0.40659139492E+02  0.00000000000E+00 0.  1.
         11    1    3    3    0    0 -0.20881951064E+02 -0.71726006319E+01 -0.59569935855E+01  0.22868927673E+02  0.51100000000E-03 0. -1.
        -11    1    3    3    0    0 -0.35560037399E+01  0.87637655745E+01 -0.91446801304E+01  0.13155756329E+02  0.51100000000E-03 0.  1.
         12    1    3    3    0    0 -0.13917764823E+02  0.32271135234E+01  0.25005392924E+01  0.14504176506E+02  0.00000000000E+00 0. -1.
</event>
<event>
 7    1  0.9865694E-013  0.5052884E+02  0.7816164E-02  0.1300439E+00
        -11   -1    0    0    0    0  0.00000000000E+00  0.00000000000E+00  0.45593999997E+02  0.45594000000E+02  0.51100000000E-03 0.  1.
         11   -1    0    0    0    0 -0.00000000000E+00 -0.00000000000E+00 -0.45593999997E+02  0.45594000000E+02  0.51100000000E-03 0. -1.
    9900012    2    1    2    0    0 -0.59916459804E+01 -0.49206963982E+01 -0.39913085646E+02  0.50528837682E+02  0.29999932620E+02 0.  0.
        -12    1    1    2    0    0  0.59916459804E+01  0.49206963982E+01  0.39913085646E+02  0.40659162318E+02  0.00000000000E+00 0.  1.
         11    1    3    3    0    0 -0.86011290713E+01 -0.28062319600E-01 -0.89199823826E+01  0.12391379857E+02  0.51100000000E-03 0. -1.
        -11    1    3    3    0    0  0.79280262854E+01  0.28079818688E+01 -0.35261414789E+01  0.91198704458E+01  0.51100000000E-03 0.  1.
        -12    1    3    3    0    0 -0.53185431944E+01 -0.77006159474E+01 -0.27466961784E+02  0.29017587380E+02  0.00000000000E+00 0.  1.
</event>
<event>
 7    1  0.9865694E-013  0.5052886E+02  0.7816164E-02  0.1300439E+00
        -11   -1    0    0    0    0  0.00000000000E+00  0.00000000000E+00  0.45593999997E+02  0.45594000000E+02  0.51100000000E-03 0.  1.
         11   -1    0    0    0    0 -0.00000000000E+00 -0.00000000000E+00 -0.45593999997E+02  0.45594000000E+02  0.51100000000E-03 0. -1.
    9900012    2    1    2    0    0  0.14857366428E+02  0.32157651932E+02 -0.19957697743E+02  0.50528860632E+02  0.30000002377E+02 0.  0.
        -12    1    1    2    0    0 -0.14857366428E+02 -0.32157651932E+02  0.19957697743E+02  0.40659139368E+02  0.00000000000E+00 0.  1.
         11    1    3    3    0    0 -0.42162138817E+01  0.59624053967E+01 -0.11448055261E+02  0.13578833055E+02  0.51100000000E-03 0. -1.
        -11    1    3    3    0    0  0.14412558391E+02  0.72403013918E+01 -0.62600613836E+01  0.17301218813E+02  0.51100000000E-03 0.  1.
        -12    1    3    3    0    0  0.46610219184E+01  0.18954945144E+02 -0.22495810975E+01  0.19648808764E+02  0.00000000000E+00 0.  1.
</event>
<event>
 7    1  0.9865694E-013  0.5052886E+02  0.7816164E-02  0.1300439E+00
        -11   -1    0    0    0    0  0.00000000000E+00  0.00000000000E+00  0.45593999997E+02  0.45594000000E+02  0.51100000000E-03 0. -1.
         11   -1    0    0    0    0 -0.00000000000E+00 -0.00000000000E+00 -0.45593999997E+02  0.45594000000E+02  0.51100000000E-03 0.  1.
    9900012    2    1    2    0    0 -0.22372380952E+02 -0.23420642605E+02 -0.24578767931E+02  0.50528858808E+02  0.29999996832E+02 0.  0.
        -12    1    1    2    0    0  0.22372380952E+02  0.23420642605E+02  0.24578767931E+02  0.40659141192E+02  0.00000000000E+00 0.  1.
         11    1    3    3    0    0 -0.48792543081E+01  0.32586399986E+01 -0.27585199788E+01  0.64834628077E+01  0.51100000000E-03 0. -1.
        -11    1    3    3    0    0 -0.23910314747E+01 -0.17751197999E+02 -0.27303403230E+01  0.18118411091E+02  0.51100000000E-03 0.  1.
        -12    1    3    3    0    0 -0.15102095169E+02 -0.89280846044E+01 -0.19089907629E+02  0.25926984909E+02  0.00000000000E+00 0.  1.
</event>
<event>
 7    1  0.9865694E-013  0.5052886E+02  0.7816164E-02  0.1300439E+00
        -11   -1    0    0    0    0  0.00000000000E+00  0.00000000000E+00  0.45593999997E+02  0.45594000000E+02  0.51100000000E-03 0.  1.
         11   -1    0    0    0    0 -0.00000000000E+00 -0.00000000000E+00 -0.45593999997E+02  0.45594000000E+02  0.51100000000E-03 0. -1.
    9900012    2    1    2    0    0  0.71302623404E+01 -0.12008431938E+02 -0.38185375610E+02  0.50528856021E+02  0.29999988360E+02 0.  0.
        -12    1    1    2    0    0 -0.71302623404E+01  0.12008431938E+02  0.38185375610E+02  0.40659143979E+02  0.00000000000E+00 0.  1.
         11    1    3    3    0    0  0.13801314313E+01  0.28216040641E+01  0.14458485458E+00  0.31443786832E+01  0.51100000000E-03 0. -1.
        -11    1    3    3    0    0 -0.50774935912E+01 -0.15509064348E+02 -0.17694074247E+02  0.24070568789E+02  0.51100000000E-03 0.  1.
        -12    1    3    3    0    0  0.10827624500E+02  0.67902834539E+00 -0.20635886218E+02  0.23313908548E+02  0.00000000000E+00 0.  1.
</event>
<event>
 7    1  0.9865694E-013  0.5052886E+02  0.7816164E-02  0.1300439E+00
        -11   -1    0    0    0    0  0.00000000000E+00  0.00000000000E+00  0.45593999997E+02  0.45594000000E+02  0.51100000000E-03 0.  1.
         11   -1    0    0    0    0 -0.00000000000E+00 -0.00000000000E+00 -0.45593999997E+02  0.45594000000E+02  0.51100000000E-03 0. -1.
    9900012    2    1    2    0    0  0.18188764310E+02 -0.11736201726E+02 -0.34417963656E+02  0.50528858343E+02  0.29999995420E+02 0.  0.
        -12    1    1    2    0    0 -0.18188764310E+02  0.11736201726E+02  0.34417963656E+02  0.40659141657E+02  0.00000000000E+00 0.  1.
         11    1    3    3    0    0  0.10122782612E+02 -0.14604886620E+02 -0.26928182174E+02  0.32262988647E+02  0.51100000000E-03 0. -1.
        -11    1    3    3    0    0 -0.24530324923E+01  0.53121083544E+01 -0.29273220272E+01  0.65425589863E+01  0.51100000000E-03 0.  1.
        -12    1    3    3    0    0  0.10519014190E+02 -0.24434234604E+01 -0.45624594549E+01  0.11723310710E+02  0.00000000000E+00 0.  1.
</event>
<event>
 7    1  0.9865694E-013  0.5052885E+02  0.7816164E-02  0.1300439E+00
        -11   -1    0    0    0    0  0.00000000000E+00  0.00000000000E+00  0.45593999997E+02  0.45594000000E+02  0.51100000000E-03 0.  1.
         11   -1    0    0    0    0 -0.00000000000E+00 -0.00000000000E+00 -0.45593999997E+02  0.45594000000E+02  0.51100000000E-03 0. -1.
    9900012    2    1    2    0    0 -0.32848469110E+02  0.10027343659E+02 -0.21762287797E+02  0.50528847108E+02  0.29999961270E+02 0.  0.
        -12    1    1    2    0    0  0.32848469110E+02 -0.10027343659E+02  0.21762287797E+02  0.40659152892E+02  0.00000000000E+00 0.  1.
         11    1    3    3    0    0 -0.17736180883E+02 -0.58855572362E+01 -0.12741815444E+02  0.22617819465E+02  0.51100000000E-03 0. -1.
        -11    1    3    3    0    0 -0.12146509898E+02  0.13688722008E+02 -0.15473290732E+00  0.18301441348E+02  0.51100000000E-03 0.  1.
        -12    1    3    3    0    0 -0.29657783293E+01  0.22241788876E+01 -0.88657394463E+01  0.96095862946E+01  0.00000000000E+00 0.  1.
</event>
<event>
 7    1  0.9865694E-013  0.5052886E+02  0.7816164E-02  0.1300439E+00
        -11   -1    0    0    0    0  0.00000000000E+00  0.00000000000E+00  0.45593999997E+02  0.45594000000E+02  0.51100000000E-03 0.  1.
         11   -1    0    0    0    0 -0.00000000000E+00 -0.00000000000E+00 -0.45593999997E+02  0.45594000000E+02  0.51100000000E-03 0. -1.
    9900012    2    1    2    0    0 -0.14096091392E+02 -0.31631264747E+02 -0.21305612010E+02  0.50528858283E+02  0.29999995237E+02 0.  0.
        -12    1    1    2    0    0  0.14096091392E+02  0.31631264747E+02  0.21305612010E+02  0.40659141717E+02  0.00000000000E+00 0.  1.
         11    1    3    3    0    0 -0.11010752587E+01 -0.12840944645E+02 -0.65927076271E+01  0.14476395277E+02  0.51100000000E-03 0. -1.
        -11    1    3    3    0    0 -0.16534508689E+02 -0.14785121130E+02 -0.20110803963E+01  0.22271825903E+02  0.51100000000E-03 0.  1.
        -12    1    3    3    0    0  0.35394925562E+01 -0.40051989717E+01 -0.12701823987E+02  0.13780637102E+02  0.00000000000E+00 0.  1.
</event>
<event>
 7    1  0.9865694E-013  0.5052887E+02  0.7816164E-02  0.1300439E+00
        -11   -1    0    0    0    0  0.00000000000E+00  0.00000000000E+00  0.45593999997E+02  0.45594000000E+02  0.51100000000E-03 0.  1.
         11   -1    0    0    0    0 -0.00000000000E+00 -0.00000000000E+00 -0.45593999997E+02  0.45594000000E+02  0.51100000000E-03 0. -1.
    9900012    2    1    2    0    0  0.71022075214E+01  0.75638443595E+01 -0.39312999303E+02  0.50528868093E+02  0.30000025056E+02 0.  0.
        -12    1    1    2    0    0 -0.71022075214E+01 -0.75638443595E+01  0.39312999303E+02  0.40659131907E+02  0.00000000000E+00 0.  1.
         11    1    3    3    0    0 -0.50026899528E+01 -0.56394982837E-01 -0.14911777443E+02  0.15728674259E+02  0.51100000000E-03 0. -1.
        -11    1    3    3    0    0  0.17008467440E+02  0.17633726259E+01 -0.18078366685E+02  0.24884227734E+02  0.51100000000E-03 0.  1.
        -12    1    3    3    0    0 -0.49035699653E+01  0.58568667165E+01 -0.63228551750E+01  0.99159661003E+01  0.00000000000E+00 0.  1.
</event>
<event>
 7    1  0.9865694E-013  0.5052886E+02  0.7816164E-02  0.1300439E+00
        -11   -1    0    0    0    0  0.00000000000E+00  0.00000000000E+00  0.45593999997E+02  0.45594000000E+02  0.51100000000E-03 0.  1.
         11   -1    0    0    0    0 -0.00000000000E+00 -0.00000000000E+00 -0.45593999997E+02  0.45594000000E+02  0.51100000000E-03 0. -1.
    9900012    2    1    2    0    0 -0.29873483085E+02 -0.22226918593E+02 -0.16331099365E+02  0.50528859476E+02  0.29999998862E+02 0.  0.
        -12    1    1    2    0    0  0.29873483085E+02  0.22226918593E+02  0.16331099365E+02  0.40659140524E+02  0.00000000000E+00 0.  1.
         11    1    3    3    0    0 -0.17733908468E+02 -0.28109153995E+02 -0.15887124886E+02  0.36837708741E+02  0.51100000000E-03 0. -1.
        -11    1    3    3    0    0 -0.57701838197E+01  0.34696793520E+01 -0.11972004378E+01  0.68386391386E+01  0.51100000000E-03 0.  1.
         12    1    3    3    0    0 -0.63693907972E+01  0.24125560506E+01  0.75322595956E+00  0.68525115958E+01  0.00000000000E+00 0. -1.
</event>
<event>
 7    1  0.9865694E-013  0.5052886E+02  0.7816164E-02  0.1300439E+00
        -11   -1    0    0    0    0  0.00000000000E+00  0.00000000000E+00  0.45593999997E+02  0.45594000000E+02  0.51100000000E-03 0. -1.
         11   -1    0    0    0    0 -0.00000000000E+00 -0.00000000000E+00 -0.45593999997E+02  0.45594000000E+02  0.51100000000E-03 0.  1.
    9900012    2    1    2    0    0 -0.76871369585E+01 -0.32774619176E+02  0.22801274008E+02  0.50528857939E+02  0.29999994193E+02 0.  0.
        -12    1    1    2    0    0  0.76871369585E+01  0.32774619176E+02 -0.22801274008E+02  0.40659142061E+02  0.00000000000E+00 0.  1.
         11    1    3    3    0    0  0.59171897910E+00  0.21250458885E+00  0.37944338416E+01  0.38461692618E+01  0.51100000000E-03 0. -1.
        -11    1    3    3    0    0 -0.94773713995E+01 -0.33879125163E+02  0.86619142131E+01  0.36230435390E+02  0.51100000000E-03 0.  1.
        -12    1    3    3    0    0  0.11985154620E+01  0.89200139898E+00  0.10344925953E+02  0.10452253287E+02  0.00000000000E+00 0.  1.
</event>
<event>
 7    1  0.9865694E-013  0.5052885E+02  0.7816164E-02  0.1300439E+00
        -11   -1    0    0    0    0  0.00000000000E+00  0.00000000000E+00  0.45593999997E+02  0.45594000000E+02  0.51100000000E-03 0.  1.
         11   -1    0    0    0    0 -0.00000000000E+00 -0.00000000000E+00 -0.45593999997E+02  0.45594000000E+02  0.51100000000E-03 0. -1.
    9900012    2    1    2    0    0  0.15586989848E+02 -0.14907782145E+02 -0.34466941599E+02  0.50528852393E+02  0.29999977332E+02 0.  0.
        -12    1    1    2    0    0 -0.15586989848E+02  0.14907782145E+02  0.34466941599E+02  0.40659147607E+02  0.00000000000E+00 0.  1.
         11    1    3    3    0    0  0.74508968726E+00  0.52122081949E+01 -0.86139723092E+00  0.53351924389E+01  0.51100000000E-03 0. -1.
        -11    1    3    3    0    0  0.85946966947E+01 -0.12406560406E+02 -0.31667570941E+02  0.35080287940E+02  0.51100000000E-03 0.  1.
        -12    1    3    3    0    0  0.62472034656E+01 -0.77134299341E+01 -0.19379734270E+01  0.10113372014E+02  0.00000000000E+00 0.  1.
</event>
<event>
 7    1  0.9865694E-013  0.5052889E+02  0.7816164E-02  0.1300439E+00
        -11   -1    0    0    0    0  0.00000000000E+00  0.00000000000E+00  0.45593999997E+02  0.45594000000E+02  0.51100000000E-03 0.  1.
         11   -1    0    0    0    0 -0.00000000000E+00 -0.00000000000E+00 -0.45593999997E+02  0.45594000000E+02  0.51100000000E-03 0. -1.
    9900012    2    1    2    0    0  0.24825596726E+02  0.31402660031E+02 -0.71222138451E+01  0.50528889829E+02  0.30000091125E+02 0.  0.
        -12    1    1    2    0    0 -0.24825596726E+02 -0.31402660031E+02  0.71222138451E+01  0.40659110171E+02  0.00000000000E+00 0.  1.
         11    1    3    3    0    0  0.11046674592E+02  0.14326227025E+02 -0.80610450044E+01  0.19805308560E+02  0.51100000000E-03 0. -1.
        -11    1    3    3    0    0  0.33471961441E+01  0.15250662020E+02  0.84371829064E+01  0.17747463755E+02  0.51100000000E-03 0.  1.
        -12    1    3    3    0    0  0.10431725990E+02  0.18257709855E+01 -0.74983517471E+01  0.12976117514E+02  0.00000000000E+00 0.  1.
</event>
<event>
 7    1  0.9865694E-013  0.5052886E+02  0.7816164E-02  0.1300439E+00
        -11   -1    0    0    0    0  0.00000000000E+00  0.00000000000E+00  0.45593999997E+02  0.45594000000E+02  0.51100000000E-03 0.  1.
         11   -1    0    0    0    0 -0.00000000000E+00 -0.00000000000E+00 -0.45593999997E+02  0.45594000000E+02  0.51100000000E-03 0. -1.
    9900012    2    1    2    0    0 -0.17705413650E+02 -0.32202666288E+02 -0.17397489418E+02  0.50528855560E+02  0.29999986959E+02 0.  0.
        -12    1    1    2    0    0  0.17705413650E+02  0.32202666288E+02  0.17397489418E+02  0.40659144440E+02  0.00000000000E+00 0.  1.
         11    1    3    3    0    0 -0.23207556559E+01 -0.85574404889E+01 -0.26470083876E+01  0.92532344724E+01  0.51100000000E-03 0. -1.
        -11    1    3    3    0    0 -0.13905973066E+02 -0.78544884303E-01 -0.10155542182E+02  0.17219677508E+02  0.51100000000E-03 0.  1.
        -12    1    3    3    0    0 -0.14786849279E+01 -0.23566680915E+02 -0.45949388488E+01  0.24055943579E+02  0.00000000000E+00 0.  1.
</event>
<event>
 7    1  0.9865694E-013  0.5052886E+02  0.7816164E-02  0.1300439E+00
        -11   -1    0    0    0    0  0.00000000000E+00  0.00000000000E+00  0.45593999997E+02  0.45594000000E+02  0.51100000000E-03 0. -1.
         11   -1    0    0    0    0 -0.00000000000E+00 -0.00000000000E+00 -0.45593999997E+02  0.45594000000E+02  0.51100000000E-03 0.  1.
    9900012    2    1    2    0    0  0.14801093509E+02 -0.23918031514E+02  0.29360189624E+02  0.50528864061E+02  0.30000012801E+02 0.  0.
        -12    1    1    2    0    0 -0.14801093509E+02  0.23918031514E+02 -0.29360189624E+02  0.40659135939E+02  0.00000000000E+00 0.  1.
         11    1    3    3    0    0  0.14251771510E+02 -0.23620491511E+02  0.12826996777E+02  0.30423222330E+02  0.51100000000E-03 0. -1.
        -11    1    3    3    0    0 -0.29985260077E+01  0.84035958086E+00 -0.44533956485E-01  0.31143773018E+01  0.51100000000E-03 0.  1.
         12    1    3    3    0    0  0.35478480058E+01 -0.11378995841E+01  0.16577726803E+02  0.16991264429E+02  0.00000000000E+00 0. -1.
</event>
<event>
 7    1  0.9865694E-013  0.5052886E+02  0.7816164E-02  0.1300439E+00
        -11   -1    0    0    0    0  0.00000000000E+00  0.00000000000E+00  0.45593999997E+02  0.45594000000E+02  0.51100000000E-03 0. -1.
         11   -1    0    0    0    0 -0.00000000000E+00 -0.00000000000E+00 -0.45593999997E+02  0.45594000000E+02  0.51100000000E-03 0.  1.
    9900012    2    1    2    0    0  0.25917769439E+02 -0.31035823161E+02  0.42675723008E+01  0.50528864921E+02  0.30000015415E+02 0.  0.
        -12    1    1    2    0    0 -0.25917769439E+02  0.31035823161E+02 -0.42675723008E+01  0.40659135079E+02  0.00000000000E+00 0.  1.
         11    1    3    3    0    0  0.60976938022E+01 -0.21686220288E+02 -0.25032296324E+01  0.22665837265E+02  0.51100000000E-03 0.  1.
        -11    1    3    3    0    0  0.11384489661E+02 -0.61196526884E+01  0.11819965639E+02  0.17514803505E+02  0.51100000000E-03 0. -1.
         12    1    3    3    0    0  0.84355859757E+01 -0.32299501852E+01 -0.50491637054E+01  0.10348224151E+02  0.00000000000E+00 0. -1.
</event>
<event>
 7    1  0.9865694E-013  0.5052887E+02  0.7816164E-02  0.1300439E+00
        -11   -1    0    0    0    0  0.00000000000E+00  0.00000000000E+00  0.45593999997E+02  0.45594000000E+02  0.51100000000E-03 0.  1.
         11   -1    0    0    0    0 -0.00000000000E+00 -0.00000000000E+00 -0.45593999997E+02  0.45594000000E+02  0.51100000000E-03 0. -1.
    9900012    2    1    2    0    0 -0.12019343923E+02 -0.86754569993E+01 -0.37860755769E+02  0.50528868063E+02  0.30000024963E+02 0.  0.
        -12    1    1    2    0    0  0.12019343923E+02  0.86754569993E+01  0.37860755769E+02  0.40659131937E+02  0.00000000000E+00 0.  1.
         11    1    3    3    0    0 -0.28958822008E+01 -0.38498220185E+01 -0.35976477819E+01  0.60125147084E+01  0.51100000000E-03 0. -1.
        -11    1    3    3    0    0 -0.70910952236E+01  0.50939698115E+01 -0.33207127414E+02  0.34335775385E+02  0.51100000000E-03 0.  1.
        -12    1    3    3    0    0 -0.20323664981E+01 -0.99196047923E+01 -0.10559805729E+01  0.10180577969E+02  0.00000000000E+00 0.  1.
</event>
<event>
 7    1  0.9865694E-013  0.5052890E+02  0.7816164E-02  0.1300439E+00
        -11   -1    0    0    0    0  0.00000000000E+00  0.00000000000E+00  0.45593999997E+02  0.45594000000E+02  0.51100000000E-03 0.  1.
         11   -1    0    0    0    0 -0.00000000000E+00 -0.00000000000E+00 -0.45593999997E+02  0.45594000000E+02  0.51100000000E-03 0. -1.
    9900012    2    1    2    0    0  0.32277885476E+02  0.15288749073E+02 -0.19430772602E+02  0.50528896924E+02  0.30000112691E+02 0.  0.
        -12    1    1    2    0    0 -0.32277885476E+02 -0.15288749073E+02  0.19430772602E+02  0.40659103076E+02  0.00000000000E+00 0.  1.
         11    1    3    3    0    0  0.33299084335E+02  0.13768646115E+02 -0.15671913248E+02  0.39293937173E+02  0.51100000000E-03 0. -1.
        -11    1    3    3    0    0 -0.95078544341E+00 -0.11571319589E+01  0.33331316010E+01  0.36541365410E+01  0.51100000000E-03 0.  1.
         12    1    3    3    0    0 -0.70413416190E-01  0.26772349171E+01 -0.70919909547E+01  0.75808232107E+01  0.00000000000E+00 0. -1.
</event>
<event>
 7    1  0.9865694E-013  0.5052886E+02  0.7816164E-02  0.1300439E+00
        -11   -1    0    0    0    0  0.00000000000E+00  0.00000000000E+00  0.45593999997E+02  0.45594000000E+02  0.51100000000E-03 0.  1.
         11   -1    0    0    0    0 -0.00000000000E+00 -0.00000000000E+00 -0.45593999997E+02  0.45594000000E+02  0.51100000000E-03 0. -1.
    9900012    2    1    2    0    0 -0.20718759961E+02 -0.32947557044E+01 -0.34828775072E+02  0.50528855857E+02  0.29999987862E+02 0.  0.
        -12    1    1    2    0    0  0.20718759961E+02  0.32947557044E+01  0.34828775072E+02  0.40659144143E+02  0.00000000000E+00 0.  1.
         11    1    3    3    0    0  0.13870955225E+01 -0.24525718232E+01 -0.29681626655E+01  0.40925703911E+01  0.51100000000E-03 0. -1.
        -11    1    3    3    0    0 -0.20074244568E+02  0.35850956105E+01 -0.35094898180E+02  0.40589162149E+02  0.51100000000E-03 0.  1.
        -12    1    3    3    0    0 -0.20316109158E+01 -0.44272794916E+01  0.32342857736E+01  0.58471233162E+01  0.00000000000E+00 0.  1.
</event>
<event>
 7    1  0.9865694E-013  0.5052886E+02  0.7816164E-02  0.1300439E+00
        -11   -1    0    0    0    0  0.00000000000E+00  0.00000000000E+00  0.45593999997E+02  0.45594000000E+02  0.51100000000E-03 0. -1.
         11   -1    0    0    0    0 -0.00000000000E+00 -0.00000000000E+00 -0.45593999997E+02  0.45594000000E+02  0.51100000000E-03 0.  1.
    9900012    2    1    2    0    0  0.38215905557E+02 -0.83223925701E+01  0.11110724578E+02  0.50528857654E+02  0.29999993326E+02 0.  0.
        -12    1    1    2    0    0 -0.38215905557E+02  0.83223925701E+01 -0.11110724578E+02  0.40659142346E+02  0.00000000000E+00 0.  1.
         11    1    3    3    0    0  0.17125760302E+02 -0.70653652153E+01  0.15857979241E+02  0.24386196042E+02  0.51100000000E-03 0. -1.
        -11    1    3    3    0    0  0.63500154052E+01 -0.47960944782E+00 -0.87751682568E+01  0.10842338266E+02  0.51100000000E-03 0.  1.
         12    1    3    3    0    0  0.14740129850E+02 -0.77741790703E+00  0.40279135940E+01  0.15300323347E+02  0.00000000000E+00 0. -1.
</event>
<event>
 7    1  0.9865694E-013  0.5052885E+02  0.7816164E-02  0.1300439E+00
        -11   -1    0    0    0    0  0.00000000000E+00  0.00000000000E+00  0.45593999997E+02  0.45594000000E+02  0.51100000000E-03 0.  1.
         11   -1    0    0    0    0 -0.00000000000E+00 -0.00000000000E+00 -0.45593999997E+02  0.45594000000E+02  0.51100000000E-03 0. -1.
    9900012    2    1    2    0    0  0.23478456449E+02 -0.12020712606E+02 -0.30942375966E+02  0.50528854913E+02  0.29999984995E+02 0.  0.
        -12    1    1    2    0    0 -0.23478456449E+02  0.12020712606E+02  0.30942375966E+02  0.40659145087E+02  0.00000000000E+00 0.  1.
         11    1    3    3    0    0  0.28321542349E+01 -0.48441762445E+01 -0.87459885745E+01  0.10391316447E+02  0.51100000000E-03 0. -1.
        -11    1    3    3    0    0  0.93784678270E+01 -0.23235936481E+01  0.45738526609E+01  0.10689942687E+02  0.51100000000E-03 0.  1.
        -12    1    3    3    0    0  0.11267834387E+02 -0.48529427133E+01 -0.26770240052E+02  0.29447595779E+02  0.00000000000E+00 0.  1.
</event>
<event>
 7    1  0.9865694E-013  0.5052886E+02  0.7816164E-02  0.1300439E+00
        -11   -1    0    0    0    0  0.00000000000E+00  0.00000000000E+00  0.45593999997E+02  0.45594000000E+02  0.51100000000E-03 0.  1.
         11   -1    0    0    0    0 -0.00000000000E+00 -0.00000000000E+00 -0.45593999997E+02  0.45594000000E+02  0.51100000000E-03 0. -1.
    9900012    2    1    2    0    0 -0.36884551290E+02  0.13069601076E+02 -0.11039975697E+02  0.50528860074E+02  0.30000000681E+02 0.  0.
        -12    1    1    2    0    0  0.36884551290E+02 -0.13069601076E+02  0.11039975697E+02  0.40659139926E+02  0.00000000000E+00 0.  1.
         11    1    3    3    0    0 -0.99753346448E+01  0.50328624399E+01  0.16810511163E+01  0.11298802535E+02  0.51100000000E-03 0. -1.
        -11    1    3    3    0    0 -0.68978198340E+01 -0.76272728230E+01 -0.87626071672E+01  0.13510680731E+02  0.51100000000E-03 0.  1.
        -12    1    3    3    0    0 -0.20011396811E+02  0.15664011459E+02 -0.39584196459E+01  0.25719376808E+02  0.00000000000E+00 0.  1.
</event>
<event>
 7    1  0.9865694E-013  0.5052889E+02  0.7816164E-02  0.1300439E+00
        -11   -1    0    0    0    0  0.00000000000E+00  0.00000000000E+00  0.45593999997E+02  0.45594000000E+02  0.51100000000E-03 0. -1.
         11   -1    0    0    0    0 -0.00000000000E+00 -0.00000000000E+00 -0.45593999997E+02  0.45594000000E+02  0.51100000000E-03 0.  1.
    9900012    2    1    2    0    0  0.31369073834E+02  0.24180820206E+02 -0.91887106548E+01  0.50528889551E+02  0.30000090279E+02 0.  0.
        -12    1    1    2    0    0 -0.31369073834E+02 -0.24180820206E+02  0.91887106548E+01  0.40659110449E+02  0.00000000000E+00 0.  1.
         11    1    3    3    0    0  0.19908499175E+02 -0.17049953095E+01 -0.71233236336E+01  0.21213134805E+02  0.51100000000E-03 0.  1.
        -11    1    3    3    0    0  0.46999264082E+01  0.12508631380E+02 -0.45640529329E+01  0.14120401789E+02  0.51100000000E-03 0. -1.
        -12    1    3    3    0    0  0.67606482501E+01  0.13377184135E+02  0.24986659117E+01  0.15195352957E+02  0.00000000000E+00 0.  1.
</event>
<event>
 7    1  0.9865694E-013  0.5052886E+02  0.7816164E-02  0.1300439E+00
        -11   -1    0    0    0    0  0.00000000000E+00  0.00000000000E+00  0.45593999997E+02  0.45594000000E+02  0.51100000000E-03 0.  1.
         11   -1    0    0    0    0 -0.00000000000E+00 -0.00000000000E+00 -0.45593999997E+02  0.45594000000E+02  0.51100000000E-03 0. -1.
    9900012    2    1    2    0    0  0.37984953140E+02 -0.56925976060E+01  0.13338035690E+02  0.50528861684E+02  0.30000005574E+02 0.  0.
        -12    1    1    2    0    0 -0.37984953140E+02  0.56925976060E+01 -0.13338035690E+02  0.40659138316E+02  0.00000000000E+00 0.  1.
         11    1    3    3    0    0  0.94404120734E+01 -0.10049082202E+02 -0.35584720891E+01  0.14239668433E+02  0.51100000000E-03 0. -1.
        -11    1    3    3    0    0  0.16041511864E+02  0.70736605934E-01  0.16577262907E+02  0.23068176181E+02  0.51100000000E-03 0.  1.
         12    1    3    3    0    0  0.12503029203E+02  0.42857479900E+01  0.31924487215E+00  0.13221017070E+02  0.00000000000E+00 0. -1.
</event>
<event>
 7    1  0.9865694E-013  0.5052885E+02  0.7816164E-02  0.1300439E+00
        -11   -1    0    0    0    0  0.00000000000E+00  0.00000000000E+00  0.45593999997E+02  0.45594000000E+02  0.51100000000E-03 0. -1.
         11   -1    0    0    0    0 -0.00000000000E+00 -0.00000000000E+00 -0.45593999997E+02  0.45594000000E+02  0.51100000000E-03 0.  1.
    9900012    2    1    2    0    0  0.26641109151E+01  0.27426540133E+02  0.29897385876E+02  0.50528852531E+02  0.29999977753E+02 0.  0.
        -12    1    1    2    0    0 -0.26641109151E+01 -0.27426540133E+02 -0.29897385876E+02  0.40659147469E+02  0.00000000000E+00 0.  1.
         11    1    3    3    0    0 -0.12906844900E+02  0.97826324638E+01  0.70665062502E+01  0.17669806282E+02  0.51100000000E-03 0. -1.
        -11    1    3    3    0    0  0.10898849077E+02  0.11272131841E+02  0.14142882218E+02  0.21115562629E+02  0.51100000000E-03 0.  1.
         12    1    3    3    0    0  0.46721067375E+01  0.63717758290E+01  0.86879974081E+01  0.11743483620E+02  0.00000000000E+00 0. -1.
</event>
<event>
 7    1  0.9865694E-013  0.5052886E+02  0.7816164E-02  0.1300439E+00
        -11   -1    0    0    0    0  0.00000000000E+00  0.00000000000E+00  0.45593999997E+02  0.45594000000E+02  0.51100000000E-03 0.  1.
         11   -1    0    0    0    0 -0.00000000000E+00 -0.00000000000E+00 -0.45593999997E+02  0.45594000000E+02  0.51100000000E-03 0. -1.
    9900012    2    1    2    0    0 -0.94844330159E+01  0.23402921042E+02 -0.31867139876E+02  0.50528858508E+02  0.29999995922E+02 0.  0.
        -12    1    1    2    0    0  0.94844330159E+01 -0.23402921042E+02  0.31867139876E+02  0.40659141492E+02  0.00000000000E+00 0.  1.
         11    1    3    3    0    0  0.46537316303E+01  0.10336685501E+02 -0.81178317251E+01  0.13942864749E+02  0.51100000000E-03 0. -1.
        -11    1    3    3    0    0 -0.13059293752E+01 -0.49279994630E+01 -0.78498349959E+01  0.93600502116E+01  0.51100000000E-03 0.  1.
        -12    1    3    3    0    0 -0.12832235271E+02  0.17994235004E+02 -0.15899473155E+02  0.27225943547E+02  0.00000000000E+00 0.  1.
</event>
<event>
 7    1  0.9865694E-013  0.5052886E+02  0.7816164E-02  0.1300439E+00
        -11   -1    0    0    0    0  0.00000000000E+00  0.00000000000E+00  0.45593999997E+02  0.45594000000E+02  0.51100000000E-03 0.  1.
         11   -1    0    0    0    0 -0.00000000000E+00 -0.00000000000E+00 -0.45593999997E+02  0.45594000000E+02  0.51100000000E-03 0. -1.
    9900012    2    1    2    0    0  0.24630317855E+02 -0.31930313706E+02 -0.51931137141E+01  0.50528856858E+02  0.29999990905E+02 0.  0.
        -12    1    1    2    0    0 -0.24630317855E+02  0.31930313706E+02  0.51931137141E+01  0.40659143142E+02  0.00000000000E+00 0.  1.
         11    1    3    3    0    0  0.58832387456E+01 -0.34119211694E+01  0.51766008548E+00  0.68206800562E+01  0.51100000000E-03 0. -1.
        -11    1    3    3    0    0  0.48543672136E+00 -0.24360937985E+02 -0.54965148884E+01  0.24978042847E+02  0.51100000000E-03 0.  1.
        -12    1    3    3    0    0  0.18261642388E+02 -0.41574545521E+01 -0.21425891112E+00  0.18730133954E+02  0.00000000000E+00 0.  1.
</event>
<event>
 7    1  0.9865694E-013  0.5052887E+02  0.7816164E-02  0.1300439E+00
        -11   -1    0    0    0    0  0.00000000000E+00  0.00000000000E+00  0.45593999997E+02  0.45594000000E+02  0.51100000000E-03 0.  1.
         11   -1    0    0    0    0 -0.00000000000E+00 -0.00000000000E+00 -0.45593999997E+02  0.45594000000E+02  0.51100000000E-03 0. -1.
    9900012    2    1    2    0    0 -0.32049499775E+02 -0.95611906932E+01 -0.23120948491E+02  0.50528867417E+02  0.30000023002E+02 0.  0.
        -12    1    1    2    0    0  0.32049499775E+02  0.95611906932E+01  0.23120948491E+02  0.40659132583E+02  0.00000000000E+00 0.  1.
         11    1    3    3    0    0 -0.20582737383E+02 -0.18885395603E+02 -0.11034903104E+02  0.30034585598E+02  0.51100000000E-03 0. -1.
        -11    1    3    3    0    0 -0.70811567232E+01  0.98481943100E+01 -0.86416554648E+01  0.14893217286E+02  0.51100000000E-03 0.  1.
        -12    1    3    3    0    0 -0.43856056686E+01 -0.52398940028E+00 -0.34443899219E+01  0.56010645333E+01  0.00000000000E+00 0.  1.
</event>
<event>
 7    1  0.9865694E-013  0.5052886E+02  0.7816164E-02  0.1300439E+00
        -11   -1    0    0    0    0  0.00000000000E+00  0.00000000000E+00  0.45593999997E+02  0.45594000000E+02  0.51100000000E-03 0. -1.
         11   -1    0    0    0    0 -0.00000000000E+00 -0.00000000000E+00 -0.45593999997E+02  0.45594000000E+02  0.51100000000E-03 0.  1.
    9900012    2    1    2    0    0  0.81422982299E+01 -0.18402715906E+02  0.35329999619E+02  0.50528857777E+02  0.29999993700E+02 0.  0.
        -12    1    1    2    0    0 -0.81422982299E+01  0.18402715906E+02 -0.35329999619E+02  0.40659142223E+02  0.00000000000E+00 0.  1.
         11    1    3    3    0    0  0.28945517753E+01  0.57153260701E+00  0.19803518030E+02  0.20022097945E+02  0.51100000000E-03 0. -1.
        -11    1    3    3    0    0 -0.59748657342E+01 -0.10645468240E+02  0.84062818006E+01  0.14821963047E+02  0.51100000000E-03 0.  1.
        -12    1    3    3    0    0  0.11222612189E+02 -0.83287802735E+01  0.71201997889E+01  0.15684796786E+02  0.00000000000E+00 0.  1.
</event>
<event>
 7    1  0.9865694E-013  0.5052886E+02  0.7816164E-02  0.1300439E+00
        -11   -1    0    0    0    0  0.00000000000E+00  0.00000000000E+00  0.45593999997E+02  0.45594000000E+02  0.51100000000E-03 0.  1.
         11   -1    0    0    0    0 -0.00000000000E+00 -0.00000000000E+00 -0.45593999997E+02  0.45594000000E+02  0.51100000000E-03 0. -1.
    9900012    2    1    2    0    0  0.17132461740E+02 -0.32498605755E+02 -0.17420822956E+02  0.50528859653E+02  0.29999999402E+02 0.  0.
        -12    1    1    2    0    0 -0.17132461740E+02  0.32498605755E+02  0.17420822956E+02  0.40659140347E+02  0.00000000000E+00 0.  1.
         11    1    3    3    0    0 -0.21399919561E+01 -0.39975569545E+01 -0.16857661190E+01  0.48375442991E+01  0.51100000000E-03 0. -1.
        -11    1    3    3    0    0  0.12780657244E+02 -0.31818702586E+02 -0.83030987037E+01  0.35280539709E+02  0.51100000000E-03 0.  1.
        -12    1    3    3    0    0  0.64917964524E+01  0.33176537860E+01 -0.74319581335E+01  0.10410775645E+02  0.00000000000E+00 0.  1.
</event>
<event>
 7    1  0.9865694E-013  0.5052884E+02  0.7816164E-02  0.1300439E+00
        -11   -1    0    0    0    0  0.00000000000E+00  0.00000000000E+00  0.45593999997E+02  0.45594000000E+02  0.51100000000E-03 0. -1.
         11   -1    0    0    0    0 -0.00000000000E+00 -0.00000000000E+00 -0.45593999997E+02  0.45594000000E+02  0.51100000000E-03 0.  1.
    9900012    2    1    2    0    0 -0.34467541543E+02  0.21513660320E+02  0.15224829562E+01  0.50528844147E+02  0.29999952269E+02 0.  0.
        -12    1    1    2    0    0  0.34467541543E+02 -0.21513660320E+02 -0.15224829562E+01  0.40659155853E+02  0.00000000000E+00 0.  1.
         11    1    3    3    0    0 -0.82386712490E+01  0.11861046768E+01  0.80963790012E+01  0.11611800095E+02  0.51100000000E-03 0. -1.
        -11    1    3    3    0    0 -0.14269878571E+02  0.19658007820E+02 -0.10283036970E+02  0.26378164369E+02  0.51100000000E-03 0.  1.
        -12    1    3    3    0    0 -0.11958991722E+02  0.66954782300E+00  0.37091409250E+01  0.12538879683E+02  0.00000000000E+00 0.  1.
</event>
<event>
 7    1  0.9865694E-013  0.5052886E+02  0.7816164E-02  0.1300439E+00
        -11   -1    0    0    0    0  0.00000000000E+00  0.00000000000E+00  0.45593999997E+02  0.45594000000E+02  0.51100000000E-03 0.  1.
         11   -1    0    0    0    0 -0.00000000000E+00 -0.00000000000E+00 -0.45593999997E+02  0.45594000000E+02  0.51100000000E-03 0. -1.
    9900012    2    1    2    0    0 -0.11752883448E+02 -0.36649075092E+02 -0.13110317350E+02  0.50528863322E+02  0.30000010552E+02 0.  0.
        -12    1    1    2    0    0  0.11752883448E+02  0.36649075092E+02  0.13110317350E+02  0.40659136678E+02  0.00000000000E+00 0.  1.
         11    1    3    3    0    0 -0.97857766157E+01 -0.20396084906E+02 -0.15003359617E+02  0.27145211429E+02  0.51100000000E-03 0. -1.
        -11    1    3    3    0    0 -0.13074345704E+00 -0.18700408943E+02  0.46442165357E+01  0.19268916315E+02  0.51100000000E-03 0.  1.
         12    1    3    3    0    0 -0.18363633748E+01  0.24474187568E+01 -0.27511742689E+01  0.41147355776E+01  0.00000000000E+00 0. -1.
</event>
<event>
 7    1  0.9865694E-013  0.5052887E+02  0.7816164E-02  0.1300439E+00
        -11   -1    0    0    0    0  0.00000000000E+00  0.00000000000E+00  0.45593999997E+02  0.45594000000E+02  0.51100000000E-03 0. -1.
         11   -1    0    0    0    0 -0.00000000000E+00 -0.00000000000E+00 -0.45593999997E+02  0.45594000000E+02  0.51100000000E-03 0.  1.
    9900012    2    1    2    0    0 -0.30998219522E+02 -0.24978583859E+02  0.82671555319E+01  0.50528866638E+02  0.30000020634E+02 0.  0.
        -12    1    1    2    0    0  0.30998219522E+02  0.24978583859E+02 -0.82671555319E+01  0.40659133362E+02  0.00000000000E+00 0.  1.
         11    1    3    3    0    0 -0.16625726142E+02 -0.10820705897E+02 -0.14738895179E+01  0.19891576017E+02  0.51100000000E-03 0. -1.
        -11    1    3    3    0    0 -0.73890998625E+00  0.21867300844E+01  0.90522153398E+01  0.93418616586E+01  0.51100000000E-03 0.  1.
        -12    1    3    3    0    0 -0.13633583394E+02 -0.16344608046E+02  0.68882970994E+00  0.21295428963E+02  0.00000000000E+00 0.  1.
</event>
<event>
 7    1  0.9865694E-013  0.5052887E+02  0.7816164E-02  0.1300439E+00
        -11   -1    0    0    0    0  0.00000000000E+00  0.00000000000E+00  0.45593999997E+02  0.45594000000E+02  0.51100000000E-03 0.  1.
         11   -1    0    0    0    0 -0.00000000000E+00 -0.00000000000E+00 -0.45593999997E+02  0.45594000000E+02  0.51100000000E-03 0. -1.
    9900012    2    1    2    0    0 -0.17497376041E+02 -0.25787229010E+02 -0.26115616749E+02  0.50528870810E+02  0.30000033314E+02 0.  0.
        -12    1    1    2    0    0  0.17497376041E+02  0.25787229010E+02  0.26115616749E+02  0.40659129190E+02  0.00000000000E+00 0.  1.
         11    1    3    3    0    0 -0.54055125470E+01 -0.23932429181E+02 -0.60144265121E+01  0.25261711322E+02  0.51100000000E-03 0. -1.
        -11    1    3    3    0    0 -0.39003118291E+01  0.18508737633E+01 -0.13330426022E+02  0.14012081367E+02  0.51100000000E-03 0.  1.
         12    1    3    3    0    0 -0.81915516652E+01 -0.37056735927E+01 -0.67707642145E+01  0.11255078121E+02  0.00000000000E+00 0. -1.
</event>
<event>
 7    1  0.9865694E-013  0.5052886E+02  0.7816164E-02  0.1300439E+00
        -11   -1    0    0    0    0  0.00000000000E+00  0.00000000000E+00  0.45593999997E+02  0.45594000000E+02  0.51100000000E-03 0. -1.
         11   -1    0    0    0    0 -0.00000000000E+00 -0.00000000000E+00 -0.45593999997E+02  0.45594000000E+02  0.51100000000E-03 0.  1.
    9900012    2    1    2    0    0  0.37969040449E+01  0.34334601881E+02 -0.21444906260E+02  0.50528863620E+02  0.30000011459E+02 0.  0.
        -12    1    1    2    0    0 -0.37969040449E+01 -0.34334601881E+02  0.21444906260E+02  0.40659136380E+02  0.00000000000E+00 0.  1.
         11    1    3    3    0    0  0.95889292232E+01  0.16888177892E+02 -0.17952116820E+02  0.26446863987E+02  0.51100000000E-03 0.  1.
        -11    1    3    3    0    0 -0.35926672173E+01  0.18927120556E+02 -0.62532102655E+01  0.20254525153E+02  0.51100000000E-03 0. -1.
         12    1    3    3    0    0 -0.21993579611E+01 -0.14806965670E+01  0.27604208253E+01  0.38274744803E+01  0.00000000000E+00 0. -1.
</event>
<event>
 7    1  0.9865694E-013  0.5052887E+02  0.7816164E-02  0.1300439E+00
        -11   -1    0    0    0    0  0.00000000000E+00  0.00000000000E+00  0.45593999997E+02  0.45594000000E+02  0.51100000000E-03 0. -1.
         11   -1    0    0    0    0 -0.00000000000E+00 -0.00000000000E+00 -0.45593999997E+02  0.45594000000E+02  0.51100000000E-03 0.  1.
    9900012    2    1    2    0    0  0.27286027118E+02  0.19957804482E+02  0.22590338523E+02  0.50528872732E+02  0.30000039156E+02 0.  0.
        -12    1    1    2    0    0 -0.27286027118E+02 -0.19957804482E+02 -0.22590338523E+02  0.40659127268E+02  0.00000000000E+00 0.  1.
         11    1    3    3    0    0  0.27982490738E+01  0.66698872864E+00  0.81748587142E+00  0.29905443073E+01  0.51100000000E-03 0. -1.
        -11    1    3    3    0    0 -0.29223830401E+01  0.48558947018E+01 -0.42468472664E+01  0.70820722923E+01  0.51100000000E-03 0.  1.
        -12    1    3    3    0    0  0.27410161085E+02  0.14434921051E+02  0.26019699918E+02  0.40456256132E+02  0.00000000000E+00 0.  1.
</event>
<event>
 7    1  0.9865694E-013  0.5052885E+02  0.7816164E-02  0.1300439E+00
        -11   -1    0    0    0    0  0.00000000000E+00  0.00000000000E+00  0.45593999997E+02  0.45594000000E+02  0.51100000000E-03 0.  1.
         11   -1    0    0    0    0 -0.00000000000E+00 -0.00000000000E+00 -0.45593999997E+02  0.45594000000E+02  0.51100000000E-03 0. -1.
    9900012    2    1    2    0    0 -0.29464315613E+02 -0.33822002371E+01 -0.27813324408E+02  0.50528853580E+02  0.29999980943E+02 0.  0.
        -12    1    1    2    0    0  0.29464315613E+02  0.33822002371E+01  0.27813324408E+02  0.40659146420E+02  0.00000000000E+00 0.  1.
         11    1    3    3    0    0 -0.46047606684E+01 -0.23989852737E+01 -0.16091123313E+02  0.16908080935E+02  0.51100000000E-03 0. -1.
        -11    1    3    3    0    0 -0.25557726612E+02  0.40027501014E+01 -0.12125493230E+02  0.28570036477E+02  0.51100000000E-03 0.  1.
        -12    1    3    3    0    0  0.69817166749E+00 -0.49859650648E+01  0.40329213534E+00  0.50507361692E+01  0.00000000000E+00 0.  1.
</event>
<event>
 7    1  0.9865694E-013  0.5052884E+02  0.7816164E-02  0.1300439E+00
        -11   -1    0    0    0    0  0.00000000000E+00  0.00000000000E+00  0.45593999997E+02  0.45594000000E+02  0.51100000000E-03 0.  1.
         11   -1    0    0    0    0 -0.00000000000E+00 -0.00000000000E+00 -0.45593999997E+02  0.45594000000E+02  0.51100000000E-03 0. -1.
    9900012    2    1    2    0    0  0.79952210925E+01 -0.17444762742E+02 -0.35845832256E+02  0.50528843619E+02  0.29999950666E+02 0.  0.
        -12    1    1    2    0    0 -0.79952210925E+01  0.17444762742E+02  0.35845832256E+02  0.40659156381E+02  0.00000000000E+00 0.  1.
         11    1    3    3    0    0  0.35493771524E+00 -0.28430173754E+00 -0.17227343582E+02  0.17233344871E+02  0.51100000000E-03 0. -1.
        -11    1    3    3    0    0 -0.11176818327E+01 -0.27289923180E+01  0.40636705705E+01  0.50209591232E+01  0.51100000000E-03 0.  1.
        -12    1    3    3    0    0  0.87579652099E+01 -0.14431468686E+02 -0.22682159244E+02  0.28274539626E+02  0.00000000000E+00 0.  1.
</event>
<event>
 7    1  0.9865694E-013  0.5052886E+02  0.7816164E-02  0.1300439E+00
        -11   -1    0    0    0    0  0.00000000000E+00  0.00000000000E+00  0.45593999997E+02  0.45594000000E+02  0.51100000000E-03 0.  1.
         11   -1    0    0    0    0 -0.00000000000E+00 -0.00000000000E+00 -0.45593999997E+02  0.45594000000E+02  0.51100000000E-03 0. -1.
    9900012    2    1    2    0    0 -0.12864646969E+02  0.27897054586E+02  0.26634950787E+02  0.50528863270E+02  0.30000010395E+02 0.  0.
        -12    1    1    2    0    0  0.12864646969E+02 -0.27897054586E+02 -0.26634950787E+02  0.40659136730E+02  0.00000000000E+00 0.  1.
         11    1    3    3    0    0  0.24577241824E+01 -0.29362088151E+01  0.33884822579E+01  0.51130756532E+01  0.51100000000E-03 0. -1.
        -11    1    3    3    0    0 -0.12245773417E+02  0.17249980536E+02  0.37950555911E+01  0.21492399640E+02  0.51100000000E-03 0.  1.
        -12    1    3    3    0    0 -0.30765977343E+01  0.13583282865E+02  0.19451412938E+02  0.23923387977E+02  0.00000000000E+00 0.  1.
</event>
<event>
 7    1  0.9865694E-013  0.5052886E+02  0.7816164E-02  0.1300439E+00
        -11   -1    0    0    0    0  0.00000000000E+00  0.00000000000E+00  0.45593999997E+02  0.45594000000E+02  0.51100000000E-03 0.  1.
         11   -1    0    0    0    0 -0.00000000000E+00 -0.00000000000E+00 -0.45593999997E+02  0.45594000000E+02  0.51100000000E-03 0. -1.
    9900012    2    1    2    0    0 -0.27595299251E+01  0.42593398676E+01 -0.40341155242E+02  0.50528858497E+02  0.29999995887E+02 0.  0.
        -12    1    1    2    0    0  0.27595299251E+01 -0.42593398676E+01  0.40341155242E+02  0.40659141503E+02  0.00000000000E+00 0.  1.
         11    1    3    3    0    0  0.43701840272E+01  0.79720427363E+00 -0.37509597002E+02  0.37771734281E+02  0.51100000000E-03 0. -1.
        -11    1    3    3    0    0 -0.79379648354E+00  0.31352041351E+01  0.27970331631E+01  0.42758639597E+01  0.51100000000E-03 0.  1.
         12    1    3    3    0    0 -0.63359174687E+01  0.32693145894E+00 -0.56285914027E+01  0.84812602559E+01  0.00000000000E+00 0. -1.
</event>
<event>
 7    1  0.9865694E-013  0.5052887E+02  0.7816164E-02  0.1300439E+00
        -11   -1    0    0    0    0  0.00000000000E+00  0.00000000000E+00  0.45593999997E+02  0.45594000000E+02  0.51100000000E-03 0.  1.
         11   -1    0    0    0    0 -0.00000000000E+00 -0.00000000000E+00 -0.45593999997E+02  0.45594000000E+02  0.51100000000E-03 0. -1.
    9900012    2    1    2    0    0 -0.29459053358E+02  0.18832984312E+02 -0.20752056012E+02  0.50528868780E+02  0.30000027145E+02 0.  0.
        -12    1    1    2    0    0  0.29459053358E+02 -0.18832984312E+02  0.20752056012E+02  0.40659131220E+02  0.00000000000E+00 0.  1.
         11    1    3    3    0    0  0.48552544445E+00  0.18224959405E+01 -0.13899691503E+01  0.23429129113E+01  0.51100000000E-03 0. -1.
        -11    1    3    3    0    0  0.47501606819E+01  0.50248452123E+01 -0.58960917000E+01  0.90871884270E+01  0.51100000000E-03 0.  1.
        -12    1    3    3    0    0 -0.34694739484E+02  0.11985643159E+02 -0.13465995162E+02  0.39098767442E+02  0.00000000000E+00 0.  1.
</event>
<event>
 7    1  0.9865694E-013  0.5052886E+02  0.7816164E-02  0.1300439E+00
        -11   -1    0    0    0    0  0.00000000000E+00  0.00000000000E+00  0.45593999997E+02  0.45594000000E+02  0.51100000000E-03 0. -1.
         11   -1    0    0    0    0 -0.00000000000E+00 -0.00000000000E+00 -0.45593999997E+02  0.45594000000E+02  0.51100000000E-03 0.  1.
    9900012    2    1    2    0    0 -0.35720025397E+02 -0.18896164537E+02  0.44922625521E+01  0.50528859928E+02  0.30000000237E+02 0.  0.
        -12    1    1    2    0    0  0.35720025397E+02  0.18896164537E+02 -0.44922625521E+01  0.40659140072E+02  0.00000000000E+00 0.  1.
         11    1    3    3    0    0 -0.29926800252E+01 -0.18943915800E+01  0.93330842916E+01  0.99825505682E+01  0.51100000000E-03 0. -1.
        -11    1    3    3    0    0 -0.34165907639E+02 -0.17606819527E+02 -0.37005823422E+01  0.38613516398E+02  0.51100000000E-03 0.  1.
         12    1    3    3    0    0  0.14385622680E+01  0.60504656978E+00 -0.11402393974E+01  0.19327929619E+01  0.00000000000E+00 0. -1.
</event>
<event>
 7    1  0.9865694E-013  0.5052886E+02  0.7816164E-02  0.1300439E+00
        -11   -1    0    0    0    0  0.00000000000E+00  0.00000000000E+00  0.45593999997E+02  0.45594000000E+02  0.51100000000E-03 0.  1.
         11   -1    0    0    0    0 -0.00000000000E+00 -0.00000000000E+00 -0.45593999997E+02  0.45594000000E+02  0.51100000000E-03 0. -1.
    9900012    2    1    2    0    0 -0.83190644661E+01 -0.19284503760E+02 -0.34814745734E+02  0.50528862781E+02  0.30000008910E+02 0.  0.
        -12    1    1    2    0    0  0.83190644661E+01  0.19284503760E+02  0.34814745734E+02  0.40659137219E+02  0.00000000000E+00 0.  1.
         11    1    3    3    0    0 -0.26274070063E+01 -0.15600591103E+02 -0.39173722344E+02  0.42247629909E+02  0.51100000000E-03 0. -1.
        -11    1    3    3    0    0 -0.47222365021E+01 -0.34155604941E+01  0.43548939724E+01  0.72753469224E+01  0.51100000000E-03 0.  1.
         12    1    3    3    0    0 -0.96942095770E+00 -0.26835216227E+00  0.40826377218E-02  0.10058859499E+01  0.00000000000E+00 0. -1.
</event>
<event>
 7    1  0.9865694E-013  0.5052880E+02  0.7816164E-02  0.1300439E+00
        -11   -1    0    0    0    0  0.00000000000E+00  0.00000000000E+00  0.45593999997E+02  0.45594000000E+02  0.51100000000E-03 0. -1.
         11   -1    0    0    0    0 -0.00000000000E+00 -0.00000000000E+00 -0.45593999997E+02  0.45594000000E+02  0.51100000000E-03 0.  1.
    9900012    2    1    2    0    0 -0.14108084359E+02  0.23593098656E+02  0.29958277205E+02  0.50528797824E+02  0.29999811465E+02 0.  0.
        -12    1    1    2    0    0  0.14108084359E+02 -0.23593098656E+02 -0.29958277205E+02  0.40659202176E+02  0.00000000000E+00 0.  1.
         11    1    3    3    0    0 -0.10600915486E+02  0.34018613295E+01  0.19811075146E+02  0.22725113165E+02  0.51100000000E-03 0. -1.
        -11    1    3    3    0    0  0.14920153588E+01  0.33943401126E+01 -0.38721596214E+01  0.53610889776E+01  0.51100000000E-03 0.  1.
        -12    1    3    3    0    0 -0.49991842322E+01  0.16796897214E+02  0.14019361680E+02  0.22442595682E+02  0.00000000000E+00 0.  1.
</event>
<event>
 7    1  0.9865694E-013  0.5052886E+02  0.7816164E-02  0.1300439E+00
        -11   -1    0    0    0    0  0.00000000000E+00  0.00000000000E+00  0.45593999997E+02  0.45594000000E+02  0.51100000000E-03 0.  1.
         11   -1    0    0    0    0 -0.00000000000E+00 -0.00000000000E+00 -0.45593999997E+02  0.45594000000E+02  0.51100000000E-03 0. -1.
    9900012    2    1    2    0    0  0.58163676666E+00 -0.13960532581E+02 -0.38182861064E+02  0.50528860188E+02  0.30000001027E+02 0.  0.
        -12    1    1    2    0    0 -0.58163676666E+00  0.13960532581E+02  0.38182861064E+02  0.40659139812E+02  0.00000000000E+00 0.  1.
         11    1    3    3    0    0  0.28942752838E+00  0.45881191009E+01 -0.60325146767E+01  0.75845790103E+01  0.51100000000E-03 0. -1.
        -11    1    3    3    0    0 -0.35364268509E+01 -0.15948047495E+02 -0.76991434957E+01  0.18058885475E+02  0.51100000000E-03 0.  1.
        -12    1    3    3    0    0  0.38286360892E+01 -0.26006041867E+01 -0.24451202891E+02  0.24885395702E+02  0.00000000000E+00 0.  1.
</event>
<event>
 7    1  0.9865694E-013  0.5052895E+02  0.7816164E-02  0.1300438E+00
        -11   -1    0    0    0    0  0.00000000000E+00  0.00000000000E+00  0.45593999997E+02  0.45594000000E+02  0.51100000000E-03 0.  1.
         11   -1    0    0    0    0 -0.00000000000E+00 -0.00000000000E+00 -0.45593999997E+02  0.45594000000E+02  0.51100000000E-03 0. -1.
    9900012    2    1    2    0    0  0.17694293597E+02 -0.19046503747E+02 -0.31261809608E+02  0.50528953394E+02  0.30000284336E+02 0.  0.
        -12    1    1    2    0    0 -0.17694293597E+02  0.19046503747E+02  0.31261809608E+02  0.40659046606E+02  0.00000000000E+00 0.  1.
         11    1    3    3    0    0  0.16764106652E+02 -0.20776831868E+01 -0.21510951908E+02  0.27350924875E+02  0.51100000000E-03 0. -1.
        -11    1    3    3    0    0  0.30087962299E+01 -0.18264737759E+02 -0.91832557861E+01  0.20663631995E+02  0.51100000000E-03 0.  1.
        -12    1    3    3    0    0 -0.20786092849E+01  0.12959171990E+01 -0.56760191450E+00  0.25143965239E+01  0.00000000000E+00 0.  1.
</event>
<event>
 7    1  0.9936056E-013  0.5052884E+02  0.7816164E-02  0.1300439E+00
        -11   -1    0    0    0    0  0.00000000000E+00  0.00000000000E+00  0.45593999997E+02  0.45594000000E+02  0.51100000000E-03 0.  1.
         11   -1    0    0    0    0 -0.00000000000E+00 -0.00000000000E+00 -0.45593999997E+02  0.45594000000E+02  0.51100000000E-03 0. -1.
    9900012    2    1    2    0    0  0.32627780567E+02  0.21833241997E+02 -0.10578497954E+02  0.50528841871E+02  0.29999945350E+02 0.  0.
        -12    1    1    2    0    0 -0.32627780567E+02 -0.21833241997E+02  0.10578497954E+02  0.40659158129E+02  0.00000000000E+00 0.  1.
         11    1    3    3    0    0  0.18343437474E+02  0.92856366716E+01 -0.38009648386E+01  0.20908182148E+02  0.51100000000E-03 0. -1.
        -11    1    3    3    0    0 -0.24375584516E+01 -0.12975212769E+01  0.44059476344E+01  0.51997718688E+01  0.51100000000E-03 0.  1.
        -12    1    3    3    0    0  0.16721901545E+02  0.13845126602E+02 -0.11183480750E+02  0.24420887854E+02  0.00000000000E+00 0.  1.
</event>
