<event>
 7    1  0.2886681E-010  0.4778727E+02  0.7816164E-02  0.1312668E+00
        -11   -1    0    0    0    0  0.00000000000E+00  0.00000000000E+00  0.45593999997E+02  0.45594000000E+02  0.51100000000E-03 0.  1.
         11   -1    0    0    0    0 -0.00000000000E+00 -0.00000000000E+00 -0.45593999997E+02  0.45594000000E+02  0.51100000000E-03 0. -1.
    9900012    2    1    2    0    0 -0.33329953576E+02 -0.32586934438E+01 -0.27606497063E+02  0.47787267651E+02  0.19999984530E+02 0.  0.
        -12    1    1    2    0    0  0.33329953576E+02  0.32586934438E+01  0.27606497063E+02  0.43400732349E+02  0.00000000000E+00 0.  1.
         11    1    3    3    0    0 -0.94891011917E+01  0.73387831673E+01 -0.12326283121E+02  0.17199942896E+02  0.51100000000E-03 0. -1.
        -11    1    3    3    0    0 -0.13543297329E+02 -0.37196490831E+01 -0.70161122952E+01  0.15699761904E+02  0.51100000000E-03 0.  1.
         12    1    3    3    0    0 -0.10297555055E+02 -0.68778275280E+01 -0.82641016468E+01  0.14887562851E+02  0.00000000000E+00 0. -1.
</event>
<event>
 7    1  0.2886681E-010  0.4778727E+02  0.7816164E-02  0.1312668E+00
        -11   -1    0    0    0    0  0.00000000000E+00  0.00000000000E+00  0.45593999997E+02  0.45594000000E+02  0.51100000000E-03 0.  1.
         11   -1    0    0    0    0 -0.00000000000E+00 -0.00000000000E+00 -0.45593999997E+02  0.45594000000E+02  0.51100000000E-03 0. -1.
    9900012    2    1    2    0    0 -0.34247344034E+02  0.16886534275E+02 -0.20629775683E+02  0.47787271228E+02  0.20000000836E+02 0.  0.
        -12    1    1    2    0    0  0.34247344034E+02 -0.16886534275E+02  0.20629775683E+02  0.43400728772E+02  0.00000000000E+00 0.  1.
         11    1    3    3    0    0 -0.87674892620E+01  0.67253164026E+01 -0.37363076880E+01  0.11664422149E+02  0.51100000000E-03 0. -1.
        -11    1    3    3    0    0 -0.25153687057E+02  0.94084779427E+01 -0.19630603473E+02  0.33265417819E+02  0.51100000000E-03 0.  1.
        -12    1    3    3    0    0 -0.32616771582E+00  0.75273992925E+00  0.27371354773E+01  0.28574312592E+01  0.00000000000E+00 0.  1.
</event>
<event>
 7    1  0.2886681E-010  0.4778727E+02  0.7816164E-02  0.1312668E+00
        -11   -1    0    0    0    0  0.00000000000E+00  0.00000000000E+00  0.45593999997E+02  0.45594000000E+02  0.51100000000E-03 0.  1.
         11   -1    0    0    0    0 -0.00000000000E+00 -0.00000000000E+00 -0.45593999997E+02  0.45594000000E+02  0.51100000000E-03 0. -1.
    9900012    2    1    2    0    0  0.38167971705E+02 -0.64644296548E+01 -0.19622438177E+02  0.47787274259E+02  0.20000014655E+02 0.  0.
        -12    1    1    2    0    0 -0.38167971705E+02  0.64644296548E+01  0.19622438177E+02  0.43400725741E+02  0.00000000000E+00 0.  1.
         11    1    3    3    0    0  0.30595373237E+02 -0.37677544930E+01 -0.14075720498E+02  0.33888032478E+02  0.51100000000E-03 0. -1.
        -11    1    3    3    0    0 -0.26859526887E+00 -0.92836135110E+00  0.24053950235E+01  0.25922815621E+01  0.51100000000E-03 0.  1.
         12    1    3    3    0    0  0.78411937370E+01 -0.17683138107E+01 -0.79521127019E+01  0.11306960218E+02  0.00000000000E+00 0. -1.
</event>
<event>
 7    1  0.2886681E-010  0.4778727E+02  0.7816164E-02  0.1312668E+00
        -11   -1    0    0    0    0  0.00000000000E+00  0.00000000000E+00  0.45593999997E+02  0.45594000000E+02  0.51100000000E-03 0. -1.
         11   -1    0    0    0    0 -0.00000000000E+00 -0.00000000000E+00 -0.45593999997E+02  0.45594000000E+02  0.51100000000E-03 0.  1.
    9900012    2    1    2    0    0 -0.26495173145E+02  0.32586413453E+02  0.10943244274E+02  0.47787272622E+02  0.20000007195E+02 0.  0.
        -12    1    1    2    0    0  0.26495173145E+02 -0.32586413453E+02 -0.10943244274E+02  0.43400727378E+02  0.00000000000E+00 0.  1.
         11    1    3    3    0    0 -0.25779198320E+01  0.90552329947E+01  0.34281242431E+01  0.10019728107E+02  0.51100000000E-03 0. -1.
        -11    1    3    3    0    0  0.22144691885E+01  0.75971703100E+00  0.26518895421E+00  0.23561343758E+01  0.51100000000E-03 0.  1.
        -12    1    3    3    0    0 -0.26131722501E+02  0.22771463427E+02  0.72499310764E+01  0.35411410140E+02  0.00000000000E+00 0.  1.
</event>
<event>
 7    1  0.2886681E-010  0.4778727E+02  0.7816164E-02  0.1312668E+00
        -11   -1    0    0    0    0  0.00000000000E+00  0.00000000000E+00  0.45593999997E+02  0.45594000000E+02  0.51100000000E-03 0. -1.
         11   -1    0    0    0    0 -0.00000000000E+00 -0.00000000000E+00 -0.45593999997E+02  0.45594000000E+02  0.51100000000E-03 0.  1.
    9900012    2    1    2    0    0  0.39107219768E+02 -0.13246764058E+02  0.13370557700E+02  0.47787271790E+02  0.20000003397E+02 0.  0.
        -12    1    1    2    0    0 -0.39107219768E+02  0.13246764058E+02 -0.13370557700E+02  0.43400728210E+02  0.00000000000E+00 0.  1.
         11    1    3    3    0    0  0.10769752077E+02  0.25789010522E+01  0.21269595141E+01  0.11276623939E+02  0.51100000000E-03 0. -1.
        -11    1    3    3    0    0  0.58496516465E+01  0.34685072743E+00 -0.14571013663E+01  0.60383668707E+01  0.51100000000E-03 0.  1.
         12    1    3    3    0    0  0.22487816044E+02 -0.16172515838E+02  0.12700699552E+02  0.30472280979E+02  0.00000000000E+00 0. -1.
</event>
<event>
 7    1  0.2886681E-010  0.4778727E+02  0.7816164E-02  0.1312668E+00
        -11   -1    0    0    0    0  0.00000000000E+00  0.00000000000E+00  0.45593999997E+02  0.45594000000E+02  0.51100000000E-03 0.  1.
         11   -1    0    0    0    0 -0.00000000000E+00 -0.00000000000E+00 -0.45593999997E+02  0.45594000000E+02  0.51100000000E-03 0. -1.
    9900012    2    1    2    0    0 -0.41934529921E+02  0.24872122307E+01 -0.10905617601E+02  0.47787268213E+02  0.19999987092E+02 0.  0.
        -12    1    1    2    0    0  0.41934529921E+02 -0.24872122307E+01  0.10905617601E+02  0.43400731787E+02  0.00000000000E+00 0.  1.
         11    1    3    3    0    0 -0.48259477851E+01  0.62518606028E+01 -0.37555372553E+01  0.87452611944E+01  0.51100000000E-03 0.  1.
        -11    1    3    3    0    0  0.40969245785E+00  0.13128828439E+00  0.38431723039E+00  0.57687478566E+00  0.51100000000E-03 0. -1.
         12    1    3    3    0    0 -0.37518274593E+02 -0.38959366564E+01 -0.75343975760E+01  0.38465132233E+02  0.00000000000E+00 0. -1.
</event>
<event>
 7    1  0.2886681E-010  0.4778729E+02  0.7816164E-02  0.1312668E+00
        -11   -1    0    0    0    0  0.00000000000E+00  0.00000000000E+00  0.45593999997E+02  0.45594000000E+02  0.51100000000E-03 0. -1.
         11   -1    0    0    0    0 -0.00000000000E+00 -0.00000000000E+00 -0.45593999997E+02  0.45594000000E+02  0.51100000000E-03 0.  1.
    9900012    2    1    2    0    0 -0.33986212668E+02  0.18827815689E+02  0.19340953271E+02  0.47787288387E+02  0.20000079071E+02 0.  0.
        -12    1    1    2    0    0  0.33986212668E+02 -0.18827815689E+02 -0.19340953271E+02  0.43400711613E+02  0.00000000000E+00 0.  1.
         11    1    3    3    0    0 -0.10574599659E+02 -0.21788770990E+01  0.84196793196E+01  0.13691627495E+02  0.51100000000E-03 0. -1.
        -11    1    3    3    0    0 -0.14767097307E+02  0.17545086983E+02  0.86606431503E+01  0.24513342901E+02  0.51100000000E-03 0.  1.
         12    1    3    3    0    0 -0.86445157013E+01  0.34616058050E+01  0.22606308007E+01  0.95823179908E+01  0.00000000000E+00 0. -1.
</event>
<event>
 7    1  0.2886681E-010  0.4778727E+02  0.7816164E-02  0.1312668E+00
        -11   -1    0    0    0    0  0.00000000000E+00  0.00000000000E+00  0.45593999997E+02  0.45594000000E+02  0.51100000000E-03 0.  1.
         11   -1    0    0    0    0 -0.00000000000E+00 -0.00000000000E+00 -0.45593999997E+02  0.45594000000E+02  0.51100000000E-03 0. -1.
    9900012    2    1    2    0    0  0.27258265276E+02  0.10951015168E+02 -0.31948172483E+02  0.47787268623E+02  0.19999988960E+02 0.  0.
        -12    1    1    2    0    0 -0.27258265276E+02 -0.10951015168E+02  0.31948172483E+02  0.43400731377E+02  0.00000000000E+00 0.  1.
         11    1    3    3    0    0  0.91568913537E+01  0.56532560266E+01 -0.71291812571E+01  0.12908647823E+02  0.51100000000E-03 0. -1.
        -11    1    3    3    0    0  0.12107557051E+01 -0.47077391365E+01 -0.44769292473E+01  0.66084516266E+01  0.51100000000E-03 0.  1.
        -12    1    3    3    0    0  0.16890618217E+02  0.10005498278E+02 -0.20342061979E+02  0.28270169173E+02  0.00000000000E+00 0.  1.
</event>
<event>
 7    1  0.2886681E-010  0.4778731E+02  0.7816164E-02  0.1312668E+00
        -11   -1    0    0    0    0  0.00000000000E+00  0.00000000000E+00  0.45593999997E+02  0.45594000000E+02  0.51100000000E-03 0. -1.
         11   -1    0    0    0    0 -0.00000000000E+00 -0.00000000000E+00 -0.45593999997E+02  0.45594000000E+02  0.51100000000E-03 0.  1.
    9900012    2    1    2    0    0  0.25870722643E+02 -0.23087122264E+02  0.26101927358E+02  0.47787307421E+02  0.20000165854E+02 0.  0.
        -12    1    1    2    0    0 -0.25870722643E+02  0.23087122264E+02 -0.26101927358E+02  0.43400692579E+02  0.00000000000E+00 0.  1.
         11    1    3    3    0    0  0.56110766823E+01 -0.75331674075E+01  0.71821430029E+01  0.11824380369E+02  0.51100000000E-03 0. -1.
        -11    1    3    3    0    0  0.85334142395E+01  0.26405411592E+01  0.52213446040E+01  0.10346692995E+02  0.51100000000E-03 0.  1.
        -12    1    3    3    0    0  0.11726231722E+02 -0.18194496016E+02  0.13698439751E+02  0.25616234057E+02  0.00000000000E+00 0.  1.
</event>
<event>
 7    1  0.2886681E-010  0.4778727E+02  0.7816164E-02  0.1312668E+00
        -11   -1    0    0    0    0  0.00000000000E+00  0.00000000000E+00  0.45593999997E+02  0.45594000000E+02  0.51100000000E-03 0. -1.
         11   -1    0    0    0    0 -0.00000000000E+00 -0.00000000000E+00 -0.45593999997E+02  0.45594000000E+02  0.51100000000E-03 0.  1.
    9900012    2    1    2    0    0  0.47265452404E+01 -0.23925503282E+02  0.35900608877E+02  0.47787266654E+02  0.19999979982E+02 0.  0.
        -12    1    1    2    0    0 -0.47265452404E+01  0.23925503282E+02 -0.35900608877E+02  0.43400733346E+02  0.00000000000E+00 0.  1.
         11    1    3    3    0    0 -0.18982750775E+01  0.11696138396E+01 -0.16971260025E+00  0.22361233042E+01  0.51100000000E-03 0.  1.
        -11    1    3    3    0    0  0.64357169574E+01 -0.19733679601E+02  0.20881457835E+02  0.29442687461E+02  0.51100000000E-03 0. -1.
         12    1    3    3    0    0  0.18910336053E+00 -0.53614375207E+01  0.15188863643E+02  0.16108455889E+02  0.00000000000E+00 0. -1.
</event>
<event>
 7    1  0.2886681E-010  0.4778727E+02  0.7816164E-02  0.1312668E+00
        -11   -1    0    0    0    0  0.00000000000E+00  0.00000000000E+00  0.45593999997E+02  0.45594000000E+02  0.51100000000E-03 0.  1.
         11   -1    0    0    0    0 -0.00000000000E+00 -0.00000000000E+00 -0.45593999997E+02  0.45594000000E+02  0.51100000000E-03 0. -1.
    9900012    2    1    2    0    0  0.32026159370E+02  0.27049960575E+02 -0.11236015021E+02  0.47787270920E+02  0.19999999434E+02 0.  0.
        -12    1    1    2    0    0 -0.32026159370E+02 -0.27049960575E+02  0.11236015021E+02  0.43400729080E+02  0.00000000000E+00 0.  1.
         11    1    3    3    0    0  0.26571526281E+02  0.10514430482E+02 -0.81973302402E+01  0.29728697930E+02  0.51100000000E-03 0. -1.
        -11    1    3    3    0    0  0.75424801081E+00  0.69513673939E+01 -0.22900344301E+01  0.73576257488E+01  0.51100000000E-03 0.  1.
         12    1    3    3    0    0  0.47003850776E+01  0.95841626991E+01 -0.74865035098E+00  0.10700947242E+02  0.00000000000E+00 0. -1.
</event>
<event>
 7    1  0.2886681E-010  0.4778727E+02  0.7816164E-02  0.1312668E+00
        -11   -1    0    0    0    0  0.00000000000E+00  0.00000000000E+00  0.45593999997E+02  0.45594000000E+02  0.51100000000E-03 0.  1.
         11   -1    0    0    0    0 -0.00000000000E+00 -0.00000000000E+00 -0.45593999997E+02  0.45594000000E+02  0.51100000000E-03 0. -1.
    9900012    2    1    2    0    0 -0.41576297223E+02  0.14106326813E+00 -0.12450497237E+02  0.47787271077E+02  0.20000000149E+02 0.  0.
        -12    1    1    2    0    0  0.41576297223E+02 -0.14106326813E+00  0.12450497237E+02  0.43400728923E+02  0.00000000000E+00 0.  1.
         11    1    3    3    0    0 -0.12022457310E+02 -0.23392105253E+01 -0.56283406822E+01  0.13479228641E+02  0.51100000000E-03 0. -1.
        -11    1    3    3    0    0 -0.62089108308E+01  0.29479263057E+01 -0.84611173053E+01  0.10900979292E+02  0.51100000000E-03 0.  1.
        -12    1    3    3    0    0 -0.23344929081E+02 -0.46765251225E+00  0.16389607503E+01  0.23407063144E+02  0.00000000000E+00 0.  1.
</event>
<event>
 7    1  0.2886681E-010  0.4778727E+02  0.7816164E-02  0.1312668E+00
        -11   -1    0    0    0    0  0.00000000000E+00  0.00000000000E+00  0.45593999997E+02  0.45594000000E+02  0.51100000000E-03 0.  1.
         11   -1    0    0    0    0 -0.00000000000E+00 -0.00000000000E+00 -0.45593999997E+02  0.45594000000E+02  0.51100000000E-03 0. -1.
    9900012    2    1    2    0    0  0.48896801375E+01 -0.21546411207E+01 -0.43070546993E+02  0.47787268802E+02  0.19999989776E+02 0.  0.
        -12    1    1    2    0    0 -0.48896801375E+01  0.21546411207E+01  0.43070546993E+02  0.43400731198E+02  0.00000000000E+00 0.  1.
         11    1    3    3    0    0  0.72547549973E+01 -0.44467563100E+01 -0.16968815935E+02  0.18982777095E+02  0.51100000000E-03 0. -1.
        -11    1    3    3    0    0 -0.68883875221E+01  0.71705603463E+00 -0.19138134871E+02  0.20352696593E+02  0.51100000000E-03 0.  1.
        -12    1    3    3    0    0  0.45233126623E+01  0.15750591547E+01 -0.69635961881E+01  0.84517951142E+01  0.00000000000E+00 0.  1.
</event>
<event>
 7    1  0.2886681E-010  0.4778727E+02  0.7816164E-02  0.1312668E+00
        -11   -1    0    0    0    0  0.00000000000E+00  0.00000000000E+00  0.45593999997E+02  0.45594000000E+02  0.51100000000E-03 0. -1.
         11   -1    0    0    0    0 -0.00000000000E+00 -0.00000000000E+00 -0.45593999997E+02  0.45594000000E+02  0.51100000000E-03 0.  1.
    9900012    2    1    2    0    0  0.25499706234E+02  0.32014151994E+02  0.14438920067E+02  0.47787270068E+02  0.19999995548E+02 0.  0.
        -12    1    1    2    0    0 -0.25499706234E+02 -0.32014151994E+02 -0.14438920067E+02  0.43400729932E+02  0.00000000000E+00 0.  1.
         11    1    3    3    0    0 -0.45125527021E+00  0.57158974025E+01  0.76702607993E+01  0.95764302026E+01  0.51100000000E-03 0. -1.
        -11    1    3    3    0    0  0.94550638971E+01  0.10564973940E+02 -0.77504909210E+00  0.14199211563E+02  0.51100000000E-03 0.  1.
         12    1    3    3    0    0  0.16495897607E+02  0.15733280652E+02  0.75437083594E+01  0.24011628303E+02  0.00000000000E+00 0. -1.
</event>
<event>
 7    1  0.2886681E-010  0.4778727E+02  0.7816164E-02  0.1312668E+00
        -11   -1    0    0    0    0  0.00000000000E+00  0.00000000000E+00  0.45593999997E+02  0.45594000000E+02  0.51100000000E-03 0.  1.
         11   -1    0    0    0    0 -0.00000000000E+00 -0.00000000000E+00 -0.45593999997E+02  0.45594000000E+02  0.51100000000E-03 0. -1.
    9900012    2    1    2    0    0 -0.43077512539E+02  0.52148038945E+01 -0.87005783456E+00  0.47787271125E+02  0.20000000369E+02 0.  0.
        -12    1    1    2    0    0  0.43077512539E+02 -0.52148038945E+01  0.87005783456E+00  0.43400728875E+02  0.00000000000E+00 0.  1.
         11    1    3    3    0    0 -0.11159992624E+02 -0.20967171608E+00 -0.23857505397E+01  0.11414079178E+02  0.51100000000E-03 0. -1.
        -11    1    3    3    0    0 -0.39383107992E+01  0.46948162637E+01 -0.46754770620E+01  0.77078971010E+01  0.51100000000E-03 0.  1.
        -12    1    3    3    0    0 -0.27979209116E+02  0.72965934686E+00  0.61911697671E+01  0.28665294846E+02  0.00000000000E+00 0.  1.
</event>
<event>
 7    1  0.2886681E-010  0.4778727E+02  0.7816164E-02  0.1312668E+00
        -11   -1    0    0    0    0  0.00000000000E+00  0.00000000000E+00  0.45593999997E+02  0.45594000000E+02  0.51100000000E-03 0.  1.
         11   -1    0    0    0    0 -0.00000000000E+00 -0.00000000000E+00 -0.45593999997E+02  0.45594000000E+02  0.51100000000E-03 0. -1.
    9900012    2    1    2    0    0  0.11413070718E+02 -0.37365597718E+02 -0.18899132141E+02  0.47787271069E+02  0.20000000113E+02 0.  0.
        -12    1    1    2    0    0 -0.11413070718E+02  0.37365597718E+02  0.18899132141E+02  0.43400728931E+02  0.00000000000E+00 0.  1.
         11    1    3    3    0    0 -0.66192937814E+00 -0.12017320192E+01 -0.22229705177E+01  0.26122611912E+01  0.51100000000E-03 0. -1.
        -11    1    3    3    0    0 -0.39281964057E+01 -0.26680227841E+01 -0.86983309477E+00  0.48275959288E+01  0.51100000000E-03 0.  1.
        -12    1    3    3    0    0  0.16003196502E+02 -0.33495842914E+02 -0.15806328529E+02  0.40347413949E+02  0.00000000000E+00 0.  1.
</event>
<event>
 7    1  0.2886681E-010  0.4778727E+02  0.7816164E-02  0.1312668E+00
        -11   -1    0    0    0    0  0.00000000000E+00  0.00000000000E+00  0.45593999997E+02  0.45594000000E+02  0.51100000000E-03 0. -1.
         11   -1    0    0    0    0 -0.00000000000E+00 -0.00000000000E+00 -0.45593999997E+02  0.45594000000E+02  0.51100000000E-03 0.  1.
    9900012    2    1    2    0    0  0.32849527419E+02  0.20297672901E+02  0.19812529198E+02  0.47787270858E+02  0.19999999149E+02 0.  0.
        -12    1    1    2    0    0 -0.32849527419E+02 -0.20297672901E+02 -0.19812529198E+02  0.43400729142E+02  0.00000000000E+00 0.  1.
         11    1    3    3    0    0 -0.68572113896E+00 -0.11771107280E+01  0.23928398666E+01  0.27534498424E+01  0.51100000000E-03 0. -1.
        -11    1    3    3    0    0  0.29446603801E+02  0.16070369233E+02  0.18278378132E+02  0.38202857879E+02  0.51100000000E-03 0.  1.
        -12    1    3    3    0    0  0.40886447563E+01  0.54044143965E+01 -0.85868880051E+00  0.68309631362E+01  0.00000000000E+00 0.  1.
</event>
<event>
 7    1  0.2886681E-010  0.4778727E+02  0.7816164E-02  0.1312668E+00
        -11   -1    0    0    0    0  0.00000000000E+00  0.00000000000E+00  0.45593999997E+02  0.45594000000E+02  0.51100000000E-03 0.  1.
         11   -1    0    0    0    0 -0.00000000000E+00 -0.00000000000E+00 -0.45593999997E+02  0.45594000000E+02  0.51100000000E-03 0. -1.
    9900012    2    1    2    0    0 -0.29868333943E+02 -0.12751777507E+01 -0.31462357695E+02  0.47787269562E+02  0.19999993241E+02 0.  0.
        -12    1    1    2    0    0  0.29868333943E+02  0.12751777507E+01  0.31462357695E+02  0.43400730438E+02  0.00000000000E+00 0.  1.
         11    1    3    3    0    0 -0.17097329029E+02 -0.79464544387E+01 -0.23984705574E+02  0.30507882585E+02  0.51100000000E-03 0. -1.
        -11    1    3    3    0    0 -0.32868779539E+01  0.28742466113E+01  0.39179047153E+00  0.43838750325E+01  0.51100000000E-03 0.  1.
         12    1    3    3    0    0 -0.94841269602E+01  0.37970300768E+01 -0.78694425926E+01  0.12895511945E+02  0.00000000000E+00 0. -1.
</event>
<event>
 7    1  0.2886681E-010  0.4778727E+02  0.7816164E-02  0.1312668E+00
        -11   -1    0    0    0    0  0.00000000000E+00  0.00000000000E+00  0.45593999997E+02  0.45594000000E+02  0.51100000000E-03 0. -1.
         11   -1    0    0    0    0 -0.00000000000E+00 -0.00000000000E+00 -0.45593999997E+02  0.45594000000E+02  0.51100000000E-03 0.  1.
    9900012    2    1    2    0    0 -0.30158669635E+02 -0.30953042546E+02  0.39983583224E+01  0.47787273437E+02  0.20000010907E+02 0.  0.
        -12    1    1    2    0    0  0.30158669635E+02  0.30953042546E+02 -0.39983583224E+01  0.43400726563E+02  0.00000000000E+00 0.  1.
         11    1    3    3    0    0 -0.12089073258E+02 -0.12034508433E+02  0.47306343220E+01  0.17701807445E+02  0.51100000000E-03 0. -1.
        -11    1    3    3    0    0 -0.33667853949E+01 -0.25937354331E+01 -0.61329373685E+01  0.74616103100E+01  0.51100000000E-03 0.  1.
        -12    1    3    3    0    0 -0.14702810982E+02 -0.16324798679E+02  0.54006613689E+01  0.22623855682E+02  0.00000000000E+00 0.  1.
</event>
<event>
 7    1  0.2886681E-010  0.4778727E+02  0.7816164E-02  0.1312668E+00
        -11   -1    0    0    0    0  0.00000000000E+00  0.00000000000E+00  0.45593999997E+02  0.45594000000E+02  0.51100000000E-03 0.  1.
         11   -1    0    0    0    0 -0.00000000000E+00 -0.00000000000E+00 -0.45593999997E+02  0.45594000000E+02  0.51100000000E-03 0. -1.
    9900012    2    1    2    0    0  0.33846351431E+02  0.26359415632E+02 -0.65748628969E+01  0.47787272820E+02  0.20000008094E+02 0.  0.
        -12    1    1    2    0    0 -0.33846351431E+02 -0.26359415632E+02  0.65748628969E+01  0.43400727180E+02  0.00000000000E+00 0.  1.
         11    1    3    3    0    0  0.81435669116E+01  0.13016479135E+02 -0.53945330807E+01  0.16274132804E+02  0.51100000000E-03 0. -1.
        -11    1    3    3    0    0  0.13809814883E+02  0.11541760710E+01 -0.35860186772E+01  0.14314420691E+02  0.51100000000E-03 0.  1.
        -12    1    3    3    0    0  0.11892969637E+02  0.12188760426E+02  0.24056888610E+01  0.17198719325E+02  0.00000000000E+00 0.  1.
</event>
<event>
 7    1  0.2886681E-010  0.4778727E+02  0.7816164E-02  0.1312668E+00
        -11   -1    0    0    0    0  0.00000000000E+00  0.00000000000E+00  0.45593999997E+02  0.45594000000E+02  0.51100000000E-03 0.  1.
         11   -1    0    0    0    0 -0.00000000000E+00 -0.00000000000E+00 -0.45593999997E+02  0.45594000000E+02  0.51100000000E-03 0. -1.
    9900012    2    1    2    0    0 -0.18049617067E+02  0.20655470947E+02 -0.33633106588E+02  0.47787274026E+02  0.20000013595E+02 0.  0.
        -12    1    1    2    0    0  0.18049617067E+02 -0.20655470947E+02  0.33633106588E+02  0.43400725974E+02  0.00000000000E+00 0.  1.
         11    1    3    3    0    0 -0.59688768369E+01  0.20676274802E+02 -0.23962210244E+02  0.32207504567E+02  0.51100000000E-03 0. -1.
        -11    1    3    3    0    0 -0.32981131401E+01 -0.72973369428E+00 -0.22359434531E+01  0.40508647146E+01  0.51100000000E-03 0.  1.
         12    1    3    3    0    0 -0.87826270905E+01  0.70892983878E+00 -0.74349528904E+01  0.11528904745E+02  0.00000000000E+00 0. -1.
</event>
<event>
 7    1  0.2886681E-010  0.4778727E+02  0.7816164E-02  0.1312668E+00
        -11   -1    0    0    0    0  0.00000000000E+00  0.00000000000E+00  0.45593999997E+02  0.45594000000E+02  0.51100000000E-03 0.  1.
         11   -1    0    0    0    0 -0.00000000000E+00 -0.00000000000E+00 -0.45593999997E+02  0.45594000000E+02  0.51100000000E-03 0. -1.
    9900012    2    1    2    0    0 -0.42657967220E+02 -0.35891521006E+01 -0.71441774661E+01  0.47787268994E+02  0.19999990652E+02 0.  0.
        -12    1    1    2    0    0  0.42657967220E+02  0.35891521006E+01  0.71441774661E+01  0.43400731006E+02  0.00000000000E+00 0.  1.
         11    1    3    3    0    0 -0.22684950345E+02 -0.67343293780E+00  0.41091886288E+01  0.23063952729E+02  0.51100000000E-03 0. -1.
        -11    1    3    3    0    0 -0.13519107988E+02 -0.60538268505E+01 -0.81249793475E+01  0.16894685259E+02  0.51100000000E-03 0.  1.
        -12    1    3    3    0    0 -0.64539088877E+01  0.31381076877E+01 -0.31283867475E+01  0.78286310062E+01  0.00000000000E+00 0.  1.
</event>
<event>
 7    1  0.2886681E-010  0.4778723E+02  0.7816164E-02  0.1312668E+00
        -11   -1    0    0    0    0  0.00000000000E+00  0.00000000000E+00  0.45593999997E+02  0.45594000000E+02  0.51100000000E-03 0.  1.
         11   -1    0    0    0    0 -0.00000000000E+00 -0.00000000000E+00 -0.45593999997E+02  0.45594000000E+02  0.51100000000E-03 0. -1.
    9900012    2    1    2    0    0 -0.31848784573E+02  0.28570141490E+02 -0.72820778580E+01  0.47787231326E+02  0.19999818909E+02 0.  0.
        -12    1    1    2    0    0  0.31848784573E+02 -0.28570141490E+02  0.72820778580E+01  0.43400768674E+02  0.00000000000E+00 0.  1.
         11    1    3    3    0    0 -0.70280643736E+01  0.89270102975E+01 -0.20816614040E+01  0.11550693319E+02  0.51100000000E-03 0. -1.
        -11    1    3    3    0    0 -0.24261374511E+02  0.15898535647E+02  0.94107834738E+00  0.29021773853E+02  0.51100000000E-03 0.  1.
        -12    1    3    3    0    0 -0.55934568830E+00  0.37445955460E+01 -0.61414948014E+01  0.72147641540E+01  0.00000000000E+00 0.  1.
</event>
<event>
 7    1  0.2886681E-010  0.4778727E+02  0.7816164E-02  0.1312668E+00
        -11   -1    0    0    0    0  0.00000000000E+00  0.00000000000E+00  0.45593999997E+02  0.45594000000E+02  0.51100000000E-03 0.  1.
         11   -1    0    0    0    0 -0.00000000000E+00 -0.00000000000E+00 -0.45593999997E+02  0.45594000000E+02  0.51100000000E-03 0. -1.
    9900012    2    1    2    0    0 -0.13846503382E+02 -0.40118157500E+02  0.90791455739E+01  0.47787273031E+02  0.20000009057E+02 0.  0.
        -12    1    1    2    0    0  0.13846503382E+02  0.40118157500E+02 -0.90791455739E+01  0.43400726969E+02  0.00000000000E+00 0.  1.
         11    1    3    3    0    0 -0.21851768087E+01 -0.16018938658E+02 -0.36622719414E+01  0.16576900478E+02  0.51100000000E-03 0. -1.
        -11    1    3    3    0    0 -0.30967676977E+01 -0.24329876103E+01  0.55937250829E+01  0.68409911160E+01  0.51100000000E-03 0.  1.
         12    1    3    3    0    0 -0.85645588752E+01 -0.21666231231E+02  0.71476924324E+01  0.24369381437E+02  0.00000000000E+00 0. -1.
</event>
<event>
 7    1  0.2886681E-010  0.4778727E+02  0.7816164E-02  0.1312668E+00
        -11   -1    0    0    0    0  0.00000000000E+00  0.00000000000E+00  0.45593999997E+02  0.45594000000E+02  0.51100000000E-03 0.  1.
         11   -1    0    0    0    0 -0.00000000000E+00 -0.00000000000E+00 -0.45593999997E+02  0.45594000000E+02  0.51100000000E-03 0. -1.
    9900012    2    1    2    0    0  0.29857499061E+02  0.13312305478E+02 -0.28547071722E+02  0.47787273840E+02  0.20000012747E+02 0.  0.
        -12    1    1    2    0    0 -0.29857499061E+02 -0.13312305478E+02  0.28547071722E+02  0.43400726160E+02  0.00000000000E+00 0.  1.
         11    1    3    3    0    0  0.97651203054E+01  0.27262394322E+01 -0.59161735953E+01  0.11738443947E+02  0.51100000000E-03 0. -1.
        -11    1    3    3    0    0  0.11503350068E+02  0.14644825233E+01 -0.17924588019E+01  0.11733911567E+02  0.51100000000E-03 0.  1.
        -12    1    3    3    0    0  0.85890286884E+01  0.91215835223E+01 -0.20838439324E+02  0.24314918327E+02  0.00000000000E+00 0.  1.
</event>
<event>
 7    1  0.2886681E-010  0.4778727E+02  0.7816164E-02  0.1312668E+00
        -11   -1    0    0    0    0  0.00000000000E+00  0.00000000000E+00  0.45593999997E+02  0.45594000000E+02  0.51100000000E-03 0.  1.
         11   -1    0    0    0    0 -0.00000000000E+00 -0.00000000000E+00 -0.45593999997E+02  0.45594000000E+02  0.51100000000E-03 0. -1.
    9900012    2    1    2    0    0 -0.16415263340E+02 -0.38532027384E+02 -0.11377407909E+02  0.47787269412E+02  0.19999992558E+02 0.  0.
        -12    1    1    2    0    0  0.16415263340E+02  0.38532027384E+02  0.11377407909E+02  0.43400730588E+02  0.00000000000E+00 0.  1.
         11    1    3    3    0    0 -0.15139329899E+02 -0.27827497786E+02 -0.59553494020E+01  0.32234067841E+02  0.51100000000E-03 0. -1.
        -11    1    3    3    0    0  0.30916905254E+01 -0.45064291092E+01 -0.57900957073E+01  0.79618881041E+01  0.51100000000E-03 0.  1.
         12    1    3    3    0    0 -0.43676239661E+01 -0.61981004884E+01  0.36803719990E+00  0.75913134670E+01  0.00000000000E+00 0. -1.
</event>
<event>
 7    1  0.2886681E-010  0.4778726E+02  0.7816164E-02  0.1312668E+00
        -11   -1    0    0    0    0  0.00000000000E+00  0.00000000000E+00  0.45593999997E+02  0.45594000000E+02  0.51100000000E-03 0. -1.
         11   -1    0    0    0    0 -0.00000000000E+00 -0.00000000000E+00 -0.45593999997E+02  0.45594000000E+02  0.51100000000E-03 0.  1.
    9900012    2    1    2    0    0 -0.42645297808E+02  0.64272622393E+01 -0.48675654541E+01  0.47787259010E+02  0.19999945129E+02 0.  0.
        -12    1    1    2    0    0  0.42645297808E+02 -0.64272622393E+01  0.48675654541E+01  0.43400740990E+02  0.00000000000E+00 0.  1.
         11    1    3    3    0    0 -0.21557742687E+02  0.81495512612E+01  0.10007328759E+01  0.23068439957E+02  0.51100000000E-03 0. -1.
        -11    1    3    3    0    0 -0.38910350227E+01 -0.43526379245E+01 -0.43016748973E+01  0.72518975194E+01  0.51100000000E-03 0.  1.
        -12    1    3    3    0    0 -0.17196520099E+02  0.26303489026E+01 -0.15666234327E+01  0.17466921533E+02  0.00000000000E+00 0.  1.
</event>
<event>
 7    1  0.2886681E-010  0.4778727E+02  0.7816164E-02  0.1312668E+00
        -11   -1    0    0    0    0  0.00000000000E+00  0.00000000000E+00  0.45593999997E+02  0.45594000000E+02  0.51100000000E-03 0.  1.
         11   -1    0    0    0    0 -0.00000000000E+00 -0.00000000000E+00 -0.45593999997E+02  0.45594000000E+02  0.51100000000E-03 0. -1.
    9900012    2    1    2    0    0 -0.10027716153E+02  0.29486014295E+02 -0.30226533991E+02  0.47787268585E+02  0.19999988785E+02 0.  0.
        -12    1    1    2    0    0  0.10027716153E+02 -0.29486014295E+02  0.30226533991E+02  0.43400731415E+02  0.00000000000E+00 0.  1.
         11    1    3    3    0    0  0.14698702527E+01  0.11852432148E+01 -0.65804299121E+01  0.68459753233E+01  0.51100000000E-03 0. -1.
        -11    1    3    3    0    0 -0.30045192548E+01  0.17714734268E+02 -0.65757775099E+01  0.19133211865E+02  0.51100000000E-03 0.  1.
        -12    1    3    3    0    0 -0.84930671509E+01  0.10586036812E+02 -0.17070326569E+02  0.21808081397E+02  0.00000000000E+00 0.  1.
</event>
<event>
 7    1  0.2886681E-010  0.4778726E+02  0.7816164E-02  0.1312668E+00
        -11   -1    0    0    0    0  0.00000000000E+00  0.00000000000E+00  0.45593999997E+02  0.45594000000E+02  0.51100000000E-03 0. -1.
         11   -1    0    0    0    0 -0.00000000000E+00 -0.00000000000E+00 -0.45593999997E+02  0.45594000000E+02  0.51100000000E-03 0.  1.
    9900012    2    1    2    0    0 -0.45105674466E+01  0.41738525827E+02  0.11007938550E+02  0.47787257287E+02  0.19999937275E+02 0.  0.
        -12    1    1    2    0    0  0.45105674466E+01 -0.41738525827E+02 -0.11007938550E+02  0.43400742713E+02  0.00000000000E+00 0.  1.
         11    1    3    3    0    0 -0.69407755897E+01  0.26146390801E+02  0.16219398545E+01  0.27100531486E+02  0.51100000000E-03 0. -1.
        -11    1    3    3    0    0 -0.13879791300E+01 -0.74421305405E+00  0.13962464633E+01  0.21047193596E+01  0.51100000000E-03 0.  1.
         12    1    3    3    0    0  0.38181872731E+01  0.16336348080E+02  0.79897522318E+01  0.18582006441E+02  0.00000000000E+00 0. -1.
</event>
<event>
 7    1  0.2886681E-010  0.4778727E+02  0.7816164E-02  0.1312668E+00
        -11   -1    0    0    0    0  0.00000000000E+00  0.00000000000E+00  0.45593999997E+02  0.45594000000E+02  0.51100000000E-03 0. -1.
         11   -1    0    0    0    0 -0.00000000000E+00 -0.00000000000E+00 -0.45593999997E+02  0.45594000000E+02  0.51100000000E-03 0.  1.
    9900012    2    1    2    0    0  0.24934537991E+02 -0.28242060727E+02  0.21547111544E+02  0.47787271955E+02  0.20000004151E+02 0.  0.
        -12    1    1    2    0    0 -0.24934537991E+02  0.28242060727E+02 -0.21547111544E+02  0.43400728045E+02  0.00000000000E+00 0.  1.
         11    1    3    3    0    0  0.16030668673E+02 -0.14316680198E+02  0.17179657172E+02  0.27515273774E+02  0.51100000000E-03 0. -1.
        -11    1    3    3    0    0  0.97140619609E+01 -0.12847210056E+02  0.43227241823E+00  0.16112127908E+02  0.51100000000E-03 0.  1.
        -12    1    3    3    0    0 -0.81019264338E+00 -0.10781704731E+01  0.39351819534E+01  0.41598702738E+01  0.00000000000E+00 0.  1.
</event>
<event>
 7    1  0.2886681E-010  0.4778727E+02  0.7816164E-02  0.1312668E+00
        -11   -1    0    0    0    0  0.00000000000E+00  0.00000000000E+00  0.45593999997E+02  0.45594000000E+02  0.51100000000E-03 0.  1.
         11   -1    0    0    0    0 -0.00000000000E+00 -0.00000000000E+00 -0.45593999997E+02  0.45594000000E+02  0.51100000000E-03 0. -1.
    9900012    2    1    2    0    0  0.31129623925E+01  0.43195111850E+02 -0.28487233249E+01  0.47787269048E+02  0.19999990896E+02 0.  0.
        -12    1    1    2    0    0 -0.31129623925E+01 -0.43195111850E+02  0.28487233249E+01  0.43400730952E+02  0.00000000000E+00 0.  1.
         11    1    3    3    0    0 -0.15722067313E+01  0.26973528540E+02  0.29255041473E+01  0.27177226692E+02  0.51100000000E-03 0. -1.
        -11    1    3    3    0    0  0.73383333845E+01  0.14840600078E+02 -0.60023516683E+01  0.17610303045E+02  0.51100000000E-03 0.  1.
        -12    1    3    3    0    0 -0.26531642607E+01  0.13809832332E+01  0.22812419606E+00  0.29997393109E+01  0.00000000000E+00 0.  1.
</event>
<event>
 7    1  0.2886681E-010  0.4778728E+02  0.7816164E-02  0.1312668E+00
        -11   -1    0    0    0    0  0.00000000000E+00  0.00000000000E+00  0.45593999997E+02  0.45594000000E+02  0.51100000000E-03 0.  1.
         11   -1    0    0    0    0 -0.00000000000E+00 -0.00000000000E+00 -0.45593999997E+02  0.45594000000E+02  0.51100000000E-03 0. -1.
    9900012    2    1    2    0    0  0.29872516879E+02 -0.30982932000E+02 -0.55958321055E+01  0.47787277921E+02  0.20000031355E+02 0.  0.
        -12    1    1    2    0    0 -0.29872516879E+02  0.30982932000E+02  0.55958321055E+01  0.43400722079E+02  0.00000000000E+00 0.  1.
         11    1    3    3    0    0  0.12291461497E+02 -0.16953014624E+02 -0.68205917599E+00  0.20951132083E+02  0.51100000000E-03 0. -1.
        -11    1    3    3    0    0  0.17704491598E+02 -0.15085823216E+02 -0.71715974468E+01  0.24340560697E+02  0.51100000000E-03 0.  1.
        -12    1    3    3    0    0 -0.12343621679E+00  0.10559058406E+01  0.22578245173E+01  0.24955851408E+01  0.00000000000E+00 0.  1.
</event>
<event>
 7    1  0.2886681E-010  0.4778727E+02  0.7816164E-02  0.1312668E+00
        -11   -1    0    0    0    0  0.00000000000E+00  0.00000000000E+00  0.45593999997E+02  0.45594000000E+02  0.51100000000E-03 0.  1.
         11   -1    0    0    0    0 -0.00000000000E+00 -0.00000000000E+00 -0.45593999997E+02  0.45594000000E+02  0.51100000000E-03 0. -1.
    9900012    2    1    2    0    0 -0.61675560353E+01  0.11778010967E+02 -0.41314198389E+02  0.47787270993E+02  0.19999999768E+02 0.  0.
        -12    1    1    2    0    0  0.61675560353E+01 -0.11778010967E+02  0.41314198389E+02  0.43400729007E+02  0.00000000000E+00 0.  1.
         11    1    3    3    0    0 -0.22919221452E+01  0.70468006422E+01 -0.18042890033E+02  0.19505286140E+02  0.51100000000E-03 0. -1.
        -11    1    3    3    0    0 -0.54705331608E+01  0.94361450841E+01 -0.13831177659E+02  0.17614455507E+02  0.51100000000E-03 0.  1.
        -12    1    3    3    0    0  0.15948992707E+01 -0.47049347596E+01 -0.94401306977E+01  0.10667529347E+02  0.00000000000E+00 0.  1.
</event>
<event>
 7    1  0.2886681E-010  0.4778727E+02  0.7816164E-02  0.1312668E+00
        -11   -1    0    0    0    0  0.00000000000E+00  0.00000000000E+00  0.45593999997E+02  0.45594000000E+02  0.51100000000E-03 0.  1.
         11   -1    0    0    0    0 -0.00000000000E+00 -0.00000000000E+00 -0.45593999997E+02  0.45594000000E+02  0.51100000000E-03 0. -1.
    9900012    2    1    2    0    0  0.14308604847E+02 -0.23981324951E+02 -0.33223233076E+02  0.47787270339E+02  0.19999996783E+02 0.  0.
        -12    1    1    2    0    0 -0.14308604847E+02  0.23981324951E+02  0.33223233076E+02  0.43400729661E+02  0.00000000000E+00 0.  1.
         11    1    3    3    0    0  0.10877848752E+02 -0.81207261278E+01 -0.12196160590E+02  0.18248838859E+02  0.51100000000E-03 0. -1.
        -11    1    3    3    0    0 -0.35756491179E+01 -0.98118669348E+01 -0.64609702067E+01  0.12280152101E+02  0.51100000000E-03 0.  1.
        -12    1    3    3    0    0  0.70064052123E+01 -0.60487318884E+01 -0.14566102280E+02  0.17258279378E+02  0.00000000000E+00 0.  1.
</event>
<event>
 7    1  0.2886681E-010  0.4778729E+02  0.7816164E-02  0.1312668E+00
        -11   -1    0    0    0    0  0.00000000000E+00  0.00000000000E+00  0.45593999997E+02  0.45594000000E+02  0.51100000000E-03 0. -1.
         11   -1    0    0    0    0 -0.00000000000E+00 -0.00000000000E+00 -0.45593999997E+02  0.45594000000E+02  0.51100000000E-03 0.  1.
    9900012    2    1    2    0    0 -0.30397738656E+02  0.17852794167E+02  0.25315538058E+02  0.47787294451E+02  0.20000106720E+02 0.  0.
        -12    1    1    2    0    0  0.30397738656E+02 -0.17852794167E+02 -0.25315538058E+02  0.43400705549E+02  0.00000000000E+00 0.  1.
         11    1    3    3    0    0 -0.14201882087E+02  0.43811553820E+01  0.12056224960E+02  0.19137411994E+02  0.51100000000E-03 0. -1.
        -11    1    3    3    0    0 -0.15247800549E+02  0.15887186225E+02  0.92726889429E+01  0.23893113406E+02  0.51100000000E-03 0.  1.
        -12    1    3    3    0    0 -0.94805601982E+00 -0.24155474398E+01  0.39866241549E+01  0.47567690509E+01  0.00000000000E+00 0.  1.
</event>
<event>
 7    1  0.2886681E-010  0.4778727E+02  0.7816164E-02  0.1312668E+00
        -11   -1    0    0    0    0  0.00000000000E+00  0.00000000000E+00  0.45593999997E+02  0.45594000000E+02  0.51100000000E-03 0.  1.
         11   -1    0    0    0    0 -0.00000000000E+00 -0.00000000000E+00 -0.45593999997E+02  0.45594000000E+02  0.51100000000E-03 0. -1.
    9900012    2    1    2    0    0  0.30503545593E+02  0.30252276596E+01 -0.30724659454E+02  0.47787274261E+02  0.20000014666E+02 0.  0.
        -12    1    1    2    0    0 -0.30503545593E+02 -0.30252276596E+01  0.30724659454E+02  0.43400725739E+02  0.00000000000E+00 0.  1.
         11    1    3    3    0    0  0.11289116472E+02  0.50702472732E+01 -0.21456790408E+02  0.24769848869E+02  0.51100000000E-03 0. -1.
        -11    1    3    3    0    0  0.18737533678E+02 -0.22120219259E+01 -0.61290303490E+01  0.19838175890E+02  0.51100000000E-03 0.  1.
        -12    1    3    3    0    0  0.47689544257E+00  0.16700231224E+00 -0.31388386965E+01  0.31792495023E+01  0.00000000000E+00 0.  1.
</event>
<event>
 7    1  0.2886681E-010  0.4778727E+02  0.7816164E-02  0.1312668E+00
        -11   -1    0    0    0    0  0.00000000000E+00  0.00000000000E+00  0.45593999997E+02  0.45594000000E+02  0.51100000000E-03 0.  1.
         11   -1    0    0    0    0 -0.00000000000E+00 -0.00000000000E+00 -0.45593999997E+02  0.45594000000E+02  0.51100000000E-03 0. -1.
    9900012    2    1    2    0    0  0.39513493344E+02  0.11602241288E+02 -0.13700196234E+02  0.47787268025E+02  0.19999986233E+02 0.  0.
        -12    1    1    2    0    0 -0.39513493344E+02 -0.11602241288E+02  0.13700196234E+02  0.43400731975E+02  0.00000000000E+00 0.  1.
         11    1    3    3    0    0  0.22366571150E+02  0.84961970404E+01 -0.87044859234E+01  0.25460104961E+02  0.51100000000E-03 0. -1.
        -11    1    3    3    0    0  0.44954825035E+01 -0.50046000619E+01 -0.13059143281E+01  0.68527948468E+01  0.51100000000E-03 0.  1.
        -12    1    3    3    0    0  0.12651439690E+02  0.81106443092E+01 -0.36897959821E+01  0.15474368218E+02  0.00000000000E+00 0.  1.
</event>
<event>
 7    1  0.2886681E-010  0.4778727E+02  0.7816164E-02  0.1312668E+00
        -11   -1    0    0    0    0  0.00000000000E+00  0.00000000000E+00  0.45593999997E+02  0.45594000000E+02  0.51100000000E-03 0.  1.
         11   -1    0    0    0    0 -0.00000000000E+00 -0.00000000000E+00 -0.45593999997E+02  0.45594000000E+02  0.51100000000E-03 0. -1.
    9900012    2    1    2    0    0  0.21046780637E+02 -0.14528936135E+02 -0.35065175858E+02  0.47787268228E+02  0.19999987158E+02 0.  0.
        -12    1    1    2    0    0 -0.21046780637E+02  0.14528936135E+02  0.35065175858E+02  0.43400731772E+02  0.00000000000E+00 0.  1.
         11    1    3    3    0    0  0.11937837040E+02 -0.30320133947E+01 -0.24299695846E+02  0.27242985829E+02  0.51100000000E-03 0. -1.
        -11    1    3    3    0    0  0.94850004809E+01 -0.10367896550E+02 -0.12249832026E+02  0.18641805114E+02  0.51100000000E-03 0.  1.
         12    1    3    3    0    0 -0.37605688406E+00 -0.11290261906E+01  0.14843520134E+01  0.19024772847E+01  0.00000000000E+00 0. -1.
</event>
<event>
 7    1  0.2886681E-010  0.4778727E+02  0.7816164E-02  0.1312668E+00
        -11   -1    0    0    0    0  0.00000000000E+00  0.00000000000E+00  0.45593999997E+02  0.45594000000E+02  0.51100000000E-03 0.  1.
         11   -1    0    0    0    0 -0.00000000000E+00 -0.00000000000E+00 -0.45593999997E+02  0.45594000000E+02  0.51100000000E-03 0. -1.
    9900012    2    1    2    0    0  0.31032605234E+01 -0.41096649735E+02 -0.13603617393E+02  0.47787271303E+02  0.20000001178E+02 0.  0.
        -12    1    1    2    0    0 -0.31032605234E+01  0.41096649735E+02  0.13603617393E+02  0.43400728697E+02  0.00000000000E+00 0.  1.
         11    1    3    3    0    0 -0.24791926961E+01 -0.16939086252E+02 -0.11901603722E+02  0.20850112971E+02  0.51100000000E-03 0. -1.
        -11    1    3    3    0    0  0.52448708429E+01 -0.72325508199E+01  0.29024408047E+01  0.93937545427E+01  0.51100000000E-03 0.  1.
        -12    1    3    3    0    0  0.33758237653E+00 -0.16925012663E+02 -0.46044544749E+01  0.17543403789E+02  0.00000000000E+00 0.  1.
</event>
<event>
 7    1  0.2886681E-010  0.4778727E+02  0.7816164E-02  0.1312668E+00
        -11   -1    0    0    0    0  0.00000000000E+00  0.00000000000E+00  0.45593999997E+02  0.45594000000E+02  0.51100000000E-03 0.  1.
         11   -1    0    0    0    0 -0.00000000000E+00 -0.00000000000E+00 -0.45593999997E+02  0.45594000000E+02  0.51100000000E-03 0. -1.
    9900012    2    1    2    0    0  0.37912980690E+02  0.20178817932E+02  0.62485593870E+01  0.47787270832E+02  0.19999999032E+02 0.  0.
        -12    1    1    2    0    0 -0.37912980690E+02 -0.20178817932E+02 -0.62485593870E+01  0.43400729168E+02  0.00000000000E+00 0.  1.
         11    1    3    3    0    0  0.12121859505E+02  0.51795458615E+01  0.11150648860E+01  0.13229155043E+02  0.51100000000E-03 0. -1.
        -11    1    3    3    0    0  0.13399280526E+02 -0.16234267211E+00 -0.23323134983E+01  0.13601719019E+02  0.51100000000E-03 0.  1.
        -12    1    3    3    0    0  0.12391840658E+02  0.15161614742E+02  0.74658079993E+01  0.20956396769E+02  0.00000000000E+00 0.  1.
</event>
<event>
 7    1  0.2886681E-010  0.4778727E+02  0.7816164E-02  0.1312668E+00
        -11   -1    0    0    0    0  0.00000000000E+00  0.00000000000E+00  0.45593999997E+02  0.45594000000E+02  0.51100000000E-03 0. -1.
         11   -1    0    0    0    0 -0.00000000000E+00 -0.00000000000E+00 -0.45593999997E+02  0.45594000000E+02  0.51100000000E-03 0.  1.
    9900012    2    1    2    0    0 -0.22589553407E+02 -0.67574469444E+00  0.37052374906E+02  0.47787273737E+02  0.20000012275E+02 0.  0.
        -12    1    1    2    0    0  0.22589553407E+02  0.67574469444E+00 -0.37052374906E+02  0.43400726263E+02  0.00000000000E+00 0.  1.
         11    1    3    3    0    0 -0.21562599347E+02 -0.39816050549E+01  0.27165515903E+02  0.34910802396E+02  0.51100000000E-03 0. -1.
        -11    1    3    3    0    0  0.29946249078E+01 -0.74156120132E-01  0.35176994626E+01  0.46203341047E+01  0.51100000000E-03 0.  1.
        -12    1    3    3    0    0 -0.40215789679E+01  0.33800164806E+01  0.63691595404E+01  0.82561372358E+01  0.00000000000E+00 0.  1.
</event>
<event>
 7    1  0.2886681E-010  0.4778727E+02  0.7816164E-02  0.1312668E+00
        -11   -1    0    0    0    0  0.00000000000E+00  0.00000000000E+00  0.45593999997E+02  0.45594000000E+02  0.51100000000E-03 0.  1.
         11   -1    0    0    0    0 -0.00000000000E+00 -0.00000000000E+00 -0.45593999997E+02  0.45594000000E+02  0.51100000000E-03 0. -1.
    9900012    2    1    2    0    0 -0.24205135338E+02  0.36016420256E+02  0.74300598950E+00  0.47787272325E+02  0.20000005839E+02 0.  0.
        -12    1    1    2    0    0  0.24205135338E+02 -0.36016420256E+02 -0.74300598950E+00  0.43400727675E+02  0.00000000000E+00 0.  1.
         11    1    3    3    0    0 -0.15282733999E+02  0.30102035271E+02 -0.61298833327E+01  0.34311367736E+02  0.51100000000E-03 0. -1.
        -11    1    3    3    0    0 -0.66120981878E+01  0.27412624669E+01  0.24570570719E+01  0.75677930781E+01  0.51100000000E-03 0.  1.
         12    1    3    3    0    0 -0.23103031514E+01  0.31731225179E+01  0.44158322503E+01  0.59081115111E+01  0.00000000000E+00 0. -1.
</event>
<event>
 7    1 -0.2886681E-010  0.4778727E+02  0.7816164E-02  0.1312668E+00
        -11   -1    0    0    0    0  0.00000000000E+00  0.00000000000E+00  0.45593999997E+02  0.45594000000E+02  0.51100000000E-03 0.  1.
         11   -1    0    0    0    0 -0.00000000000E+00 -0.00000000000E+00 -0.45593999997E+02  0.45594000000E+02  0.51100000000E-03 0. -1.
    9900012    2    1    2    0    0 -0.27332737008E+02  0.20897972600E+02 -0.26454097977E+02  0.47787273383E+02  0.20000010661E+02 0.  0.
        -12    1    1    2    0    0  0.27332737008E+02 -0.20897972600E+02  0.26454097977E+02  0.43400726617E+02  0.00000000000E+00 0.  1.
         11    1    3    3    0    0 -0.12023587189E+02  0.75385430971E+01 -0.10235230832E+01  0.14228277502E+02  0.51100000000E-03 0. -1.
        -11    1    3    3    0    0 -0.55092686528E+01  0.23044479185E+00 -0.64384642721E+01  0.84769669301E+01  0.51100000000E-03 0.  1.
         12    1    3    3    0    0 -0.97998811667E+01  0.13128984711E+02 -0.18992110622E+02  0.25082028951E+02  0.00000000000E+00 0. -1.
</event>
<event>
 7    1  0.2886681E-010  0.4778727E+02  0.7816164E-02  0.1312668E+00
        -11   -1    0    0    0    0  0.00000000000E+00  0.00000000000E+00  0.45593999997E+02  0.45594000000E+02  0.51100000000E-03 0.  1.
         11   -1    0    0    0    0 -0.00000000000E+00 -0.00000000000E+00 -0.45593999997E+02  0.45594000000E+02  0.51100000000E-03 0. -1.
    9900012    2    1    2    0    0  0.40105509585E+01  0.39271692872E+02  0.18035331437E+02  0.47787267747E+02  0.19999984967E+02 0.  0.
        -12    1    1    2    0    0 -0.40105509585E+01 -0.39271692872E+02 -0.18035331437E+02  0.43400732253E+02  0.00000000000E+00 0.  1.
         11    1    3    3    0    0  0.77157262305E+01  0.29636403229E+02  0.12285473327E+02  0.32996691997E+02  0.51100000000E-03 0. -1.
        -11    1    3    3    0    0 -0.10424726497E+00  0.48511900973E+01 -0.17814492186E+01  0.51689916262E+01  0.51100000000E-03 0.  1.
         12    1    3    3    0    0 -0.36009280070E+01  0.47840995456E+01  0.75313073289E+01  0.96215841241E+01  0.00000000000E+00 0. -1.
</event>
<event>
 7    1 -0.2886681E-010  0.4778727E+02  0.7816164E-02  0.1312668E+00
        -11   -1    0    0    0    0  0.00000000000E+00  0.00000000000E+00  0.45593999997E+02  0.45594000000E+02  0.51100000000E-03 0.  1.
         11   -1    0    0    0    0 -0.00000000000E+00 -0.00000000000E+00 -0.45593999997E+02  0.45594000000E+02  0.51100000000E-03 0. -1.
    9900012    2    1    2    0    0  0.34754116951E+02  0.25992889737E+02  0.37976897723E+00  0.47787272052E+02  0.20000004595E+02 0.  0.
        -12    1    1    2    0    0 -0.34754116951E+02 -0.25992889737E+02 -0.37976897723E+00  0.43400727948E+02  0.00000000000E+00 0.  1.
         11    1    3    3    0    0  0.18606123487E+02  0.14194542518E+02  0.24746163209E+00  0.23403719919E+02  0.51100000000E-03 0. -1.
        -11    1    3    3    0    0  0.18429975844E+01  0.88996994622E+01 -0.27716412243E+01  0.95017517306E+01  0.51100000000E-03 0.  1.
        -12    1    3    3    0    0  0.14304995879E+02  0.28986477566E+01  0.29039485695E+01  0.14881800402E+02  0.00000000000E+00 0.  1.
</event>
<event>
 7    1  0.2886681E-010  0.4778727E+02  0.7816164E-02  0.1312668E+00
        -11   -1    0    0    0    0  0.00000000000E+00  0.00000000000E+00  0.45593999997E+02  0.45594000000E+02  0.51100000000E-03 0. -1.
         11   -1    0    0    0    0 -0.00000000000E+00 -0.00000000000E+00 -0.45593999997E+02  0.45594000000E+02  0.51100000000E-03 0.  1.
    9900012    2    1    2    0    0 -0.33282702143E+01 -0.24190424778E+01  0.43205255686E+02  0.47787271112E+02  0.20000000306E+02 0.  0.
        -12    1    1    2    0    0  0.33282702143E+01  0.24190424778E+01 -0.43205255686E+02  0.43400728888E+02  0.00000000000E+00 0.  1.
         11    1    3    3    0    0 -0.69729659702E+01 -0.82111930261E+01  0.18557929419E+02  0.21457928369E+02  0.51100000000E-03 0.  1.
        -11    1    3    3    0    0  0.43513818233E+01  0.10646192525E+01  0.11920482518E+02  0.12734435270E+02  0.51100000000E-03 0. -1.
         12    1    3    3    0    0 -0.70668606738E+00  0.47275312958E+01  0.12726843750E+02  0.13594907472E+02  0.00000000000E+00 0. -1.
</event>
<event>
 7    1  0.2886681E-010  0.4778729E+02  0.7816164E-02  0.1312668E+00
        -11   -1    0    0    0    0  0.00000000000E+00  0.00000000000E+00  0.45593999997E+02  0.45594000000E+02  0.51100000000E-03 0.  1.
         11   -1    0    0    0    0 -0.00000000000E+00 -0.00000000000E+00 -0.45593999997E+02  0.45594000000E+02  0.51100000000E-03 0. -1.
    9900012    2    1    2    0    0  0.33422103557E+02  0.64087174388E+01 -0.26935353670E+02  0.47787286380E+02  0.20000069920E+02 0.  0.
        -12    1    1    2    0    0 -0.33422103557E+02 -0.64087174388E+01  0.26935353670E+02  0.43400713620E+02  0.00000000000E+00 0.  1.
         11    1    3    3    0    0  0.19379134325E+02 -0.46107003794E+01 -0.13749712824E+02  0.24204627826E+02  0.51100000000E-03 0. -1.
        -11    1    3    3    0    0  0.14781951715E+02  0.92976496656E+01 -0.12845104665E+02  0.21678309434E+02  0.51100000000E-03 0.  1.
         12    1    3    3    0    0 -0.73898248221E+00  0.17217681526E+01 -0.34053618059E+00  0.19043491199E+01  0.00000000000E+00 0. -1.
</event>
<event>
 7    1  0.2886681E-010  0.4778727E+02  0.7816164E-02  0.1312668E+00
        -11   -1    0    0    0    0  0.00000000000E+00  0.00000000000E+00  0.45593999997E+02  0.45594000000E+02  0.51100000000E-03 0.  1.
         11   -1    0    0    0    0 -0.00000000000E+00 -0.00000000000E+00 -0.45593999997E+02  0.45594000000E+02  0.51100000000E-03 0. -1.
    9900012    2    1    2    0    0  0.89275724895E+01  0.20035462686E+02 -0.37449995139E+02  0.47787268998E+02  0.19999990667E+02 0.  0.
        -12    1    1    2    0    0 -0.89275724895E+01 -0.20035462686E+02  0.37449995139E+02  0.43400731002E+02  0.00000000000E+00 0.  1.
         11    1    3    3    0    0 -0.22038684751E+01  0.92482391127E+01 -0.24544214207E+02  0.26321197052E+02  0.51100000000E-03 0. -1.
        -11    1    3    3    0    0  0.10224660569E+02  0.98077969315E+01 -0.13864077867E+02  0.19822946798E+02  0.51100000000E-03 0.  1.
        -12    1    3    3    0    0  0.90678039609E+00  0.97942664193E+00  0.95829693513E+00  0.16431251473E+01  0.00000000000E+00 0.  1.
</event>
<event>
 7    1  0.2886681E-010  0.4778727E+02  0.7816164E-02  0.1312668E+00
        -11   -1    0    0    0    0  0.00000000000E+00  0.00000000000E+00  0.45593999997E+02  0.45594000000E+02  0.51100000000E-03 0. -1.
         11   -1    0    0    0    0 -0.00000000000E+00 -0.00000000000E+00 -0.45593999997E+02  0.45594000000E+02  0.51100000000E-03 0.  1.
    9900012    2    1    2    0    0 -0.90973645192E+01  0.42004443005E+02  0.60405573807E+01  0.47787267208E+02  0.19999982510E+02 0.  0.
        -12    1    1    2    0    0  0.90973645192E+01 -0.42004443005E+02 -0.60405573807E+01  0.43400732792E+02  0.00000000000E+00 0.  1.
         11    1    3    3    0    0  0.47220546969E+01  0.66482452157E+01 -0.25602522390E+00  0.81585853053E+01  0.51100000000E-03 0.  1.
        -11    1    3    3    0    0 -0.48434113199E+01  0.24765230688E+02  0.36814328837E+01  0.25501533926E+02  0.51100000000E-03 0. -1.
         12    1    3    3    0    0 -0.89760078962E+01  0.10590967102E+02  0.26151497209E+01  0.14127147977E+02  0.00000000000E+00 0. -1.
</event>
<event>
 7    1  0.2886681E-010  0.4778727E+02  0.7816164E-02  0.1312668E+00
        -11   -1    0    0    0    0  0.00000000000E+00  0.00000000000E+00  0.45593999997E+02  0.45594000000E+02  0.51100000000E-03 0. -1.
         11   -1    0    0    0    0 -0.00000000000E+00 -0.00000000000E+00 -0.45593999997E+02  0.45594000000E+02  0.51100000000E-03 0.  1.
    9900012    2    1    2    0    0 -0.27629695213E+02 -0.25081431069E+02  0.22161789709E+02  0.47787272297E+02  0.20000005713E+02 0.  0.
        -12    1    1    2    0    0  0.27629695213E+02  0.25081431069E+02 -0.22161789709E+02  0.43400727703E+02  0.00000000000E+00 0.  1.
         11    1    3    3    0    0 -0.54279874697E+01 -0.14609346214E+02  0.14360215791E+02  0.21192259025E+02  0.51100000000E-03 0. -1.
        -11    1    3    3    0    0 -0.16405012587E+02 -0.10619868726E+02  0.50938375071E+01  0.20195376465E+02  0.51100000000E-03 0.  1.
         12    1    3    3    0    0 -0.57966951558E+01  0.14778387019E+00  0.27077364106E+01  0.63996368078E+01  0.00000000000E+00 0. -1.
</event>
<event>
 7    1  0.2886681E-010  0.4778727E+02  0.7816164E-02  0.1312668E+00
        -11   -1    0    0    0    0  0.00000000000E+00  0.00000000000E+00  0.45593999997E+02  0.45594000000E+02  0.51100000000E-03 0.  1.
         11   -1    0    0    0    0 -0.00000000000E+00 -0.00000000000E+00 -0.45593999997E+02  0.45594000000E+02  0.51100000000E-03 0. -1.
    9900012    2    1    2    0    0  0.10687900753E+02 -0.17138696385E+02 -0.38414280112E+02  0.47787273591E+02  0.20000011612E+02 0.  0.
        -12    1    1    2    0    0 -0.10687900753E+02  0.17138696385E+02  0.38414280112E+02  0.43400726409E+02  0.00000000000E+00 0.  1.
         11    1    3    3    0    0  0.60169447847E+01 -0.67569138347E+01 -0.31849805544E+02  0.33109962588E+02  0.51100000000E-03 0. -1.
        -11    1    3    3    0    0  0.47250733954E+01 -0.38715246571E+01 -0.11640350521E+01  0.62185206944E+01  0.51100000000E-03 0.  1.
        -12    1    3    3    0    0 -0.54117427044E-01 -0.65102578928E+01 -0.54004395160E+01  0.84587903090E+01  0.00000000000E+00 0.  1.
</event>
<event>
 7    1  0.2886681E-010  0.4778727E+02  0.7816164E-02  0.1312668E+00
        -11   -1    0    0    0    0  0.00000000000E+00  0.00000000000E+00  0.45593999997E+02  0.45594000000E+02  0.51100000000E-03 0. -1.
         11   -1    0    0    0    0 -0.00000000000E+00 -0.00000000000E+00 -0.45593999997E+02  0.45594000000E+02  0.51100000000E-03 0.  1.
    9900012    2    1    2    0    0 -0.16604233541E+02  0.38100023203E+02  0.12502442133E+02  0.47787269605E+02  0.19999993435E+02 0.  0.
        -12    1    1    2    0    0  0.16604233541E+02 -0.38100023203E+02 -0.12502442133E+02  0.43400730395E+02  0.00000000000E+00 0.  1.
         11    1    3    3    0    0  0.33332761559E+00  0.47239854423E+01  0.37639765893E+00  0.47506653447E+01  0.51100000000E-03 0. -1.
        -11    1    3    3    0    0  0.14427235229E+01  0.15601827543E+02  0.35248210544E+01  0.16059976263E+02  0.51100000000E-03 0.  1.
        -12    1    3    3    0    0 -0.18380284679E+02  0.17774210218E+02  0.86012234193E+01  0.26976627997E+02  0.00000000000E+00 0.  1.
</event>
<event>
 7    1  0.2886681E-010  0.4778727E+02  0.7816164E-02  0.1312668E+00
        -11   -1    0    0    0    0  0.00000000000E+00  0.00000000000E+00  0.45593999997E+02  0.45594000000E+02  0.51100000000E-03 0. -1.
         11   -1    0    0    0    0 -0.00000000000E+00 -0.00000000000E+00 -0.45593999997E+02  0.45594000000E+02  0.51100000000E-03 0.  1.
    9900012    2    1    2    0    0 -0.25112805949E+02 -0.28636897428E+02  0.20806210320E+02  0.47787270688E+02  0.19999998374E+02 0.  0.
        -12    1    1    2    0    0  0.25112805949E+02  0.28636897428E+02 -0.20806210320E+02  0.43400729312E+02  0.00000000000E+00 0.  1.
         11    1    3    3    0    0 -0.16019791821E+02 -0.98588172992E+01  0.40608874234E+01  0.19243721455E+02  0.51100000000E-03 0. -1.
        -11    1    3    3    0    0 -0.89321346105E+01 -0.19921531440E+02  0.15148898283E+02  0.26573286644E+02  0.51100000000E-03 0.  1.
         12    1    3    3    0    0 -0.16087951774E+00  0.11434513109E+01  0.15964246144E+01  0.19702625889E+01  0.00000000000E+00 0. -1.
</event>
<event>
 7    1  0.2886681E-010  0.4778727E+02  0.7816164E-02  0.1312668E+00
        -11   -1    0    0    0    0  0.00000000000E+00  0.00000000000E+00  0.45593999997E+02  0.45594000000E+02  0.51100000000E-03 0.  1.
         11   -1    0    0    0    0 -0.00000000000E+00 -0.00000000000E+00 -0.45593999997E+02  0.45594000000E+02  0.51100000000E-03 0. -1.
    9900012    2    1    2    0    0 -0.22569207953E+02  0.28223406995E+02 -0.24035251722E+02  0.47787272180E+02  0.20000005175E+02 0.  0.
        -12    1    1    2    0    0  0.22569207953E+02 -0.28223406995E+02  0.24035251722E+02  0.43400727820E+02  0.00000000000E+00 0.  1.
         11    1    3    3    0    0 -0.14861105395E+02  0.20355274101E+02 -0.10543832041E+02  0.27319627224E+02  0.51100000000E-03 0. -1.
        -11    1    3    3    0    0  0.10119424862E+01 -0.14786671468E+01  0.11883284095E+00  0.17957186950E+01  0.51100000000E-03 0.  1.
        -12    1    3    3    0    0 -0.87200450437E+01  0.93468000405E+01 -0.13610252522E+02  0.18671926260E+02  0.00000000000E+00 0.  1.
</event>
<event>
 7    1  0.2886681E-010  0.4778725E+02  0.7816164E-02  0.1312668E+00
        -11   -1    0    0    0    0  0.00000000000E+00  0.00000000000E+00  0.45593999997E+02  0.45594000000E+02  0.51100000000E-03 0. -1.
         11   -1    0    0    0    0 -0.00000000000E+00 -0.00000000000E+00 -0.45593999997E+02  0.45594000000E+02  0.51100000000E-03 0.  1.
    9900012    2    1    2    0    0  0.16611646029E+02 -0.54468740440E+01  0.39724172757E+02  0.47787249754E+02  0.19999902930E+02 0.  0.
        -12    1    1    2    0    0 -0.16611646029E+02  0.54468740440E+01 -0.39724172757E+02  0.43400750246E+02  0.00000000000E+00 0.  1.
         11    1    3    3    0    0  0.10789027310E+02 -0.33098098397E+00  0.30370821520E+02  0.32231963310E+02  0.51100000000E-03 0. -1.
        -11    1    3    3    0    0 -0.11307423651E+01 -0.15273126744E+00 -0.14098948968E+01  0.18137555010E+01  0.51100000000E-03 0.  1.
        -12    1    3    3    0    0  0.69533610833E+01 -0.49631617925E+01  0.10763246134E+02  0.13741530944E+02  0.00000000000E+00 0.  1.
</event>
<event>
 7    1  0.2886681E-010  0.4778728E+02  0.7816164E-02  0.1312668E+00
        -11   -1    0    0    0    0  0.00000000000E+00  0.00000000000E+00  0.45593999997E+02  0.45594000000E+02  0.51100000000E-03 0.  1.
         11   -1    0    0    0    0 -0.00000000000E+00 -0.00000000000E+00 -0.45593999997E+02  0.45594000000E+02  0.51100000000E-03 0. -1.
    9900012    2    1    2    0    0  0.17301880949E+02 -0.25314699957E+02 -0.30715359521E+02  0.47787280780E+02  0.20000044388E+02 0.  0.
        -12    1    1    2    0    0 -0.17301880949E+02  0.25314699957E+02  0.30715359521E+02  0.43400719220E+02  0.00000000000E+00 0.  1.
         11    1    3    3    0    0 -0.18438172238E+01 -0.61850816809E+01 -0.83952717561E+00  0.65084332595E+01  0.51100000000E-03 0. -1.
        -11    1    3    3    0    0  0.18626862127E+01 -0.44020281719E+01 -0.16578206146E+01  0.50592313057E+01  0.51100000000E-03 0.  1.
         12    1    3    3    0    0  0.17283011960E+02 -0.14727590105E+02 -0.28218011731E+02  0.36219616215E+02  0.00000000000E+00 0. -1.
</event>
<event>
 7    1  0.2886681E-010  0.4778727E+02  0.7816164E-02  0.1312668E+00
        -11   -1    0    0    0    0  0.00000000000E+00  0.00000000000E+00  0.45593999997E+02  0.45594000000E+02  0.51100000000E-03 0.  1.
         11   -1    0    0    0    0 -0.00000000000E+00 -0.00000000000E+00 -0.45593999997E+02  0.45594000000E+02  0.51100000000E-03 0. -1.
    9900012    2    1    2    0    0  0.67732863753E+01 -0.11743733452E+02 -0.41229002022E+02  0.47787270842E+02  0.19999999079E+02 0.  0.
        -12    1    1    2    0    0 -0.67732863753E+01  0.11743733452E+02  0.41229002022E+02  0.43400729158E+02  0.00000000000E+00 0.  1.
         11    1    3    3    0    0  0.11125598113E+01 -0.71734446473E+01 -0.27617518125E+02  0.28555619501E+02  0.51100000000E-03 0. -1.
        -11    1    3    3    0    0  0.95040388788E-01  0.32743810974E+01 -0.11111607935E+01  0.34590869918E+01  0.51100000000E-03 0.  1.
        -12    1    3    3    0    0  0.55656861752E+01 -0.78446699021E+01 -0.12500323103E+02  0.15772564349E+02  0.00000000000E+00 0.  1.
</event>
<event>
 7    1  0.2886681E-010  0.4778727E+02  0.7816164E-02  0.1312668E+00
        -11   -1    0    0    0    0  0.00000000000E+00  0.00000000000E+00  0.45593999997E+02  0.45594000000E+02  0.51100000000E-03 0.  1.
         11   -1    0    0    0    0 -0.00000000000E+00 -0.00000000000E+00 -0.45593999997E+02  0.45594000000E+02  0.51100000000E-03 0. -1.
    9900012    2    1    2    0    0  0.30798997632E+02  0.27692323151E+02 -0.12968440755E+02  0.47787268759E+02  0.19999989578E+02 0.  0.
        -12    1    1    2    0    0 -0.30798997632E+02 -0.27692323151E+02  0.12968440755E+02  0.43400731241E+02  0.00000000000E+00 0.  1.
         11    1    3    3    0    0  0.18784704622E+02  0.16465399896E+02 -0.13748182800E+02  0.28512927805E+02  0.51100000000E-03 0. -1.
        -11    1    3    3    0    0  0.11182100699E+02  0.10153776705E+02  0.41305008521E+01  0.15658850371E+02  0.51100000000E-03 0.  1.
        -12    1    3    3    0    0  0.83219231183E+00  0.10731465505E+01 -0.33507588073E+01  0.36154905818E+01  0.00000000000E+00 0.  1.
</event>
<event>
 7    1  0.2886681E-010  0.4778727E+02  0.7816164E-02  0.1312668E+00
        -11   -1    0    0    0    0  0.00000000000E+00  0.00000000000E+00  0.45593999997E+02  0.45594000000E+02  0.51100000000E-03 0.  1.
         11   -1    0    0    0    0 -0.00000000000E+00 -0.00000000000E+00 -0.45593999997E+02  0.45594000000E+02  0.51100000000E-03 0. -1.
    9900012    2    1    2    0    0 -0.23085039610E+02  0.98793955228E+01 -0.35399175627E+02  0.47787272532E+02  0.20000006781E+02 0.  0.
        -12    1    1    2    0    0  0.23085039610E+02 -0.98793955228E+01  0.35399175627E+02  0.43400727468E+02  0.00000000000E+00 0.  1.
         11    1    3    3    0    0 -0.87981886165E+01  0.77048204618E+01 -0.25033520640E+02  0.27630590605E+02  0.51100000000E-03 0. -1.
        -11    1    3    3    0    0 -0.15529773894E+02  0.11159156557E+01 -0.87515037682E+01  0.17860794031E+02  0.51100000000E-03 0.  1.
         12    1    3    3    0    0  0.12429229005E+01  0.10586594052E+01 -0.16141512192E+01  0.22958878961E+01  0.00000000000E+00 0. -1.
</event>
<event>
 7    1  0.2886681E-010  0.4778727E+02  0.7816164E-02  0.1312668E+00
        -11   -1    0    0    0    0  0.00000000000E+00  0.00000000000E+00  0.45593999997E+02  0.45594000000E+02  0.51100000000E-03 0.  1.
         11   -1    0    0    0    0 -0.00000000000E+00 -0.00000000000E+00 -0.45593999997E+02  0.45594000000E+02  0.51100000000E-03 0. -1.
    9900012    2    1    2    0    0  0.28451536495E+02 -0.16682846890E+02 -0.28210210461E+02  0.47787270933E+02  0.19999999492E+02 0.  0.
        -12    1    1    2    0    0 -0.28451536495E+02  0.16682846890E+02  0.28210210461E+02  0.43400729067E+02  0.00000000000E+00 0.  1.
         11    1    3    3    0    0  0.21455780338E+01 -0.90066673237E+01 -0.36664015731E+01  0.99582158109E+01  0.51100000000E-03 0.  1.
        -11    1    3    3    0    0  0.21466785246E+02 -0.93924091002E+01 -0.21814383683E+02  0.32014177379E+02  0.51100000000E-03 0. -1.
        -12    1    3    3    0    0  0.48391732153E+01  0.17162295342E+01 -0.27294252049E+01  0.58148777435E+01  0.00000000000E+00 0.  1.
</event>
<event>
 7    1  0.2886681E-010  0.4778732E+02  0.7816164E-02  0.1312668E+00
        -11   -1    0    0    0    0  0.00000000000E+00  0.00000000000E+00  0.45593999997E+02  0.45594000000E+02  0.51100000000E-03 0. -1.
         11   -1    0    0    0    0 -0.00000000000E+00 -0.00000000000E+00 -0.45593999997E+02  0.45594000000E+02  0.51100000000E-03 0.  1.
    9900012    2    1    2    0    0  0.41927353676E+02 -0.36699942394E+00  0.11206306465E+02  0.47787320519E+02  0.20000225573E+02 0.  0.
        -12    1    1    2    0    0 -0.41927353676E+02  0.36699942394E+00 -0.11206306465E+02  0.43400679481E+02  0.00000000000E+00 0.  1.
         11    1    3    3    0    0  0.91572426701E+01 -0.12000783770E+01  0.11775296294E+02  0.14965055446E+02  0.51100000000E-03 0. -1.
        -11    1    3    3    0    0  0.25352089363E+02  0.24483439515E+00  0.72295961453E-01  0.25353374646E+02  0.51100000000E-03 0.  1.
         12    1    3    3    0    0  0.74180216424E+01  0.58824455791E+00 -0.64128579040E+00  0.74688904271E+01  0.00000000000E+00 0. -1.
</event>
<event>
 7    1  0.2886681E-010  0.4778727E+02  0.7816164E-02  0.1312668E+00
        -11   -1    0    0    0    0  0.00000000000E+00  0.00000000000E+00  0.45593999997E+02  0.45594000000E+02  0.51100000000E-03 0. -1.
         11   -1    0    0    0    0 -0.00000000000E+00 -0.00000000000E+00 -0.45593999997E+02  0.45594000000E+02  0.51100000000E-03 0.  1.
    9900012    2    1    2    0    0  0.85825914665E+01  0.39327147029E+01  0.42361493857E+02  0.47787270939E+02  0.19999999521E+02 0.  0.
        -12    1    1    2    0    0 -0.85825914665E+01 -0.39327147029E+01 -0.42361493857E+02  0.43400729061E+02  0.00000000000E+00 0.  1.
         11    1    3    3    0    0 -0.91576685432E+00 -0.58422520590E+01  0.61011281711E+01  0.84967230903E+01  0.51100000000E-03 0. -1.
        -11    1    3    3    0    0  0.35678026499E+01  0.62385586975E+01  0.11291886936E+02  0.13384899746E+02  0.51100000000E-03 0.  1.
         12    1    3    3    0    0  0.59305556709E+01  0.35364080644E+01  0.24968478750E+02  0.25905648103E+02  0.00000000000E+00 0. -1.
</event>
<event>
 7    1  0.2886681E-010  0.4778727E+02  0.7816164E-02  0.1312668E+00
        -11   -1    0    0    0    0  0.00000000000E+00  0.00000000000E+00  0.45593999997E+02  0.45594000000E+02  0.51100000000E-03 0.  1.
         11   -1    0    0    0    0 -0.00000000000E+00 -0.00000000000E+00 -0.45593999997E+02  0.45594000000E+02  0.51100000000E-03 0. -1.
    9900012    2    1    2    0    0  0.24043596106E+02 -0.36046718995E+02  0.24825344113E+01  0.47787269118E+02  0.19999991218E+02 0.  0.
        -12    1    1    2    0    0 -0.24043596106E+02  0.36046718995E+02 -0.24825344113E+01  0.43400730882E+02  0.00000000000E+00 0.  1.
         11    1    3    3    0    0  0.53638558758E+01 -0.11494831095E+02  0.13092673703E+01  0.12752108573E+02  0.51100000000E-03 0. -1.
        -11    1    3    3    0    0  0.33963806077E+01 -0.14823345072E+02 -0.48192599409E+01  0.15952812510E+02  0.51100000000E-03 0.  1.
        -12    1    3    3    0    0  0.15283359622E+02 -0.97285428279E+01  0.59925269819E+01  0.19082348035E+02  0.00000000000E+00 0.  1.
</event>
<event>
 7    1  0.2886681E-010  0.4778727E+02  0.7816164E-02  0.1312668E+00
        -11   -1    0    0    0    0  0.00000000000E+00  0.00000000000E+00  0.45593999997E+02  0.45594000000E+02  0.51100000000E-03 0.  1.
         11   -1    0    0    0    0 -0.00000000000E+00 -0.00000000000E+00 -0.45593999997E+02  0.45594000000E+02  0.51100000000E-03 0. -1.
    9900012    2    1    2    0    0  0.23489849536E+02 -0.19210387715E+02 -0.31029199537E+02  0.47787271305E+02  0.20000001189E+02 0.  0.
        -12    1    1    2    0    0 -0.23489849536E+02  0.19210387715E+02  0.31029199537E+02  0.43400728695E+02  0.00000000000E+00 0.  1.
         11    1    3    3    0    0  0.10576879868E+01 -0.17934744972E+01  0.57113397235E+00  0.21590388892E+01  0.51100000000E-03 0. -1.
        -11    1    3    3    0    0  0.13596928045E+01  0.12062955541E+01 -0.10010341298E+02  0.10174028045E+02  0.51100000000E-03 0.  1.
        -12    1    3    3    0    0  0.21072468744E+02 -0.18623208772E+02 -0.21589992210E+02  0.35454204371E+02  0.00000000000E+00 0.  1.
</event>
<event>
 7    1  0.2886681E-010  0.4778728E+02  0.7816164E-02  0.1312668E+00
        -11   -1    0    0    0    0  0.00000000000E+00  0.00000000000E+00  0.45593999997E+02  0.45594000000E+02  0.51100000000E-03 0.  1.
         11   -1    0    0    0    0 -0.00000000000E+00 -0.00000000000E+00 -0.45593999997E+02  0.45594000000E+02  0.51100000000E-03 0. -1.
    9900012    2    1    2    0    0 -0.39823315716E+02 -0.15764373370E+02 -0.70150529274E+01  0.47787275238E+02  0.20000019118E+02 0.  0.
        -12    1    1    2    0    0  0.39823315716E+02  0.15764373370E+02  0.70150529274E+01  0.43400724762E+02  0.00000000000E+00 0.  1.
         11    1    3    3    0    0 -0.32432996742E+02 -0.16370245839E+02 -0.12389220383E+02  0.38384593374E+02  0.51100000000E-03 0. -1.
        -11    1    3    3    0    0 -0.41819850892E+01  0.13327519327E+01  0.35210912734E+01  0.56270161735E+01  0.51100000000E-03 0.  1.
         12    1    3    3    0    0 -0.32083338843E+01 -0.72687946357E+00  0.18530761824E+01  0.37756656904E+01  0.00000000000E+00 0. -1.
</event>
<event>
 7    1  0.2886681E-010  0.4778727E+02  0.7816164E-02  0.1312668E+00
        -11   -1    0    0    0    0  0.00000000000E+00  0.00000000000E+00  0.45593999997E+02  0.45594000000E+02  0.51100000000E-03 0.  1.
         11   -1    0    0    0    0 -0.00000000000E+00 -0.00000000000E+00 -0.45593999997E+02  0.45594000000E+02  0.51100000000E-03 0. -1.
    9900012    2    1    2    0    0  0.97319147258E+01  0.32054390541E+02 -0.27594009907E+02  0.47787268441E+02  0.19999988128E+02 0.  0.
        -12    1    1    2    0    0 -0.97319147258E+01 -0.32054390541E+02  0.27594009907E+02  0.43400731559E+02  0.00000000000E+00 0.  1.
         11    1    3    3    0    0  0.50076912150E+01  0.22105874222E+02 -0.16036469311E+02  0.27765356016E+02  0.51100000000E-03 0. -1.
        -11    1    3    3    0    0  0.70350915058E+01  0.32128450038E+01 -0.17974039967E+01  0.79401226000E+01  0.51100000000E-03 0.  1.
         12    1    3    3    0    0 -0.23108679950E+01  0.67356713145E+01 -0.97601365989E+01  0.12081789825E+02  0.00000000000E+00 0. -1.
</event>
<event>
 7    1  0.2886681E-010  0.4778727E+02  0.7816164E-02  0.1312668E+00
        -11   -1    0    0    0    0  0.00000000000E+00  0.00000000000E+00  0.45593999997E+02  0.45594000000E+02  0.51100000000E-03 0.  1.
         11   -1    0    0    0    0 -0.00000000000E+00 -0.00000000000E+00 -0.45593999997E+02  0.45594000000E+02  0.51100000000E-03 0. -1.
    9900012    2    1    2    0    0 -0.13715032150E+02  0.12873650935E+02 -0.39112535130E+02  0.47787269596E+02  0.19999993397E+02 0.  0.
        -12    1    1    2    0    0  0.13715032150E+02 -0.12873650935E+02  0.39112535130E+02  0.43400730404E+02  0.00000000000E+00 0.  1.
         11    1    3    3    0    0  0.47410364999E+00 -0.65455692378E+00 -0.11146340200E+02  0.11175603749E+02  0.51100000000E-03 0. -1.
        -11    1    3    3    0    0 -0.52460755273E+01  0.13708360659E+02 -0.16983755062E+02  0.22447458579E+02  0.51100000000E-03 0.  1.
        -12    1    3    3    0    0 -0.89430602732E+01 -0.18015280042E+00 -0.10982439868E+02  0.14164207268E+02  0.00000000000E+00 0.  1.
</event>
<event>
 7    1  0.2886681E-010  0.4778726E+02  0.7816164E-02  0.1312668E+00
        -11   -1    0    0    0    0  0.00000000000E+00  0.00000000000E+00  0.45593999997E+02  0.45594000000E+02  0.51100000000E-03 0. -1.
         11   -1    0    0    0    0 -0.00000000000E+00 -0.00000000000E+00 -0.45593999997E+02  0.45594000000E+02  0.51100000000E-03 0.  1.
    9900012    2    1    2    0    0 -0.33714383265E+02  0.14724397518E+02 -0.23025123863E+02  0.47787264406E+02  0.19999969732E+02 0.  0.
        -12    1    1    2    0    0  0.33714383265E+02 -0.14724397518E+02  0.23025123863E+02  0.43400735594E+02  0.00000000000E+00 0.  1.
         11    1    3    3    0    0 -0.25501701002E+02  0.15290202253E+02 -0.98132794082E+01  0.31311778805E+02  0.51100000000E-03 0. -1.
        -11    1    3    3    0    0 -0.13378123163E+01 -0.22196654217E+01 -0.50534356082E+01  0.56792489015E+01  0.51100000000E-03 0.  1.
         12    1    3    3    0    0 -0.68748699468E+01  0.16538606864E+01 -0.81584088462E+01  0.10796236699E+02  0.00000000000E+00 0. -1.
</event>
<event>
 7    1  0.2886681E-010  0.4778727E+02  0.7816164E-02  0.1312668E+00
        -11   -1    0    0    0    0  0.00000000000E+00  0.00000000000E+00  0.45593999997E+02  0.45594000000E+02  0.51100000000E-03 0. -1.
         11   -1    0    0    0    0 -0.00000000000E+00 -0.00000000000E+00 -0.45593999997E+02  0.45594000000E+02  0.51100000000E-03 0.  1.
    9900012    2    1    2    0    0 -0.89381028594E+01  0.29204936381E+02  0.30835131857E+02  0.47787270186E+02  0.19999996087E+02 0.  0.
        -12    1    1    2    0    0  0.89381028594E+01 -0.29204936381E+02 -0.30835131857E+02  0.43400729814E+02  0.00000000000E+00 0.  1.
         11    1    3    3    0    0 -0.57744853517E+01  0.15155750147E+02  0.13495974435E+02  0.21099354725E+02  0.51100000000E-03 0. -1.
        -11    1    3    3    0    0 -0.44256520875E+01  0.13526591107E+02  0.62994124341E+01  0.15563986015E+02  0.51100000000E-03 0.  1.
         12    1    3    3    0    0  0.12620345798E+01  0.52259512690E+00  0.11039744987E+02  0.11123929447E+02  0.00000000000E+00 0. -1.
</event>
<event>
 7    1  0.2886681E-010  0.4778727E+02  0.7816164E-02  0.1312668E+00
        -11   -1    0    0    0    0  0.00000000000E+00  0.00000000000E+00  0.45593999997E+02  0.45594000000E+02  0.51100000000E-03 0.  1.
         11   -1    0    0    0    0 -0.00000000000E+00 -0.00000000000E+00 -0.45593999997E+02  0.45594000000E+02  0.51100000000E-03 0. -1.
    9900012    2    1    2    0    0  0.40946249284E+02 -0.62658408111E+01 -0.12952498179E+02  0.47787270737E+02  0.19999998598E+02 0.  0.
        -12    1    1    2    0    0 -0.40946249284E+02  0.62658408111E+01  0.12952498179E+02  0.43400729263E+02  0.00000000000E+00 0.  1.
         11    1    3    3    0    0 -0.15048771719E+01  0.23941049786E+00 -0.37704938350E+00  0.15697576844E+01  0.51100000000E-03 0. -1.
        -11    1    3    3    0    0  0.44509630784E+01 -0.90078950916E-01  0.21730341797E+01  0.49539140434E+01  0.51100000000E-03 0.  1.
         12    1    3    3    0    0  0.38000163377E+02 -0.64151723580E+01 -0.14748482976E+02  0.41263599009E+02  0.00000000000E+00 0. -1.
</event>
<event>
 7    1  0.2886681E-010  0.4778726E+02  0.7816164E-02  0.1312668E+00
        -11   -1    0    0    0    0  0.00000000000E+00  0.00000000000E+00  0.45593999997E+02  0.45594000000E+02  0.51100000000E-03 0.  1.
         11   -1    0    0    0    0 -0.00000000000E+00 -0.00000000000E+00 -0.45593999997E+02  0.45594000000E+02  0.51100000000E-03 0. -1.
    9900012    2    1    2    0    0  0.19456904975E+02 -0.82897783103E+01 -0.37898984597E+02  0.47787255662E+02  0.19999929863E+02 0.  0.
        -12    1    1    2    0    0 -0.19456904975E+02  0.82897783103E+01  0.37898984597E+02  0.43400744338E+02  0.00000000000E+00 0.  1.
         11    1    3    3    0    0  0.16805380398E+02 -0.11868609078E+02 -0.22616665309E+02  0.30574470424E+02  0.51100000000E-03 0. -1.
        -11    1    3    3    0    0  0.40781454673E+00 -0.18064825295E+01 -0.57092181145E+01  0.60020716069E+01  0.51100000000E-03 0.  1.
         12    1    3    3    0    0  0.22437100300E+01  0.53853132976E+01 -0.95731011739E+01  0.11210713630E+02  0.00000000000E+00 0. -1.
</event>
<event>
 7    1  0.2886681E-010  0.4778727E+02  0.7816164E-02  0.1312668E+00
        -11   -1    0    0    0    0  0.00000000000E+00  0.00000000000E+00  0.45593999997E+02  0.45594000000E+02  0.51100000000E-03 0.  1.
         11   -1    0    0    0    0 -0.00000000000E+00 -0.00000000000E+00 -0.45593999997E+02  0.45594000000E+02  0.51100000000E-03 0. -1.
    9900012    2    1    2    0    0  0.24572239618E+02  0.11566366070E+02 -0.33853327674E+02  0.47787267535E+02  0.19999983997E+02 0.  0.
        -12    1    1    2    0    0 -0.24572239618E+02 -0.11566366070E+02  0.33853327674E+02  0.43400732465E+02  0.00000000000E+00 0.  1.
         11    1    3    3    0    0 -0.13932184479E+01  0.66529892369E+00 -0.38559460804E+01  0.41535527849E+01  0.51100000000E-03 0. -1.
        -11    1    3    3    0    0  0.27531348909E+02  0.88984477192E+01 -0.26016378862E+02  0.38910275171E+02  0.51100000000E-03 0.  1.
        -12    1    3    3    0    0 -0.15658908424E+01  0.20026194276E+01 -0.39810027320E+01  0.47234395788E+01  0.00000000000E+00 0.  1.
</event>
<event>
 7    1  0.2886681E-010  0.4778727E+02  0.7816164E-02  0.1312668E+00
        -11   -1    0    0    0    0  0.00000000000E+00  0.00000000000E+00  0.45593999997E+02  0.45594000000E+02  0.51100000000E-03 0.  1.
         11   -1    0    0    0    0 -0.00000000000E+00 -0.00000000000E+00 -0.45593999997E+02  0.45594000000E+02  0.51100000000E-03 0. -1.
    9900012    2    1    2    0    0 -0.23351289776E+02 -0.36474259783E+02 -0.28229902451E+01  0.47787266886E+02  0.19999981042E+02 0.  0.
        -12    1    1    2    0    0  0.23351289776E+02  0.36474259783E+02  0.28229902451E+01  0.43400733114E+02  0.00000000000E+00 0.  1.
         11    1    3    3    0    0 -0.23699979013E+01 -0.12837409699E+01  0.63165811316E+00  0.27683701275E+01  0.51100000000E-03 0. -1.
        -11    1    3    3    0    0 -0.13587202031E+02 -0.87185258374E+01 -0.64211932003E+01  0.17374017215E+02  0.51100000000E-03 0.  1.
        -12    1    3    3    0    0 -0.73940898429E+01 -0.26471992975E+02  0.29665448421E+01  0.27644879544E+02  0.00000000000E+00 0.  1.
</event>
<event>
 7    1  0.2886681E-010  0.4778727E+02  0.7816164E-02  0.1312668E+00
        -11   -1    0    0    0    0  0.00000000000E+00  0.00000000000E+00  0.45593999997E+02  0.45594000000E+02  0.51100000000E-03 0.  1.
         11   -1    0    0    0    0 -0.00000000000E+00 -0.00000000000E+00 -0.45593999997E+02  0.45594000000E+02  0.51100000000E-03 0. -1.
    9900012    2    1    2    0    0 -0.37268616861E+02 -0.22190918538E+02  0.14956678978E+01  0.47787266241E+02  0.19999978101E+02 0.  0.
        -12    1    1    2    0    0  0.37268616861E+02  0.22190918538E+02 -0.14956678978E+01  0.43400733759E+02  0.00000000000E+00 0.  1.
         11    1    3    3    0    0 -0.21466074066E+02 -0.11145366645E+02  0.86064593514E+01  0.25672605561E+02  0.51100000000E-03 0. -1.
        -11    1    3    3    0    0 -0.16508896750E+02 -0.90847742031E+01 -0.66296959912E+01  0.19975726856E+02  0.51100000000E-03 0.  1.
        -12    1    3    3    0    0  0.70635395534E+00 -0.19607776902E+01 -0.48109546241E+00  0.21389338243E+01  0.00000000000E+00 0.  1.
</event>
<event>
 7    1  0.2886681E-010  0.4778727E+02  0.7816164E-02  0.1312668E+00
        -11   -1    0    0    0    0  0.00000000000E+00  0.00000000000E+00  0.45593999997E+02  0.45594000000E+02  0.51100000000E-03 0.  1.
         11   -1    0    0    0    0 -0.00000000000E+00 -0.00000000000E+00 -0.45593999997E+02  0.45594000000E+02  0.51100000000E-03 0. -1.
    9900012    2    1    2    0    0  0.45299047826E+01  0.19542028893E+02 -0.38486524237E+02  0.47787268687E+02  0.19999989253E+02 0.  0.
        -12    1    1    2    0    0 -0.45299047826E+01 -0.19542028893E+02  0.38486524237E+02  0.43400731313E+02  0.00000000000E+00 0.  1.
         11    1    3    3    0    0 -0.23398361976E+01  0.11230634125E+02 -0.24471145004E+02  0.27026633426E+02  0.51100000000E-03 0. -1.
        -11    1    3    3    0    0  0.15948749405E+01  0.67422066389E+01 -0.15001034758E+01  0.70888142264E+01  0.51100000000E-03 0.  1.
        -12    1    3    3    0    0  0.52748660397E+01  0.15691881289E+01 -0.12515275757E+02  0.13671821035E+02  0.00000000000E+00 0.  1.
</event>
<event>
 7    1  0.2886681E-010  0.4778729E+02  0.7816164E-02  0.1312668E+00
        -11   -1    0    0    0    0  0.00000000000E+00  0.00000000000E+00  0.45593999997E+02  0.45594000000E+02  0.51100000000E-03 0. -1.
         11   -1    0    0    0    0 -0.00000000000E+00 -0.00000000000E+00 -0.45593999997E+02  0.45594000000E+02  0.51100000000E-03 0.  1.
    9900012    2    1    2    0    0 -0.28722517212E+02  0.10730997870E+02 -0.30716192839E+02  0.47787287877E+02  0.20000076744E+02 0.  0.
        -12    1    1    2    0    0  0.28722517212E+02 -0.10730997870E+02  0.30716192839E+02  0.43400712123E+02  0.00000000000E+00 0.  1.
         11    1    3    3    0    0 -0.44220818284E+01  0.18860513425E+01 -0.11789570136E+00  0.48089392823E+01  0.51100000000E-03 0. -1.
        -11    1    3    3    0    0 -0.20254220973E+02  0.63131987732E+01 -0.31638694970E+02  0.38093266671E+02  0.51100000000E-03 0.  1.
        -12    1    3    3    0    0 -0.40462144106E+01  0.25317477539E+01  0.10403978326E+01  0.48850819232E+01  0.00000000000E+00 0.  1.
</event>
<event>
 7    1  0.2886681E-010  0.4778727E+02  0.7816164E-02  0.1312668E+00
        -11   -1    0    0    0    0  0.00000000000E+00  0.00000000000E+00  0.45593999997E+02  0.45594000000E+02  0.51100000000E-03 0.  1.
         11   -1    0    0    0    0 -0.00000000000E+00 -0.00000000000E+00 -0.45593999997E+02  0.45594000000E+02  0.51100000000E-03 0. -1.
    9900012    2    1    2    0    0  0.24917427564E+01 -0.40835426498E+02 -0.14487309427E+02  0.47787274503E+02  0.20000015769E+02 0.  0.
        -12    1    1    2    0    0 -0.24917427564E+01  0.40835426498E+02  0.14487309427E+02  0.43400725497E+02  0.00000000000E+00 0.  1.
         11    1    3    3    0    0 -0.49312142820E+01 -0.27467676112E+02 -0.16073678226E+02  0.32204863566E+02  0.51100000000E-03 0. -1.
        -11    1    3    3    0    0  0.50856408639E+01 -0.65685887622E+01  0.66253256356E+00  0.83336097210E+01  0.51100000000E-03 0.  1.
         12    1    3    3    0    0  0.23373161745E+01 -0.67991616236E+01  0.92383623554E+00  0.72488012163E+01  0.00000000000E+00 0. -1.
</event>
<event>
 7    1  0.2886681E-010  0.4778728E+02  0.7816164E-02  0.1312668E+00
        -11   -1    0    0    0    0  0.00000000000E+00  0.00000000000E+00  0.45593999997E+02  0.45594000000E+02  0.51100000000E-03 0. -1.
         11   -1    0    0    0    0 -0.00000000000E+00 -0.00000000000E+00 -0.45593999997E+02  0.45594000000E+02  0.51100000000E-03 0.  1.
    9900012    2    1    2    0    0  0.24211261440E+02 -0.13997448024E+02  0.33188987437E+02  0.47787278592E+02  0.20000034411E+02 0.  0.
        -12    1    1    2    0    0 -0.24211261440E+02  0.13997448024E+02 -0.33188987437E+02  0.43400721408E+02  0.00000000000E+00 0.  1.
         11    1    3    3    0    0  0.13071930690E+02  0.48046619488E+00  0.16811060033E+02  0.21300656314E+02  0.51100000000E-03 0. -1.
        -11    1    3    3    0    0 -0.11872477523E+01  0.36160178807E+00  0.22697525406E+01  0.25869074076E+01  0.51100000000E-03 0.  1.
         12    1    3    3    0    0  0.12326578502E+02 -0.14839516007E+02  0.14108174863E+02  0.23899714870E+02  0.00000000000E+00 0. -1.
</event>
<event>
 7    1  0.2886681E-010  0.4778727E+02  0.7816164E-02  0.1312668E+00
        -11   -1    0    0    0    0  0.00000000000E+00  0.00000000000E+00  0.45593999997E+02  0.45594000000E+02  0.51100000000E-03 0.  1.
         11   -1    0    0    0    0 -0.00000000000E+00 -0.00000000000E+00 -0.45593999997E+02  0.45594000000E+02  0.51100000000E-03 0. -1.
    9900012    2    1    2    0    0 -0.31825454407E+02  0.17281285230E+01 -0.29458057817E+02  0.47787272509E+02  0.20000006679E+02 0.  0.
        -12    1    1    2    0    0  0.31825454407E+02 -0.17281285230E+01  0.29458057817E+02  0.43400727491E+02  0.00000000000E+00 0.  1.
         11    1    3    3    0    0 -0.14973882470E+02  0.63737795737E+01 -0.99698517967E+01  0.19085077086E+02  0.51100000000E-03 0. -1.
        -11    1    3    3    0    0 -0.12492518331E+02 -0.75576340059E+01 -0.18146249550E+02  0.23290925679E+02  0.51100000000E-03 0.  1.
        -12    1    3    3    0    0 -0.43590536059E+01  0.29119829552E+01 -0.13419564705E+01  0.54112697438E+01  0.00000000000E+00 0.  1.
</event>
<event>
 7    1  0.2886681E-010  0.4778727E+02  0.7816164E-02  0.1312668E+00
        -11   -1    0    0    0    0  0.00000000000E+00  0.00000000000E+00  0.45593999997E+02  0.45594000000E+02  0.51100000000E-03 0. -1.
         11   -1    0    0    0    0 -0.00000000000E+00 -0.00000000000E+00 -0.45593999997E+02  0.45594000000E+02  0.51100000000E-03 0.  1.
    9900012    2    1    2    0    0  0.92182914985E+01  0.62510675331E+01  0.41947231955E+02  0.47787274060E+02  0.20000013748E+02 0.  0.
        -12    1    1    2    0    0 -0.92182914985E+01 -0.62510675331E+01 -0.41947231955E+02  0.43400725940E+02  0.00000000000E+00 0.  1.
         11    1    3    3    0    0 -0.47380967558E+00  0.89207432801E+01  0.26258916983E+02  0.27736886589E+02  0.51100000000E-03 0. -1.
        -11    1    3    3    0    0 -0.11036442191E+01  0.35616215261E+00  0.78392314472E+00  0.13997920557E+01  0.51100000000E-03 0.  1.
         12    1    3    3    0    0  0.10795745393E+02 -0.30258378996E+01  0.14904391828E+02  0.18650595415E+02  0.00000000000E+00 0. -1.
</event>
<event>
 7    1  0.2886681E-010  0.4778729E+02  0.7816164E-02  0.1312668E+00
        -11   -1    0    0    0    0  0.00000000000E+00  0.00000000000E+00  0.45593999997E+02  0.45594000000E+02  0.51100000000E-03 0.  1.
         11   -1    0    0    0    0 -0.00000000000E+00 -0.00000000000E+00 -0.45593999997E+02  0.45594000000E+02  0.51100000000E-03 0. -1.
    9900012    2    1    2    0    0  0.31377974407E+02 -0.15048812762E+02 -0.25934103848E+02  0.47787288188E+02  0.20000078162E+02 0.  0.
        -12    1    1    2    0    0 -0.31377974407E+02  0.15048812762E+02  0.25934103848E+02  0.43400711812E+02  0.00000000000E+00 0.  1.
         11    1    3    3    0    0  0.24570906585E+02 -0.25090750600E+01 -0.15406533873E+02  0.29109898562E+02  0.51100000000E-03 0. -1.
        -11    1    3    3    0    0  0.74373575518E+01 -0.90530816125E+01 -0.68554684542E+01  0.13574609461E+02  0.51100000000E-03 0.  1.
        -12    1    3    3    0    0 -0.63028972945E+00 -0.34866560893E+01 -0.36721015202E+01  0.51027801640E+01  0.00000000000E+00 0.  1.
</event>
<event>
 7    1  0.2886681E-010  0.4778727E+02  0.7816164E-02  0.1312668E+00
        -11   -1    0    0    0    0  0.00000000000E+00  0.00000000000E+00  0.45593999997E+02  0.45594000000E+02  0.51100000000E-03 0.  1.
         11   -1    0    0    0    0 -0.00000000000E+00 -0.00000000000E+00 -0.45593999997E+02  0.45594000000E+02  0.51100000000E-03 0. -1.
    9900012    2    1    2    0    0 -0.20643173110E+02 -0.57128031398E+00 -0.38172718667E+02  0.47787269503E+02  0.19999992971E+02 0.  0.
        -12    1    1    2    0    0  0.20643173110E+02  0.57128031398E+00  0.38172718667E+02  0.43400730497E+02  0.00000000000E+00 0.  1.
         11    1    3    3    0    0 -0.66956436721E+01 -0.88549399738E+01 -0.15125658655E+02  0.18762386739E+02  0.51100000000E-03 0. -1.
        -11    1    3    3    0    0 -0.95864247613E+01  0.57217472688E+01 -0.98371549584E+01  0.14879769805E+02  0.51100000000E-03 0.  1.
         12    1    3    3    0    0 -0.43611046770E+01  0.25619123910E+01 -0.13209905053E+02  0.14145112959E+02  0.00000000000E+00 0. -1.
</event>
<event>
 7    1  0.2886681E-010  0.4778727E+02  0.7816164E-02  0.1312668E+00
        -11   -1    0    0    0    0  0.00000000000E+00  0.00000000000E+00  0.45593999997E+02  0.45594000000E+02  0.51100000000E-03 0.  1.
         11   -1    0    0    0    0 -0.00000000000E+00 -0.00000000000E+00 -0.45593999997E+02  0.45594000000E+02  0.51100000000E-03 0. -1.
    9900012    2    1    2    0    0 -0.21365223919E+02  0.33075194479E+02 -0.18253275309E+02  0.47787270254E+02  0.19999996398E+02 0.  0.
        -12    1    1    2    0    0  0.21365223919E+02 -0.33075194479E+02  0.18253275309E+02  0.43400729746E+02  0.00000000000E+00 0.  1.
         11    1    3    3    0    0 -0.15370246151E+02  0.18842870877E+02 -0.51753779191E+01  0.24861270814E+02  0.51100000000E-03 0. -1.
        -11    1    3    3    0    0 -0.22496112910E+01 -0.13474075991E+01 -0.30541732038E+01  0.40254481016E+01  0.51100000000E-03 0.  1.
        -12    1    3    3    0    0 -0.37453664775E+01  0.15579731201E+02 -0.10023724186E+02  0.18900551339E+02  0.00000000000E+00 0.  1.
</event>
<event>
 7    1  0.2886681E-010  0.4778727E+02  0.7816164E-02  0.1312668E+00
        -11   -1    0    0    0    0  0.00000000000E+00  0.00000000000E+00  0.45593999997E+02  0.45594000000E+02  0.51100000000E-03 0. -1.
         11   -1    0    0    0    0 -0.00000000000E+00 -0.00000000000E+00 -0.45593999997E+02  0.45594000000E+02  0.51100000000E-03 0.  1.
    9900012    2    1    2    0    0 -0.27740384141E+02  0.32479022344E+02 -0.76946237304E+01  0.47787273749E+02  0.20000012333E+02 0.  0.
        -12    1    1    2    0    0  0.27740384141E+02 -0.32479022344E+02  0.76946237304E+01  0.43400726251E+02  0.00000000000E+00 0.  1.
         11    1    3    3    0    0 -0.63370284388E+01  0.57725028066E+01  0.44991841178E+01  0.96810317670E+01  0.51100000000E-03 0. -1.
        -11    1    3    3    0    0 -0.99586095496E+01  0.66069392118E+01 -0.85428516045E+01  0.14690332321E+02  0.51100000000E-03 0.  1.
        -12    1    3    3    0    0 -0.11444746152E+02  0.20099580326E+02 -0.36509562437E+01  0.23415909661E+02  0.00000000000E+00 0.  1.
</event>
<event>
 7    1  0.2886681E-010  0.4778727E+02  0.7816164E-02  0.1312668E+00
        -11   -1    0    0    0    0  0.00000000000E+00  0.00000000000E+00  0.45593999997E+02  0.45594000000E+02  0.51100000000E-03 0.  1.
         11   -1    0    0    0    0 -0.00000000000E+00 -0.00000000000E+00 -0.45593999997E+02  0.45594000000E+02  0.51100000000E-03 0. -1.
    9900012    2    1    2    0    0 -0.85199865400E+01 -0.85161896323E+01 -0.41695412061E+02  0.47787273699E+02  0.20000012103E+02 0.  0.
        -12    1    1    2    0    0  0.85199865400E+01  0.85161896323E+01  0.41695412061E+02  0.43400726301E+02  0.00000000000E+00 0.  1.
         11    1    3    3    0    0 -0.63899321888E+01 -0.48904220640E+01 -0.36997715543E+02  0.37862625596E+02  0.51100000000E-03 0. -1.
        -11    1    3    3    0    0  0.21026226054E+01  0.10080012561E+01 -0.53094105453E+00  0.23914403646E+01  0.51100000000E-03 0.  1.
        -12    1    3    3    0    0 -0.42326769566E+01 -0.46337688244E+01 -0.41667554641E+01  0.75332077387E+01  0.00000000000E+00 0.  1.
</event>
<event>
 7    1  0.2886681E-010  0.4778727E+02  0.7816164E-02  0.1312668E+00
        -11   -1    0    0    0    0  0.00000000000E+00  0.00000000000E+00  0.45593999997E+02  0.45594000000E+02  0.51100000000E-03 0. -1.
         11   -1    0    0    0    0 -0.00000000000E+00 -0.00000000000E+00 -0.45593999997E+02  0.45594000000E+02  0.51100000000E-03 0.  1.
    9900012    2    1    2    0    0 -0.22707106644E+02  0.89578119298E+01  0.35885493021E+02  0.47787266180E+02  0.19999977822E+02 0.  0.
        -12    1    1    2    0    0  0.22707106644E+02 -0.89578119298E+01 -0.35885493021E+02  0.43400733820E+02  0.00000000000E+00 0.  1.
         11    1    3    3    0    0 -0.14608154261E+02  0.42889823072E+01  0.29078943659E+02  0.32823444437E+02  0.51100000000E-03 0. -1.
        -11    1    3    3    0    0  0.15209738241E+01 -0.73583398047E+00  0.27103099563E+01  0.31938367742E+01  0.51100000000E-03 0.  1.
         12    1    3    3    0    0 -0.96199262076E+01  0.54046636030E+01  0.40962394061E+01  0.11769984969E+02  0.00000000000E+00 0. -1.
</event>
<event>
 7    1  0.2886681E-010  0.4778727E+02  0.7816164E-02  0.1312668E+00
        -11   -1    0    0    0    0  0.00000000000E+00  0.00000000000E+00  0.45593999997E+02  0.45594000000E+02  0.51100000000E-03 0.  1.
         11   -1    0    0    0    0 -0.00000000000E+00 -0.00000000000E+00 -0.45593999997E+02  0.45594000000E+02  0.51100000000E-03 0. -1.
    9900012    2    1    2    0    0  0.64732674593E+01 -0.37353951311E+02 -0.21128229452E+02  0.47787274777E+02  0.20000017017E+02 0.  0.
        -12    1    1    2    0    0 -0.64732674593E+01  0.37353951311E+02  0.21128229452E+02  0.43400725223E+02  0.00000000000E+00 0.  1.
         11    1    3    3    0    0  0.25558498996E+00 -0.16014503931E+01  0.27912685604E+01  0.32281802128E+01  0.51100000000E-03 0. -1.
        -11    1    3    3    0    0  0.63737923468E+00 -0.12451828858E+02 -0.31728893141E+01  0.12865516743E+02  0.51100000000E-03 0.  1.
         12    1    3    3    0    0  0.55803032347E+01 -0.23300672060E+02 -0.20746608698E+02  0.31693577821E+02  0.00000000000E+00 0. -1.
</event>
<event>
 7    1  0.2886681E-010  0.4778728E+02  0.7816164E-02  0.1312668E+00
        -11   -1    0    0    0    0  0.00000000000E+00  0.00000000000E+00  0.45593999997E+02  0.45594000000E+02  0.51100000000E-03 0.  1.
         11   -1    0    0    0    0 -0.00000000000E+00 -0.00000000000E+00 -0.45593999997E+02  0.45594000000E+02  0.51100000000E-03 0. -1.
    9900012    2    1    2    0    0  0.25372022563E+02 -0.23776339049E+02 -0.25972464964E+02  0.47787276921E+02  0.20000026792E+02 0.  0.
        -12    1    1    2    0    0 -0.25372022563E+02  0.23776339049E+02  0.25972464964E+02  0.43400723079E+02  0.00000000000E+00 0.  1.
         11    1    3    3    0    0  0.13083702657E+02 -0.20746658870E+02 -0.81606460132E+01  0.25849628103E+02  0.51100000000E-03 0. -1.
        -11    1    3    3    0    0  0.60457105631E+01 -0.24922148254E+01 -0.92511721342E+01  0.11328986586E+02  0.51100000000E-03 0.  1.
         12    1    3    3    0    0  0.62426093427E+01 -0.53746535343E+00 -0.85606468171E+01  0.10608662231E+02  0.00000000000E+00 0. -1.
</event>
<event>
 7    1  0.2886681E-010  0.4778727E+02  0.7816164E-02  0.1312668E+00
        -11   -1    0    0    0    0  0.00000000000E+00  0.00000000000E+00  0.45593999997E+02  0.45594000000E+02  0.51100000000E-03 0. -1.
         11   -1    0    0    0    0 -0.00000000000E+00 -0.00000000000E+00 -0.45593999997E+02  0.45594000000E+02  0.51100000000E-03 0.  1.
    9900012    2    1    2    0    0  0.90471537412E+01 -0.38975515844E+02  0.16813131646E+02  0.47787271644E+02  0.20000002733E+02 0.  0.
        -12    1    1    2    0    0 -0.90471537412E+01  0.38975515844E+02 -0.16813131646E+02  0.43400728356E+02  0.00000000000E+00 0.  1.
         11    1    3    3    0    0 -0.19661011911E+01 -0.18145653483E+02  0.57908977429E+01  0.19148493182E+02  0.51100000000E-03 0. -1.
        -11    1    3    3    0    0  0.11398114794E+02 -0.99332099494E+01  0.88572874985E+01  0.17522477646E+02  0.51100000000E-03 0.  1.
        -12    1    3    3    0    0 -0.38485986198E+00 -0.10896652411E+02  0.21649464041E+01  0.11116300815E+02  0.00000000000E+00 0.  1.
</event>
<event>
 7    1  0.2886681E-010  0.4778728E+02  0.7816164E-02  0.1312668E+00
        -11   -1    0    0    0    0  0.00000000000E+00  0.00000000000E+00  0.45593999997E+02  0.45594000000E+02  0.51100000000E-03 0. -1.
         11   -1    0    0    0    0 -0.00000000000E+00 -0.00000000000E+00 -0.45593999997E+02  0.45594000000E+02  0.51100000000E-03 0.  1.
    9900012    2    1    2    0    0  0.35544467093E+02 -0.10124076587E+02  0.22753374925E+02  0.47787284129E+02  0.20000059656E+02 0.  0.
        -12    1    1    2    0    0 -0.35544467093E+02  0.10124076587E+02 -0.22753374925E+02  0.43400715871E+02  0.00000000000E+00 0.  1.
         11    1    3    3    0    0  0.72027311678E+01 -0.10670279383E+02  0.90607158903E+01  0.15742641808E+02  0.51100000000E-03 0. -1.
        -11    1    3    3    0    0  0.20174323333E+02  0.18505107474E+01  0.12174093051E+02  0.23635487171E+02  0.51100000000E-03 0.  1.
        -12    1    3    3    0    0  0.81674125921E+01 -0.13043079517E+01  0.15185659847E+01  0.84091551497E+01  0.00000000000E+00 0.  1.
</event>
<event>
 7    1  0.2886681E-010  0.4778727E+02  0.7816164E-02  0.1312668E+00
        -11   -1    0    0    0    0  0.00000000000E+00  0.00000000000E+00  0.45593999997E+02  0.45594000000E+02  0.51100000000E-03 0.  1.
         11   -1    0    0    0    0 -0.00000000000E+00 -0.00000000000E+00 -0.45593999997E+02  0.45594000000E+02  0.51100000000E-03 0. -1.
    9900012    2    1    2    0    0  0.32875756573E+02 -0.18458221925E+02 -0.21496551658E+02  0.47787273507E+02  0.20000011229E+02 0.  0.
        -12    1    1    2    0    0 -0.32875756573E+02  0.18458221925E+02  0.21496551658E+02  0.43400726493E+02  0.00000000000E+00 0.  1.
         11    1    3    3    0    0  0.17478299237E+02 -0.12278691224E+02 -0.72272549418E+01  0.22549732075E+02  0.51100000000E-03 0. -1.
        -11    1    3    3    0    0  0.19487448837E+01  0.34565270151E+01 -0.45987194498E+01  0.60739942762E+01  0.51100000000E-03 0.  1.
        -12    1    3    3    0    0  0.13448712452E+02 -0.96360577165E+01 -0.96705772666E+01  0.19163547156E+02  0.00000000000E+00 0.  1.
</event>
<event>
 7    1  0.2886681E-010  0.4778727E+02  0.7816164E-02  0.1312668E+00
        -11   -1    0    0    0    0  0.00000000000E+00  0.00000000000E+00  0.45593999997E+02  0.45594000000E+02  0.51100000000E-03 0.  1.
         11   -1    0    0    0    0 -0.00000000000E+00 -0.00000000000E+00 -0.45593999997E+02  0.45594000000E+02  0.51100000000E-03 0. -1.
    9900012    2    1    2    0    0  0.15797270414E+00  0.91298457026E+01 -0.42429288849E+02  0.47787267401E+02  0.19999983388E+02 0.  0.
        -12    1    1    2    0    0 -0.15797270414E+00 -0.91298457026E+01  0.42429288849E+02  0.43400732599E+02  0.00000000000E+00 0.  1.
         11    1    3    3    0    0 -0.75173690082E+01  0.79101375221E+01 -0.17398976288E+02  0.20537903704E+02  0.51100000000E-03 0. -1.
        -11    1    3    3    0    0  0.47386506512E+01 -0.87113117515E+00 -0.22055053005E+02  0.22575186440E+02  0.51100000000E-03 0.  1.
         12    1    3    3    0    0  0.29366910611E+01  0.20908393557E+01 -0.29752595562E+01  0.46741772567E+01  0.00000000000E+00 0. -1.
</event>
<event>
 7    1  0.2886681E-010  0.4778727E+02  0.7816164E-02  0.1312668E+00
        -11   -1    0    0    0    0  0.00000000000E+00  0.00000000000E+00  0.45593999997E+02  0.45594000000E+02  0.51100000000E-03 0. -1.
         11   -1    0    0    0    0 -0.00000000000E+00 -0.00000000000E+00 -0.45593999997E+02  0.45594000000E+02  0.51100000000E-03 0.  1.
    9900012    2    1    2    0    0 -0.80517098099E+01  0.19660208623E+02  0.37845336469E+02  0.47787270439E+02  0.19999997241E+02 0.  0.
        -12    1    1    2    0    0  0.80517098099E+01 -0.19660208623E+02 -0.37845336469E+02  0.43400729561E+02  0.00000000000E+00 0.  1.
         11    1    3    3    0    0 -0.39170320040E+01  0.31042582731E+01  0.48515275371E+01  0.69654058640E+01  0.51100000000E-03 0. -1.
        -11    1    3    3    0    0 -0.47731344732E+01  0.13105560061E+02  0.90594692684E+01  0.16631671621E+02  0.51100000000E-03 0.  1.
        -12    1    3    3    0    0  0.63845666729E+00  0.34503902888E+01  0.23934339663E+02  0.24190192954E+02  0.00000000000E+00 0.  1.
</event>
<event>
 7    1  0.2886681E-010  0.4778727E+02  0.7816164E-02  0.1312668E+00
        -11   -1    0    0    0    0  0.00000000000E+00  0.00000000000E+00  0.45593999997E+02  0.45594000000E+02  0.51100000000E-03 0.  1.
         11   -1    0    0    0    0 -0.00000000000E+00 -0.00000000000E+00 -0.45593999997E+02  0.45594000000E+02  0.51100000000E-03 0. -1.
    9900012    2    1    2    0    0  0.29500267958E+02 -0.26887926048E+02 -0.17041049215E+02  0.47787265731E+02  0.19999975774E+02 0.  0.
        -12    1    1    2    0    0 -0.29500267958E+02  0.26887926048E+02  0.17041049215E+02  0.43400734269E+02  0.00000000000E+00 0.  1.
         11    1    3    3    0    0  0.17820906813E+02 -0.23951342986E+02 -0.85190373535E+01  0.31045539908E+02  0.51100000000E-03 0. -1.
        -11    1    3    3    0    0  0.97667164467E+01 -0.11198454549E+01 -0.97377232768E+01  0.13837126106E+02  0.51100000000E-03 0.  1.
        -12    1    3    3    0    0  0.19126446977E+01 -0.18167376066E+01  0.12157114149E+01  0.29045997169E+01  0.00000000000E+00 0.  1.
</event>
<event>
 7    1  0.2886681E-010  0.4778727E+02  0.7816164E-02  0.1312668E+00
        -11   -1    0    0    0    0  0.00000000000E+00  0.00000000000E+00  0.45593999997E+02  0.45594000000E+02  0.51100000000E-03 0. -1.
         11   -1    0    0    0    0 -0.00000000000E+00 -0.00000000000E+00 -0.45593999997E+02  0.45594000000E+02  0.51100000000E-03 0.  1.
    9900012    2    1    2    0    0  0.18861621170E+02 -0.34151870790E+02  0.19013477067E+02  0.47787270262E+02  0.19999996433E+02 0.  0.
        -12    1    1    2    0    0 -0.18861621170E+02  0.34151870790E+02 -0.19013477067E+02  0.43400729738E+02  0.00000000000E+00 0.  1.
         11    1    3    3    0    0  0.75827048336E+00 -0.78393594320E+01  0.11898335661E+02  0.14268879500E+02  0.51100000000E-03 0. -1.
        -11    1    3    3    0    0  0.88872149983E+00 -0.26995272388E+00  0.15519415777E+01  0.18086523434E+01  0.51100000000E-03 0.  1.
         12    1    3    3    0    0  0.17214629186E+02 -0.26042558634E+02  0.55631998285E+01  0.31709738419E+02  0.00000000000E+00 0. -1.
</event>
<event>
 7    1  0.2886681E-010  0.4778727E+02  0.7816164E-02  0.1312668E+00
        -11   -1    0    0    0    0  0.00000000000E+00  0.00000000000E+00  0.45593999997E+02  0.45594000000E+02  0.51100000000E-03 0.  1.
         11   -1    0    0    0    0 -0.00000000000E+00 -0.00000000000E+00 -0.45593999997E+02  0.45594000000E+02  0.51100000000E-03 0. -1.
    9900012    2    1    2    0    0  0.20203941253E+02 -0.38410333336E+02 -0.26468227605E+00  0.47787274133E+02  0.20000014081E+02 0.  0.
        -12    1    1    2    0    0 -0.20203941253E+02  0.38410333336E+02  0.26468227605E+00  0.43400725867E+02  0.00000000000E+00 0.  1.
         11    1    3    3    0    0  0.16361793576E+02 -0.30096981143E+02  0.13233029950E+01  0.34282469193E+02  0.51100000000E-03 0. -1.
        -11    1    3    3    0    0 -0.20026247461E+01 -0.65303066226E+01 -0.26044031455E+01  0.73101522874E+01  0.51100000000E-03 0.  1.
        -12    1    3    3    0    0  0.58447724233E+01 -0.17830455703E+01  0.10164178744E+01  0.61946526522E+01  0.00000000000E+00 0.  1.
</event>
<event>
 7    1  0.2886681E-010  0.4778725E+02  0.7816164E-02  0.1312668E+00
        -11   -1    0    0    0    0  0.00000000000E+00  0.00000000000E+00  0.45593999997E+02  0.45594000000E+02  0.51100000000E-03 0.  1.
         11   -1    0    0    0    0 -0.00000000000E+00 -0.00000000000E+00 -0.45593999997E+02  0.45594000000E+02  0.51100000000E-03 0. -1.
    9900012    2    1    2    0    0 -0.32748684872E+02  0.74893992428E+01 -0.27478308675E+02  0.47787252202E+02  0.19999914088E+02 0.  0.
        -12    1    1    2    0    0  0.32748684872E+02 -0.74893992428E+01  0.27478308675E+02  0.43400747798E+02  0.00000000000E+00 0.  1.
         11    1    3    3    0    0 -0.58441115081E+01  0.88634709351E+01 -0.41912843814E+01  0.11414097484E+02  0.51100000000E-03 0. -1.
        -11    1    3    3    0    0 -0.17893020642E+02  0.21880479372E+00 -0.19508746483E+02  0.26472613260E+02  0.51100000000E-03 0.  1.
         12    1    3    3    0    0 -0.90115527213E+01 -0.15928764861E+01 -0.37782778105E+01  0.99005414580E+01  0.00000000000E+00 0. -1.
</event>
<event>
 7    1  0.2886681E-010  0.4778728E+02  0.7816164E-02  0.1312668E+00
        -11   -1    0    0    0    0  0.00000000000E+00  0.00000000000E+00  0.45593999997E+02  0.45594000000E+02  0.51100000000E-03 0.  1.
         11   -1    0    0    0    0 -0.00000000000E+00 -0.00000000000E+00 -0.45593999997E+02  0.45594000000E+02  0.51100000000E-03 0. -1.
    9900012    2    1    2    0    0 -0.20633481830E+01  0.42061933444E+02 -0.10495676287E+02  0.47787275681E+02  0.20000021138E+02 0.  0.
        -12    1    1    2    0    0  0.20633481830E+01 -0.42061933444E+02  0.10495676287E+02  0.43400724319E+02  0.00000000000E+00 0.  1.
         11    1    3    3    0    0 -0.65477140861E+00  0.11152441021E+02 -0.87937253824E+01  0.14217428484E+02  0.51100000000E-03 0. -1.
        -11    1    3    3    0    0 -0.62908654519E+00  0.10404704362E+02  0.55466532370E+01  0.11807581681E+02  0.51100000000E-03 0.  1.
        -12    1    3    3    0    0 -0.77949022925E+00  0.20504788060E+02 -0.72486041412E+01  0.21762265516E+02  0.00000000000E+00 0.  1.
</event>
<event>
 7    1  0.2886681E-010  0.4778728E+02  0.7816164E-02  0.1312668E+00
        -11   -1    0    0    0    0  0.00000000000E+00  0.00000000000E+00  0.45593999997E+02  0.45594000000E+02  0.51100000000E-03 0. -1.
         11   -1    0    0    0    0 -0.00000000000E+00 -0.00000000000E+00 -0.45593999997E+02  0.45594000000E+02  0.51100000000E-03 0.  1.
    9900012    2    1    2    0    0  0.49279828133E+01 -0.29448815210E+02  0.31497699564E+02  0.47787276392E+02  0.20000024381E+02 0.  0.
        -12    1    1    2    0    0 -0.49279828133E+01  0.29448815210E+02 -0.31497699564E+02  0.43400723608E+02  0.00000000000E+00 0.  1.
         11    1    3    3    0    0  0.99280643922E+01 -0.18845208886E+02  0.18389344145E+02  0.28140297420E+02  0.51100000000E-03 0. -1.
        -11    1    3    3    0    0  0.11327914602E+01 -0.54915124273E+01  0.91601163002E+01  0.10740002613E+02  0.51100000000E-03 0.  1.
         12    1    3    3    0    0 -0.61328730390E+01 -0.51120938972E+01  0.39482391182E+01  0.89069763591E+01  0.00000000000E+00 0. -1.
</event>
<event>
 7    1  0.2886681E-010  0.4778727E+02  0.7816164E-02  0.1312668E+00
        -11   -1    0    0    0    0  0.00000000000E+00  0.00000000000E+00  0.45593999997E+02  0.45594000000E+02  0.51100000000E-03 0. -1.
         11   -1    0    0    0    0 -0.00000000000E+00 -0.00000000000E+00 -0.45593999997E+02  0.45594000000E+02  0.51100000000E-03 0.  1.
    9900012    2    1    2    0    0 -0.64081443545E+01 -0.12710040460E+02  0.41000171596E+02  0.47787268284E+02  0.19999987416E+02 0.  0.
        -12    1    1    2    0    0  0.64081443545E+01  0.12710040460E+02 -0.41000171596E+02  0.43400731716E+02  0.00000000000E+00 0.  1.
         11    1    3    3    0    0 -0.80052973534E+01 -0.85169146002E+01  0.12895755196E+02  0.17404686793E+02  0.51100000000E-03 0. -1.
        -11    1    3    3    0    0 -0.82415421861E+00  0.33613400588E+01  0.10922662793E+02  0.11457853199E+02  0.51100000000E-03 0.  1.
         12    1    3    3    0    0  0.24213072175E+01 -0.75544659186E+01  0.17181753607E+02  0.18924728293E+02  0.00000000000E+00 0. -1.
</event>
<event>
 7    1  0.2886681E-010  0.4778727E+02  0.7816164E-02  0.1312668E+00
        -11   -1    0    0    0    0  0.00000000000E+00  0.00000000000E+00  0.45593999997E+02  0.45594000000E+02  0.51100000000E-03 0.  1.
         11   -1    0    0    0    0 -0.00000000000E+00 -0.00000000000E+00 -0.45593999997E+02  0.45594000000E+02  0.51100000000E-03 0. -1.
    9900012    2    1    2    0    0  0.42032348324E+01  0.17072664001E+02 -0.39679725322E+02  0.47787266818E+02  0.19999980729E+02 0.  0.
        -12    1    1    2    0    0 -0.42032348324E+01 -0.17072664001E+02  0.39679725322E+02  0.43400733182E+02  0.00000000000E+00 0.  1.
         11    1    3    3    0    0  0.19536856556E+01 -0.28765308823E+01 -0.68716814748E+01  0.77013845580E+01  0.51100000000E-03 0. -1.
        -11    1    3    3    0    0  0.70345293159E+00  0.19677445485E+02 -0.23555480262E+02  0.30701097008E+02  0.51100000000E-03 0.  1.
        -12    1    3    3    0    0  0.15460962452E+01  0.27174939870E+00 -0.92525635850E+01  0.93847852522E+01  0.00000000000E+00 0.  1.
</event>
<event>
 7    1  0.2886681E-010  0.4778725E+02  0.7816164E-02  0.1312668E+00
        -11   -1    0    0    0    0  0.00000000000E+00  0.00000000000E+00  0.45593999997E+02  0.45594000000E+02  0.51100000000E-03 0.  1.
         11   -1    0    0    0    0 -0.00000000000E+00 -0.00000000000E+00 -0.45593999997E+02  0.45594000000E+02  0.51100000000E-03 0. -1.
    9900012    2    1    2    0    0  0.21587230914E+02  0.13441848099E+02 -0.35170068297E+02  0.47787245135E+02  0.19999881866E+02 0.  0.
        -12    1    1    2    0    0 -0.21587230914E+02 -0.13441848099E+02  0.35170068297E+02  0.43400754865E+02  0.00000000000E+00 0.  1.
         11    1    3    3    0    0  0.27145725600E+01 -0.45390760873E+01 -0.45473171339E+01  0.69749701997E+01  0.51100000000E-03 0. -1.
        -11    1    3    3    0    0  0.30380482057E+01  0.22178802784E+01 -0.13707226366E+01  0.40034498420E+01  0.51100000000E-03 0.  1.
         12    1    3    3    0    0  0.15834610149E+02  0.15763043908E+02 -0.29252028526E+02  0.36808825093E+02  0.00000000000E+00 0. -1.
</event>
<event>
 7    1  0.2886681E-010  0.4778728E+02  0.7816164E-02  0.1312668E+00
        -11   -1    0    0    0    0  0.00000000000E+00  0.00000000000E+00  0.45593999997E+02  0.45594000000E+02  0.51100000000E-03 0.  1.
         11   -1    0    0    0    0 -0.00000000000E+00 -0.00000000000E+00 -0.45593999997E+02  0.45594000000E+02  0.51100000000E-03 0. -1.
    9900012    2    1    2    0    0 -0.88672608874E+01  0.19325843179E+02 -0.37835242810E+02  0.47787284237E+02  0.20000060150E+02 0.  0.
        -12    1    1    2    0    0  0.88672608874E+01 -0.19325843179E+02  0.37835242810E+02  0.43400715763E+02  0.00000000000E+00 0.  1.
         11    1    3    3    0    0 -0.11502674719E+01  0.53541812674E+01 -0.68751046673E+01  0.87896209673E+01  0.51100000000E-03 0. -1.
        -11    1    3    3    0    0  0.16013216336E+01  0.12211571920E+02 -0.24798848751E+02  0.27688799529E+02  0.51100000000E-03 0.  1.
        -12    1    3    3    0    0 -0.93183150491E+01  0.17600899917E+01 -0.61612893919E+01  0.11308863741E+02  0.00000000000E+00 0.  1.
</event>
<event>
 7    1  0.2886681E-010  0.4778727E+02  0.7816164E-02  0.1312668E+00
        -11   -1    0    0    0    0  0.00000000000E+00  0.00000000000E+00  0.45593999997E+02  0.45594000000E+02  0.51100000000E-03 0.  1.
         11   -1    0    0    0    0 -0.00000000000E+00 -0.00000000000E+00 -0.45593999997E+02  0.45594000000E+02  0.51100000000E-03 0. -1.
    9900012    2    1    2    0    0  0.28887927178E+02  0.27964896034E+02 -0.16342444169E+02  0.47787271570E+02  0.20000002397E+02 0.  0.
        -12    1    1    2    0    0 -0.28887927178E+02 -0.27964896034E+02  0.16342444169E+02  0.43400728430E+02  0.00000000000E+00 0.  1.
         11    1    3    3    0    0  0.55129242608E+01 -0.92628065917E+00 -0.51691456942E+01  0.76138293410E+01  0.51100000000E-03 0. -1.
        -11    1    3    3    0    0  0.14480863142E+01  0.13652555113E+01  0.17832781829E+01  0.26722570840E+01  0.51100000000E-03 0.  1.
         12    1    3    3    0    0  0.21926916603E+02  0.27525921181E+02 -0.12956576658E+02  0.37501185145E+02  0.00000000000E+00 0. -1.
</event>
<event>
 7    1  0.2886681E-010  0.4778728E+02  0.7816164E-02  0.1312668E+00
        -11   -1    0    0    0    0  0.00000000000E+00  0.00000000000E+00  0.45593999997E+02  0.45594000000E+02  0.51100000000E-03 0.  1.
         11   -1    0    0    0    0 -0.00000000000E+00 -0.00000000000E+00 -0.45593999997E+02  0.45594000000E+02  0.51100000000E-03 0. -1.
    9900012    2    1    2    0    0 -0.39956049704E+02  0.15143216049E+02 -0.76039436842E+01  0.47787275815E+02  0.20000021751E+02 0.  0.
        -12    1    1    2    0    0  0.39956049704E+02 -0.15143216049E+02  0.76039436842E+01  0.43400724185E+02  0.00000000000E+00 0.  1.
         11    1    3    3    0    0 -0.12907279116E+00  0.28532411209E+01 -0.18644258201E+01  0.34108252050E+01  0.51100000000E-03 0. -1.
        -11    1    3    3    0    0 -0.21378800860E+02  0.98238435992E+01  0.31720216205E+01  0.23740740315E+02  0.51100000000E-03 0.  1.
        -12    1    3    3    0    0 -0.18448176053E+02  0.24661313287E+01 -0.89115394847E+01  0.20635710295E+02  0.00000000000E+00 0.  1.
</event>
<event>
 7    1  0.2886681E-010  0.4778727E+02  0.7816164E-02  0.1312668E+00
        -11   -1    0    0    0    0  0.00000000000E+00  0.00000000000E+00  0.45593999997E+02  0.45594000000E+02  0.51100000000E-03 0. -1.
         11   -1    0    0    0    0 -0.00000000000E+00 -0.00000000000E+00 -0.45593999997E+02  0.45594000000E+02  0.51100000000E-03 0.  1.
    9900012    2    1    2    0    0  0.40198012652E+02  0.74269175815E+01 -0.14580256188E+02  0.47787271937E+02  0.20000004068E+02 0.  0.
        -12    1    1    2    0    0 -0.40198012652E+02 -0.74269175815E+01  0.14580256188E+02  0.43400728063E+02  0.00000000000E+00 0.  1.
         11    1    3    3    0    0  0.13198103059E+02  0.45297401975E+01 -0.12658219520E+02  0.18839824635E+02  0.51100000000E-03 0. -1.
        -11    1    3    3    0    0  0.78036888556E+01 -0.32670533128E+01  0.12028393253E+01  0.85450582097E+01  0.51100000000E-03 0.  1.
        -12    1    3    3    0    0  0.19196220737E+02  0.61642306969E+01 -0.31248759930E+01  0.20402389092E+02  0.00000000000E+00 0.  1.
</event>
<event>
 7    1  0.2886681E-010  0.4778727E+02  0.7816164E-02  0.1312668E+00
        -11   -1    0    0    0    0  0.00000000000E+00  0.00000000000E+00  0.45593999997E+02  0.45594000000E+02  0.51100000000E-03 0. -1.
         11   -1    0    0    0    0 -0.00000000000E+00 -0.00000000000E+00 -0.45593999997E+02  0.45594000000E+02  0.51100000000E-03 0.  1.
    9900012    2    1    2    0    0 -0.21484303241E+02 -0.20238335832E+02  0.31819141247E+02  0.47787271058E+02  0.20000000060E+02 0.  0.
        -12    1    1    2    0    0  0.21484303241E+02  0.20238335832E+02 -0.31819141247E+02  0.43400728942E+02  0.00000000000E+00 0.  1.
         11    1    3    3    0    0 -0.28183234872E+01 -0.93768057812E+01  0.28837255838E+01  0.10207022457E+02  0.51100000000E-03 0.  1.
        -11    1    3    3    0    0 -0.77956299412E+01 -0.73211291198E+01  0.21295711601E+02  0.23830193256E+02  0.51100000000E-03 0. -1.
         12    1    3    3    0    0 -0.10870349813E+02 -0.35404009309E+01  0.76397040621E+01  0.13750055344E+02  0.00000000000E+00 0. -1.
</event>
<event>
 7    1  0.2886681E-010  0.4778727E+02  0.7816164E-02  0.1312668E+00
        -11   -1    0    0    0    0  0.00000000000E+00  0.00000000000E+00  0.45593999997E+02  0.45594000000E+02  0.51100000000E-03 0.  1.
         11   -1    0    0    0    0 -0.00000000000E+00 -0.00000000000E+00 -0.45593999997E+02  0.45594000000E+02  0.51100000000E-03 0. -1.
    9900012    2    1    2    0    0  0.38794360458E+02 -0.13475937547E+02  0.14036382341E+02  0.47787270452E+02  0.19999997297E+02 0.  0.
        -12    1    1    2    0    0 -0.38794360458E+02  0.13475937547E+02 -0.14036382341E+02  0.43400729548E+02  0.00000000000E+00 0.  1.
         11    1    3    3    0    0  0.14716913944E+02 -0.15818243499E+01 -0.11753161018E+01  0.14848269007E+02  0.51100000000E-03 0. -1.
        -11    1    3    3    0    0  0.25038419537E+02 -0.12518349838E+02  0.14106051898E+02  0.31346646328E+02  0.51100000000E-03 0.  1.
        -12    1    3    3    0    0 -0.96097302312E+00  0.62423664085E+00  0.11056465450E+01  0.15923551167E+01  0.00000000000E+00 0.  1.
</event>
<event>
 7    1  0.2886681E-010  0.4778727E+02  0.7816164E-02  0.1312668E+00
        -11   -1    0    0    0    0  0.00000000000E+00  0.00000000000E+00  0.45593999997E+02  0.45594000000E+02  0.51100000000E-03 0.  1.
         11   -1    0    0    0    0 -0.00000000000E+00 -0.00000000000E+00 -0.45593999997E+02  0.45594000000E+02  0.51100000000E-03 0. -1.
    9900012    2    1    2    0    0  0.18243425421E+02  0.29515407013E+01 -0.39269438228E+02  0.47787274864E+02  0.20000017415E+02 0.  0.
        -12    1    1    2    0    0 -0.18243425421E+02 -0.29515407013E+01  0.39269438228E+02  0.43400725136E+02  0.00000000000E+00 0.  1.
         11    1    3    3    0    0  0.20821049900E+02  0.14083004819E+01 -0.34850293523E+02  0.40620713781E+02  0.51100000000E-03 0. -1.
        -11    1    3    3    0    0 -0.17698807265E+01  0.22371362332E+01 -0.24994218508E+00  0.28635166612E+01  0.51100000000E-03 0.  1.
         12    1    3    3    0    0 -0.80774375230E+00 -0.69389601385E+00 -0.41692025195E+01  0.43030444218E+01  0.00000000000E+00 0. -1.
</event>
<event>
 7    1  0.2886681E-010  0.4778727E+02  0.7816164E-02  0.1312668E+00
        -11   -1    0    0    0    0  0.00000000000E+00  0.00000000000E+00  0.45593999997E+02  0.45594000000E+02  0.51100000000E-03 0.  1.
         11   -1    0    0    0    0 -0.00000000000E+00 -0.00000000000E+00 -0.45593999997E+02  0.45594000000E+02  0.51100000000E-03 0. -1.
    9900012    2    1    2    0    0  0.78289539547E+01  0.21054165593E+02 -0.37135606803E+02  0.47787266118E+02  0.19999977539E+02 0.  0.
        -12    1    1    2    0    0 -0.78289539547E+01 -0.21054165593E+02  0.37135606803E+02  0.43400733882E+02  0.00000000000E+00 0.  1.
         11    1    3    3    0    0  0.68439392811E+01  0.66555310452E+00 -0.88986770084E+01  0.11245840057E+02  0.51100000000E-03 0. -1.
        -11    1    3    3    0    0  0.48135223419E+01  0.18054115001E+02 -0.23422318609E+02  0.29962077282E+02  0.51100000000E-03 0.  1.
         12    1    3    3    0    0 -0.38285076683E+01  0.23344974872E+01 -0.48146111861E+01  0.65793487791E+01  0.00000000000E+00 0. -1.
</event>
<event>
 7    1  0.2886681E-010  0.4778731E+02  0.7816164E-02  0.1312668E+00
        -11   -1    0    0    0    0  0.00000000000E+00  0.00000000000E+00  0.45593999997E+02  0.45594000000E+02  0.51100000000E-03 0.  1.
         11   -1    0    0    0    0 -0.00000000000E+00 -0.00000000000E+00 -0.45593999997E+02  0.45594000000E+02  0.51100000000E-03 0. -1.
    9900012    2    1    2    0    0  0.34457837512E+02  0.12818854125E+02 -0.23064137247E+02  0.47787308600E+02  0.20000171229E+02 0.  0.
        -12    1    1    2    0    0 -0.34457837512E+02 -0.12818854125E+02  0.23064137247E+02  0.43400691400E+02  0.00000000000E+00 0.  1.
         11    1    3    3    0    0  0.17132583625E+02  0.92012318797E+01 -0.16118887471E+01  0.19513745805E+02  0.51100000000E-03 0. -1.
        -11    1    3    3    0    0  0.17595381705E+01  0.15921509742E+01 -0.49992071822E+01  0.55338044788E+01  0.51100000000E-03 0.  1.
         12    1    3    3    0    0  0.15565715717E+02  0.20254712713E+01 -0.16453041318E+02  0.22739758315E+02  0.00000000000E+00 0. -1.
</event>
<event>
 7    1  0.2886681E-010  0.4778727E+02  0.7816164E-02  0.1312668E+00
        -11   -1    0    0    0    0  0.00000000000E+00  0.00000000000E+00  0.45593999997E+02  0.45594000000E+02  0.51100000000E-03 0.  1.
         11   -1    0    0    0    0 -0.00000000000E+00 -0.00000000000E+00 -0.45593999997E+02  0.45594000000E+02  0.51100000000E-03 0. -1.
    9900012    2    1    2    0    0 -0.15536100953E+02  0.16882342381E+02 -0.36840725082E+02  0.47787274872E+02  0.20000017450E+02 0.  0.
        -12    1    1    2    0    0  0.15536100953E+02 -0.16882342381E+02  0.36840725082E+02  0.43400725128E+02  0.00000000000E+00 0.  1.
         11    1    3    3    0    0 -0.12618892788E+02  0.17252338023E+02 -0.16001284052E+02  0.26700575163E+02  0.51100000000E-03 0. -1.
        -11    1    3    3    0    0 -0.75139106687E+00 -0.66097750407E+00 -0.80412715097E+01  0.81033034961E+01  0.51100000000E-03 0.  1.
         12    1    3    3    0    0 -0.21658170985E+01  0.29098186222E+00 -0.12798169521E+02  0.12983396213E+02  0.00000000000E+00 0. -1.
</event>
<event>
 7    1  0.2886681E-010  0.4778727E+02  0.7816164E-02  0.1312668E+00
        -11   -1    0    0    0    0  0.00000000000E+00  0.00000000000E+00  0.45593999997E+02  0.45594000000E+02  0.51100000000E-03 0.  1.
         11   -1    0    0    0    0 -0.00000000000E+00 -0.00000000000E+00 -0.45593999997E+02  0.45594000000E+02  0.51100000000E-03 0. -1.
    9900012    2    1    2    0    0 -0.67046715042E+01  0.27373594381E+02 -0.33005407290E+02  0.47787271899E+02  0.20000003896E+02 0.  0.
        -12    1    1    2    0    0  0.67046715042E+01 -0.27373594381E+02  0.33005407290E+02  0.43400728101E+02  0.00000000000E+00 0.  1.
         11    1    3    3    0    0  0.46000796401E+01  0.64871248385E+01 -0.59114660437E+01  0.99090338788E+01  0.51100000000E-03 0. -1.
        -11    1    3    3    0    0 -0.10334214211E+02  0.17094851077E+02 -0.27449161306E+02  0.33948289698E+02  0.51100000000E-03 0.  1.
         12    1    3    3    0    0 -0.97053693281E+00  0.37916184654E+01  0.35522005977E+00  0.39299483223E+01  0.00000000000E+00 0. -1.
</event>
<event>
 7    1  0.2886681E-010  0.4778728E+02  0.7816164E-02  0.1312668E+00
        -11   -1    0    0    0    0  0.00000000000E+00  0.00000000000E+00  0.45593999997E+02  0.45594000000E+02  0.51100000000E-03 0.  1.
         11   -1    0    0    0    0 -0.00000000000E+00 -0.00000000000E+00 -0.45593999997E+02  0.45594000000E+02  0.51100000000E-03 0. -1.
    9900012    2    1    2    0    0  0.27965087359E+02  0.32355514098E+02 -0.73957753451E+01  0.47787275392E+02  0.20000019824E+02 0.  0.
        -12    1    1    2    0    0 -0.27965087359E+02 -0.32355514098E+02  0.73957753451E+01  0.43400724608E+02  0.00000000000E+00 0.  1.
         11    1    3    3    0    0  0.21306149818E+02  0.21744720450E+02 -0.13672983475E+02  0.33372673925E+02  0.51100000000E-03 0. -1.
        -11    1    3    3    0    0  0.62552538219E+01  0.10648950790E+02  0.54620455904E+01  0.13504158456E+02  0.51100000000E-03 0.  1.
         12    1    3    3    0    0  0.40368371925E+00 -0.38157142208E-01  0.81516253947E+00  0.91044301219E+00  0.00000000000E+00 0. -1.
</event>
<event>
 7    1  0.2886681E-010  0.4778727E+02  0.7816164E-02  0.1312668E+00
        -11   -1    0    0    0    0  0.00000000000E+00  0.00000000000E+00  0.45593999997E+02  0.45594000000E+02  0.51100000000E-03 0.  1.
         11   -1    0    0    0    0 -0.00000000000E+00 -0.00000000000E+00 -0.45593999997E+02  0.45594000000E+02  0.51100000000E-03 0. -1.
    9900012    2    1    2    0    0 -0.15168779772E+02 -0.61651362140E+01 -0.40193563859E+02  0.47787270052E+02  0.19999995476E+02 0.  0.
        -12    1    1    2    0    0  0.15168779772E+02  0.61651362140E+01  0.40193563859E+02  0.43400729948E+02  0.00000000000E+00 0.  1.
         11    1    3    3    0    0 -0.13002187037E+02 -0.19826834762E+00 -0.30611781038E+02  0.33259244078E+02  0.51100000000E-03 0. -1.
        -11    1    3    3    0    0  0.87540266225E+00 -0.66497720142E+01 -0.32128529746E+01  0.74369497887E+01  0.51100000000E-03 0.  1.
        -12    1    3    3    0    0 -0.30419953978E+01  0.68290414791E+00 -0.63689298468E+01  0.70910761855E+01  0.00000000000E+00 0.  1.
</event>
<event>
 7    1  0.2886681E-010  0.4778727E+02  0.7816164E-02  0.1312668E+00
        -11   -1    0    0    0    0  0.00000000000E+00  0.00000000000E+00  0.45593999997E+02  0.45594000000E+02  0.51100000000E-03 0.  1.
         11   -1    0    0    0    0 -0.00000000000E+00 -0.00000000000E+00 -0.45593999997E+02  0.45594000000E+02  0.51100000000E-03 0. -1.
    9900012    2    1    2    0    0  0.13172395927E+02  0.12293288841E+02 -0.39483996538E+02  0.47787274803E+02  0.20000017139E+02 0.  0.
        -12    1    1    2    0    0 -0.13172395927E+02 -0.12293288841E+02  0.39483996538E+02  0.43400725197E+02  0.00000000000E+00 0.  1.
         11    1    3    3    0    0  0.75881418280E+01  0.76692236509E+01 -0.32720501940E+02  0.34453274667E+02  0.51100000000E-03 0. -1.
        -11    1    3    3    0    0 -0.18294811660E+00 -0.17367009871E+01 -0.39166233999E+01  0.42883026304E+01  0.51100000000E-03 0.  1.
         12    1    3    3    0    0  0.57672022159E+01  0.63607661768E+01 -0.28468711981E+01  0.90456975062E+01  0.00000000000E+00 0. -1.
</event>
<event>
 7    1  0.2886681E-010  0.4778727E+02  0.7816164E-02  0.1312668E+00
        -11   -1    0    0    0    0  0.00000000000E+00  0.00000000000E+00  0.45593999997E+02  0.45594000000E+02  0.51100000000E-03 0.  1.
         11   -1    0    0    0    0 -0.00000000000E+00 -0.00000000000E+00 -0.45593999997E+02  0.45594000000E+02  0.51100000000E-03 0. -1.
    9900012    2    1    2    0    0 -0.26708762358E+02  0.29540025012E+02 -0.17252607428E+02  0.47787268123E+02  0.19999986680E+02 0.  0.
        -12    1    1    2    0    0  0.26708762358E+02 -0.29540025012E+02  0.17252607428E+02  0.43400731877E+02  0.00000000000E+00 0.  1.
         11    1    3    3    0    0 -0.32816213952E+01  0.65957392241E+01 -0.28911500865E+01  0.79140106127E+01  0.51100000000E-03 0. -1.
        -11    1    3    3    0    0  0.19108376832E+01 -0.10497019541E+01 -0.12099575373E+00  0.21835327058E+01  0.51100000000E-03 0.  1.
        -12    1    3    3    0    0 -0.25337978646E+02  0.23993987742E+02 -0.14240461588E+02  0.37689724805E+02  0.00000000000E+00 0.  1.
</event>
<event>
 7    1  0.2886681E-010  0.4778727E+02  0.7816164E-02  0.1312668E+00
        -11   -1    0    0    0    0  0.00000000000E+00  0.00000000000E+00  0.45593999997E+02  0.45594000000E+02  0.51100000000E-03 0.  1.
         11   -1    0    0    0    0 -0.00000000000E+00 -0.00000000000E+00 -0.45593999997E+02  0.45594000000E+02  0.51100000000E-03 0. -1.
    9900012    2    1    2    0    0 -0.12252232067E+02  0.32603844193E+02 -0.25893925245E+02  0.47787271764E+02  0.20000003282E+02 0.  0.
        -12    1    1    2    0    0  0.12252232067E+02 -0.32603844193E+02  0.25893925245E+02  0.43400728236E+02  0.00000000000E+00 0.  1.
         11    1    3    3    0    0 -0.11190728489E+02  0.23746976109E+02 -0.25641664014E+02  0.36696678489E+02  0.51100000000E-03 0. -1.
        -11    1    3    3    0    0 -0.10029758683E+01  0.51678059093E+00  0.21354935067E+01  0.24152340569E+01  0.51100000000E-03 0.  1.
         12    1    3    3    0    0 -0.58527709405E-01  0.83400874927E+01 -0.23877547376E+01  0.86753592182E+01  0.00000000000E+00 0. -1.
</event>
<event>
 7    1  0.2886681E-010  0.4778728E+02  0.7816164E-02  0.1312668E+00
        -11   -1    0    0    0    0  0.00000000000E+00  0.00000000000E+00  0.45593999997E+02  0.45594000000E+02  0.51100000000E-03 0.  1.
         11   -1    0    0    0    0 -0.00000000000E+00 -0.00000000000E+00 -0.45593999997E+02  0.45594000000E+02  0.51100000000E-03 0. -1.
    9900012    2    1    2    0    0  0.16935068262E+02 -0.28372707651E+02 -0.28139209495E+02  0.47787283561E+02  0.20000057066E+02 0.  0.
        -12    1    1    2    0    0 -0.16935068262E+02  0.28372707651E+02  0.28139209495E+02  0.43400716439E+02  0.00000000000E+00 0.  1.
         11    1    3    3    0    0 -0.28896546631E+01 -0.49328301908E+01 -0.30620017597E+01  0.64852735333E+01  0.51100000000E-03 0. -1.
        -11    1    3    3    0    0  0.20643178741E+02 -0.20917867916E+02 -0.19921429384E+02  0.35504385301E+02  0.51100000000E-03 0.  1.
        -12    1    3    3    0    0 -0.81845581528E+00 -0.25220095439E+01 -0.51557783509E+01  0.57976247261E+01  0.00000000000E+00 0.  1.
</event>
<event>
 7    1  0.2886681E-010  0.4778727E+02  0.7816164E-02  0.1312668E+00
        -11   -1    0    0    0    0  0.00000000000E+00  0.00000000000E+00  0.45593999997E+02  0.45594000000E+02  0.51100000000E-03 0. -1.
         11   -1    0    0    0    0 -0.00000000000E+00 -0.00000000000E+00 -0.45593999997E+02  0.45594000000E+02  0.51100000000E-03 0.  1.
    9900012    2    1    2    0    0 -0.20027004692E+02 -0.17352999239E+02  0.34371731688E+02  0.47787269145E+02  0.19999991340E+02 0.  0.
        -12    1    1    2    0    0  0.20027004692E+02  0.17352999239E+02 -0.34371731688E+02  0.43400730855E+02  0.00000000000E+00 0.  1.
         11    1    3    3    0    0 -0.15495033344E+02 -0.59063904972E+01  0.17913995954E+02  0.24410914738E+02  0.51100000000E-03 0.  1.
        -11    1    3    3    0    0 -0.44579937513E+01 -0.13596177171E+02  0.15242000923E+02  0.20905701001E+02  0.51100000000E-03 0. -1.
        -12    1    3    3    0    0 -0.73977596239E-01  0.21495684299E+01  0.12157348114E+01  0.24706534057E+01  0.00000000000E+00 0.  1.
</event>
<event>
 7    1  0.2886681E-010  0.4778726E+02  0.7816164E-02  0.1312668E+00
        -11   -1    0    0    0    0  0.00000000000E+00  0.00000000000E+00  0.45593999997E+02  0.45594000000E+02  0.51100000000E-03 0. -1.
         11   -1    0    0    0    0 -0.00000000000E+00 -0.00000000000E+00 -0.45593999997E+02  0.45594000000E+02  0.51100000000E-03 0.  1.
    9900012    2    1    2    0    0 -0.18189999952E+02 -0.12419773661E+02  0.37396489581E+02  0.47787259119E+02  0.19999945626E+02 0.  0.
        -12    1    1    2    0    0  0.18189999952E+02  0.12419773661E+02 -0.37396489581E+02  0.43400740881E+02  0.00000000000E+00 0.  1.
         11    1    3    3    0    0 -0.34134178165E+01  0.33838184201E+00  0.30902191317E+01  0.46168580230E+01  0.51100000000E-03 0. -1.
        -11    1    3    3    0    0 -0.92156579192E+01  0.25455641352E+01  0.93553203411E+01  0.13376481847E+02  0.51100000000E-03 0.  1.
        -12    1    3    3    0    0 -0.55609242165E+01 -0.15303719638E+02  0.24950950108E+02  0.29793919249E+02  0.00000000000E+00 0.  1.
</event>
<event>
 7    1  0.2886681E-010  0.4778727E+02  0.7816164E-02  0.1312668E+00
        -11   -1    0    0    0    0  0.00000000000E+00  0.00000000000E+00  0.45593999997E+02  0.45594000000E+02  0.51100000000E-03 0. -1.
         11   -1    0    0    0    0 -0.00000000000E+00 -0.00000000000E+00 -0.45593999997E+02  0.45594000000E+02  0.51100000000E-03 0.  1.
    9900012    2    1    2    0    0  0.33573812141E+02 -0.13770218506E+02 -0.23807631940E+02  0.47787272840E+02  0.20000008189E+02 0.  0.
        -12    1    1    2    0    0 -0.33573812141E+02  0.13770218506E+02  0.23807631940E+02  0.43400727160E+02  0.00000000000E+00 0.  1.
         11    1    3    3    0    0  0.27529898098E+02 -0.31213339792E+01 -0.15559542349E+02  0.31776365013E+02  0.51100000000E-03 0. -1.
        -11    1    3    3    0    0  0.63130338476E+01 -0.10938402527E+02 -0.87556075785E+01  0.15367618896E+02  0.51100000000E-03 0.  1.
         12    1    3    3    0    0 -0.26911980438E+00  0.28951800063E+00  0.50751798700E+00  0.64328893114E+00  0.00000000000E+00 0. -1.
</event>
<event>
 7    1  0.2886681E-010  0.4778728E+02  0.7816164E-02  0.1312668E+00
        -11   -1    0    0    0    0  0.00000000000E+00  0.00000000000E+00  0.45593999997E+02  0.45594000000E+02  0.51100000000E-03 0.  1.
         11   -1    0    0    0    0 -0.00000000000E+00 -0.00000000000E+00 -0.45593999997E+02  0.45594000000E+02  0.51100000000E-03 0. -1.
    9900012    2    1    2    0    0 -0.40000309587E+02 -0.14472063522E+02  0.86114514872E+01  0.47787280117E+02  0.20000041365E+02 0.  0.
        -12    1    1    2    0    0  0.40000309587E+02  0.14472063522E+02 -0.86114514872E+01  0.43400719883E+02  0.00000000000E+00 0.  1.
         11    1    3    3    0    0 -0.60751663470E+01 -0.69486422358E+01 -0.41478110160E+01  0.10119071674E+02  0.51100000000E-03 0. -1.
        -11    1    3    3    0    0 -0.26221488055E+02 -0.38610205370E+01  0.71241101652E+01  0.27444978800E+02  0.51100000000E-03 0.  1.
         12    1    3    3    0    0 -0.77036551853E+01 -0.36624007490E+01  0.56351523380E+01  0.10223229643E+02  0.00000000000E+00 0. -1.
</event>
<event>
 7    1  0.2886681E-010  0.4778728E+02  0.7816164E-02  0.1312668E+00
        -11   -1    0    0    0    0  0.00000000000E+00  0.00000000000E+00  0.45593999997E+02  0.45594000000E+02  0.51100000000E-03 0. -1.
         11   -1    0    0    0    0 -0.00000000000E+00 -0.00000000000E+00 -0.45593999997E+02  0.45594000000E+02  0.51100000000E-03 0.  1.
    9900012    2    1    2    0    0 -0.32065555901E+02  0.11772937202E+02  0.26773502273E+02  0.47787281693E+02  0.20000048552E+02 0.  0.
        -12    1    1    2    0    0  0.32065555901E+02 -0.11772937202E+02 -0.26773502273E+02  0.43400718307E+02  0.00000000000E+00 0.  1.
         11    1    3    3    0    0 -0.22097993172E+01 -0.74719973600E+00  0.17511986611E+01  0.29168848931E+01  0.51100000000E-03 0. -1.
        -11    1    3    3    0    0 -0.28375982691E+02  0.10700738869E+02  0.13646751948E+02  0.33255616744E+02  0.51100000000E-03 0.  1.
        -12    1    3    3    0    0 -0.14797738927E+01  0.18193980692E+01  0.11375551664E+02  0.11614780057E+02  0.00000000000E+00 0.  1.
</event>
<event>
 7    1  0.2886681E-010  0.4778727E+02  0.7816164E-02  0.1312668E+00
        -11   -1    0    0    0    0  0.00000000000E+00  0.00000000000E+00  0.45593999997E+02  0.45594000000E+02  0.51100000000E-03 0. -1.
         11   -1    0    0    0    0 -0.00000000000E+00 -0.00000000000E+00 -0.45593999997E+02  0.45594000000E+02  0.51100000000E-03 0.  1.
    9900012    2    1    2    0    0  0.20767676508E+02 -0.31739011965E+02  0.21094117051E+02  0.47787273713E+02  0.20000012167E+02 0.  0.
        -12    1    1    2    0    0 -0.20767676508E+02  0.31739011965E+02 -0.21094117051E+02  0.43400726287E+02  0.00000000000E+00 0.  1.
         11    1    3    3    0    0  0.12369636763E+02 -0.14866030289E+02  0.10806502880E+02  0.22153719213E+02  0.51100000000E-03 0. -1.
        -11    1    3    3    0    0 -0.16704026583E+01 -0.10088353675E+02  0.86284836344E+01  0.13379680676E+02  0.51100000000E-03 0.  1.
        -12    1    3    3    0    0  0.10068442403E+02 -0.67846280012E+01  0.16591305363E+01  0.12253873823E+02  0.00000000000E+00 0.  1.
</event>
<event>
 7    1  0.2886681E-010  0.4778727E+02  0.7816164E-02  0.1312668E+00
        -11   -1    0    0    0    0  0.00000000000E+00  0.00000000000E+00  0.45593999997E+02  0.45594000000E+02  0.51100000000E-03 0. -1.
         11   -1    0    0    0    0 -0.00000000000E+00 -0.00000000000E+00 -0.45593999997E+02  0.45594000000E+02  0.51100000000E-03 0.  1.
    9900012    2    1    2    0    0 -0.36005094502E+02  0.14010365475E+02  0.19772863337E+02  0.47787270797E+02  0.19999998872E+02 0.  0.
        -12    1    1    2    0    0  0.36005094502E+02 -0.14010365475E+02 -0.19772863337E+02  0.43400729203E+02  0.00000000000E+00 0.  1.
         11    1    3    3    0    0 -0.24150946411E+02  0.63331738185E+01  0.12681522399E+02  0.28003541094E+02  0.51100000000E-03 0. -1.
        -11    1    3    3    0    0  0.13207154927E+01 -0.62041815819E-01  0.39753153024E+01  0.41894236613E+01  0.51100000000E-03 0.  1.
         12    1    3    3    0    0 -0.13174863583E+02  0.77392334720E+01  0.31160256359E+01  0.15594306042E+02  0.00000000000E+00 0. -1.
</event>
<event>
 7    1  0.2886681E-010  0.4778727E+02  0.7816164E-02  0.1312668E+00
        -11   -1    0    0    0    0  0.00000000000E+00  0.00000000000E+00  0.45593999997E+02  0.45594000000E+02  0.51100000000E-03 0. -1.
         11   -1    0    0    0    0 -0.00000000000E+00 -0.00000000000E+00 -0.45593999997E+02  0.45594000000E+02  0.51100000000E-03 0.  1.
    9900012    2    1    2    0    0  0.33323762936E+02 -0.14044788719E+02  0.23997793091E+02  0.47787270287E+02  0.19999996547E+02 0.  0.
        -12    1    1    2    0    0 -0.33323762936E+02  0.14044788719E+02 -0.23997793091E+02  0.43400729713E+02  0.00000000000E+00 0.  1.
         11    1    3    3    0    0  0.18040728465E+02 -0.12891099725E+02  0.12128677856E+02  0.25273566477E+02  0.51100000000E-03 0. -1.
        -11    1    3    3    0    0  0.15439579591E+02  0.21588122539E+01  0.11017337319E+02  0.19089861449E+02  0.51100000000E-03 0.  1.
        -12    1    3    3    0    0 -0.15654512026E+00 -0.33125012481E+01  0.85177791577E+00  0.34238423607E+01  0.00000000000E+00 0.  1.
</event>
<event>
 7    1  0.2886681E-010  0.4778727E+02  0.7816164E-02  0.1312668E+00
        -11   -1    0    0    0    0  0.00000000000E+00  0.00000000000E+00  0.45593999997E+02  0.45594000000E+02  0.51100000000E-03 0. -1.
         11   -1    0    0    0    0 -0.00000000000E+00 -0.00000000000E+00 -0.45593999997E+02  0.45594000000E+02  0.51100000000E-03 0.  1.
    9900012    2    1    2    0    0  0.33648044942E+02 -0.71374379756E+01  0.26466763585E+02  0.47787268164E+02  0.19999986866E+02 0.  0.
        -12    1    1    2    0    0 -0.33648044942E+02  0.71374379756E+01 -0.26466763585E+02  0.43400731836E+02  0.00000000000E+00 0.  1.
         11    1    3    3    0    0  0.11441911630E+02 -0.70239935847E+01  0.85495312590E+01  0.15916919069E+02  0.51100000000E-03 0. -1.
        -11    1    3    3    0    0  0.18295497977E+02  0.29107084856E+01  0.19284562589E+02  0.26741200882E+02  0.51100000000E-03 0.  1.
        -12    1    3    3    0    0  0.39106353350E+01 -0.30241528765E+01 -0.13673302630E+01  0.51291482131E+01  0.00000000000E+00 0.  1.
</event>
<event>
 7    1  0.2886681E-010  0.4778728E+02  0.7816164E-02  0.1312668E+00
        -11   -1    0    0    0    0  0.00000000000E+00  0.00000000000E+00  0.45593999997E+02  0.45594000000E+02  0.51100000000E-03 0. -1.
         11   -1    0    0    0    0 -0.00000000000E+00 -0.00000000000E+00 -0.45593999997E+02  0.45594000000E+02  0.51100000000E-03 0.  1.
    9900012    2    1    2    0    0 -0.95735484140E+01 -0.30143924240E+02  0.29720596634E+02  0.47787275789E+02  0.20000021631E+02 0.  0.
        -12    1    1    2    0    0  0.95735484140E+01  0.30143924240E+02 -0.29720596634E+02  0.43400724211E+02  0.00000000000E+00 0.  1.
         11    1    3    3    0    0 -0.33156556864E+01 -0.20330932372E+02  0.19088341037E+02  0.28083894807E+02  0.51100000000E-03 0. -1.
        -11    1    3    3    0    0  0.26802309800E+01 -0.18346985727E+01 -0.57403763411E+00  0.32983748158E+01  0.51100000000E-03 0.  1.
         12    1    3    3    0    0 -0.89381237076E+01 -0.79782932946E+01  0.11206293231E+02  0.16405006165E+02  0.00000000000E+00 0. -1.
</event>
<event>
 7    1  0.2886681E-010  0.4778727E+02  0.7816164E-02  0.1312668E+00
        -11   -1    0    0    0    0  0.00000000000E+00  0.00000000000E+00  0.45593999997E+02  0.45594000000E+02  0.51100000000E-03 0. -1.
         11   -1    0    0    0    0 -0.00000000000E+00 -0.00000000000E+00 -0.45593999997E+02  0.45594000000E+02  0.51100000000E-03 0.  1.
    9900012    2    1    2    0    0 -0.25064070432E+02  0.35331893264E+02 -0.26595049963E+01  0.47787271030E+02  0.19999999936E+02 0.  0.
        -12    1    1    2    0    0  0.25064070432E+02 -0.35331893264E+02  0.26595049963E+01  0.43400728970E+02  0.00000000000E+00 0.  1.
         11    1    3    3    0    0 -0.13051254562E+02  0.19844334913E+02 -0.77761076212E+01  0.24992013199E+02  0.51100000000E-03 0. -1.
        -11    1    3    3    0    0 -0.34169224418E+01  0.14746469300E+01  0.51524336889E+01  0.63559040050E+01  0.51100000000E-03 0.  1.
        -12    1    3    3    0    0 -0.85958934288E+01  0.14012911422E+02 -0.35831063925E-01  0.16439353826E+02  0.00000000000E+00 0.  1.
</event>
<event>
 7    1  0.2886681E-010  0.4778727E+02  0.7816164E-02  0.1312668E+00
        -11   -1    0    0    0    0  0.00000000000E+00  0.00000000000E+00  0.45593999997E+02  0.45594000000E+02  0.51100000000E-03 0. -1.
         11   -1    0    0    0    0 -0.00000000000E+00 -0.00000000000E+00 -0.45593999997E+02  0.45594000000E+02  0.51100000000E-03 0.  1.
    9900012    2    1    2    0    0  0.27989886040E+02 -0.70495186817E+01  0.32411320630E+02  0.47787272596E+02  0.20000007075E+02 0.  0.
        -12    1    1    2    0    0 -0.27989886040E+02  0.70495186817E+01 -0.32411320630E+02  0.43400727404E+02  0.00000000000E+00 0.  1.
         11    1    3    3    0    0  0.80329413758E+01 -0.10010233847E+02  0.17577257574E+02  0.21764487426E+02  0.51100000000E-03 0. -1.
        -11    1    3    3    0    0  0.19681267825E+02  0.13719644062E+01  0.14108503539E+02  0.24254576102E+02  0.51100000000E-03 0.  1.
         12    1    3    3    0    0  0.27567683962E+00  0.15887507594E+01  0.72555951764E+00  0.17682090683E+01  0.00000000000E+00 0. -1.
</event>
<event>
 7    1  0.2886681E-010  0.4778727E+02  0.7816164E-02  0.1312668E+00
        -11   -1    0    0    0    0  0.00000000000E+00  0.00000000000E+00  0.45593999997E+02  0.45594000000E+02  0.51100000000E-03 0.  1.
         11   -1    0    0    0    0 -0.00000000000E+00 -0.00000000000E+00 -0.45593999997E+02  0.45594000000E+02  0.51100000000E-03 0. -1.
    9900012    2    1    2    0    0  0.15185032179E+02 -0.77879517857E+01 -0.39904706227E+02  0.47787274495E+02  0.20000015732E+02 0.  0.
        -12    1    1    2    0    0 -0.15185032179E+02  0.77879517857E+01  0.39904706227E+02  0.43400725505E+02  0.00000000000E+00 0.  1.
         11    1    3    3    0    0  0.54334066039E+01 -0.10688998154E+02 -0.15600190048E+02  0.19675937555E+02  0.51100000000E-03 0. -1.
        -11    1    3    3    0    0  0.11673538741E+02  0.33271256400E+01 -0.21392555860E+02  0.24596396448E+02  0.51100000000E-03 0.  1.
        -12    1    3    3    0    0 -0.19219131657E+01 -0.42607927143E+00 -0.29119603192E+01  0.35149404920E+01  0.00000000000E+00 0.  1.
</event>
<event>
 7    1  0.2886681E-010  0.4778727E+02  0.7816164E-02  0.1312668E+00
        -11   -1    0    0    0    0  0.00000000000E+00  0.00000000000E+00  0.45593999997E+02  0.45594000000E+02  0.51100000000E-03 0.  1.
         11   -1    0    0    0    0 -0.00000000000E+00 -0.00000000000E+00 -0.45593999997E+02  0.45594000000E+02  0.51100000000E-03 0. -1.
    9900012    2    1    2    0    0 -0.28061335852E+02  0.21671857902E+02 -0.25030281720E+02  0.47787274226E+02  0.20000014505E+02 0.  0.
        -12    1    1    2    0    0  0.28061335852E+02 -0.21671857902E+02  0.25030281720E+02  0.43400725774E+02  0.00000000000E+00 0.  1.
         11    1    3    3    0    0 -0.17356219071E+02  0.90019093882E+01 -0.21272318101E+02  0.28892632810E+02  0.51100000000E-03 0. -1.
        -11    1    3    3    0    0 -0.30422591971E+01  0.35600930648E+01  0.26444597801E+01  0.53779895353E+01  0.51100000000E-03 0.  1.
         12    1    3    3    0    0 -0.76628575845E+01  0.91098554493E+01 -0.64024233992E+01  0.13516651880E+02  0.00000000000E+00 0. -1.
</event>
<event>
 7    1  0.2886681E-010  0.4778728E+02  0.7816164E-02  0.1312668E+00
        -11   -1    0    0    0    0  0.00000000000E+00  0.00000000000E+00  0.45593999997E+02  0.45594000000E+02  0.51100000000E-03 0.  1.
         11   -1    0    0    0    0 -0.00000000000E+00 -0.00000000000E+00 -0.45593999997E+02  0.45594000000E+02  0.51100000000E-03 0. -1.
    9900012    2    1    2    0    0  0.40794366098E+02  0.14812995591E+02  0.13075511564E+00  0.47787282948E+02  0.20000054275E+02 0.  0.
        -12    1    1    2    0    0 -0.40794366098E+02 -0.14812995591E+02 -0.13075511564E+00  0.43400717052E+02  0.00000000000E+00 0.  1.
         11    1    3    3    0    0  0.15482716576E+02 -0.23565682382E+01 -0.47336301209E+01  0.16360781792E+02  0.51100000000E-03 0. -1.
        -11    1    3    3    0    0  0.16879325678E+02  0.83689420073E+01  0.34939822366E+01  0.19161386635E+02  0.51100000000E-03 0.  1.
         12    1    3    3    0    0  0.84323238437E+01  0.88006218214E+01  0.13704029999E+01  0.12265114522E+02  0.00000000000E+00 0. -1.
</event>
<event>
 7    1  0.2886681E-010  0.4778727E+02  0.7816164E-02  0.1312668E+00
        -11   -1    0    0    0    0  0.00000000000E+00  0.00000000000E+00  0.45593999997E+02  0.45594000000E+02  0.51100000000E-03 0.  1.
         11   -1    0    0    0    0 -0.00000000000E+00 -0.00000000000E+00 -0.45593999997E+02  0.45594000000E+02  0.51100000000E-03 0. -1.
    9900012    2    1    2    0    0 -0.18003628476E+02  0.12279219771E+02 -0.37532828265E+02  0.47787273346E+02  0.20000010493E+02 0.  0.
        -12    1    1    2    0    0  0.18003628476E+02 -0.12279219771E+02  0.37532828265E+02  0.43400726654E+02  0.00000000000E+00 0.  1.
         11    1    3    3    0    0 -0.33587213239E+01 -0.19366349216E+01  0.27533201400E+00  0.38868202596E+01  0.51100000000E-03 0. -1.
        -11    1    3    3    0    0 -0.37067104035E+01  0.97364307713E+01 -0.15946600258E+02  0.19048145480E+02  0.51100000000E-03 0.  1.
         12    1    3    3    0    0 -0.10938196749E+02  0.44794239214E+01 -0.21861560022E+02  0.24852307606E+02  0.00000000000E+00 0. -1.
</event>
<event>
 7    1  0.2886681E-010  0.4778727E+02  0.7816164E-02  0.1312668E+00
        -11   -1    0    0    0    0  0.00000000000E+00  0.00000000000E+00  0.45593999997E+02  0.45594000000E+02  0.51100000000E-03 0.  1.
         11   -1    0    0    0    0 -0.00000000000E+00 -0.00000000000E+00 -0.45593999997E+02  0.45594000000E+02  0.51100000000E-03 0. -1.
    9900012    2    1    2    0    0  0.13575088988E+01  0.20111256458E+02 -0.38435893386E+02  0.47787269970E+02  0.19999995102E+02 0.  0.
        -12    1    1    2    0    0 -0.13575088988E+01 -0.20111256458E+02  0.38435893386E+02  0.43400730030E+02  0.00000000000E+00 0.  1.
         11    1    3    3    0    0  0.23740285569E+00  0.12520894300E+02 -0.33539453891E+02  0.35801174866E+02  0.51100000000E-03 0. -1.
        -11    1    3    3    0    0  0.11273813746E+01 -0.13361279988E+01  0.10972225519E+00  0.17516466617E+01  0.51100000000E-03 0.  1.
         12    1    3    3    0    0 -0.72753314974E-02  0.89264901571E+01 -0.50061617500E+01  0.10234448443E+02  0.00000000000E+00 0. -1.
</event>
<event>
 7    1  0.2886681E-010  0.4778728E+02  0.7816164E-02  0.1312668E+00
        -11   -1    0    0    0    0  0.00000000000E+00  0.00000000000E+00  0.45593999997E+02  0.45594000000E+02  0.51100000000E-03 0.  1.
         11   -1    0    0    0    0 -0.00000000000E+00 -0.00000000000E+00 -0.45593999997E+02  0.45594000000E+02  0.51100000000E-03 0. -1.
    9900012    2    1    2    0    0  0.55232980447E+01 -0.26098717006E+02 -0.34234088861E+02  0.47787277762E+02  0.20000030629E+02 0.  0.
        -12    1    1    2    0    0 -0.55232980447E+01  0.26098717006E+02  0.34234088861E+02  0.43400722238E+02  0.00000000000E+00 0.  1.
         11    1    3    3    0    0  0.88762205274E-01 -0.25785726534E+01 -0.18247891838E+01  0.31601853561E+01  0.51100000000E-03 0. -1.
        -11    1    3    3    0    0  0.10303425749E+02 -0.13905900882E+02 -0.28138285351E+02  0.33034796265E+02  0.51100000000E-03 0.  1.
        -12    1    3    3    0    0 -0.48688899096E+01 -0.96142434700E+01 -0.42710143257E+01  0.11592296141E+02  0.00000000000E+00 0.  1.
</event>
<event>
 7    1  0.2886681E-010  0.4778727E+02  0.7816164E-02  0.1312668E+00
        -11   -1    0    0    0    0  0.00000000000E+00  0.00000000000E+00  0.45593999997E+02  0.45594000000E+02  0.51100000000E-03 0.  1.
         11   -1    0    0    0    0 -0.00000000000E+00 -0.00000000000E+00 -0.45593999997E+02  0.45594000000E+02  0.51100000000E-03 0. -1.
    9900012    2    1    2    0    0  0.33233556477E+02 -0.21640165301E+02 -0.17631139592E+02  0.47787272890E+02  0.20000008415E+02 0.  0.
        -12    1    1    2    0    0 -0.33233556477E+02  0.21640165301E+02  0.17631139592E+02  0.43400727110E+02  0.00000000000E+00 0.  1.
         11    1    3    3    0    0  0.13655939322E+02 -0.42697348902E+01 -0.54361054644E+01  0.15305768771E+02  0.51100000000E-03 0. -1.
        -11    1    3    3    0    0  0.17750697292E+02 -0.91766476790E+01 -0.13314872344E+02  0.24012162393E+02  0.51100000000E-03 0.  1.
        -12    1    3    3    0    0  0.18269198636E+01 -0.81937827322E+01  0.11198382168E+01  0.84693417266E+01  0.00000000000E+00 0.  1.
</event>
<event>
 7    1  0.2886681E-010  0.4778727E+02  0.7816164E-02  0.1312668E+00
        -11   -1    0    0    0    0  0.00000000000E+00  0.00000000000E+00  0.45593999997E+02  0.45594000000E+02  0.51100000000E-03 0.  1.
         11   -1    0    0    0    0 -0.00000000000E+00 -0.00000000000E+00 -0.45593999997E+02  0.45594000000E+02  0.51100000000E-03 0. -1.
    9900012    2    1    2    0    0 -0.68412512774E+01  0.11127158625E+02 -0.41388484708E+02  0.47787273687E+02  0.20000012048E+02 0.  0.
        -12    1    1    2    0    0  0.68412512774E+01 -0.11127158625E+02  0.41388484708E+02  0.43400726313E+02  0.00000000000E+00 0.  1.
         11    1    3    3    0    0  0.12409950388E+01 -0.52491991457E+00 -0.16697327557E+02  0.16751607606E+02  0.51100000000E-03 0. -1.
        -11    1    3    3    0    0 -0.44161793919E+01  0.10167634757E+01 -0.76362142352E+00  0.45956029340E+01  0.51100000000E-03 0.  1.
        -12    1    3    3    0    0 -0.36660669243E+01  0.10635315064E+02 -0.23927535728E+02  0.26440063147E+02  0.00000000000E+00 0.  1.
</event>
<event>
 7    1  0.2886681E-010  0.4778727E+02  0.7816164E-02  0.1312668E+00
        -11   -1    0    0    0    0  0.00000000000E+00  0.00000000000E+00  0.45593999997E+02  0.45594000000E+02  0.51100000000E-03 0. -1.
         11   -1    0    0    0    0 -0.00000000000E+00 -0.00000000000E+00 -0.45593999997E+02  0.45594000000E+02  0.51100000000E-03 0.  1.
    9900012    2    1    2    0    0 -0.19306505543E+02 -0.18181011388E+02  0.34355976714E+02  0.47787268815E+02  0.19999989837E+02 0.  0.
        -12    1    1    2    0    0  0.19306505543E+02  0.18181011388E+02 -0.34355976714E+02  0.43400731185E+02  0.00000000000E+00 0.  1.
         11    1    3    3    0    0 -0.60564158299E+00 -0.87017390374E+01  0.31280610272E+01  0.92667054584E+01  0.51100000000E-03 0. -1.
        -11    1    3    3    0    0 -0.18109181761E+02 -0.62107100812E+01  0.27730590373E+02  0.33697196122E+02  0.51100000000E-03 0.  1.
        -12    1    3    3    0    0 -0.59168219934E+00 -0.32685622697E+01  0.34973253134E+01  0.48233672350E+01  0.00000000000E+00 0.  1.
</event>
<event>
 7    1  0.2886681E-010  0.4778727E+02  0.7816164E-02  0.1312668E+00
        -11   -1    0    0    0    0  0.00000000000E+00  0.00000000000E+00  0.45593999997E+02  0.45594000000E+02  0.51100000000E-03 0.  1.
         11   -1    0    0    0    0 -0.00000000000E+00 -0.00000000000E+00 -0.45593999997E+02  0.45594000000E+02  0.51100000000E-03 0. -1.
    9900012    2    1    2    0    0 -0.32907712611E+02  0.52349181844E+00 -0.28291899279E+02  0.47787272381E+02  0.20000006096E+02 0.  0.
        -12    1    1    2    0    0  0.32907712611E+02 -0.52349181844E+00  0.28291899279E+02  0.43400727619E+02  0.00000000000E+00 0.  1.
         11    1    3    3    0    0 -0.29057001256E+01 -0.47997018197E+01 -0.69729053637E+01  0.89499519691E+01  0.51100000000E-03 0. -1.
        -11    1    3    3    0    0 -0.11012849809E+02  0.65763814697E+01 -0.49965269286E+01  0.13765788600E+02  0.51100000000E-03 0.  1.
         12    1    3    3    0    0 -0.18989162676E+02 -0.12531878315E+01 -0.16322466987E+02  0.25071531813E+02  0.00000000000E+00 0. -1.
</event>
<event>
 7    1  0.2886681E-010  0.4778728E+02  0.7816164E-02  0.1312668E+00
        -11   -1    0    0    0    0  0.00000000000E+00  0.00000000000E+00  0.45593999997E+02  0.45594000000E+02  0.51100000000E-03 0. -1.
         11   -1    0    0    0    0 -0.00000000000E+00 -0.00000000000E+00 -0.45593999997E+02  0.45594000000E+02  0.51100000000E-03 0.  1.
    9900012    2    1    2    0    0  0.11916920041E+01 -0.43373019884E+02 -0.99173431478E+00  0.47787279722E+02  0.20000039565E+02 0.  0.
        -12    1    1    2    0    0 -0.11916920041E+01  0.43373019884E+02  0.99173431478E+00  0.43400720278E+02  0.00000000000E+00 0.  1.
         11    1    3    3    0    0  0.38928862109E+01 -0.19723385712E+02 -0.14712631893E+01  0.20157656675E+02  0.51100000000E-03 0. -1.
        -11    1    3    3    0    0 -0.59739087662E+01 -0.20221257042E+02  0.43273409033E+01  0.21524699809E+02  0.51100000000E-03 0.  1.
        -12    1    3    3    0    0  0.32727145594E+01 -0.34283771292E+01 -0.38478120288E+01  0.61049232376E+01  0.00000000000E+00 0.  1.
</event>
<event>
 7    1 -0.4835773E-010  0.4778727E+02  0.7816164E-02  0.1312668E+00
        -11   -1    0    0    0    0  0.00000000000E+00  0.00000000000E+00  0.45593999997E+02  0.45594000000E+02  0.51100000000E-03 0. -1.
         11   -1    0    0    0    0 -0.00000000000E+00 -0.00000000000E+00 -0.45593999997E+02  0.45594000000E+02  0.51100000000E-03 0.  1.
    9900012    2    1    2    0    0  0.99798923640E+00  0.15375561136E+00  0.43388978939E+02  0.47787272856E+02  0.20000008258E+02 0.  0.
        -12    1    1    2    0    0 -0.99798923640E+00 -0.15375561136E+00 -0.43388978939E+02  0.43400727144E+02  0.00000000000E+00 0.  1.
         11    1    3    3    0    0 -0.20460286285E+01  0.24377237459E+01  0.16578682941E+02  0.16881393857E+02  0.51100000000E-03 0. -1.
        -11    1    3    3    0    0 -0.37722446154E+01 -0.63876433572E+01  0.12998922586E+02  0.14966756688E+02  0.51100000000E-03 0.  1.
        -12    1    3    3    0    0  0.68162624803E+01  0.41036752226E+01  0.13811373412E+02  0.15939122311E+02  0.00000000000E+00 0.  1.
</event>
<event>
 7    1  0.2886681E-010  0.4778727E+02  0.7816164E-02  0.1312668E+00
        -11   -1    0    0    0    0  0.00000000000E+00  0.00000000000E+00  0.45593999997E+02  0.45594000000E+02  0.51100000000E-03 0. -1.
         11   -1    0    0    0    0 -0.00000000000E+00 -0.00000000000E+00 -0.45593999997E+02  0.45594000000E+02  0.51100000000E-03 0.  1.
    9900012    2    1    2    0    0  0.28762918246E+02  0.32144282175E+02  0.48023882169E+01  0.47787271029E+02  0.19999999930E+02 0.  0.
        -12    1    1    2    0    0 -0.28762918246E+02 -0.32144282175E+02 -0.48023882169E+01  0.43400728971E+02  0.00000000000E+00 0.  1.
         11    1    3    3    0    0  0.12704251013E+02  0.19144485992E+02  0.81152472229E+01  0.24367325980E+02  0.51100000000E-03 0. -1.
        -11    1    3    3    0    0  0.87006752860E+00  0.49071390670E+01  0.20571941878E+01  0.53915748641E+01  0.51100000000E-03 0.  1.
         12    1    3    3    0    0  0.15188599705E+02  0.80926571167E+01 -0.53700531938E+01  0.18028370185E+02  0.00000000000E+00 0. -1.
</event>
<event>
 7    1  0.2886681E-010  0.4778728E+02  0.7816164E-02  0.1312668E+00
        -11   -1    0    0    0    0  0.00000000000E+00  0.00000000000E+00  0.45593999997E+02  0.45594000000E+02  0.51100000000E-03 0.  1.
         11   -1    0    0    0    0 -0.00000000000E+00 -0.00000000000E+00 -0.45593999997E+02  0.45594000000E+02  0.51100000000E-03 0. -1.
    9900012    2    1    2    0    0 -0.38154223357E+02  0.20025158363E+02  0.51837354695E+01  0.47787276033E+02  0.20000022746E+02 0.  0.
        -12    1    1    2    0    0  0.38154223357E+02 -0.20025158363E+02 -0.51837354695E+01  0.43400723967E+02  0.00000000000E+00 0.  1.
         11    1    3    3    0    0 -0.12865743700E+02  0.57373830298E+01 -0.66329357397E+01  0.15570509361E+02  0.51100000000E-03 0. -1.
        -11    1    3    3    0    0 -0.21948214509E+02  0.14020306030E+02  0.12349593090E+02  0.28823697734E+02  0.51100000000E-03 0.  1.
        -12    1    3    3    0    0 -0.33402651478E+01  0.26746930282E+00 -0.53292188078E+00  0.33930689378E+01  0.00000000000E+00 0.  1.
</event>
<event>
 7    1  0.2886681E-010  0.4778728E+02  0.7816164E-02  0.1312668E+00
        -11   -1    0    0    0    0  0.00000000000E+00  0.00000000000E+00  0.45593999997E+02  0.45594000000E+02  0.51100000000E-03 0. -1.
         11   -1    0    0    0    0 -0.00000000000E+00 -0.00000000000E+00 -0.45593999997E+02  0.45594000000E+02  0.51100000000E-03 0.  1.
    9900012    2    1    2    0    0  0.42380452156E+02 -0.86909416763E+01 -0.34622100545E+01  0.47787284676E+02  0.20000062151E+02 0.  0.
        -12    1    1    2    0    0 -0.42380452156E+02  0.86909416763E+01  0.34622100545E+01  0.43400715324E+02  0.00000000000E+00 0.  1.
         11    1    3    3    0    0  0.18838712709E+02 -0.44005060122E+01  0.56825767003E+00  0.19354184735E+02  0.51100000000E-03 0. -1.
        -11    1    3    3    0    0  0.18253075906E+02 -0.85492666419E+00 -0.90325703933E+01  0.20383645597E+02  0.51100000000E-03 0.  1.
        -12    1    3    3    0    0  0.52886635410E+01 -0.34355089998E+01  0.50021026688E+01  0.80494543447E+01  0.00000000000E+00 0.  1.
</event>
<event>
 7    1  0.2886681E-010  0.4778727E+02  0.7816164E-02  0.1312668E+00
        -11   -1    0    0    0    0  0.00000000000E+00  0.00000000000E+00  0.45593999997E+02  0.45594000000E+02  0.51100000000E-03 0.  1.
         11   -1    0    0    0    0 -0.00000000000E+00 -0.00000000000E+00 -0.45593999997E+02  0.45594000000E+02  0.51100000000E-03 0. -1.
    9900012    2    1    2    0    0 -0.33948690065E+01  0.25501570743E+02 -0.34953794072E+02  0.47787274592E+02  0.20000016174E+02 0.  0.
        -12    1    1    2    0    0  0.33948690065E+01 -0.25501570743E+02  0.34953794072E+02  0.43400725408E+02  0.00000000000E+00 0.  1.
         11    1    3    3    0    0 -0.51369837546E+01  0.19069857802E+01 -0.94790815928E+01  0.10948889668E+02  0.51100000000E-03 0. -1.
        -11    1    3    3    0    0  0.63688888845E+00  0.15818926444E+02 -0.81274212680E+01  0.17796039954E+02  0.51100000000E-03 0.  1.
        -12    1    3    3    0    0  0.11052258597E+01  0.77756585185E+01 -0.17347291211E+02  0.19042344970E+02  0.00000000000E+00 0.  1.
</event>
<event>
 7    1  0.2886681E-010  0.4778727E+02  0.7816164E-02  0.1312668E+00
        -11   -1    0    0    0    0  0.00000000000E+00  0.00000000000E+00  0.45593999997E+02  0.45594000000E+02  0.51100000000E-03 0.  1.
         11   -1    0    0    0    0 -0.00000000000E+00 -0.00000000000E+00 -0.45593999997E+02  0.45594000000E+02  0.51100000000E-03 0. -1.
    9900012    2    1    2    0    0 -0.45545125155E+01  0.17779274044E+02 -0.39329092647E+02  0.47787266156E+02  0.19999977709E+02 0.  0.
        -12    1    1    2    0    0  0.45545125155E+01 -0.17779274044E+02  0.39329092647E+02  0.43400733844E+02  0.00000000000E+00 0.  1.
         11    1    3    3    0    0  0.10920792964E+01  0.30016288737E+01 -0.13189605680E+02  0.13570855218E+02  0.51100000000E-03 0. -1.
        -11    1    3    3    0    0 -0.87058195315E+01  0.89040056584E+01 -0.24360830209E+02  0.27359142151E+02  0.51100000000E-03 0.  1.
        -12    1    3    3    0    0  0.30592277196E+01  0.58736395117E+01 -0.17786567580E+01  0.68572687870E+01  0.00000000000E+00 0.  1.
</event>
<event>
 7    1  0.2886681E-010  0.4778727E+02  0.7816164E-02  0.1312668E+00
        -11   -1    0    0    0    0  0.00000000000E+00  0.00000000000E+00  0.45593999997E+02  0.45594000000E+02  0.51100000000E-03 0.  1.
         11   -1    0    0    0    0 -0.00000000000E+00 -0.00000000000E+00 -0.45593999997E+02  0.45594000000E+02  0.51100000000E-03 0. -1.
    9900012    2    1    2    0    0 -0.26504025813E+02  0.31844049251E+02 -0.12927349974E+02  0.47787271500E+02  0.20000002076E+02 0.  0.
        -12    1    1    2    0    0  0.26504025813E+02 -0.31844049251E+02  0.12927349974E+02  0.43400728500E+02  0.00000000000E+00 0.  1.
         11    1    3    3    0    0 -0.65934083563E+01  0.56050834233E+01  0.68709290891E+00  0.86811341921E+01  0.51100000000E-03 0. -1.
        -11    1    3    3    0    0 -0.15454634867E+02  0.15016451165E+02 -0.89365076694E+00  0.21567061840E+02  0.51100000000E-03 0.  1.
        -12    1    3    3    0    0 -0.44559825894E+01  0.11222514663E+02 -0.12720792116E+02  0.17539075468E+02  0.00000000000E+00 0.  1.
</event>
<event>
 7    1  0.2886681E-010  0.4778727E+02  0.7816164E-02  0.1312668E+00
        -11   -1    0    0    0    0  0.00000000000E+00  0.00000000000E+00  0.45593999997E+02  0.45594000000E+02  0.51100000000E-03 0.  1.
         11   -1    0    0    0    0 -0.00000000000E+00 -0.00000000000E+00 -0.45593999997E+02  0.45594000000E+02  0.51100000000E-03 0. -1.
    9900012    2    1    2    0    0 -0.29584904955E+02  0.31268076013E+02 -0.55375418534E+01  0.47787267881E+02  0.19999985575E+02 0.  0.
        -12    1    1    2    0    0  0.29584904955E+02 -0.31268076013E+02  0.55375418534E+01  0.43400732119E+02  0.00000000000E+00 0.  1.
         11    1    3    3    0    0 -0.74358797560E+01  0.81267207305E+01  0.25320383927E+01  0.11302526986E+02  0.51100000000E-03 0. -1.
        -11    1    3    3    0    0 -0.23664559569E+02  0.21941725206E+02 -0.47163578165E+01  0.32614332982E+02  0.51100000000E-03 0.  1.
        -12    1    3    3    0    0  0.15155343698E+01  0.11996300766E+01 -0.33532224297E+01  0.38704079126E+01  0.00000000000E+00 0.  1.
</event>
<event>
 7    1  0.2886681E-010  0.4778727E+02  0.7816164E-02  0.1312668E+00
        -11   -1    0    0    0    0  0.00000000000E+00  0.00000000000E+00  0.45593999997E+02  0.45594000000E+02  0.51100000000E-03 0. -1.
         11   -1    0    0    0    0 -0.00000000000E+00 -0.00000000000E+00 -0.45593999997E+02  0.45594000000E+02  0.51100000000E-03 0.  1.
    9900012    2    1    2    0    0  0.27612449291E+01  0.45498516951E+01  0.43073167931E+02  0.47787269365E+02  0.19999992343E+02 0.  0.
        -12    1    1    2    0    0 -0.27612449291E+01 -0.45498516951E+01 -0.43073167931E+02  0.43400730635E+02  0.00000000000E+00 0.  1.
         11    1    3    3    0    0  0.48282585587E+00  0.41825718116E+01  0.13553246987E+02  0.14192164455E+02  0.51100000000E-03 0. -1.
        -11    1    3    3    0    0 -0.19467532004E+01 -0.71450753797E+01  0.12968131558E+02  0.14933666213E+02  0.51100000000E-03 0.  1.
        -12    1    3    3    0    0  0.42251722736E+01  0.75123552633E+01  0.16551789387E+02  0.18661438697E+02  0.00000000000E+00 0.  1.
</event>
<event>
 7    1  0.2886681E-010  0.4778727E+02  0.7816164E-02  0.1312668E+00
        -11   -1    0    0    0    0  0.00000000000E+00  0.00000000000E+00  0.45593999997E+02  0.45594000000E+02  0.51100000000E-03 0.  1.
         11   -1    0    0    0    0 -0.00000000000E+00 -0.00000000000E+00 -0.45593999997E+02  0.45594000000E+02  0.51100000000E-03 0. -1.
    9900012    2    1    2    0    0 -0.11625033125E+02 -0.13280366909E+02 -0.39649889573E+02  0.47787270933E+02  0.19999999492E+02 0.  0.
        -12    1    1    2    0    0  0.11625033125E+02  0.13280366909E+02  0.39649889573E+02  0.43400729067E+02  0.00000000000E+00 0.  1.
         11    1    3    3    0    0  0.48262232099E+01 -0.23024714928E+01 -0.97250298591E+01  0.11098198569E+02  0.51100000000E-03 0.  1.
        -11    1    3    3    0    0 -0.13227860696E+02 -0.11958869126E+02 -0.24487204959E+02  0.30292145126E+02  0.51100000000E-03 0. -1.
         12    1    3    3    0    0 -0.32233956386E+01  0.98097370964E+00 -0.54376547550E+01  0.63969272387E+01  0.00000000000E+00 0. -1.
</event>
<event>
 7    1  0.2886681E-010  0.4778727E+02  0.7816164E-02  0.1312668E+00
        -11   -1    0    0    0    0  0.00000000000E+00  0.00000000000E+00  0.45593999997E+02  0.45594000000E+02  0.51100000000E-03 0. -1.
         11   -1    0    0    0    0 -0.00000000000E+00 -0.00000000000E+00 -0.45593999997E+02  0.45594000000E+02  0.51100000000E-03 0.  1.
    9900012    2    1    2    0    0 -0.16225819893E+02 -0.21703476449E+02  0.33901410154E+02  0.47787265771E+02  0.19999975956E+02 0.  0.
        -12    1    1    2    0    0  0.16225819893E+02  0.21703476449E+02 -0.33901410154E+02  0.43400734229E+02  0.00000000000E+00 0.  1.
         11    1    3    3    0    0 -0.47740255732E+01 -0.11021424588E+01  0.17705164792E+02  0.18370598758E+02  0.51100000000E-03 0. -1.
        -11    1    3    3    0    0 -0.31459588326E+01 -0.12597854626E+02  0.77659076351E+01  0.15129848638E+02  0.51100000000E-03 0.  1.
         12    1    3    3    0    0 -0.83058354877E+01 -0.80034793639E+01  0.84303377275E+01  0.14286818375E+02  0.00000000000E+00 0. -1.
</event>
<event>
 7    1  0.2886681E-010  0.4778728E+02  0.7816164E-02  0.1312668E+00
        -11   -1    0    0    0    0  0.00000000000E+00  0.00000000000E+00  0.45593999997E+02  0.45594000000E+02  0.51100000000E-03 0. -1.
         11   -1    0    0    0    0 -0.00000000000E+00 -0.00000000000E+00 -0.45593999997E+02  0.45594000000E+02  0.51100000000E-03 0.  1.
    9900012    2    1    2    0    0  0.37652611380E+02  0.14726906998E+02  0.15780427025E+02  0.47787276382E+02  0.20000024336E+02 0.  0.
        -12    1    1    2    0    0 -0.37652611380E+02 -0.14726906998E+02 -0.15780427025E+02  0.43400723618E+02  0.00000000000E+00 0.  1.
         11    1    3    3    0    0  0.11443312053E+01  0.28350184200E+01 -0.23046239124E+01  0.38285917760E+01  0.51100000000E-03 0.  1.
        -11    1    3    3    0    0  0.31550896662E+02  0.69408507658E+01  0.17936757911E+02  0.36950802077E+02  0.51100000000E-03 0. -1.
         12    1    3    3    0    0  0.49573835132E+01  0.49510378127E+01  0.14829302658E+00  0.70078825291E+01  0.00000000000E+00 0. -1.
</event>
<event>
 7    1  0.2886681E-010  0.4778727E+02  0.7816164E-02  0.1312668E+00
        -11   -1    0    0    0    0  0.00000000000E+00  0.00000000000E+00  0.45593999997E+02  0.45594000000E+02  0.51100000000E-03 0.  1.
         11   -1    0    0    0    0 -0.00000000000E+00 -0.00000000000E+00 -0.45593999997E+02  0.45594000000E+02  0.51100000000E-03 0. -1.
    9900012    2    1    2    0    0  0.22650533299E+02 -0.68777176343E+01 -0.36376830656E+02  0.47787268818E+02  0.19999989848E+02 0.  0.
        -12    1    1    2    0    0 -0.22650533299E+02  0.68777176343E+01  0.36376830656E+02  0.43400731182E+02  0.00000000000E+00 0.  1.
         11    1    3    3    0    0  0.19356256655E+01  0.20868252771E+01 -0.66064780794E+01  0.71935415012E+01  0.51100000000E-03 0. -1.
        -11    1    3    3    0    0  0.24990958284E+01 -0.40361202393E+00  0.18329679107E+01  0.31254046535E+01  0.51100000000E-03 0.  1.
        -12    1    3    3    0    0  0.18215811805E+02 -0.85609308874E+01 -0.31603320487E+02  0.37468322663E+02  0.00000000000E+00 0.  1.
</event>
<event>
 7    1  0.2886681E-010  0.4778726E+02  0.7816164E-02  0.1312668E+00
        -11   -1    0    0    0    0  0.00000000000E+00  0.00000000000E+00  0.45593999997E+02  0.45594000000E+02  0.51100000000E-03 0. -1.
         11   -1    0    0    0    0 -0.00000000000E+00 -0.00000000000E+00 -0.45593999997E+02  0.45594000000E+02  0.51100000000E-03 0.  1.
    9900012    2    1    2    0    0 -0.92625777916E+01 -0.38677690323E+01  0.42224039549E+02  0.47787256914E+02  0.19999935573E+02 0.  0.
        -12    1    1    2    0    0  0.92625777916E+01  0.38677690323E+01 -0.42224039549E+02  0.43400743086E+02  0.00000000000E+00 0.  1.
         11    1    3    3    0    0 -0.46553835029E+01 -0.62401635594E+01  0.12680996829E+02  0.14880185404E+02  0.51100000000E-03 0. -1.
        -11    1    3    3    0    0 -0.66978932292E+01  0.33667029166E+01  0.70355506146E+01  0.10280828515E+02  0.51100000000E-03 0.  1.
        -12    1    3    3    0    0  0.20906989405E+01 -0.99430838962E+00  0.22507492105E+02  0.22626242995E+02  0.00000000000E+00 0.  1.
</event>
<event>
 7    1  0.2886681E-010  0.4778727E+02  0.7816164E-02  0.1312668E+00
        -11   -1    0    0    0    0  0.00000000000E+00  0.00000000000E+00  0.45593999997E+02  0.45594000000E+02  0.51100000000E-03 0. -1.
         11   -1    0    0    0    0 -0.00000000000E+00 -0.00000000000E+00 -0.45593999997E+02  0.45594000000E+02  0.51100000000E-03 0.  1.
    9900012    2    1    2    0    0 -0.24506853832E+02 -0.63731357380E+00  0.35813840811E+02  0.47787271354E+02  0.20000001413E+02 0.  0.
        -12    1    1    2    0    0  0.24506853832E+02  0.63731357380E+00 -0.35813840811E+02  0.43400728646E+02  0.00000000000E+00 0.  1.
         11    1    3    3    0    0 -0.14365919588E+02 -0.68871552967E+01  0.17408250763E+02  0.23597875933E+02  0.51100000000E-03 0. -1.
        -11    1    3    3    0    0 -0.18793421283E+01  0.69635939317E+01  0.67018716899E+01  0.98457428206E+01  0.51100000000E-03 0.  1.
        -12    1    3    3    0    0 -0.82615921157E+01 -0.71375220879E+00  0.11703718359E+02  0.14343652601E+02  0.00000000000E+00 0.  1.
</event>
<event>
 7    1  0.2886681E-010  0.4778728E+02  0.7816164E-02  0.1312668E+00
        -11   -1    0    0    0    0  0.00000000000E+00  0.00000000000E+00  0.45593999997E+02  0.45594000000E+02  0.51100000000E-03 0. -1.
         11   -1    0    0    0    0 -0.00000000000E+00 -0.00000000000E+00 -0.45593999997E+02  0.45594000000E+02  0.51100000000E-03 0.  1.
    9900012    2    1    2    0    0  0.24440051339E+02 -0.33287344720E+02 -0.13351376782E+02  0.47787277771E+02  0.20000030671E+02 0.  0.
        -12    1    1    2    0    0 -0.24440051339E+02  0.33287344720E+02  0.13351376782E+02  0.43400722229E+02  0.00000000000E+00 0.  1.
         11    1    3    3    0    0  0.15965500502E+02 -0.25906266584E+02 -0.59706353162E+01  0.31010971299E+02  0.51100000000E-03 0. -1.
        -11    1    3    3    0    0 -0.89419709667E+00  0.38314741066E+00 -0.40438154388E+01  0.41591866933E+01  0.51100000000E-03 0.  1.
        -12    1    3    3    0    0  0.93687479344E+01 -0.77642255467E+01 -0.33369260272E+01  0.12617119779E+02  0.00000000000E+00 0.  1.
</event>
<event>
 7    1  0.2886681E-010  0.4778728E+02  0.7816164E-02  0.1312668E+00
        -11   -1    0    0    0    0  0.00000000000E+00  0.00000000000E+00  0.45593999997E+02  0.45594000000E+02  0.51100000000E-03 0.  1.
         11   -1    0    0    0    0 -0.00000000000E+00 -0.00000000000E+00 -0.45593999997E+02  0.45594000000E+02  0.51100000000E-03 0. -1.
    9900012    2    1    2    0    0 -0.39304739816E+02  0.94504968967E+01 -0.15793933739E+02  0.47787276428E+02  0.20000024545E+02 0.  0.
        -12    1    1    2    0    0  0.39304739816E+02 -0.94504968967E+01  0.15793933739E+02  0.43400723572E+02  0.00000000000E+00 0.  1.
         11    1    3    3    0    0 -0.31097371532E+02  0.21813252272E+01 -0.91367734190E+01  0.32485155451E+02  0.51100000000E-03 0. -1.
        -11    1    3    3    0    0 -0.41015091217E+01  0.20202836587E+01 -0.72932093107E+01  0.86078351197E+01  0.51100000000E-03 0.  1.
         12    1    3    3    0    0 -0.41058591627E+01  0.52488880108E+01  0.63604899025E+00  0.66942858567E+01  0.00000000000E+00 0. -1.
</event>
<event>
 7    1  0.2886681E-010  0.4778727E+02  0.7816164E-02  0.1312668E+00
        -11   -1    0    0    0    0  0.00000000000E+00  0.00000000000E+00  0.45593999997E+02  0.45594000000E+02  0.51100000000E-03 0.  1.
         11   -1    0    0    0    0 -0.00000000000E+00 -0.00000000000E+00 -0.45593999997E+02  0.45594000000E+02  0.51100000000E-03 0. -1.
    9900012    2    1    2    0    0 -0.29105535849E+01 -0.24896700759E+02 -0.35430301574E+02  0.47787270738E+02  0.19999998603E+02 0.  0.
        -12    1    1    2    0    0  0.29105535849E+01  0.24896700759E+02  0.35430301574E+02  0.43400729262E+02  0.00000000000E+00 0.  1.
         11    1    3    3    0    0 -0.73246855069E+01 -0.54125099273E+01 -0.62671538693E+01  0.11055473729E+02  0.51100000000E-03 0. -1.
        -11    1    3    3    0    0  0.68569877196E+01 -0.13748014626E+02 -0.16082215289E+02  0.22241039445E+02  0.51100000000E-03 0.  1.
         12    1    3    3    0    0 -0.24428557976E+01 -0.57361762061E+01 -0.13080932416E+02  0.14490757564E+02  0.00000000000E+00 0. -1.
</event>
<event>
 7    1  0.2886681E-010  0.4778726E+02  0.7816164E-02  0.1312668E+00
        -11   -1    0    0    0    0  0.00000000000E+00  0.00000000000E+00  0.45593999997E+02  0.45594000000E+02  0.51100000000E-03 0.  1.
         11   -1    0    0    0    0 -0.00000000000E+00 -0.00000000000E+00 -0.45593999997E+02  0.45594000000E+02  0.51100000000E-03 0. -1.
    9900012    2    1    2    0    0  0.40018267484E+02 -0.79836467756E+01 -0.14779167754E+02  0.47787260977E+02  0.19999954097E+02 0.  0.
        -12    1    1    2    0    0 -0.40018267484E+02  0.79836467756E+01  0.14779167754E+02  0.43400739023E+02  0.00000000000E+00 0.  1.
         11    1    3    3    0    0 -0.18456317476E+00  0.16477886534E+01 -0.38228449088E+01  0.41669430606E+01  0.51100000000E-03 0. -1.
        -11    1    3    3    0    0  0.26127001218E+02 -0.86164927837E+01 -0.10661766349E+02  0.29504870826E+02  0.51100000000E-03 0.  1.
        -12    1    3    3    0    0  0.14075829440E+02 -0.10149426453E+01 -0.29455649664E+00  0.14115447090E+02  0.00000000000E+00 0.  1.
</event>
<event>
 7    1  0.2886681E-010  0.4778727E+02  0.7816164E-02  0.1312668E+00
        -11   -1    0    0    0    0  0.00000000000E+00  0.00000000000E+00  0.45593999997E+02  0.45594000000E+02  0.51100000000E-03 0.  1.
         11   -1    0    0    0    0 -0.00000000000E+00 -0.00000000000E+00 -0.45593999997E+02  0.45594000000E+02  0.51100000000E-03 0. -1.
    9900012    2    1    2    0    0  0.23660203379E+02 -0.35950497076E+02 -0.56017981644E+01  0.47787267211E+02  0.19999982522E+02 0.  0.
        -12    1    1    2    0    0 -0.23660203379E+02  0.35950497076E+02  0.56017981644E+01  0.43400732789E+02  0.00000000000E+00 0.  1.
         11    1    3    3    0    0  0.21016752001E+02 -0.17223681429E+02 -0.65353550034E+00  0.27180621324E+02  0.51100000000E-03 0. -1.
        -11    1    3    3    0    0  0.35996049092E+01 -0.16657971488E+02 -0.24377442234E+01  0.17215916088E+02  0.51100000000E-03 0.  1.
         12    1    3    3    0    0 -0.95615353137E+00 -0.20688441591E+01 -0.25105184407E+01  0.33907297992E+01  0.00000000000E+00 0. -1.
</event>
<event>
 7    1  0.2886681E-010  0.4778727E+02  0.7816164E-02  0.1312668E+00
        -11   -1    0    0    0    0  0.00000000000E+00  0.00000000000E+00  0.45593999997E+02  0.45594000000E+02  0.51100000000E-03 0. -1.
         11   -1    0    0    0    0 -0.00000000000E+00 -0.00000000000E+00 -0.45593999997E+02  0.45594000000E+02  0.51100000000E-03 0.  1.
    9900012    2    1    2    0    0  0.10479456940E+02  0.20986457133E+02 -0.36515377480E+02  0.47787271974E+02  0.20000004236E+02 0.  0.
        -12    1    1    2    0    0 -0.10479456940E+02 -0.20986457133E+02  0.36515377480E+02  0.43400728026E+02  0.00000000000E+00 0.  1.
         11    1    3    3    0    0  0.10839932766E+02  0.84869358386E+01 -0.13670600486E+02  0.19401482938E+02  0.51100000000E-03 0. -1.
        -11    1    3    3    0    0 -0.31895784506E+01  0.72764897226E+01 -0.45602452497E+01  0.91605977083E+01  0.51100000000E-03 0.  1.
        -12    1    3    3    0    0  0.28291026244E+01  0.52230315714E+01 -0.18284531744E+02  0.19225191327E+02  0.00000000000E+00 0.  1.
</event>
<event>
 7    1  0.2886681E-010  0.4778727E+02  0.7816164E-02  0.1312668E+00
        -11   -1    0    0    0    0  0.00000000000E+00  0.00000000000E+00  0.45593999997E+02  0.45594000000E+02  0.51100000000E-03 0. -1.
         11   -1    0    0    0    0 -0.00000000000E+00 -0.00000000000E+00 -0.45593999997E+02  0.45594000000E+02  0.51100000000E-03 0.  1.
    9900012    2    1    2    0    0  0.33362340283E+02  0.17806264809E+02  0.21295882362E+02  0.47787269347E+02  0.19999992260E+02 0.  0.
        -12    1    1    2    0    0 -0.33362340283E+02 -0.17806264809E+02 -0.21295882362E+02  0.43400730653E+02  0.00000000000E+00 0.  1.
         11    1    3    3    0    0  0.68535012933E+01  0.17220671703E+01  0.75453557282E+01  0.10337716800E+02  0.51100000000E-03 0. -1.
        -11    1    3    3    0    0 -0.14151454940E+01 -0.11341746183E+01  0.17428290986E+01  0.25152420087E+01  0.51100000000E-03 0.  1.
         12    1    3    3    0    0  0.27923984484E+02  0.17218372257E+02  0.12007697536E+02  0.34934310538E+02  0.00000000000E+00 0. -1.
</event>
<event>
 7    1  0.2886681E-010  0.4778727E+02  0.7816164E-02  0.1312668E+00
        -11   -1    0    0    0    0  0.00000000000E+00  0.00000000000E+00  0.45593999997E+02  0.45594000000E+02  0.51100000000E-03 0.  1.
         11   -1    0    0    0    0 -0.00000000000E+00 -0.00000000000E+00 -0.45593999997E+02  0.45594000000E+02  0.51100000000E-03 0. -1.
    9900012    2    1    2    0    0  0.16924334886E+02 -0.28721606882E+02 -0.27789556014E+02  0.47787271473E+02  0.20000001954E+02 0.  0.
        -12    1    1    2    0    0 -0.16924334886E+02  0.28721606882E+02  0.27789556014E+02  0.43400728527E+02  0.00000000000E+00 0.  1.
         11    1    3    3    0    0  0.26241256062E+01 -0.92239355276E+01 -0.16657613062E+02  0.19220902555E+02  0.51100000000E-03 0. -1.
        -11    1    3    3    0    0  0.13968846845E+02 -0.20706437938E+02 -0.11042728087E+02  0.27309835190E+02  0.51100000000E-03 0.  1.
         12    1    3    3    0    0  0.33136243535E+00  0.12087665839E+01 -0.89214864661E-01  0.12565337282E+01  0.00000000000E+00 0. -1.
</event>
<event>
 7    1  0.2886681E-010  0.4778728E+02  0.7816164E-02  0.1312668E+00
        -11   -1    0    0    0    0  0.00000000000E+00  0.00000000000E+00  0.45593999997E+02  0.45594000000E+02  0.51100000000E-03 0.  1.
         11   -1    0    0    0    0 -0.00000000000E+00 -0.00000000000E+00 -0.45593999997E+02  0.45594000000E+02  0.51100000000E-03 0. -1.
    9900012    2    1    2    0    0 -0.13063259898E+01  0.22894511944E+02 -0.36847756646E+02  0.47787281865E+02  0.20000049336E+02 0.  0.
        -12    1    1    2    0    0  0.13063259898E+01 -0.22894511944E+02  0.36847756646E+02  0.43400718135E+02  0.00000000000E+00 0.  1.
         11    1    3    3    0    0 -0.78791454884E+01  0.38272113417E+01 -0.11225986100E+02  0.14239074564E+02  0.51100000000E-03 0. -1.
        -11    1    3    3    0    0  0.56205946376E+01  0.11114381184E+02 -0.20667271554E+02  0.24129995171E+02  0.51100000000E-03 0.  1.
        -12    1    3    3    0    0  0.95222486100E+00  0.79529194182E+01 -0.49544989931E+01  0.94182121303E+01  0.00000000000E+00 0.  1.
</event>
<event>
 7    1  0.2886681E-010  0.4778727E+02  0.7816164E-02  0.1312668E+00
        -11   -1    0    0    0    0  0.00000000000E+00  0.00000000000E+00  0.45593999997E+02  0.45594000000E+02  0.51100000000E-03 0.  1.
         11   -1    0    0    0    0 -0.00000000000E+00 -0.00000000000E+00 -0.45593999997E+02  0.45594000000E+02  0.51100000000E-03 0. -1.
    9900012    2    1    2    0    0 -0.30599221098E+02  0.13960799228E+02 -0.27430039495E+02  0.47787270587E+02  0.19999997912E+02 0.  0.
        -12    1    1    2    0    0  0.30599221098E+02 -0.13960799228E+02  0.27430039495E+02  0.43400729413E+02  0.00000000000E+00 0.  1.
         11    1    3    3    0    0 -0.28369954542E+01  0.10364395034E+02 -0.93681580312E+01  0.14255932547E+02  0.51100000000E-03 0. -1.
        -11    1    3    3    0    0 -0.23078711152E+02  0.27180309606E+01 -0.16560197586E+02  0.28535149291E+02  0.51100000000E-03 0.  1.
         12    1    3    3    0    0 -0.46835144924E+01  0.87837323330E+00 -0.15016838781E+01  0.49961887482E+01  0.00000000000E+00 0. -1.
</event>
<event>
 7    1  0.2886681E-010  0.4778727E+02  0.7816164E-02  0.1312668E+00
        -11   -1    0    0    0    0  0.00000000000E+00  0.00000000000E+00  0.45593999997E+02  0.45594000000E+02  0.51100000000E-03 0.  1.
         11   -1    0    0    0    0 -0.00000000000E+00 -0.00000000000E+00 -0.45593999997E+02  0.45594000000E+02  0.51100000000E-03 0. -1.
    9900012    2    1    2    0    0  0.36393060750E+02  0.36889360512E+01 -0.23357239232E+02  0.47787265623E+02  0.19999975280E+02 0.  0.
        -12    1    1    2    0    0 -0.36393060750E+02 -0.36889360512E+01  0.23357239232E+02  0.43400734377E+02  0.00000000000E+00 0.  1.
         11    1    3    3    0    0  0.90797527789E+01  0.12310695097E+01 -0.11663609972E+02  0.14832303951E+02  0.51100000000E-03 0. -1.
        -11    1    3    3    0    0  0.21919447837E+02  0.23710822424E+01 -0.23583499268E+01  0.22173092683E+02  0.51100000000E-03 0.  1.
        -12    1    3    3    0    0  0.53938601343E+01  0.86784299090E-01 -0.93352793334E+01  0.10781868989E+02  0.00000000000E+00 0.  1.
</event>
<event>
 7    1  0.2886681E-010  0.4778727E+02  0.7816164E-02  0.1312668E+00
        -11   -1    0    0    0    0  0.00000000000E+00  0.00000000000E+00  0.45593999997E+02  0.45594000000E+02  0.51100000000E-03 0. -1.
         11   -1    0    0    0    0 -0.00000000000E+00 -0.00000000000E+00 -0.45593999997E+02  0.45594000000E+02  0.51100000000E-03 0.  1.
    9900012    2    1    2    0    0 -0.14459829459E+02 -0.14852824995E+02  0.38130440461E+02  0.47787267655E+02  0.19999984547E+02 0.  0.
        -12    1    1    2    0    0  0.14459829459E+02  0.14852824995E+02 -0.38130440461E+02  0.43400732345E+02  0.00000000000E+00 0.  1.
         11    1    3    3    0    0 -0.35829064943E-02 -0.74553076736E+00  0.34796237465E+01  0.35585967235E+01  0.51100000000E-03 0. -1.
        -11    1    3    3    0    0 -0.53451833262E+01 -0.79422518223E+01  0.31296174502E+02  0.32727677698E+02  0.51100000000E-03 0.  1.
        -12    1    3    3    0    0 -0.91110632267E+01 -0.61650424053E+01  0.33546422122E+01  0.11500993233E+02  0.00000000000E+00 0.  1.
</event>
<event>
 7    1  0.2886681E-010  0.4778724E+02  0.7816164E-02  0.1312668E+00
        -11   -1    0    0    0    0  0.00000000000E+00  0.00000000000E+00  0.45593999997E+02  0.45594000000E+02  0.51100000000E-03 0.  1.
         11   -1    0    0    0    0 -0.00000000000E+00 -0.00000000000E+00 -0.45593999997E+02  0.45594000000E+02  0.51100000000E-03 0. -1.
    9900012    2    1    2    0    0  0.41731668234E+02  0.45914611252E+01 -0.11000564261E+02  0.47787238914E+02  0.19999853503E+02 0.  0.
        -12    1    1    2    0    0 -0.41731668234E+02 -0.45914611252E+01  0.11000564261E+02  0.43400761086E+02  0.00000000000E+00 0.  1.
         11    1    3    3    0    0  0.35804129609E+02  0.48806240926E+01 -0.72821291292E+01  0.36861709042E+02  0.51100000000E-03 0. -1.
        -11    1    3    3    0    0  0.25803964507E+01  0.16438620689E+01 -0.57837495905E+01  0.65431252419E+01  0.51100000000E-03 0.  1.
         12    1    3    3    0    0  0.33471421736E+01 -0.19330250364E+01  0.20653144590E+01  0.43824046294E+01  0.00000000000E+00 0. -1.
</event>
<event>
 7    1  0.2886681E-010  0.4778727E+02  0.7816164E-02  0.1312668E+00
        -11   -1    0    0    0    0  0.00000000000E+00  0.00000000000E+00  0.45593999997E+02  0.45594000000E+02  0.51100000000E-03 0. -1.
         11   -1    0    0    0    0 -0.00000000000E+00 -0.00000000000E+00 -0.45593999997E+02  0.45594000000E+02  0.51100000000E-03 0.  1.
    9900012    2    1    2    0    0 -0.12212691366E+02 -0.41541103673E+02 -0.29681915853E+01  0.47787270904E+02  0.19999999358E+02 0.  0.
        -12    1    1    2    0    0  0.12212691366E+02  0.41541103673E+02  0.29681915853E+01  0.43400729096E+02  0.00000000000E+00 0.  1.
         11    1    3    3    0    0  0.25370645195E-01 -0.21792384633E+02  0.37129524401E+01  0.22106439961E+02  0.51100000000E-03 0. -1.
        -11    1    3    3    0    0 -0.11664413249E+02 -0.19823177640E+02 -0.45157107733E+01  0.23439465699E+02  0.51100000000E-03 0.  1.
         12    1    3    3    0    0 -0.57364876255E+00  0.74458600076E-01 -0.21654332522E+01  0.22413652437E+01  0.00000000000E+00 0. -1.
</event>
<event>
 7    1  0.2886681E-010  0.4778730E+02  0.7816164E-02  0.1312668E+00
        -11   -1    0    0    0    0  0.00000000000E+00  0.00000000000E+00  0.45593999997E+02  0.45594000000E+02  0.51100000000E-03 0. -1.
         11   -1    0    0    0    0 -0.00000000000E+00 -0.00000000000E+00 -0.45593999997E+02  0.45594000000E+02  0.51100000000E-03 0.  1.
    9900012    2    1    2    0    0  0.18247722956E+01  0.29151149506E+02  0.32101427706E+02  0.47787297561E+02  0.20000120899E+02 0.  0.
        -12    1    1    2    0    0 -0.18247722956E+01 -0.29151149506E+02 -0.32101427706E+02  0.43400702439E+02  0.00000000000E+00 0.  1.
         11    1    3    3    0    0  0.45157611117E+01  0.15500703335E+02  0.24210997105E+02  0.29100451601E+02  0.51100000000E-03 0.  1.
        -11    1    3    3    0    0 -0.14560604649E+01  0.14620440033E+02  0.52267765317E+01  0.15594761044E+02  0.51100000000E-03 0. -1.
         12    1    3    3    0    0 -0.12349283511E+01 -0.96999386289E+00  0.26636540697E+01  0.30920849163E+01  0.00000000000E+00 0. -1.
</event>
<event>
 7    1  0.2886681E-010  0.4778727E+02  0.7816164E-02  0.1312668E+00
        -11   -1    0    0    0    0  0.00000000000E+00  0.00000000000E+00  0.45593999997E+02  0.45594000000E+02  0.51100000000E-03 0.  1.
         11   -1    0    0    0    0 -0.00000000000E+00 -0.00000000000E+00 -0.45593999997E+02  0.45594000000E+02  0.51100000000E-03 0. -1.
    9900012    2    1    2    0    0 -0.36731659172E+02 -0.21792759042E+02  0.77126038219E+01  0.47787269708E+02  0.19999993906E+02 0.  0.
        -12    1    1    2    0    0  0.36731659172E+02  0.21792759042E+02 -0.77126038219E+01  0.43400730292E+02  0.00000000000E+00 0.  1.
         11    1    3    3    0    0 -0.19121577123E+02 -0.23743312655E+01  0.50207111031E+01  0.19911798032E+02  0.51100000000E-03 0. -1.
        -11    1    3    3    0    0 -0.28663063957E+00 -0.29332051851E+01 -0.19250371144E+01  0.35201729978E+01  0.51100000000E-03 0.  1.
         12    1    3    3    0    0 -0.17323451409E+02 -0.16485222591E+02  0.46169298331E+01  0.24355298678E+02  0.00000000000E+00 0. -1.
</event>
<event>
 7    1  0.2886681E-010  0.4778727E+02  0.7816164E-02  0.1312668E+00
        -11   -1    0    0    0    0  0.00000000000E+00  0.00000000000E+00  0.45593999997E+02  0.45594000000E+02  0.51100000000E-03 0.  1.
         11   -1    0    0    0    0 -0.00000000000E+00 -0.00000000000E+00 -0.45593999997E+02  0.45594000000E+02  0.51100000000E-03 0. -1.
    9900012    2    1    2    0    0 -0.41252464785E+01 -0.24805529499E+00 -0.43203520497E+02  0.47787269900E+02  0.19999994781E+02 0.  0.
        -12    1    1    2    0    0  0.41252464785E+01  0.24805529499E+00  0.43203520497E+02  0.43400730100E+02  0.00000000000E+00 0.  1.
         11    1    3    3    0    0  0.29659825355E+01  0.55472384057E+01 -0.82410375506E+01  0.10367430082E+02  0.51100000000E-03 0. -1.
        -11    1    3    3    0    0 -0.80264941806E+01 -0.19374778962E+01 -0.15556439675E+02  0.17611963123E+02  0.51100000000E-03 0.  1.
         12    1    3    3    0    0  0.93526516662E+00 -0.38578158045E+01 -0.19406043271E+02  0.19807876695E+02  0.00000000000E+00 0. -1.
</event>
<event>
 7    1  0.2886681E-010  0.4778727E+02  0.7816164E-02  0.1312668E+00
        -11   -1    0    0    0    0  0.00000000000E+00  0.00000000000E+00  0.45593999997E+02  0.45594000000E+02  0.51100000000E-03 0.  1.
         11   -1    0    0    0    0 -0.00000000000E+00 -0.00000000000E+00 -0.45593999997E+02  0.45594000000E+02  0.51100000000E-03 0. -1.
    9900012    2    1    2    0    0 -0.13262755906E+02  0.37758854192E+02 -0.16792594950E+02  0.47787274093E+02  0.20000013900E+02 0.  0.
        -12    1    1    2    0    0  0.13262755906E+02 -0.37758854192E+02  0.16792594950E+02  0.43400725907E+02  0.00000000000E+00 0.  1.
         11    1    3    3    0    0 -0.11714732312E+02  0.28989747780E+02 -0.55463625369E+01  0.31755354936E+02  0.51100000000E-03 0. -1.
        -11    1    3    3    0    0 -0.28593693907E+01  0.89135525896E+01 -0.11345673654E+02  0.14708899483E+02  0.51100000000E-03 0.  1.
         12    1    3    3    0    0  0.13113457965E+01 -0.14444617776E+00  0.99441241083E-01  0.13230196736E+01  0.00000000000E+00 0. -1.
</event>
<event>
 7    1  0.2886681E-010  0.4778727E+02  0.7816164E-02  0.1312668E+00
        -11   -1    0    0    0    0  0.00000000000E+00  0.00000000000E+00  0.45593999997E+02  0.45594000000E+02  0.51100000000E-03 0. -1.
         11   -1    0    0    0    0 -0.00000000000E+00 -0.00000000000E+00 -0.45593999997E+02  0.45594000000E+02  0.51100000000E-03 0.  1.
    9900012    2    1    2    0    0 -0.34566828612E+02 -0.23209980317E+02 -0.12249673241E+02  0.47787270500E+02  0.19999997516E+02 0.  0.
        -12    1    1    2    0    0  0.34566828612E+02  0.23209980317E+02  0.12249673241E+02  0.43400729500E+02  0.00000000000E+00 0.  1.
         11    1    3    3    0    0 -0.10889257956E+02 -0.61384259102E+01 -0.29983284646E+00  0.12503843869E+02  0.51100000000E-03 0. -1.
        -11    1    3    3    0    0 -0.25470623228E+02 -0.16428689886E+02 -0.87285832733E+01  0.31541126568E+02  0.51100000000E-03 0.  1.
        -12    1    3    3    0    0  0.17930525718E+01 -0.64286452091E+00 -0.32212571211E+01  0.37423000625E+01  0.00000000000E+00 0.  1.
</event>
<event>
 7    1  0.2886681E-010  0.4778727E+02  0.7816164E-02  0.1312668E+00
        -11   -1    0    0    0    0  0.00000000000E+00  0.00000000000E+00  0.45593999997E+02  0.45594000000E+02  0.51100000000E-03 0.  1.
         11   -1    0    0    0    0 -0.00000000000E+00 -0.00000000000E+00 -0.45593999997E+02  0.45594000000E+02  0.51100000000E-03 0. -1.
    9900012    2    1    2    0    0  0.20172341656E+02 -0.33899868710E+02 -0.18096931196E+02  0.47787269762E+02  0.19999994154E+02 0.  0.
        -12    1    1    2    0    0 -0.20172341656E+02  0.33899868710E+02  0.18096931196E+02  0.43400730238E+02  0.00000000000E+00 0.  1.
         11    1    3    3    0    0 -0.49746808013E+00 -0.12705067866E+02 -0.47650686654E+01  0.13578368960E+02  0.51100000000E-03 0. -1.
        -11    1    3    3    0    0  0.51094420474E+01 -0.11097965333E+02 -0.89613936287E+01  0.15151825256E+02  0.51100000000E-03 0.  1.
         12    1    3    3    0    0  0.15560367688E+02 -0.10096835512E+02 -0.43704689018E+01  0.19057075546E+02  0.00000000000E+00 0. -1.
</event>
<event>
 7    1  0.2886681E-010  0.4778727E+02  0.7816164E-02  0.1312668E+00
        -11   -1    0    0    0    0  0.00000000000E+00  0.00000000000E+00  0.45593999997E+02  0.45594000000E+02  0.51100000000E-03 0.  1.
         11   -1    0    0    0    0 -0.00000000000E+00 -0.00000000000E+00 -0.45593999997E+02  0.45594000000E+02  0.51100000000E-03 0. -1.
    9900012    2    1    2    0    0  0.41370872531E+02  0.15798150908E+01 -0.13022226347E+02  0.47787270874E+02  0.19999999221E+02 0.  0.
        -12    1    1    2    0    0 -0.41370872531E+02 -0.15798150908E+01  0.13022226347E+02  0.43400729126E+02  0.00000000000E+00 0.  1.
         11    1    3    3    0    0 -0.15953055841E+01 -0.15497412986E+01  0.87557329760E-01  0.22258401889E+01  0.51100000000E-03 0.  1.
        -11    1    3    3    0    0  0.23067878440E+02  0.10830916379E+01 -0.34558997042E+01  0.23350446382E+02  0.51100000000E-03 0. -1.
         12    1    3    3    0    0  0.19898299675E+02  0.20464647515E+01 -0.96538839728E+01  0.22210984303E+02  0.00000000000E+00 0. -1.
</event>
<event>
 7    1  0.2886681E-010  0.4778727E+02  0.7816164E-02  0.1312668E+00
        -11   -1    0    0    0    0  0.00000000000E+00  0.00000000000E+00  0.45593999997E+02  0.45594000000E+02  0.51100000000E-03 0.  1.
         11   -1    0    0    0    0 -0.00000000000E+00 -0.00000000000E+00 -0.45593999997E+02  0.45594000000E+02  0.51100000000E-03 0. -1.
    9900012    2    1    2    0    0 -0.22929065097E+02  0.43046389367E+01 -0.36597147088E+02  0.47787272845E+02  0.20000008210E+02 0.  0.
        -12    1    1    2    0    0  0.22929065097E+02 -0.43046389367E+01  0.36597147088E+02  0.43400727155E+02  0.00000000000E+00 0.  1.
         11    1    3    3    0    0 -0.10613395825E+02  0.73252399003E+01 -0.31591328632E+02  0.34122065523E+02  0.51100000000E-03 0. -1.
        -11    1    3    3    0    0 -0.55713617629E+01 -0.15969250733E+01 -0.27281975845E+01  0.64057243075E+01  0.51100000000E-03 0.  1.
         12    1    3    3    0    0 -0.67443075083E+01 -0.14236758902E+01 -0.22776208717E+01  0.72594830148E+01  0.00000000000E+00 0. -1.
</event>
<event>
 7    1  0.2886681E-010  0.4778727E+02  0.7816164E-02  0.1312668E+00
        -11   -1    0    0    0    0  0.00000000000E+00  0.00000000000E+00  0.45593999997E+02  0.45594000000E+02  0.51100000000E-03 0.  1.
         11   -1    0    0    0    0 -0.00000000000E+00 -0.00000000000E+00 -0.45593999997E+02  0.45594000000E+02  0.51100000000E-03 0. -1.
    9900012    2    1    2    0    0 -0.11103006058E+01 -0.42887701298E+02 -0.65601444602E+01  0.47787272064E+02  0.20000004647E+02 0.  0.
        -12    1    1    2    0    0  0.11103006058E+01  0.42887701298E+02  0.65601444602E+01  0.43400727936E+02  0.00000000000E+00 0.  1.
         11    1    3    3    0    0  0.18110366568E-01 -0.33019440259E+02 -0.10170482229E+01  0.33035104818E+02  0.51100000000E-03 0. -1.
        -11    1    3    3    0    0  0.29047374813E+01 -0.20748284331E+01  0.11119545290E+01  0.37388308330E+01  0.51100000000E-03 0.  1.
         12    1    3    3    0    0 -0.40331484537E+01 -0.77934326063E+01 -0.66550507664E+01  0.11013336413E+02  0.00000000000E+00 0. -1.
</event>
<event>
 7    1  0.2886681E-010  0.4778728E+02  0.7816164E-02  0.1312668E+00
        -11   -1    0    0    0    0  0.00000000000E+00  0.00000000000E+00  0.45593999997E+02  0.45594000000E+02  0.51100000000E-03 0.  1.
         11   -1    0    0    0    0 -0.00000000000E+00 -0.00000000000E+00 -0.45593999997E+02  0.45594000000E+02  0.51100000000E-03 0. -1.
    9900012    2    1    2    0    0 -0.26476139551E+02  0.48826934836E+01 -0.34041096763E+02  0.47787275006E+02  0.20000018062E+02 0.  0.
        -12    1    1    2    0    0  0.26476139551E+02 -0.48826934836E+01  0.34041096763E+02  0.43400724994E+02  0.00000000000E+00 0.  1.
         11    1    3    3    0    0 -0.10059875153E+02  0.76222629795E+01 -0.26593578756E+02  0.29436684805E+02  0.51100000000E-03 0. -1.
        -11    1    3    3    0    0 -0.11990368290E+02 -0.13109789204E+01 -0.60520757811E+01  0.13495007187E+02  0.51100000000E-03 0.  1.
         12    1    3    3    0    0 -0.44258961090E+01 -0.14285905755E+01 -0.13954422261E+01  0.48555830141E+01  0.00000000000E+00 0. -1.
</event>
<event>
 7    1  0.2886681E-010  0.4778727E+02  0.7816164E-02  0.1312668E+00
        -11   -1    0    0    0    0  0.00000000000E+00  0.00000000000E+00  0.45593999997E+02  0.45594000000E+02  0.51100000000E-03 0.  1.
         11   -1    0    0    0    0 -0.00000000000E+00 -0.00000000000E+00 -0.45593999997E+02  0.45594000000E+02  0.51100000000E-03 0. -1.
    9900012    2    1    2    0    0 -0.43365910813E+02 -0.48726543345E+00 -0.16684001335E+01  0.47787271812E+02  0.20000003500E+02 0.  0.
        -12    1    1    2    0    0  0.43365910813E+02  0.48726543345E+00  0.16684001335E+01  0.43400728188E+02  0.00000000000E+00 0.  1.
         11    1    3    3    0    0 -0.22388598044E+02 -0.37978593161E+01  0.13107430147E+01  0.22746232771E+02  0.51100000000E-03 0. -1.
        -11    1    3    3    0    0 -0.12332929666E+02  0.42660791239E+01 -0.76929894744E+01  0.15148685506E+02  0.51100000000E-03 0.  1.
        -12    1    3    3    0    0 -0.86443831033E+01 -0.95548524129E+00  0.47138463263E+01  0.98923535355E+01  0.00000000000E+00 0.  1.
</event>
<event>
 7    1  0.2886681E-010  0.4778727E+02  0.7816164E-02  0.1312668E+00
        -11   -1    0    0    0    0  0.00000000000E+00  0.00000000000E+00  0.45593999997E+02  0.45594000000E+02  0.51100000000E-03 0. -1.
         11   -1    0    0    0    0 -0.00000000000E+00 -0.00000000000E+00 -0.45593999997E+02  0.45594000000E+02  0.51100000000E-03 0.  1.
    9900012    2    1    2    0    0  0.13023215162E+02  0.19843812366E+02  0.36335139497E+02  0.47787269769E+02  0.19999994183E+02 0.  0.
        -12    1    1    2    0    0 -0.13023215162E+02 -0.19843812366E+02 -0.36335139497E+02  0.43400730231E+02  0.00000000000E+00 0.  1.
         11    1    3    3    0    0  0.57178453913E+01  0.12570976765E+01  0.90139718920E+01  0.10748290097E+02  0.51100000000E-03 0.  1.
        -11    1    3    3    0    0  0.64633843188E+01  0.64214103006E+01  0.26014548543E+01  0.94750944439E+01  0.51100000000E-03 0. -1.
        -12    1    3    3    0    0  0.84198545205E+00  0.12165304389E+02  0.24719712750E+02  0.27563885227E+02  0.00000000000E+00 0.  1.
</event>
<event>
 7    1  0.2886681E-010  0.4778727E+02  0.7816164E-02  0.1312668E+00
        -11   -1    0    0    0    0  0.00000000000E+00  0.00000000000E+00  0.45593999997E+02  0.45594000000E+02  0.51100000000E-03 0.  1.
         11   -1    0    0    0    0 -0.00000000000E+00 -0.00000000000E+00 -0.45593999997E+02  0.45594000000E+02  0.51100000000E-03 0. -1.
    9900012    2    1    2    0    0 -0.92012427233E+01  0.94454638078E+01 -0.41349045085E+02  0.47787272084E+02  0.20000004739E+02 0.  0.
        -12    1    1    2    0    0  0.92012427233E+01 -0.94454638078E+01  0.41349045085E+02  0.43400727916E+02  0.00000000000E+00 0.  1.
         11    1    3    3    0    0 -0.17399778518E+01  0.13421476371E+01 -0.79527128987E+01  0.82507288111E+01  0.51100000000E-03 0. -1.
        -11    1    3    3    0    0 -0.11421181627E+01  0.53676540781E+01 -0.32054829053E+02  0.32521196320E+02  0.51100000000E-03 0.  1.
        -12    1    3    3    0    0 -0.63191467088E+01  0.27356620926E+01 -0.13415031338E+01  0.70153469529E+01  0.00000000000E+00 0.  1.
</event>
<event>
 7    1  0.2886681E-010  0.4778727E+02  0.7816164E-02  0.1312668E+00
        -11   -1    0    0    0    0  0.00000000000E+00  0.00000000000E+00  0.45593999997E+02  0.45594000000E+02  0.51100000000E-03 0.  1.
         11   -1    0    0    0    0 -0.00000000000E+00 -0.00000000000E+00 -0.45593999997E+02  0.45594000000E+02  0.51100000000E-03 0. -1.
    9900012    2    1    2    0    0  0.30200946260E+02 -0.15111001806E+02 -0.27261390473E+02  0.47787274878E+02  0.20000017479E+02 0.  0.
        -12    1    1    2    0    0 -0.30200946260E+02  0.15111001806E+02  0.27261390473E+02  0.43400725122E+02  0.00000000000E+00 0.  1.
         11    1    3    3    0    0  0.18202361302E+02  0.12428210275E+01 -0.10282655906E+02  0.20942864508E+02  0.51100000000E-03 0. -1.
        -11    1    3    3    0    0  0.64644272510E+01 -0.85658308990E+01 -0.11900932575E+02  0.16024808114E+02  0.51100000000E-03 0.  1.
         12    1    3    3    0    0  0.55341577074E+01 -0.77879919348E+01 -0.50778019911E+01  0.10819602256E+02  0.00000000000E+00 0. -1.
</event>
<event>
 7    1  0.2886681E-010  0.4778727E+02  0.7816164E-02  0.1312668E+00
        -11   -1    0    0    0    0  0.00000000000E+00  0.00000000000E+00  0.45593999997E+02  0.45594000000E+02  0.51100000000E-03 0. -1.
         11   -1    0    0    0    0 -0.00000000000E+00 -0.00000000000E+00 -0.45593999997E+02  0.45594000000E+02  0.51100000000E-03 0.  1.
    9900012    2    1    2    0    0  0.17105679357E+02  0.32849146512E+01  0.39752087273E+02  0.47787269901E+02  0.19999994789E+02 0.  0.
        -12    1    1    2    0    0 -0.17105679357E+02 -0.32849146512E+01 -0.39752087273E+02  0.43400730099E+02  0.00000000000E+00 0.  1.
         11    1    3    3    0    0  0.44387025640E+01  0.83996690097E+00  0.31475778849E+02  0.31798306233E+02  0.51100000000E-03 0. -1.
        -11    1    3    3    0    0  0.29438794403E+01 -0.13484429234E+01  0.17708738825E+01  0.36906258339E+01  0.51100000000E-03 0.  1.
         12    1    3    3    0    0  0.97230973527E+01  0.37933906736E+01  0.65054345413E+01  0.12298337835E+02  0.00000000000E+00 0. -1.
</event>
<event>
 7    1  0.2886681E-010  0.4778727E+02  0.7816164E-02  0.1312668E+00
        -11   -1    0    0    0    0  0.00000000000E+00  0.00000000000E+00  0.45593999997E+02  0.45594000000E+02  0.51100000000E-03 0.  1.
         11   -1    0    0    0    0 -0.00000000000E+00 -0.00000000000E+00 -0.45593999997E+02  0.45594000000E+02  0.51100000000E-03 0. -1.
    9900012    2    1    2    0    0 -0.36810872348E+02 -0.13268622459E+02 -0.18775700808E+02  0.47787267221E+02  0.19999982566E+02 0.  0.
        -12    1    1    2    0    0  0.36810872348E+02  0.13268622459E+02  0.18775700808E+02  0.43400732779E+02  0.00000000000E+00 0.  1.
         11    1    3    3    0    0 -0.28439544966E+02 -0.15477433571E+02 -0.14937435596E+02  0.35657897447E+02  0.51100000000E-03 0. -1.
        -11    1    3    3    0    0 -0.67211878579E+01  0.37032659938E+01 -0.54229823300E+01  0.93966633895E+01  0.51100000000E-03 0.  1.
        -12    1    3    3    0    0 -0.16501395236E+01 -0.14944548810E+01  0.15847171185E+01  0.27327063845E+01  0.00000000000E+00 0.  1.
</event>
<event>
 7    1  0.2886681E-010  0.4778727E+02  0.7816164E-02  0.1312668E+00
        -11   -1    0    0    0    0  0.00000000000E+00  0.00000000000E+00  0.45593999997E+02  0.45594000000E+02  0.51100000000E-03 0.  1.
         11   -1    0    0    0    0 -0.00000000000E+00 -0.00000000000E+00 -0.45593999997E+02  0.45594000000E+02  0.51100000000E-03 0. -1.
    9900012    2    1    2    0    0 -0.26103270201E+02  0.19735276615E+02 -0.28508966162E+02  0.47787274086E+02  0.20000013867E+02 0.  0.
        -12    1    1    2    0    0  0.26103270201E+02 -0.19735276615E+02  0.28508966162E+02  0.43400725914E+02  0.00000000000E+00 0.  1.
         11    1    3    3    0    0 -0.58476122648E+01  0.55182289166E+01 -0.17518917986E+02  0.19275837394E+02  0.51100000000E-03 0. -1.
        -11    1    3    3    0    0 -0.10500558515E+02  0.11007613004E+02 -0.30143057094E+01  0.15508556101E+02  0.51100000000E-03 0.  1.
         12    1    3    3    0    0 -0.97550994214E+01  0.32094346952E+01 -0.79757424666E+01  0.13002880592E+02  0.00000000000E+00 0. -1.
</event>
<event>
 7    1  0.2886681E-010  0.4778727E+02  0.7816164E-02  0.1312668E+00
        -11   -1    0    0    0    0  0.00000000000E+00  0.00000000000E+00  0.45593999997E+02  0.45594000000E+02  0.51100000000E-03 0. -1.
         11   -1    0    0    0    0 -0.00000000000E+00 -0.00000000000E+00 -0.45593999997E+02  0.45594000000E+02  0.51100000000E-03 0.  1.
    9900012    2    1    2    0    0  0.47999897664E+01  0.95926687497E+01  0.42054303072E+02  0.47787267260E+02  0.19999982746E+02 0.  0.
        -12    1    1    2    0    0 -0.47999897664E+01 -0.95926687497E+01 -0.42054303072E+02  0.43400732740E+02  0.00000000000E+00 0.  1.
         11    1    3    3    0    0 -0.17956607486E+00  0.77322623966E+00  0.12762575017E+02  0.12787237548E+02  0.51100000000E-03 0.  1.
        -11    1    3    3    0    0  0.12549395399E+01  0.12108134474E+02  0.26813991832E+02  0.29447783481E+02  0.51100000000E-03 0. -1.
        -12    1    3    3    0    0  0.37246163013E+01 -0.32886919636E+01  0.24777362226E+01  0.55522462312E+01  0.00000000000E+00 0.  1.
</event>
<event>
 7    1  0.2886681E-010  0.4778727E+02  0.7816164E-02  0.1312668E+00
        -11   -1    0    0    0    0  0.00000000000E+00  0.00000000000E+00  0.45593999997E+02  0.45594000000E+02  0.51100000000E-03 0. -1.
         11   -1    0    0    0    0 -0.00000000000E+00 -0.00000000000E+00 -0.45593999997E+02  0.45594000000E+02  0.51100000000E-03 0.  1.
    9900012    2    1    2    0    0 -0.41809307418E+02  0.83631413515E+00  0.11614886144E+02  0.47787272031E+02  0.20000004497E+02 0.  0.
        -12    1    1    2    0    0  0.41809307418E+02 -0.83631413515E+00 -0.11614886144E+02  0.43400727969E+02  0.00000000000E+00 0.  1.
         11    1    3    3    0    0 -0.26242134295E+02 -0.19304243503E+01  0.68777669717E+01  0.27197055527E+02  0.51100000000E-03 0. -1.
        -11    1    3    3    0    0 -0.48872364331E+01  0.42250422835E+01  0.70536713383E+01  0.95650583825E+01  0.51100000000E-03 0.  1.
        -12    1    3    3    0    0 -0.10679936690E+02 -0.14583037980E+01 -0.23165521664E+01  0.11025158122E+02  0.00000000000E+00 0.  1.
</event>
<event>
 7    1  0.2886681E-010  0.4778727E+02  0.7816164E-02  0.1312668E+00
        -11   -1    0    0    0    0  0.00000000000E+00  0.00000000000E+00  0.45593999997E+02  0.45594000000E+02  0.51100000000E-03 0.  1.
         11   -1    0    0    0    0 -0.00000000000E+00 -0.00000000000E+00 -0.45593999997E+02  0.45594000000E+02  0.51100000000E-03 0. -1.
    9900012    2    1    2    0    0 -0.17374036919E-01  0.39695058983E+02 -0.17547801637E+02  0.47787270146E+02  0.19999995906E+02 0.  0.
        -12    1    1    2    0    0  0.17374036919E-01 -0.39695058983E+02  0.17547801637E+02  0.43400729854E+02  0.00000000000E+00 0.  1.
         11    1    3    3    0    0  0.21381345266E+01  0.34209028700E+02 -0.17905727809E+02  0.38670975582E+02  0.51100000000E-03 0. -1.
        -11    1    3    3    0    0  0.21678647523E+01  0.28689447344E+01 -0.12593510195E+01  0.38100455017E+01  0.51100000000E-03 0.  1.
         12    1    3    3    0    0 -0.43233733158E+01  0.26170855485E+01  0.16172771917E+01  0.53062490623E+01  0.00000000000E+00 0. -1.
</event>
<event>
 7    1  0.2886681E-010  0.4778727E+02  0.7816164E-02  0.1312668E+00
        -11   -1    0    0    0    0  0.00000000000E+00  0.00000000000E+00  0.45593999997E+02  0.45594000000E+02  0.51100000000E-03 0.  1.
         11   -1    0    0    0    0 -0.00000000000E+00 -0.00000000000E+00 -0.45593999997E+02  0.45594000000E+02  0.51100000000E-03 0. -1.
    9900012    2    1    2    0    0  0.14590473124E+02 -0.33775832745E+02 -0.23020302834E+02  0.47787272746E+02  0.20000007757E+02 0.  0.
        -12    1    1    2    0    0 -0.14590473124E+02  0.33775832745E+02  0.23020302834E+02  0.43400727254E+02  0.00000000000E+00 0.  1.
         11    1    3    3    0    0  0.16487725921E+02 -0.19874496536E+02 -0.13378645395E+02  0.29083137235E+02  0.51100000000E-03 0. -1.
        -11    1    3    3    0    0 -0.22726121222E+01 -0.14641515115E+02 -0.99174472671E+01  0.17829595937E+02  0.51100000000E-03 0.  1.
        -12    1    3    3    0    0  0.37535932601E+00  0.74017890581E+00  0.27578982798E+00  0.87453957340E+00  0.00000000000E+00 0.  1.
</event>
<event>
 7    1  0.2886681E-010  0.4778727E+02  0.7816164E-02  0.1312668E+00
        -11   -1    0    0    0    0  0.00000000000E+00  0.00000000000E+00  0.45593999997E+02  0.45594000000E+02  0.51100000000E-03 0.  1.
         11   -1    0    0    0    0 -0.00000000000E+00 -0.00000000000E+00 -0.45593999997E+02  0.45594000000E+02  0.51100000000E-03 0. -1.
    9900012    2    1    2    0    0  0.34985319223E+01 -0.19973177925E+02 -0.38372589884E+02  0.47787271706E+02  0.20000003015E+02 0.  0.
        -12    1    1    2    0    0 -0.34985319223E+01  0.19973177925E+02  0.38372589884E+02  0.43400728294E+02  0.00000000000E+00 0.  1.
         11    1    3    3    0    0  0.11634315501E+01 -0.22148426160E+02 -0.23578307684E+02  0.32370402343E+02  0.51100000000E-03 0. -1.
        -11    1    3    3    0    0  0.26216456567E+01  0.55918308888E+00 -0.97866954595E+01  0.10147173003E+02  0.51100000000E-03 0.  1.
         12    1    3    3    0    0 -0.28654528458E+00  0.16160651457E+01 -0.50075867412E+01  0.52696963600E+01  0.00000000000E+00 0. -1.
</event>
<event>
 7    1  0.2886681E-010  0.4778725E+02  0.7816164E-02  0.1312668E+00
        -11   -1    0    0    0    0  0.00000000000E+00  0.00000000000E+00  0.45593999997E+02  0.45594000000E+02  0.51100000000E-03 0.  1.
         11   -1    0    0    0    0 -0.00000000000E+00 -0.00000000000E+00 -0.45593999997E+02  0.45594000000E+02  0.51100000000E-03 0. -1.
    9900012    2    1    2    0    0 -0.16967491558E+02 -0.34406650140E+02 -0.20295601492E+02  0.47787253652E+02  0.19999920701E+02 0.  0.
        -12    1    1    2    0    0  0.16967491558E+02  0.34406650140E+02  0.20295601492E+02  0.43400746348E+02  0.00000000000E+00 0.  1.
         11    1    3    3    0    0  0.28477369199E+01 -0.41767564688E+01  0.16885754364E+00  0.50580048730E+01  0.51100000000E-03 0. -1.
        -11    1    3    3    0    0 -0.12853293328E+02 -0.10824131911E+02 -0.77288991993E+01  0.18496076992E+02  0.51100000000E-03 0.  1.
         12    1    3    3    0    0 -0.69619351503E+01 -0.19405761760E+02 -0.12735559836E+02  0.24233171787E+02  0.00000000000E+00 0. -1.
</event>
<event>
 7    1  0.2886681E-010  0.4778727E+02  0.7816164E-02  0.1312668E+00
        -11   -1    0    0    0    0  0.00000000000E+00  0.00000000000E+00  0.45593999997E+02  0.45594000000E+02  0.51100000000E-03 0. -1.
         11   -1    0    0    0    0 -0.00000000000E+00 -0.00000000000E+00 -0.45593999997E+02  0.45594000000E+02  0.51100000000E-03 0.  1.
    9900012    2    1    2    0    0  0.62009763093E+01 -0.24366543936E+02  0.35375736226E+02  0.47787270926E+02  0.19999999461E+02 0.  0.
        -12    1    1    2    0    0 -0.62009763093E+01  0.24366543936E+02 -0.35375736226E+02  0.43400729074E+02  0.00000000000E+00 0.  1.
         11    1    3    3    0    0  0.11903573752E+02 -0.21002733748E+02  0.25454378832E+02  0.35081837109E+02  0.51100000000E-03 0. -1.
        -11    1    3    3    0    0 -0.28015662988E+01  0.68828969597E+00  0.44636330656E+01  0.53147471095E+01  0.51100000000E-03 0.  1.
         12    1    3    3    0    0 -0.29010311436E+01 -0.40520998839E+01  0.54577243287E+01  0.73906867079E+01  0.00000000000E+00 0. -1.
</event>
<event>
 7    1  0.2886681E-010  0.4778732E+02  0.7816164E-02  0.1312668E+00
        -11   -1    0    0    0    0  0.00000000000E+00  0.00000000000E+00  0.45593999997E+02  0.45594000000E+02  0.51100000000E-03 0.  1.
         11   -1    0    0    0    0 -0.00000000000E+00 -0.00000000000E+00 -0.45593999997E+02  0.45594000000E+02  0.51100000000E-03 0. -1.
    9900012    2    1    2    0    0 -0.26189690381E+02  0.27751386869E+02 -0.20677990467E+02  0.47787324370E+02  0.20000243132E+02 0.  0.
        -12    1    1    2    0    0  0.26189690381E+02 -0.27751386869E+02  0.20677990467E+02  0.43400675630E+02  0.00000000000E+00 0.  1.
         11    1    3    3    0    0 -0.78854988161E+01  0.12241898885E+02 -0.16793937017E+02  0.22227944140E+02  0.51100000000E-03 0. -1.
        -11    1    3    3    0    0 -0.14503851257E+02  0.15797299509E+02 -0.34910170766E+01  0.21727944531E+02  0.51100000000E-03 0.  1.
         12    1    3    3    0    0 -0.38003403079E+01 -0.28781152510E+00 -0.39303637319E+00  0.38314356996E+01  0.00000000000E+00 0. -1.
</event>
<event>
 7    1  0.2886681E-010  0.4778727E+02  0.7816164E-02  0.1312668E+00
        -11   -1    0    0    0    0  0.00000000000E+00  0.00000000000E+00  0.45593999997E+02  0.45594000000E+02  0.51100000000E-03 0.  1.
         11   -1    0    0    0    0 -0.00000000000E+00 -0.00000000000E+00 -0.45593999997E+02  0.45594000000E+02  0.51100000000E-03 0. -1.
    9900012    2    1    2    0    0 -0.36766711430E+02  0.22854761418E+02 -0.30809978193E+01  0.47787265716E+02  0.19999975704E+02 0.  0.
        -12    1    1    2    0    0  0.36766711430E+02 -0.22854761418E+02  0.30809978193E+01  0.43400734284E+02  0.00000000000E+00 0.  1.
         11    1    3    3    0    0 -0.25660017951E+02  0.93384848163E+01 -0.72706401945E+01  0.28257848981E+02  0.51100000000E-03 0. -1.
        -11    1    3    3    0    0  0.96421734702E+00  0.25153177750E+01  0.11131900126E+00  0.26960954699E+01  0.51100000000E-03 0.  1.
         12    1    3    3    0    0 -0.12070910826E+02  0.11000958826E+02  0.40783233739E+01  0.16833321265E+02  0.00000000000E+00 0. -1.
</event>
<event>
 7    1  0.2886681E-010  0.4778728E+02  0.7816164E-02  0.1312668E+00
        -11   -1    0    0    0    0  0.00000000000E+00  0.00000000000E+00  0.45593999997E+02  0.45594000000E+02  0.51100000000E-03 0.  1.
         11   -1    0    0    0    0 -0.00000000000E+00 -0.00000000000E+00 -0.45593999997E+02  0.45594000000E+02  0.51100000000E-03 0. -1.
    9900012    2    1    2    0    0  0.18418838972E+02  0.33614384733E+02 -0.20357849850E+02  0.47787279492E+02  0.20000038517E+02 0.  0.
        -12    1    1    2    0    0 -0.18418838972E+02 -0.33614384733E+02  0.20357849850E+02  0.43400720508E+02  0.00000000000E+00 0.  1.
         11    1    3    3    0    0  0.98381747736E+01  0.40370180007E+01 -0.66602796608E+01  0.12547769628E+02  0.51100000000E-03 0. -1.
        -11    1    3    3    0    0  0.22697005642E+01  0.20621906770E+02 -0.52370597798E+01  0.21397228206E+02  0.51100000000E-03 0.  1.
         12    1    3    3    0    0  0.63109636341E+01  0.89554599621E+01 -0.84605104097E+01  0.13842281659E+02  0.00000000000E+00 0. -1.
</event>
<event>
 7    1  0.2886681E-010  0.4778724E+02  0.7816164E-02  0.1312668E+00
        -11   -1    0    0    0    0  0.00000000000E+00  0.00000000000E+00  0.45593999997E+02  0.45594000000E+02  0.51100000000E-03 0.  1.
         11   -1    0    0    0    0 -0.00000000000E+00 -0.00000000000E+00 -0.45593999997E+02  0.45594000000E+02  0.51100000000E-03 0. -1.
    9900012    2    1    2    0    0 -0.41718324045E+02 -0.54418486635E+01 -0.10658023681E+02  0.47787242555E+02  0.19999870105E+02 0.  0.
        -12    1    1    2    0    0  0.41718324045E+02  0.54418486635E+01  0.10658023681E+02  0.43400757445E+02  0.00000000000E+00 0.  1.
         11    1    3    3    0    0 -0.32469093854E+02 -0.22310799919E+01 -0.64054830558E+01  0.33170016386E+02  0.51100000000E-03 0. -1.
        -11    1    3    3    0    0 -0.19689198465E+01 -0.42513368314E+01 -0.54271774207E+01  0.71697116562E+01  0.51100000000E-03 0.  1.
         12    1    3    3    0    0 -0.72803103452E+01  0.10405681599E+01  0.11746367955E+01  0.74475145128E+01  0.00000000000E+00 0. -1.
</event>
<event>
 7    1  0.2886681E-010  0.4778727E+02  0.7816164E-02  0.1312668E+00
        -11   -1    0    0    0    0  0.00000000000E+00  0.00000000000E+00  0.45593999997E+02  0.45594000000E+02  0.51100000000E-03 0.  1.
         11   -1    0    0    0    0 -0.00000000000E+00 -0.00000000000E+00 -0.45593999997E+02  0.45594000000E+02  0.51100000000E-03 0. -1.
    9900012    2    1    2    0    0  0.18940309584E+02 -0.21871264069E+02 -0.32350208388E+02  0.47787268418E+02  0.19999988025E+02 0.  0.
        -12    1    1    2    0    0 -0.18940309584E+02  0.21871264069E+02  0.32350208388E+02  0.43400731582E+02  0.00000000000E+00 0.  1.
         11    1    3    3    0    0 -0.68266177904E+00  0.24043612020E+01 -0.38396029124E+01  0.45814332561E+01  0.51100000000E-03 0.  1.
        -11    1    3    3    0    0  0.14113886002E+02 -0.21615890635E+02 -0.25855261801E+02  0.36536872733E+02  0.51100000000E-03 0. -1.
        -12    1    3    3    0    0  0.55090853611E+01 -0.26597346355E+01 -0.26553436745E+01  0.66689624288E+01  0.00000000000E+00 0.  1.
</event>
<event>
 7    1  0.2886681E-010  0.4778727E+02  0.7816164E-02  0.1312668E+00
        -11   -1    0    0    0    0  0.00000000000E+00  0.00000000000E+00  0.45593999997E+02  0.45594000000E+02  0.51100000000E-03 0. -1.
         11   -1    0    0    0    0 -0.00000000000E+00 -0.00000000000E+00 -0.45593999997E+02  0.45594000000E+02  0.51100000000E-03 0.  1.
    9900012    2    1    2    0    0 -0.12200178418E+02  0.41648816958E+02  0.39391692484E+00  0.47787268693E+02  0.19999989280E+02 0.  0.
        -12    1    1    2    0    0  0.12200178418E+02 -0.41648816958E+02 -0.39391692484E+00  0.43400731307E+02  0.00000000000E+00 0.  1.
         11    1    3    3    0    0 -0.89434423865E+01  0.38893284968E+02  0.56532660892E+01  0.40306726425E+02  0.51100000000E-03 0. -1.
        -11    1    3    3    0    0 -0.38728536842E+01  0.25777990424E+01 -0.48454537706E+01  0.67173258121E+01  0.51100000000E-03 0.  1.
         12    1    3    3    0    0  0.61611765227E+00  0.17773294685E+00 -0.41389539377E+00  0.76321645607E+00  0.00000000000E+00 0. -1.
</event>
<event>
 7    1  0.2886681E-010  0.4778727E+02  0.7816164E-02  0.1312668E+00
        -11   -1    0    0    0    0  0.00000000000E+00  0.00000000000E+00  0.45593999997E+02  0.45594000000E+02  0.51100000000E-03 0.  1.
         11   -1    0    0    0    0 -0.00000000000E+00 -0.00000000000E+00 -0.45593999997E+02  0.45594000000E+02  0.51100000000E-03 0. -1.
    9900012    2    1    2    0    0 -0.86795916273E+01 -0.10103377222E+02 -0.41306289929E+02  0.47787272704E+02  0.20000007566E+02 0.  0.
        -12    1    1    2    0    0  0.86795916273E+01  0.10103377222E+02  0.41306289929E+02  0.43400727296E+02  0.00000000000E+00 0.  1.
         11    1    3    3    0    0 -0.15751927268E+01 -0.12864732333E+02 -0.25355949572E+02  0.28476424444E+02  0.51100000000E-03 0. -1.
        -11    1    3    3    0    0 -0.43320188621E+00  0.39250120358E+01 -0.75546350571E+01  0.85244292749E+01  0.51100000000E-03 0.  1.
         12    1    3    3    0    0 -0.66711970143E+01 -0.11636569250E+01 -0.83957053000E+01  0.10786418985E+02  0.00000000000E+00 0. -1.
</event>
<event>
 7    1  0.2886681E-010  0.4778727E+02  0.7816164E-02  0.1312668E+00
        -11   -1    0    0    0    0  0.00000000000E+00  0.00000000000E+00  0.45593999997E+02  0.45594000000E+02  0.51100000000E-03 0.  1.
         11   -1    0    0    0    0 -0.00000000000E+00 -0.00000000000E+00 -0.45593999997E+02  0.45594000000E+02  0.51100000000E-03 0. -1.
    9900012    2    1    2    0    0 -0.34723612366E+02  0.65459107003E+01 -0.25200109519E+02  0.47787265878E+02  0.19999976442E+02 0.  0.
        -12    1    1    2    0    0  0.34723612366E+02 -0.65459107003E+01  0.25200109519E+02  0.43400734122E+02  0.00000000000E+00 0.  1.
         11    1    3    3    0    0 -0.69208556069E+01  0.20626769971E+01 -0.84851427433E+01  0.11142285509E+02  0.51100000000E-03 0. -1.
        -11    1    3    3    0    0 -0.12716814879E+01 -0.41586279321E+01 -0.42626383961E+01  0.60894537063E+01  0.51100000000E-03 0.  1.
        -12    1    3    3    0    0 -0.26531075271E+02  0.86418616353E+01 -0.12452328379E+02  0.30555526662E+02  0.00000000000E+00 0.  1.
</event>
<event>
 7    1  0.2886681E-010  0.4778727E+02  0.7816164E-02  0.1312668E+00
        -11   -1    0    0    0    0  0.00000000000E+00  0.00000000000E+00  0.45593999997E+02  0.45594000000E+02  0.51100000000E-03 0.  1.
         11   -1    0    0    0    0 -0.00000000000E+00 -0.00000000000E+00 -0.45593999997E+02  0.45594000000E+02  0.51100000000E-03 0. -1.
    9900012    2    1    2    0    0 -0.23603979590E+02  0.24159832236E+02 -0.27253949217E+02  0.47787273116E+02  0.20000009445E+02 0.  0.
        -12    1    1    2    0    0  0.23603979590E+02 -0.24159832236E+02  0.27253949217E+02  0.43400726884E+02  0.00000000000E+00 0.  1.
         11    1    3    3    0    0 -0.18737679027E+02  0.13976478204E+02 -0.12769463386E+02  0.26636474123E+02  0.51100000000E-03 0. -1.
        -11    1    3    3    0    0  0.44990119848E+00  0.96628119126E+01 -0.69337014526E+01  0.11901620110E+02  0.51100000000E-03 0.  1.
        -12    1    3    3    0    0 -0.53162017611E+01  0.52054211874E+00 -0.75507843792E+01  0.92491788826E+01  0.00000000000E+00 0.  1.
</event>
<event>
 7    1  0.2886681E-010  0.4778727E+02  0.7816164E-02  0.1312668E+00
        -11   -1    0    0    0    0  0.00000000000E+00  0.00000000000E+00  0.45593999997E+02  0.45594000000E+02  0.51100000000E-03 0.  1.
         11   -1    0    0    0    0 -0.00000000000E+00 -0.00000000000E+00 -0.45593999997E+02  0.45594000000E+02  0.51100000000E-03 0. -1.
    9900012    2    1    2    0    0 -0.25161925501E+02 -0.33404651024E+02 -0.11603012152E+02  0.47787273094E+02  0.20000009344E+02 0.  0.
        -12    1    1    2    0    0  0.25161925501E+02  0.33404651024E+02  0.11603012152E+02  0.43400726906E+02  0.00000000000E+00 0.  1.
         11    1    3    3    0    0  0.43649171124E+00  0.65110444164E+00 -0.21176754582E+01  0.22580991154E+01  0.51100000000E-03 0.  1.
        -11    1    3    3    0    0 -0.26325493159E+02 -0.34187827173E+02 -0.10368825337E+02  0.44377377751E+02  0.51100000000E-03 0. -1.
         12    1    3    3    0    0  0.72707594635E+00  0.13207170761E+00  0.88348864314E+00  0.11517962278E+01  0.00000000000E+00 0. -1.
</event>
<event>
 7    1  0.2886681E-010  0.4778728E+02  0.7816164E-02  0.1312668E+00
        -11   -1    0    0    0    0  0.00000000000E+00  0.00000000000E+00  0.45593999997E+02  0.45594000000E+02  0.51100000000E-03 0.  1.
         11   -1    0    0    0    0 -0.00000000000E+00 -0.00000000000E+00 -0.45593999997E+02  0.45594000000E+02  0.51100000000E-03 0. -1.
    9900012    2    1    2    0    0  0.14437409979E+02 -0.18495349402E+01 -0.40887200192E+02  0.47787277357E+02  0.20000028781E+02 0.  0.
        -12    1    1    2    0    0 -0.14437409979E+02  0.18495349402E+01  0.40887200192E+02  0.43400722643E+02  0.00000000000E+00 0.  1.
         11    1    3    3    0    0  0.12930114098E+02 -0.19712298555E+01 -0.27834061660E+02  0.30754001146E+02  0.51100000000E-03 0. -1.
        -11    1    3    3    0    0 -0.28538628419E+01  0.34747184620E+01 -0.94272759834E+01  0.10444698858E+02  0.51100000000E-03 0.  1.
        -12    1    3    3    0    0  0.43611587228E+01 -0.33530235467E+01 -0.36258625483E+01  0.65885773525E+01  0.00000000000E+00 0.  1.
</event>
<event>
 7    1  0.2886681E-010  0.4778729E+02  0.7816164E-02  0.1312668E+00
        -11   -1    0    0    0    0  0.00000000000E+00  0.00000000000E+00  0.45593999997E+02  0.45594000000E+02  0.51100000000E-03 0.  1.
         11   -1    0    0    0    0 -0.00000000000E+00 -0.00000000000E+00 -0.45593999997E+02  0.45594000000E+02  0.51100000000E-03 0. -1.
    9900012    2    1    2    0    0  0.17981922147E+02 -0.31650360085E+02 -0.23633172708E+02  0.47787289524E+02  0.20000084255E+02 0.  0.
        -12    1    1    2    0    0 -0.17981922147E+02  0.31650360085E+02  0.23633172708E+02  0.43400710476E+02  0.00000000000E+00 0.  1.
         11    1    3    3    0    0  0.38092921698E+01  0.80718030511E+00  0.25852192653E+00  0.39024454804E+01  0.51100000000E-03 0. -1.
        -11    1    3    3    0    0  0.81455229605E+01 -0.17563847155E+02 -0.70393723238E+01  0.20600753242E+02  0.51100000000E-03 0.  1.
         12    1    3    3    0    0  0.60271070164E+01 -0.14893693235E+02 -0.16852322310E+02  0.23284090801E+02  0.00000000000E+00 0. -1.
</event>
<event>
 7    1  0.2886681E-010  0.4778727E+02  0.7816164E-02  0.1312668E+00
        -11   -1    0    0    0    0  0.00000000000E+00  0.00000000000E+00  0.45593999997E+02  0.45594000000E+02  0.51100000000E-03 0.  1.
         11   -1    0    0    0    0 -0.00000000000E+00 -0.00000000000E+00 -0.45593999997E+02  0.45594000000E+02  0.51100000000E-03 0. -1.
    9900012    2    1    2    0    0  0.13834824346E+01 -0.38451884978E+02 -0.20078882934E+02  0.47787273948E+02  0.20000013238E+02 0.  0.
        -12    1    1    2    0    0 -0.13834824346E+01  0.38451884978E+02  0.20078882934E+02  0.43400726052E+02  0.00000000000E+00 0.  1.
         11    1    3    3    0    0 -0.13947772180E+01 -0.16279440524E+02 -0.18503298938E+02  0.24684765730E+02  0.51100000000E-03 0. -1.
        -11    1    3    3    0    0 -0.89114455610E+00 -0.11293053170E+02  0.87660796935E+00  0.11362025802E+02  0.51100000000E-03 0.  1.
         12    1    3    3    0    0  0.36694042087E+01 -0.10879391283E+02 -0.24521919650E+01  0.11740482416E+02  0.00000000000E+00 0. -1.
</event>
<event>
 7    1  0.2886681E-010  0.4778728E+02  0.7816164E-02  0.1312668E+00
        -11   -1    0    0    0    0  0.00000000000E+00  0.00000000000E+00  0.45593999997E+02  0.45594000000E+02  0.51100000000E-03 0. -1.
         11   -1    0    0    0    0 -0.00000000000E+00 -0.00000000000E+00 -0.45593999997E+02  0.45594000000E+02  0.51100000000E-03 0.  1.
    9900012    2    1    2    0    0  0.30585388309E+02 -0.10222090835E+02  0.29045920120E+02  0.47787278869E+02  0.20000035678E+02 0.  0.
        -12    1    1    2    0    0 -0.30585388309E+02  0.10222090835E+02 -0.29045920120E+02  0.43400721131E+02  0.00000000000E+00 0.  1.
         11    1    3    3    0    0  0.13069763092E+02  0.18329228910E+01  0.52447851657E+01  0.14201622629E+02  0.51100000000E-03 0. -1.
        -11    1    3    3    0    0  0.14470496974E+02 -0.12021144083E+02  0.14363409788E+02  0.23668771171E+02  0.51100000000E-03 0.  1.
         12    1    3    3    0    0  0.30451282426E+01 -0.33869642554E-01  0.94377251657E+01  0.99168850689E+01  0.00000000000E+00 0. -1.
</event>
<event>
 7    1  0.2886681E-010  0.4778727E+02  0.7816164E-02  0.1312668E+00
        -11   -1    0    0    0    0  0.00000000000E+00  0.00000000000E+00  0.45593999997E+02  0.45594000000E+02  0.51100000000E-03 0.  1.
         11   -1    0    0    0    0 -0.00000000000E+00 -0.00000000000E+00 -0.45593999997E+02  0.45594000000E+02  0.51100000000E-03 0. -1.
    9900012    2    1    2    0    0  0.20541198220E+02 -0.17872736079E+02 -0.33797155897E+02  0.47787271135E+02  0.20000000415E+02 0.  0.
        -12    1    1    2    0    0 -0.20541198220E+02  0.17872736079E+02  0.33797155897E+02  0.43400728865E+02  0.00000000000E+00 0.  1.
         11    1    3    3    0    0  0.17802066939E+02 -0.20506151795E+02 -0.26201180118E+02  0.37734833889E+02  0.51100000000E-03 0. -1.
        -11    1    3    3    0    0 -0.58669677556E+00  0.11231965084E+01 -0.58832407420E+01  0.60181646199E+01  0.51100000000E-03 0.  1.
         12    1    3    3    0    0  0.33258280568E+01  0.15102192085E+01 -0.17127350368E+01  0.40342726268E+01  0.00000000000E+00 0. -1.
</event>
<event>
 7    1  0.2886681E-010  0.4778728E+02  0.7816164E-02  0.1312668E+00
        -11   -1    0    0    0    0  0.00000000000E+00  0.00000000000E+00  0.45593999997E+02  0.45594000000E+02  0.51100000000E-03 0.  1.
         11   -1    0    0    0    0 -0.00000000000E+00 -0.00000000000E+00 -0.45593999997E+02  0.45594000000E+02  0.51100000000E-03 0. -1.
    9900012    2    1    2    0    0 -0.21734152578E+02 -0.52493732105E+00 -0.37562923983E+02  0.47787283352E+02  0.20000056114E+02 0.  0.
        -12    1    1    2    0    0  0.21734152578E+02  0.52493732105E+00  0.37562923983E+02  0.43400716648E+02  0.00000000000E+00 0.  1.
         11    1    3    3    0    0 -0.26307327554E+01 -0.30242153152E+00  0.84670680325E+00  0.27801306237E+01  0.51100000000E-03 0.  1.
        -11    1    3    3    0    0 -0.18859531884E+02  0.11205182489E+00 -0.39537687968E+02  0.43805516418E+02  0.51100000000E-03 0. -1.
         12    1    3    3    0    0 -0.24388793793E+00 -0.33456761443E+00  0.11280571824E+01  0.12016363101E+01  0.00000000000E+00 0. -1.
</event>
<event>
 7    1  0.2886681E-010  0.4778727E+02  0.7816164E-02  0.1312668E+00
        -11   -1    0    0    0    0  0.00000000000E+00  0.00000000000E+00  0.45593999997E+02  0.45594000000E+02  0.51100000000E-03 0.  1.
         11   -1    0    0    0    0 -0.00000000000E+00 -0.00000000000E+00 -0.45593999997E+02  0.45594000000E+02  0.51100000000E-03 0. -1.
    9900012    2    1    2    0    0 -0.10291499275E+01  0.37554653508E+02 -0.21730445593E+02  0.47787269415E+02  0.19999992570E+02 0.  0.
        -12    1    1    2    0    0  0.10291499275E+01 -0.37554653508E+02  0.21730445593E+02  0.43400730585E+02  0.00000000000E+00 0.  1.
         11    1    3    3    0    0 -0.14165987218E+01  0.92161326263E+01 -0.64125946077E+01  0.11316590581E+02  0.51100000000E-03 0. -1.
        -11    1    3    3    0    0  0.98929749014E+00  0.43352682459E+01 -0.11277244612E+02  0.12122273161E+02  0.51100000000E-03 0.  1.
        -12    1    3    3    0    0 -0.60184869587E+00  0.24003252635E+02 -0.40406063739E+01  0.24348405673E+02  0.00000000000E+00 0.  1.
</event>
<event>
 7    1  0.2886681E-010  0.4778728E+02  0.7816164E-02  0.1312668E+00
        -11   -1    0    0    0    0  0.00000000000E+00  0.00000000000E+00  0.45593999997E+02  0.45594000000E+02  0.51100000000E-03 0.  1.
         11   -1    0    0    0    0 -0.00000000000E+00 -0.00000000000E+00 -0.45593999997E+02  0.45594000000E+02  0.51100000000E-03 0. -1.
    9900012    2    1    2    0    0 -0.15746964540E+02 -0.17761471647E+02 -0.36334364748E+02  0.47787276170E+02  0.20000023372E+02 0.  0.
        -12    1    1    2    0    0  0.15746964540E+02  0.17761471647E+02  0.36334364748E+02  0.43400723830E+02  0.00000000000E+00 0.  1.
         11    1    3    3    0    0 -0.10696618273E+02 -0.99538722300E+01 -0.22480962871E+02  0.26812141032E+02  0.51100000000E-03 0. -1.
        -11    1    3    3    0    0  0.33753079988E+00  0.96758444253E+00  0.18977420806E+01  0.21567503239E+01  0.51100000000E-03 0.  1.
         12    1    3    3    0    0 -0.53878770662E+01 -0.87751838597E+01 -0.15751143957E+02  0.18818384814E+02  0.00000000000E+00 0. -1.
</event>
<event>
 7    1  0.2886681E-010  0.4778727E+02  0.7816164E-02  0.1312668E+00
        -11   -1    0    0    0    0  0.00000000000E+00  0.00000000000E+00  0.45593999997E+02  0.45594000000E+02  0.51100000000E-03 0. -1.
         11   -1    0    0    0    0 -0.00000000000E+00 -0.00000000000E+00 -0.45593999997E+02  0.45594000000E+02  0.51100000000E-03 0.  1.
    9900012    2    1    2    0    0  0.47912137483E+01  0.38946246390E+02  0.18543390112E+02  0.47787272426E+02  0.20000006301E+02 0.  0.
        -12    1    1    2    0    0 -0.47912137483E+01 -0.38946246390E+02 -0.18543390112E+02  0.43400727574E+02  0.00000000000E+00 0.  1.
         11    1    3    3    0    0  0.42643695903E+01  0.35950490163E+02  0.10839342423E+02  0.37790394750E+02  0.51100000000E-03 0. -1.
        -11    1    3    3    0    0 -0.20671592982E+01  0.22280472988E+01  0.61921612102E+01  0.68978404623E+01  0.51100000000E-03 0.  1.
         12    1    3    3    0    0  0.25940034562E+01  0.76770892879E+00  0.15118864783E+01  0.30990372139E+01  0.00000000000E+00 0. -1.
</event>
<event>
 7    1  0.2886681E-010  0.4778727E+02  0.7816164E-02  0.1312668E+00
        -11   -1    0    0    0    0  0.00000000000E+00  0.00000000000E+00  0.45593999997E+02  0.45594000000E+02  0.51100000000E-03 0.  1.
         11   -1    0    0    0    0 -0.00000000000E+00 -0.00000000000E+00 -0.45593999997E+02  0.45594000000E+02  0.51100000000E-03 0. -1.
    9900012    2    1    2    0    0 -0.21012576859E+02  0.36293209933E+02 -0.11175774996E+02  0.47787269358E+02  0.19999992309E+02 0.  0.
        -12    1    1    2    0    0  0.21012576859E+02 -0.36293209933E+02  0.11175774996E+02  0.43400730642E+02  0.00000000000E+00 0.  1.
         11    1    3    3    0    0 -0.10667504853E+02  0.58070580488E+01 -0.42088051550E+00  0.12152971803E+02  0.51100000000E-03 0. -1.
        -11    1    3    3    0    0 -0.68763884597E+01  0.24667914824E+02 -0.12703033320E+02  0.28585972010E+02  0.51100000000E-03 0.  1.
        -12    1    3    3    0    0 -0.34686835464E+01  0.58182370608E+01  0.19481388392E+01  0.70483255442E+01  0.00000000000E+00 0.  1.
</event>
<event>
 7    1  0.2886681E-010  0.4778728E+02  0.7816164E-02  0.1312668E+00
        -11   -1    0    0    0    0  0.00000000000E+00  0.00000000000E+00  0.45593999997E+02  0.45594000000E+02  0.51100000000E-03 0. -1.
         11   -1    0    0    0    0 -0.00000000000E+00 -0.00000000000E+00 -0.45593999997E+02  0.45594000000E+02  0.51100000000E-03 0.  1.
    9900012    2    1    2    0    0  0.12515045594E+02  0.41212753771E+02  0.53390237032E+01  0.47787278649E+02  0.20000034673E+02 0.  0.
        -12    1    1    2    0    0 -0.12515045594E+02 -0.41212753771E+02 -0.53390237032E+01  0.43400721351E+02  0.00000000000E+00 0.  1.
         11    1    3    3    0    0 -0.12676081313E+01  0.63762596795E+00  0.13929777707E+00  0.14257634380E+01  0.51100000000E-03 0. -1.
        -11    1    3    3    0    0  0.27742770634E+01  0.26344513259E+02 -0.28659620459E+01  0.26644769295E+02  0.51100000000E-03 0.  1.
        -12    1    3    3    0    0  0.11008376662E+02  0.14230614544E+02  0.80656879721E+01  0.19716745916E+02  0.00000000000E+00 0.  1.
</event>
<event>
 7    1  0.2886681E-010  0.4778727E+02  0.7816164E-02  0.1312668E+00
        -11   -1    0    0    0    0  0.00000000000E+00  0.00000000000E+00  0.45593999997E+02  0.45594000000E+02  0.51100000000E-03 0. -1.
         11   -1    0    0    0    0 -0.00000000000E+00 -0.00000000000E+00 -0.45593999997E+02  0.45594000000E+02  0.51100000000E-03 0.  1.
    9900012    2    1    2    0    0  0.32324070433E+02  0.28673100617E+02  0.40780859238E+01  0.47787274048E+02  0.20000013695E+02 0.  0.
        -12    1    1    2    0    0 -0.32324070433E+02 -0.28673100617E+02 -0.40780859238E+01  0.43400725952E+02  0.00000000000E+00 0.  1.
         11    1    3    3    0    0  0.70158689009E+01  0.74497168891E+01 -0.68810809784E+01  0.12331665494E+02  0.51100000000E-03 0. -1.
        -11    1    3    3    0    0  0.11785835537E+01  0.11972690256E+01  0.24385029644E+01  0.29612175336E+01  0.51100000000E-03 0.  1.
         12    1    3    3    0    0  0.24129617979E+02  0.20026114702E+02  0.85206639378E+01  0.32494391021E+02  0.00000000000E+00 0. -1.
</event>
<event>
 7    1  0.2886681E-010  0.4778727E+02  0.7816164E-02  0.1312668E+00
        -11   -1    0    0    0    0  0.00000000000E+00  0.00000000000E+00  0.45593999997E+02  0.45594000000E+02  0.51100000000E-03 0.  1.
         11   -1    0    0    0    0 -0.00000000000E+00 -0.00000000000E+00 -0.45593999997E+02  0.45594000000E+02  0.51100000000E-03 0. -1.
    9900012    2    1    2    0    0 -0.45117504089E+01  0.17024690332E+01 -0.43131994398E+02  0.47787271512E+02  0.20000002131E+02 0.  0.
        -12    1    1    2    0    0  0.45117504089E+01 -0.17024690332E+01  0.43131994398E+02  0.43400728488E+02  0.00000000000E+00 0.  1.
         11    1    3    3    0    0  0.75819084003E+00  0.78066229781E+01 -0.23193234094E+02  0.24483552105E+02  0.51100000000E-03 0. -1.
        -11    1    3    3    0    0  0.98188640383E+00 -0.28219990802E+00  0.51026094316E+00  0.11419738129E+01  0.51100000000E-03 0.  1.
         12    1    3    3    0    0 -0.62518276528E+01 -0.58219540369E+01 -0.20449021247E+02  0.22161745594E+02  0.00000000000E+00 0. -1.
</event>
<event>
 7    1  0.2886681E-010  0.4778727E+02  0.7816164E-02  0.1312668E+00
        -11   -1    0    0    0    0  0.00000000000E+00  0.00000000000E+00  0.45593999997E+02  0.45594000000E+02  0.51100000000E-03 0.  1.
         11   -1    0    0    0    0 -0.00000000000E+00 -0.00000000000E+00 -0.45593999997E+02  0.45594000000E+02  0.51100000000E-03 0. -1.
    9900012    2    1    2    0    0 -0.19923805037E+02  0.21756119432E+02 -0.31832949517E+02  0.47787269421E+02  0.19999992597E+02 0.  0.
        -12    1    1    2    0    0  0.19923805037E+02 -0.21756119432E+02  0.31832949517E+02  0.43400730579E+02  0.00000000000E+00 0.  1.
         11    1    3    3    0    0 -0.12531573281E+02  0.14907751845E+02 -0.20467643211E+02  0.28252536397E+02  0.51100000000E-03 0. -1.
        -11    1    3    3    0    0  0.29760273393E+01 -0.53023924208E+00 -0.32657457134E+01  0.44500547978E+01  0.51100000000E-03 0.  1.
         12    1    3    3    0    0 -0.10368259095E+02  0.73786068286E+01 -0.80995605925E+01  0.15084678226E+02  0.00000000000E+00 0. -1.
</event>
<event>
 7    1  0.2886681E-010  0.4778729E+02  0.7816164E-02  0.1312668E+00
        -11   -1    0    0    0    0  0.00000000000E+00  0.00000000000E+00  0.45593999997E+02  0.45594000000E+02  0.51100000000E-03 0.  1.
         11   -1    0    0    0    0 -0.00000000000E+00 -0.00000000000E+00 -0.45593999997E+02  0.45594000000E+02  0.51100000000E-03 0. -1.
    9900012    2    1    2    0    0 -0.11914262023E+02  0.13980836104E+02 -0.39321854776E+02  0.47787289398E+02  0.20000083682E+02 0.  0.
        -12    1    1    2    0    0  0.11914262023E+02 -0.13980836104E+02  0.39321854776E+02  0.43400710602E+02  0.00000000000E+00 0.  1.
         11    1    3    3    0    0 -0.12069937639E+02  0.14388049543E+02 -0.34386527646E+02  0.39180768855E+02  0.51100000000E-03 0. -1.
        -11    1    3    3    0    0  0.27124892677E+01  0.19876219313E+01 -0.33985731084E+01  0.47810603848E+01  0.51100000000E-03 0.  1.
         12    1    3    3    0    0 -0.25568136519E+01 -0.23948353701E+01 -0.15367540212E+01  0.38254601582E+01  0.00000000000E+00 0. -1.
</event>
<event>
 7    1  0.2886681E-010  0.4778727E+02  0.7816164E-02  0.1312668E+00
        -11   -1    0    0    0    0  0.00000000000E+00  0.00000000000E+00  0.45593999997E+02  0.45594000000E+02  0.51100000000E-03 0.  1.
         11   -1    0    0    0    0 -0.00000000000E+00 -0.00000000000E+00 -0.45593999997E+02  0.45594000000E+02  0.51100000000E-03 0. -1.
    9900012    2    1    2    0    0 -0.35041758248E+02  0.11218277211E+02 -0.23018444203E+02  0.47787270303E+02  0.19999996620E+02 0.  0.
        -12    1    1    2    0    0  0.35041758248E+02 -0.11218277211E+02  0.23018444203E+02  0.43400729697E+02  0.00000000000E+00 0.  1.
         11    1    3    3    0    0 -0.25727563580E+02  0.33866084318E+01 -0.17126385361E+02  0.31091634249E+02  0.51100000000E-03 0. -1.
        -11    1    3    3    0    0  0.11001110567E+01 -0.11351486172E+01  0.32216555586E+00  0.16132568384E+01  0.51100000000E-03 0.  1.
        -12    1    3    3    0    0 -0.10414305724E+02  0.89668173968E+01 -0.62142243977E+01  0.15082379216E+02  0.00000000000E+00 0.  1.
</event>
<event>
 7    1  0.2886681E-010  0.4778727E+02  0.7816164E-02  0.1312668E+00
        -11   -1    0    0    0    0  0.00000000000E+00  0.00000000000E+00  0.45593999997E+02  0.45594000000E+02  0.51100000000E-03 0. -1.
         11   -1    0    0    0    0 -0.00000000000E+00 -0.00000000000E+00 -0.45593999997E+02  0.45594000000E+02  0.51100000000E-03 0.  1.
    9900012    2    1    2    0    0  0.16237959290E+02  0.98812105567E+01  0.39016834460E+02  0.47787274024E+02  0.20000013583E+02 0.  0.
        -12    1    1    2    0    0 -0.16237959290E+02 -0.98812105567E+01 -0.39016834460E+02  0.43400725976E+02  0.00000000000E+00 0.  1.
         11    1    3    3    0    0  0.17890629342E+01 -0.35274461350E+01  0.45787965497E+01  0.60505372094E+01  0.51100000000E-03 0. -1.
        -11    1    3    3    0    0  0.49532217290E+01  0.12846835441E+02  0.17033760396E+02  0.21902615822E+02  0.51100000000E-03 0.  1.
         12    1    3    3    0    0  0.94956746267E+01  0.56182125043E+00  0.17404277514E+02  0.19834120992E+02  0.00000000000E+00 0. -1.
</event>
<event>
 7    1  0.2886681E-010  0.4778727E+02  0.7816164E-02  0.1312668E+00
        -11   -1    0    0    0    0  0.00000000000E+00  0.00000000000E+00  0.45593999997E+02  0.45594000000E+02  0.51100000000E-03 0. -1.
         11   -1    0    0    0    0 -0.00000000000E+00 -0.00000000000E+00 -0.45593999997E+02  0.45594000000E+02  0.51100000000E-03 0.  1.
    9900012    2    1    2    0    0  0.10744379466E+02 -0.41797619831E+02 -0.45979217652E+01  0.47787267308E+02  0.19999982964E+02 0.  0.
        -12    1    1    2    0    0 -0.10744379466E+02  0.41797619831E+02  0.45979217652E+01  0.43400732692E+02  0.00000000000E+00 0.  1.
         11    1    3    3    0    0  0.63254951982E+01 -0.18931733957E+02 -0.70876178609E+01  0.21181519476E+02  0.51100000000E-03 0. -1.
        -11    1    3    3    0    0  0.87379877893E+00 -0.59026954262E+00  0.38666049881E+01  0.40078144710E+01  0.51100000000E-03 0.  1.
        -12    1    3    3    0    0  0.35450854887E+01 -0.22275616332E+02 -0.13769088924E+01  0.22597933361E+02  0.00000000000E+00 0.  1.
</event>
<event>
 7    1  0.2886681E-010  0.4778727E+02  0.7816164E-02  0.1312668E+00
        -11   -1    0    0    0    0  0.00000000000E+00  0.00000000000E+00  0.45593999997E+02  0.45594000000E+02  0.51100000000E-03 0. -1.
         11   -1    0    0    0    0 -0.00000000000E+00 -0.00000000000E+00 -0.45593999997E+02  0.45594000000E+02  0.51100000000E-03 0.  1.
    9900012    2    1    2    0    0 -0.12694007942E+02  0.41309156707E+02  0.40048820056E+01  0.47787270221E+02  0.19999996246E+02 0.  0.
        -12    1    1    2    0    0  0.12694007942E+02 -0.41309156707E+02 -0.40048820056E+01  0.43400729779E+02  0.00000000000E+00 0.  1.
         11    1    3    3    0    0  0.28797008409E+00  0.27538075016E+02 -0.34443164524E+00  0.27541734437E+02  0.51100000000E-03 0. -1.
        -11    1    3    3    0    0 -0.10735819964E+02  0.85312738854E+01  0.12840464161E+01  0.13772771684E+02  0.51100000000E-03 0.  1.
         12    1    3    3    0    0 -0.22461580628E+01  0.52398078053E+01  0.30652672347E+01  0.64727641004E+01  0.00000000000E+00 0. -1.
</event>
<event>
 7    1  0.2886681E-010  0.4778727E+02  0.7816164E-02  0.1312668E+00
        -11   -1    0    0    0    0  0.00000000000E+00  0.00000000000E+00  0.45593999997E+02  0.45594000000E+02  0.51100000000E-03 0.  1.
         11   -1    0    0    0    0 -0.00000000000E+00 -0.00000000000E+00 -0.45593999997E+02  0.45594000000E+02  0.51100000000E-03 0. -1.
    9900012    2    1    2    0    0 -0.25554473073E+02 -0.12479502424E+02 -0.32784964576E+02  0.47787274464E+02  0.20000015591E+02 0.  0.
        -12    1    1    2    0    0  0.25554473073E+02  0.12479502424E+02  0.32784964576E+02  0.43400725536E+02  0.00000000000E+00 0.  1.
         11    1    3    3    0    0 -0.10851371574E+02 -0.42154225564E+01 -0.88978871401E+01  0.14652455364E+02  0.51100000000E-03 0. -1.
        -11    1    3    3    0    0  0.32253903015E+01 -0.86447918568E+00 -0.20078733806E+01  0.38964115071E+01  0.51100000000E-03 0.  1.
        -12    1    3    3    0    0 -0.17928491801E+02 -0.73996006822E+01 -0.21879204055E+02  0.29238407593E+02  0.00000000000E+00 0.  1.
</event>
<event>
 7    1  0.2886681E-010  0.4778727E+02  0.7816164E-02  0.1312668E+00
        -11   -1    0    0    0    0  0.00000000000E+00  0.00000000000E+00  0.45593999997E+02  0.45594000000E+02  0.51100000000E-03 0.  1.
         11   -1    0    0    0    0 -0.00000000000E+00 -0.00000000000E+00 -0.45593999997E+02  0.45594000000E+02  0.51100000000E-03 0. -1.
    9900012    2    1    2    0    0 -0.31960586771E+02 -0.25294935236E+02 -0.14910075872E+02  0.47787271690E+02  0.20000002944E+02 0.  0.
        -12    1    1    2    0    0  0.31960586771E+02  0.25294935236E+02  0.14910075872E+02  0.43400728310E+02  0.00000000000E+00 0.  1.
         11    1    3    3    0    0 -0.17123970498E+02 -0.62571441055E+01 -0.61057003549E+01  0.19226590833E+02  0.51100000000E-03 0. -1.
        -11    1    3    3    0    0 -0.76852599224E+01 -0.27215782088E+01  0.10202952236E+01  0.82165205912E+01  0.51100000000E-03 0.  1.
        -12    1    3    3    0    0 -0.71513563501E+01 -0.16316212922E+02 -0.98246707410E+01  0.20344160266E+02  0.00000000000E+00 0.  1.
</event>
<event>
 7    1  0.2886681E-010  0.4778727E+02  0.7816164E-02  0.1312668E+00
        -11   -1    0    0    0    0  0.00000000000E+00  0.00000000000E+00  0.45593999997E+02  0.45594000000E+02  0.51100000000E-03 0. -1.
         11   -1    0    0    0    0 -0.00000000000E+00 -0.00000000000E+00 -0.45593999997E+02  0.45594000000E+02  0.51100000000E-03 0.  1.
    9900012    2    1    2    0    0 -0.23660828573E+02  0.34309016123E+02  0.12111147692E+02  0.47787270807E+02  0.19999998917E+02 0.  0.
        -12    1    1    2    0    0  0.23660828573E+02 -0.34309016123E+02 -0.12111147692E+02  0.43400729193E+02  0.00000000000E+00 0.  1.
         11    1    3    3    0    0 -0.29689132938E+01  0.93005627202E+01  0.23668112508E+01  0.10045730875E+02  0.51100000000E-03 0. -1.
        -11    1    3    3    0    0 -0.38966070482E+01  0.70800000945E+01 -0.45949081684E+01  0.92964040985E+01  0.51100000000E-03 0.  1.
        -12    1    3    3    0    0 -0.16795308231E+02  0.17928453308E+02  0.14339244610E+02  0.28445135833E+02  0.00000000000E+00 0.  1.
</event>
<event>
 7    1  0.2886681E-010  0.4778724E+02  0.7816164E-02  0.1312668E+00
        -11   -1    0    0    0    0  0.00000000000E+00  0.00000000000E+00  0.45593999997E+02  0.45594000000E+02  0.51100000000E-03 0.  1.
         11   -1    0    0    0    0 -0.00000000000E+00 -0.00000000000E+00 -0.45593999997E+02  0.45594000000E+02  0.51100000000E-03 0. -1.
    9900012    2    1    2    0    0  0.97992557873E+01 -0.10453983814E+02 -0.40967238835E+02  0.47787241374E+02  0.19999864719E+02 0.  0.
        -12    1    1    2    0    0 -0.97992557873E+01  0.10453983814E+02  0.40967238835E+02  0.43400758626E+02  0.00000000000E+00 0.  1.
         11    1    3    3    0    0  0.40891778462E+01 -0.82987313873E+01 -0.27108786115E+02  0.28643962767E+02  0.51100000000E-03 0. -1.
        -11    1    3    3    0    0  0.23459891699E+01  0.47712971085E+01 -0.41085000092E+01  0.67192792671E+01  0.51100000000E-03 0.  1.
        -12    1    3    3    0    0  0.33640887712E+01 -0.69265495356E+01 -0.97499527107E+01  0.12423999340E+02  0.00000000000E+00 0.  1.
</event>
<event>
 7    1  0.2886681E-010  0.4778727E+02  0.7816164E-02  0.1312668E+00
        -11   -1    0    0    0    0  0.00000000000E+00  0.00000000000E+00  0.45593999997E+02  0.45594000000E+02  0.51100000000E-03 0.  1.
         11   -1    0    0    0    0 -0.00000000000E+00 -0.00000000000E+00 -0.45593999997E+02  0.45594000000E+02  0.51100000000E-03 0. -1.
    9900012    2    1    2    0    0 -0.42717892098E+01  0.33671792337E+02 -0.27047845345E+02  0.47787265904E+02  0.19999976565E+02 0.  0.
        -12    1    1    2    0    0  0.42717892098E+01 -0.33671792337E+02  0.27047845345E+02  0.43400734096E+02  0.00000000000E+00 0.  1.
         11    1    3    3    0    0 -0.48979036464E+01  0.17224375619E+02 -0.20607726363E+02  0.27301043235E+02  0.51100000000E-03 0. -1.
        -11    1    3    3    0    0  0.15446256419E+01  0.17756457866E+02 -0.61890914768E+01  0.18867498984E+02  0.51100000000E-03 0.  1.
        -12    1    3    3    0    0 -0.91851120532E+00 -0.13090411486E+01 -0.25102750494E+00  0.16187236859E+01  0.00000000000E+00 0.  1.
</event>
<event>
 7    1  0.2886681E-010  0.4778727E+02  0.7816164E-02  0.1312668E+00
        -11   -1    0    0    0    0  0.00000000000E+00  0.00000000000E+00  0.45593999997E+02  0.45594000000E+02  0.51100000000E-03 0. -1.
         11   -1    0    0    0    0 -0.00000000000E+00 -0.00000000000E+00 -0.45593999997E+02  0.45594000000E+02  0.51100000000E-03 0.  1.
    9900012    2    1    2    0    0 -0.12780934029E+02 -0.40361314953E+02 -0.95517098763E+01  0.47787272115E+02  0.20000004881E+02 0.  0.
        -12    1    1    2    0    0  0.12780934029E+02  0.40361314953E+02  0.95517098763E+01  0.43400727885E+02  0.00000000000E+00 0.  1.
         11    1    3    3    0    0 -0.35830993103E+01 -0.32814049319E+02 -0.12628842958E+02  0.35342440608E+02  0.51100000000E-03 0. -1.
        -11    1    3    3    0    0 -0.46227939074E+01 -0.28904873123E+01  0.69753200526E+00  0.54965163124E+01  0.51100000000E-03 0.  1.
         12    1    3    3    0    0 -0.45750408115E+01 -0.46567783215E+01  0.23796010766E+01  0.69483151948E+01  0.00000000000E+00 0. -1.
</event>
<event>
 7    1  0.2886681E-010  0.4778727E+02  0.7816164E-02  0.1312668E+00
        -11   -1    0    0    0    0  0.00000000000E+00  0.00000000000E+00  0.45593999997E+02  0.45594000000E+02  0.51100000000E-03 0. -1.
         11   -1    0    0    0    0 -0.00000000000E+00 -0.00000000000E+00 -0.45593999997E+02  0.45594000000E+02  0.51100000000E-03 0.  1.
    9900012    2    1    2    0    0  0.33872836101E+02  0.26017436387E+02  0.77037241566E+01  0.47787269734E+02  0.19999994026E+02 0.  0.
        -12    1    1    2    0    0 -0.33872836101E+02 -0.26017436387E+02 -0.77037241566E+01  0.43400730266E+02  0.00000000000E+00 0.  1.
         11    1    3    3    0    0  0.25775991840E+02  0.14417593519E+02 -0.11706994074E+01  0.29557389864E+02  0.51100000000E-03 0. -1.
        -11    1    3    3    0    0  0.73967996349E+01  0.11309554167E+02  0.10043137352E+02  0.16836961378E+02  0.51100000000E-03 0.  1.
        -12    1    3    3    0    0  0.70004462643E+00  0.29028870137E+00 -0.11687137877E+01  0.13929184925E+01  0.00000000000E+00 0.  1.
</event>
<event>
 7    1  0.2886681E-010  0.4778727E+02  0.7816164E-02  0.1312668E+00
        -11   -1    0    0    0    0  0.00000000000E+00  0.00000000000E+00  0.45593999997E+02  0.45594000000E+02  0.51100000000E-03 0.  1.
         11   -1    0    0    0    0 -0.00000000000E+00 -0.00000000000E+00 -0.45593999997E+02  0.45594000000E+02  0.51100000000E-03 0. -1.
    9900012    2    1    2    0    0 -0.36730246700E+02  0.22988729829E+02 -0.24557764376E+01  0.47787267751E+02  0.19999984985E+02 0.  0.
        -12    1    1    2    0    0  0.36730246700E+02 -0.22988729829E+02  0.24557764376E+01  0.43400732249E+02  0.00000000000E+00 0.  1.
         11    1    3    3    0    0 -0.10016179973E+02  0.11886103613E+02  0.57003790866E+01  0.16555894489E+02  0.51100000000E-03 0. -1.
        -11    1    3    3    0    0 -0.13999096550E+01  0.24454639278E+01  0.94515081081E+00  0.29720954192E+01  0.51100000000E-03 0.  1.
         12    1    3    3    0    0 -0.25314157073E+02  0.86571622881E+01 -0.91013063350E+01  0.28259277843E+02  0.00000000000E+00 0. -1.
</event>
<event>
 7    1  0.2886681E-010  0.4778728E+02  0.7816164E-02  0.1312668E+00
        -11   -1    0    0    0    0  0.00000000000E+00  0.00000000000E+00  0.45593999997E+02  0.45594000000E+02  0.51100000000E-03 0. -1.
         11   -1    0    0    0    0 -0.00000000000E+00 -0.00000000000E+00 -0.45593999997E+02  0.45594000000E+02  0.51100000000E-03 0.  1.
    9900012    2    1    2    0    0  0.53602620044E+01  0.16037538507E+02  0.39971078116E+02  0.47787284155E+02  0.20000059776E+02 0.  0.
        -12    1    1    2    0    0 -0.53602620044E+01 -0.16037538507E+02 -0.39971078116E+02  0.43400715845E+02  0.00000000000E+00 0.  1.
         11    1    3    3    0    0  0.11085969808E+02  0.15737309596E+02  0.35031649262E+02  0.39972216479E+02  0.51100000000E-03 0. -1.
        -11    1    3    3    0    0 -0.50962827018E+01  0.60168948184E+00  0.34888493358E+01  0.62053362164E+01  0.51100000000E-03 0.  1.
         12    1    3    3    0    0 -0.62942510229E+00 -0.30146057091E+00  0.14505795178E+01  0.16097314598E+01  0.00000000000E+00 0. -1.
</event>
<event>
 7    1  0.2886681E-010  0.4778727E+02  0.7816164E-02  0.1312668E+00
        -11   -1    0    0    0    0  0.00000000000E+00  0.00000000000E+00  0.45593999997E+02  0.45594000000E+02  0.51100000000E-03 0.  1.
         11   -1    0    0    0    0 -0.00000000000E+00 -0.00000000000E+00 -0.45593999997E+02  0.45594000000E+02  0.51100000000E-03 0. -1.
    9900012    2    1    2    0    0 -0.32875533320E+02 -0.25571530399E+02 -0.12203260096E+02  0.47787269418E+02  0.19999992587E+02 0.  0.
        -12    1    1    2    0    0  0.32875533320E+02  0.25571530399E+02  0.12203260096E+02  0.43400730582E+02  0.00000000000E+00 0.  1.
         11    1    3    3    0    0 -0.74049171907E+01 -0.22798739044E+01 -0.34109263335E+01  0.84655207952E+01  0.51100000000E-03 0. -1.
        -11    1    3    3    0    0 -0.73267112535E+00  0.24565141232E+01 -0.11360549561E+01  0.28039061575E+01  0.51100000000E-03 0.  1.
        -12    1    3    3    0    0 -0.24737945004E+02 -0.25748170618E+02 -0.76562788067E+01  0.36517842466E+02  0.00000000000E+00 0.  1.
</event>
<event>
 7    1  0.2886681E-010  0.4778727E+02  0.7816164E-02  0.1312668E+00
        -11   -1    0    0    0    0  0.00000000000E+00  0.00000000000E+00  0.45593999997E+02  0.45594000000E+02  0.51100000000E-03 0. -1.
         11   -1    0    0    0    0 -0.00000000000E+00 -0.00000000000E+00 -0.45593999997E+02  0.45594000000E+02  0.51100000000E-03 0.  1.
    9900012    2    1    2    0    0  0.36369376777E+02  0.11007784334E+01 -0.23657556085E+02  0.47787271432E+02  0.20000001768E+02 0.  0.
        -12    1    1    2    0    0 -0.36369376777E+02 -0.11007784334E+01  0.23657556085E+02  0.43400728568E+02  0.00000000000E+00 0.  1.
         11    1    3    3    0    0  0.87731150211E+01 -0.37739670187E+01 -0.10744552132E+02  0.14375526947E+02  0.51100000000E-03 0.  1.
        -11    1    3    3    0    0  0.17727665486E+02  0.83165256175E+01 -0.11893741182E+02  0.22910604564E+02  0.51100000000E-03 0. -1.
        -12    1    3    3    0    0  0.98685962697E+01 -0.34417801654E+01 -0.10192627711E+01  0.10501139921E+02  0.00000000000E+00 0.  1.
</event>
<event>
 7    1  0.2886681E-010  0.4778726E+02  0.7816164E-02  0.1312668E+00
        -11   -1    0    0    0    0  0.00000000000E+00  0.00000000000E+00  0.45593999997E+02  0.45594000000E+02  0.51100000000E-03 0. -1.
         11   -1    0    0    0    0 -0.00000000000E+00 -0.00000000000E+00 -0.45593999997E+02  0.45594000000E+02  0.51100000000E-03 0.  1.
    9900012    2    1    2    0    0 -0.84177103902E+01  0.36388169663E+02  0.22105816674E+02  0.47787264172E+02  0.19999968666E+02 0.  0.
        -12    1    1    2    0    0  0.84177103902E+01 -0.36388169663E+02 -0.22105816674E+02  0.43400735828E+02  0.00000000000E+00 0.  1.
         11    1    3    3    0    0  0.17425290079E+01  0.28955304150E+02  0.12381615928E+02  0.31539664852E+02  0.51100000000E-03 0.  1.
        -11    1    3    3    0    0 -0.82133692739E+01  0.60122077063E+01  0.60118405795E+01  0.11821518673E+02  0.51100000000E-03 0. -1.
         12    1    3    3    0    0 -0.19468701242E+01  0.14206578065E+01  0.37123601661E+01  0.44260806462E+01  0.00000000000E+00 0. -1.
</event>
<event>
 7    1  0.2886681E-010  0.4778727E+02  0.7816164E-02  0.1312668E+00
        -11   -1    0    0    0    0  0.00000000000E+00  0.00000000000E+00  0.45593999997E+02  0.45594000000E+02  0.51100000000E-03 0.  1.
         11   -1    0    0    0    0 -0.00000000000E+00 -0.00000000000E+00 -0.45593999997E+02  0.45594000000E+02  0.51100000000E-03 0. -1.
    9900012    2    1    2    0    0  0.11941152424E+02 -0.17051395213E+02 -0.38082568743E+02  0.47787271412E+02  0.20000001674E+02 0.  0.
        -12    1    1    2    0    0 -0.11941152424E+02  0.17051395213E+02  0.38082568743E+02  0.43400728588E+02  0.00000000000E+00 0.  1.
         11    1    3    3    0    0  0.27367330695E+01 -0.76678163822E+01 -0.40453026019E+01  0.90911819565E+01  0.51100000000E-03 0. -1.
        -11    1    3    3    0    0  0.10807288034E+02 -0.29101511100E+01 -0.25613433127E+02  0.27952001913E+02  0.51100000000E-03 0.  1.
        -12    1    3    3    0    0 -0.16028686796E+01 -0.64734277208E+01 -0.84238330143E+01  0.10744087542E+02  0.00000000000E+00 0.  1.
</event>
<event>
 7    1  0.2886681E-010  0.4778727E+02  0.7816164E-02  0.1312668E+00
        -11   -1    0    0    0    0  0.00000000000E+00  0.00000000000E+00  0.45593999997E+02  0.45594000000E+02  0.51100000000E-03 0. -1.
         11   -1    0    0    0    0 -0.00000000000E+00 -0.00000000000E+00 -0.45593999997E+02  0.45594000000E+02  0.51100000000E-03 0.  1.
    9900012    2    1    2    0    0 -0.39646736635E+02  0.10751077415E+02 -0.14006205351E+02  0.47787272129E+02  0.20000004945E+02 0.  0.
        -12    1    1    2    0    0  0.39646736635E+02 -0.10751077415E+02  0.14006205351E+02  0.43400727871E+02  0.00000000000E+00 0.  1.
         11    1    3    3    0    0 -0.21561484349E+02  0.12392820582E+02 -0.13769922706E+02  0.28426930557E+02  0.51100000000E-03 0. -1.
        -11    1    3    3    0    0 -0.10948309906E+02  0.10093187339E+01  0.24906298686E+01  0.11273307035E+02  0.51100000000E-03 0.  1.
        -12    1    3    3    0    0 -0.71369423808E+01 -0.26510619012E+01 -0.27269125129E+01  0.80870345371E+01  0.00000000000E+00 0.  1.
</event>
<event>
 7    1  0.2886681E-010  0.4778727E+02  0.7816164E-02  0.1312668E+00
        -11   -1    0    0    0    0  0.00000000000E+00  0.00000000000E+00  0.45593999997E+02  0.45594000000E+02  0.51100000000E-03 0.  1.
         11   -1    0    0    0    0 -0.00000000000E+00 -0.00000000000E+00 -0.45593999997E+02  0.45594000000E+02  0.51100000000E-03 0. -1.
    9900012    2    1    2    0    0 -0.54295814598E+01 -0.39426110666E+02 -0.17312562297E+02  0.47787269933E+02  0.19999994932E+02 0.  0.
        -12    1    1    2    0    0  0.54295814598E+01  0.39426110666E+02  0.17312562297E+02  0.43400730067E+02  0.00000000000E+00 0.  1.
         11    1    3    3    0    0 -0.83262816102E+01 -0.22124381172E+02 -0.37314010447E+01  0.23931956913E+02  0.51100000000E-03 0. -1.
        -11    1    3    3    0    0  0.15259636847E+01 -0.21320683294E+01 -0.65970350619E+01  0.70989543172E+01  0.51100000000E-03 0.  1.
         12    1    3    3    0    0  0.13707364656E+01 -0.15169661165E+02 -0.69841261904E+01  0.16756358702E+02  0.00000000000E+00 0. -1.
</event>
<event>
 7    1  0.2886681E-010  0.4778727E+02  0.7816164E-02  0.1312668E+00
        -11   -1    0    0    0    0  0.00000000000E+00  0.00000000000E+00  0.45593999997E+02  0.45594000000E+02  0.51100000000E-03 0. -1.
         11   -1    0    0    0    0 -0.00000000000E+00 -0.00000000000E+00 -0.45593999997E+02  0.45594000000E+02  0.51100000000E-03 0.  1.
    9900012    2    1    2    0    0 -0.28506392007E+02 -0.75615742415E+01  0.31840723242E+02  0.47787269052E+02  0.19999990915E+02 0.  0.
        -12    1    1    2    0    0  0.28506392007E+02  0.75615742415E+01 -0.31840723242E+02  0.43400730948E+02  0.00000000000E+00 0.  1.
         11    1    3    3    0    0 -0.18790052469E+02 -0.28420526667E+00  0.25853727981E+02  0.31961885039E+02  0.51100000000E-03 0. -1.
        -11    1    3    3    0    0 -0.33554366487E+01 -0.52769801584E+01  0.66452314811E+01  0.91249425420E+01  0.51100000000E-03 0.  1.
         12    1    3    3    0    0 -0.63609028894E+01 -0.20003888164E+01 -0.65823622103E+00  0.67004414712E+01  0.00000000000E+00 0. -1.
</event>
<event>
 7    1  0.2886681E-010  0.4778727E+02  0.7816164E-02  0.1312668E+00
        -11   -1    0    0    0    0  0.00000000000E+00  0.00000000000E+00  0.45593999997E+02  0.45594000000E+02  0.51100000000E-03 0.  1.
         11   -1    0    0    0    0 -0.00000000000E+00 -0.00000000000E+00 -0.45593999997E+02  0.45594000000E+02  0.51100000000E-03 0. -1.
    9900012    2    1    2    0    0 -0.30221871459E+02 -0.24933964982E+02 -0.18669738027E+02  0.47787271409E+02  0.20000001663E+02 0.  0.
        -12    1    1    2    0    0  0.30221871459E+02  0.24933964982E+02  0.18669738027E+02  0.43400728591E+02  0.00000000000E+00 0.  1.
         11    1    3    3    0    0 -0.10096363446E+01 -0.34167621783E+01 -0.77807001949E+01  0.85576238008E+01  0.51100000000E-03 0. -1.
        -11    1    3    3    0    0 -0.13906159304E+02 -0.42392962332E+01 -0.30683996842E+01  0.14858262887E+02  0.51100000000E-03 0.  1.
         12    1    3    3    0    0 -0.15306075810E+02 -0.17277906571E+02 -0.78206381480E+01  0.24371384721E+02  0.00000000000E+00 0. -1.
</event>
<event>
 7    1  0.2886681E-010  0.4778727E+02  0.7816164E-02  0.1312668E+00
        -11   -1    0    0    0    0  0.00000000000E+00  0.00000000000E+00  0.45593999997E+02  0.45594000000E+02  0.51100000000E-03 0.  1.
         11   -1    0    0    0    0 -0.00000000000E+00 -0.00000000000E+00 -0.45593999997E+02  0.45594000000E+02  0.51100000000E-03 0. -1.
    9900012    2    1    2    0    0  0.29984932839E+02 -0.21625700569E+02 -0.22734476802E+02  0.47787267772E+02  0.19999985079E+02 0.  0.
        -12    1    1    2    0    0 -0.29984932839E+02  0.21625700569E+02  0.22734476802E+02  0.43400732228E+02  0.00000000000E+00 0.  1.
         11    1    3    3    0    0  0.22735242802E+02 -0.11966361523E+02 -0.20251793723E+02  0.32714220495E+02  0.51100000000E-03 0. -1.
        -11    1    3    3    0    0 -0.15413815713E+01 -0.14103112104E+00 -0.13724679427E+01  0.20686748029E+01  0.51100000000E-03 0.  1.
         12    1    3    3    0    0  0.87910716088E+01 -0.95183079252E+01 -0.11102151366E+01  0.13004372474E+02  0.00000000000E+00 0. -1.
</event>
<event>
 7    1  0.2886681E-010  0.4778727E+02  0.7816164E-02  0.1312668E+00
        -11   -1    0    0    0    0  0.00000000000E+00  0.00000000000E+00  0.45593999997E+02  0.45594000000E+02  0.51100000000E-03 0.  1.
         11   -1    0    0    0    0 -0.00000000000E+00 -0.00000000000E+00 -0.45593999997E+02  0.45594000000E+02  0.51100000000E-03 0. -1.
    9900012    2    1    2    0    0  0.41906597713E+02  0.14083163758E+01 -0.11201660914E+02  0.47787268507E+02  0.19999988432E+02 0.  0.
        -12    1    1    2    0    0 -0.41906597713E+02 -0.14083163758E+01  0.11201660914E+02  0.43400731493E+02  0.00000000000E+00 0.  1.
         11    1    3    3    0    0  0.55415065919E+01 -0.84460376128E+00  0.22350115593E+00  0.56099557796E+01  0.51100000000E-03 0. -1.
        -11    1    3    3    0    0  0.22609587287E+00 -0.38502574890E+01 -0.19489544005E+01  0.43213453451E+01  0.51100000000E-03 0.  1.
        -12    1    3    3    0    0  0.36138995248E+02  0.61031776261E+01 -0.94762076695E+01  0.37855967383E+02  0.00000000000E+00 0.  1.
</event>
<event>
 7    1  0.2886681E-010  0.4778727E+02  0.7816164E-02  0.1312668E+00
        -11   -1    0    0    0    0  0.00000000000E+00  0.00000000000E+00  0.45593999997E+02  0.45594000000E+02  0.51100000000E-03 0. -1.
         11   -1    0    0    0    0 -0.00000000000E+00 -0.00000000000E+00 -0.45593999997E+02  0.45594000000E+02  0.51100000000E-03 0.  1.
    9900012    2    1    2    0    0  0.27717351087E+02 -0.32498729418E+02  0.76944408707E+01  0.47787269760E+02  0.19999994143E+02 0.  0.
        -12    1    1    2    0    0 -0.27717351087E+02  0.32498729418E+02 -0.76944408707E+01  0.43400730240E+02  0.00000000000E+00 0.  1.
         11    1    3    3    0    0 -0.29792959016E+00  0.12810049424E+01  0.90992710494E+00  0.15992821203E+01  0.51100000000E-03 0. -1.
        -11    1    3    3    0    0  0.22770674462E+02 -0.33405509031E+02  0.59090564573E+01  0.40857662654E+02  0.51100000000E-03 0.  1.
         12    1    3    3    0    0  0.52446062157E+01 -0.37422532937E+00  0.87545730841E+00  0.53303249857E+01  0.00000000000E+00 0. -1.
</event>
<event>
 7    1  0.2886681E-010  0.4778728E+02  0.7816164E-02  0.1312668E+00
        -11   -1    0    0    0    0  0.00000000000E+00  0.00000000000E+00  0.45593999997E+02  0.45594000000E+02  0.51100000000E-03 0.  1.
         11   -1    0    0    0    0 -0.00000000000E+00 -0.00000000000E+00 -0.45593999997E+02  0.45594000000E+02  0.51100000000E-03 0. -1.
    9900012    2    1    2    0    0  0.41044486483E+02 -0.13782947715E+02 -0.30004914902E+01  0.47787280334E+02  0.20000042355E+02 0.  0.
        -12    1    1    2    0    0 -0.41044486483E+02  0.13782947715E+02  0.30004914902E+01  0.43400719666E+02  0.00000000000E+00 0.  1.
         11    1    3    3    0    0  0.24362961001E+01 -0.74915883648E+01 -0.27759849971E+01  0.83525761224E+01  0.51100000000E-03 0. -1.
        -11    1    3    3    0    0  0.26742524404E+02 -0.49434520365E+01 -0.23808157323E+01  0.27299608301E+02  0.51100000000E-03 0.  1.
         12    1    3    3    0    0  0.11865665978E+02 -0.13479073138E+01  0.21563092392E+01  0.12135095911E+02  0.00000000000E+00 0. -1.
</event>
<event>
 7    1  0.2886681E-010  0.4778728E+02  0.7816164E-02  0.1312668E+00
        -11   -1    0    0    0    0  0.00000000000E+00  0.00000000000E+00  0.45593999997E+02  0.45594000000E+02  0.51100000000E-03 0.  1.
         11   -1    0    0    0    0 -0.00000000000E+00 -0.00000000000E+00 -0.45593999997E+02  0.45594000000E+02  0.51100000000E-03 0. -1.
    9900012    2    1    2    0    0  0.37733156080E+02 -0.19231473629E+02 -0.94858907063E+01  0.47787276871E+02  0.20000026564E+02 0.  0.
        -12    1    1    2    0    0 -0.37733156080E+02  0.19231473629E+02  0.94858907063E+01  0.43400723129E+02  0.00000000000E+00 0.  1.
         11    1    3    3    0    0  0.55113517527E+01 -0.53434442722E+01 -0.16809614984E+01  0.78583094017E+01  0.51100000000E-03 0. -1.
        -11    1    3    3    0    0  0.29122432121E+02 -0.17810117896E+02 -0.72626550410E+01  0.34900752293E+02  0.51100000000E-03 0.  1.
        -12    1    3    3    0    0  0.30993722058E+01  0.39220885395E+01 -0.54227416691E+00  0.50282151758E+01  0.00000000000E+00 0.  1.
</event>
<event>
 7    1  0.2886681E-010  0.4778728E+02  0.7816164E-02  0.1312668E+00
        -11   -1    0    0    0    0  0.00000000000E+00  0.00000000000E+00  0.45593999997E+02  0.45594000000E+02  0.51100000000E-03 0. -1.
         11   -1    0    0    0    0 -0.00000000000E+00 -0.00000000000E+00 -0.45593999997E+02  0.45594000000E+02  0.51100000000E-03 0.  1.
    9900012    2    1    2    0    0  0.20117041011E+01 -0.43230698541E+02 -0.32684152939E+01  0.47787276639E+02  0.20000025506E+02 0.  0.
        -12    1    1    2    0    0 -0.20117041011E+01  0.43230698541E+02  0.32684152939E+01  0.43400723361E+02  0.00000000000E+00 0.  1.
         11    1    3    3    0    0 -0.35256846850E+01 -0.36544468593E+02 -0.13522422034E+01  0.36739041856E+02  0.51100000000E-03 0. -1.
        -11    1    3    3    0    0  0.14426942099E+01  0.10475355857E+01  0.69890275525E+00  0.19149837360E+01  0.51100000000E-03 0.  1.
         12    1    3    3    0    0  0.40946945762E+01 -0.77337655340E+01 -0.26150758458E+01  0.91332510470E+01  0.00000000000E+00 0. -1.
</event>
<event>
 7    1  0.2886681E-010  0.4778727E+02  0.7816164E-02  0.1312668E+00
        -11   -1    0    0    0    0  0.00000000000E+00  0.00000000000E+00  0.45593999997E+02  0.45594000000E+02  0.51100000000E-03 0.  1.
         11   -1    0    0    0    0 -0.00000000000E+00 -0.00000000000E+00 -0.45593999997E+02  0.45594000000E+02  0.51100000000E-03 0. -1.
    9900012    2    1    2    0    0 -0.24169565448E+02  0.14923673523E+02 -0.32813706000E+02  0.47787271586E+02  0.20000002470E+02 0.  0.
        -12    1    1    2    0    0  0.24169565448E+02 -0.14923673523E+02  0.32813706000E+02  0.43400728414E+02  0.00000000000E+00 0.  1.
         11    1    3    3    0    0 -0.16585246011E+02  0.52461483005E+01 -0.11277313089E+02  0.20730900801E+02  0.51100000000E-03 0. -1.
        -11    1    3    3    0    0  0.60725381556E+00  0.74664732734E+01 -0.71578662371E+01  0.10361082456E+02  0.51100000000E-03 0.  1.
         12    1    3    3    0    0 -0.81915732524E+01  0.22110519495E+01 -0.14378526674E+02  0.16695288329E+02  0.00000000000E+00 0. -1.
</event>
<event>
 7    1  0.2886681E-010  0.4778727E+02  0.7816164E-02  0.1312668E+00
        -11   -1    0    0    0    0  0.00000000000E+00  0.00000000000E+00  0.45593999997E+02  0.45594000000E+02  0.51100000000E-03 0.  1.
         11   -1    0    0    0    0 -0.00000000000E+00 -0.00000000000E+00 -0.45593999997E+02  0.45594000000E+02  0.51100000000E-03 0. -1.
    9900012    2    1    2    0    0 -0.38196206200E+02  0.59908851477E+00 -0.20598890839E+02  0.47787269834E+02  0.19999994480E+02 0.  0.
        -12    1    1    2    0    0  0.38196206200E+02 -0.59908851477E+00  0.20598890839E+02  0.43400730166E+02  0.00000000000E+00 0.  1.
         11    1    3    3    0    0 -0.12671980815E+02 -0.27078786111E+01 -0.11276216392E+02  0.17177449192E+02  0.51100000000E-03 0. -1.
        -11    1    3    3    0    0 -0.14322090634E+02 -0.14062978781E+01  0.13251974315E+01  0.14451854634E+02  0.51100000000E-03 0.  1.
        -12    1    3    3    0    0 -0.11202134751E+02  0.47132650040E+01 -0.10647871879E+02  0.16157966008E+02  0.00000000000E+00 0.  1.
</event>
<event>
 7    1  0.2886681E-010  0.4778727E+02  0.7816164E-02  0.1312668E+00
        -11   -1    0    0    0    0  0.00000000000E+00  0.00000000000E+00  0.45593999997E+02  0.45594000000E+02  0.51100000000E-03 0.  1.
         11   -1    0    0    0    0 -0.00000000000E+00 -0.00000000000E+00 -0.45593999997E+02  0.45594000000E+02  0.51100000000E-03 0. -1.
    9900012    2    1    2    0    0  0.41681504611E+02  0.11870552209E+02 -0.23163545987E+01  0.47787270341E+02  0.19999996791E+02 0.  0.
        -12    1    1    2    0    0 -0.41681504611E+02 -0.11870552209E+02  0.23163545987E+01  0.43400729659E+02  0.00000000000E+00 0.  1.
         11    1    3    3    0    0  0.82116408470E+01  0.50532896352E+01 -0.29039477195E+01  0.10069741514E+02  0.51100000000E-03 0. -1.
        -11    1    3    3    0    0  0.19561348846E+02  0.68911372768E+00 -0.69263917175E+01  0.20762855028E+02  0.51100000000E-03 0.  1.
        -12    1    3    3    0    0  0.13908514917E+02  0.61281488459E+01  0.75139848384E+01  0.16954673799E+02  0.00000000000E+00 0.  1.
</event>
<event>
 7    1  0.2886681E-010  0.4778727E+02  0.7816164E-02  0.1312668E+00
        -11   -1    0    0    0    0  0.00000000000E+00  0.00000000000E+00  0.45593999997E+02  0.45594000000E+02  0.51100000000E-03 0.  1.
         11   -1    0    0    0    0 -0.00000000000E+00 -0.00000000000E+00 -0.45593999997E+02  0.45594000000E+02  0.51100000000E-03 0. -1.
    9900012    2    1    2    0    0  0.21019783319E+02 -0.18761784187E+02 -0.33011929712E+02  0.47787270283E+02  0.19999996529E+02 0.  0.
        -12    1    1    2    0    0 -0.21019783319E+02  0.18761784187E+02  0.33011929712E+02  0.43400729717E+02  0.00000000000E+00 0.  1.
         11    1    3    3    0    0  0.18382612802E+02 -0.10963347110E+02 -0.18744789528E+02  0.28451407135E+02  0.51100000000E-03 0. -1.
        -11    1    3    3    0    0 -0.66317113639E+00  0.21639482925E+01 -0.11550848500E+01  0.25410016609E+01  0.51100000000E-03 0.  1.
        -12    1    3    3    0    0  0.33003416534E+01 -0.99623853692E+01 -0.13112055334E+02  0.16794861487E+02  0.00000000000E+00 0.  1.
</event>
<event>
 7    1  0.2886681E-010  0.4778727E+02  0.7816164E-02  0.1312668E+00
        -11   -1    0    0    0    0  0.00000000000E+00  0.00000000000E+00  0.45593999997E+02  0.45594000000E+02  0.51100000000E-03 0.  1.
         11   -1    0    0    0    0 -0.00000000000E+00 -0.00000000000E+00 -0.45593999997E+02  0.45594000000E+02  0.51100000000E-03 0. -1.
    9900012    2    1    2    0    0  0.13561699557E+02  0.26230840531E+02 -0.31806391385E+02  0.47787271633E+02  0.20000002684E+02 0.  0.
        -12    1    1    2    0    0 -0.13561699557E+02 -0.26230840531E+02  0.31806391385E+02  0.43400728367E+02  0.00000000000E+00 0.  1.
         11    1    3    3    0    0  0.64388580969E+01  0.88455978548E+01 -0.97341587956E+00  0.10984126444E+02  0.51100000000E-03 0.  1.
        -11    1    3    3    0    0  0.79989824348E+01  0.16960501683E+02 -0.27169467607E+02  0.33012456856E+02  0.51100000000E-03 0. -1.
        -12    1    3    3    0    0 -0.87614097475E+00  0.42474099267E+00 -0.36635078985E+01  0.37906883334E+01  0.00000000000E+00 0.  1.
</event>
<event>
 7    1  0.2886681E-010  0.4778724E+02  0.7816164E-02  0.1312668E+00
        -11   -1    0    0    0    0  0.00000000000E+00  0.00000000000E+00  0.45593999997E+02  0.45594000000E+02  0.51100000000E-03 0.  1.
         11   -1    0    0    0    0 -0.00000000000E+00 -0.00000000000E+00 -0.45593999997E+02  0.45594000000E+02  0.51100000000E-03 0. -1.
    9900012    2    1    2    0    0 -0.20240505530E+02  0.17312883720E+02 -0.34266780357E+02  0.47787236840E+02  0.19999844048E+02 0.  0.
        -12    1    1    2    0    0  0.20240505530E+02 -0.17312883720E+02  0.34266780357E+02  0.43400763160E+02  0.00000000000E+00 0.  1.
         11    1    3    3    0    0 -0.11987131634E+02  0.13625531584E+01 -0.18063277291E+02  0.21721645027E+02  0.51100000000E-03 0. -1.
        -11    1    3    3    0    0 -0.16551074853E+01  0.11102354281E+02 -0.52553194743E+01  0.12394354941E+02  0.51100000000E-03 0.  1.
        -12    1    3    3    0    0 -0.65982664101E+01  0.48479762800E+01 -0.10948183592E+02  0.13671236872E+02  0.00000000000E+00 0.  1.
</event>
<event>
 7    1  0.2886681E-010  0.4778727E+02  0.7816164E-02  0.1312668E+00
        -11   -1    0    0    0    0  0.00000000000E+00  0.00000000000E+00  0.45593999997E+02  0.45594000000E+02  0.51100000000E-03 0.  1.
         11   -1    0    0    0    0 -0.00000000000E+00 -0.00000000000E+00 -0.45593999997E+02  0.45594000000E+02  0.51100000000E-03 0. -1.
    9900012    2    1    2    0    0  0.17435909428E+02 -0.36053855947E+02 -0.16725190921E+02  0.47787268698E+02  0.19999989299E+02 0.  0.
        -12    1    1    2    0    0 -0.17435909428E+02  0.36053855947E+02  0.16725190921E+02  0.43400731302E+02  0.00000000000E+00 0.  1.
         11    1    3    3    0    0  0.46239941650E+01 -0.40041969706E+01  0.26813494064E+01  0.66786638123E+01  0.51100000000E-03 0. -1.
        -11    1    3    3    0    0  0.18537556405E+01 -0.18730615000E+02 -0.12108712287E+02  0.22380644802E+02  0.51100000000E-03 0.  1.
         12    1    3    3    0    0  0.10958159622E+02 -0.13319043976E+02 -0.72978280406E+01  0.18727960083E+02  0.00000000000E+00 0. -1.
</event>
<event>
 7    1  0.2886681E-010  0.4778726E+02  0.7816164E-02  0.1312668E+00
        -11   -1    0    0    0    0  0.00000000000E+00  0.00000000000E+00  0.45593999997E+02  0.45594000000E+02  0.51100000000E-03 0.  1.
         11   -1    0    0    0    0 -0.00000000000E+00 -0.00000000000E+00 -0.45593999997E+02  0.45594000000E+02  0.51100000000E-03 0. -1.
    9900012    2    1    2    0    0 -0.13924709650E+02  0.13859755747E+02 -0.38699274483E+02  0.47787260217E+02  0.19999950635E+02 0.  0.
        -12    1    1    2    0    0  0.13924709650E+02 -0.13859755747E+02  0.38699274483E+02  0.43400739783E+02  0.00000000000E+00 0.  1.
         11    1    3    3    0    0 -0.41909558762E+01  0.93197712912E+01 -0.18067425688E+02  0.20757025782E+02  0.51100000000E-03 0. -1.
        -11    1    3    3    0    0 -0.41403167498E+01  0.31986378586E+01  0.37956095869E+00  0.52457195618E+01  0.51100000000E-03 0.  1.
        -12    1    3    3    0    0 -0.55934370240E+01  0.13413465976E+01 -0.21011409754E+02  0.21784514874E+02  0.00000000000E+00 0.  1.
</event>
<event>
 7    1  0.2886681E-010  0.4778727E+02  0.7816164E-02  0.1312668E+00
        -11   -1    0    0    0    0  0.00000000000E+00  0.00000000000E+00  0.45593999997E+02  0.45594000000E+02  0.51100000000E-03 0.  1.
         11   -1    0    0    0    0 -0.00000000000E+00 -0.00000000000E+00 -0.45593999997E+02  0.45594000000E+02  0.51100000000E-03 0. -1.
    9900012    2    1    2    0    0  0.14139289402E+02 -0.28656296886E+02 -0.29368702211E+02  0.47787268145E+02  0.19999986779E+02 0.  0.
        -12    1    1    2    0    0 -0.14139289402E+02  0.28656296886E+02  0.29368702211E+02  0.43400731855E+02  0.00000000000E+00 0.  1.
         11    1    3    3    0    0  0.11560883565E+02 -0.91793777214E+01 -0.68923645271E+01  0.16291706270E+02  0.51100000000E-03 0. -1.
        -11    1    3    3    0    0 -0.25411580624E+01 -0.10291139941E+02 -0.67153672446E+01  0.12548354596E+02  0.51100000000E-03 0.  1.
         12    1    3    3    0    0  0.51195638994E+01 -0.91857792236E+01 -0.15760970439E+02  0.18947207279E+02  0.00000000000E+00 0. -1.
</event>
<event>
 7    1  0.2886681E-010  0.4778729E+02  0.7816164E-02  0.1312668E+00
        -11   -1    0    0    0    0  0.00000000000E+00  0.00000000000E+00  0.45593999997E+02  0.45594000000E+02  0.51100000000E-03 0.  1.
         11   -1    0    0    0    0 -0.00000000000E+00 -0.00000000000E+00 -0.45593999997E+02  0.45594000000E+02  0.51100000000E-03 0. -1.
    9900012    2    1    2    0    0  0.90106549399E+01 -0.35051869896E+02 -0.23954035147E+02  0.47787293952E+02  0.20000104445E+02 0.  0.
        -12    1    1    2    0    0 -0.90106549399E+01  0.35051869896E+02  0.23954035147E+02  0.43400706048E+02  0.00000000000E+00 0.  1.
         11    1    3    3    0    0  0.11926118831E+02 -0.17840268149E+02 -0.15271012954E+02  0.26338400006E+02  0.51100000000E-03 0.  1.
        -11    1    3    3    0    0  0.28672888745E+01 -0.97753181594E+01 -0.47646480818E+01  0.11246335501E+02  0.51100000000E-03 0. -1.
         12    1    3    3    0    0 -0.57827527651E+01 -0.74362835878E+01 -0.39183741112E+01  0.10202558445E+02  0.00000000000E+00 0. -1.
</event>
<event>
 7    1  0.2886681E-010  0.4778728E+02  0.7816164E-02  0.1312668E+00
        -11   -1    0    0    0    0  0.00000000000E+00  0.00000000000E+00  0.45593999997E+02  0.45594000000E+02  0.51100000000E-03 0.  1.
         11   -1    0    0    0    0 -0.00000000000E+00 -0.00000000000E+00 -0.45593999997E+02  0.45594000000E+02  0.51100000000E-03 0. -1.
    9900012    2    1    2    0    0  0.12009205126E+02 -0.36768160183E+02 -0.19685128289E+02  0.47787275504E+02  0.20000020333E+02 0.  0.
        -12    1    1    2    0    0 -0.12009205126E+02  0.36768160183E+02  0.19685128289E+02  0.43400724496E+02  0.00000000000E+00 0.  1.
         11    1    3    3    0    0  0.84932192426E+01 -0.16189683976E+02 -0.15030160589E+02  0.23667411518E+02  0.51100000000E-03 0. -1.
        -11    1    3    3    0    0  0.44353757145E+00 -0.97812504447E+01  0.33319228612E+01  0.10342692882E+02  0.51100000000E-03 0.  1.
         12    1    3    3    0    0  0.30724483123E+01 -0.10797225762E+02 -0.79868905614E+01  0.13777171104E+02  0.00000000000E+00 0. -1.
</event>
<event>
 7    1  0.2886681E-010  0.4778727E+02  0.7816164E-02  0.1312668E+00
        -11   -1    0    0    0    0  0.00000000000E+00  0.00000000000E+00  0.45593999997E+02  0.45594000000E+02  0.51100000000E-03 0.  1.
         11   -1    0    0    0    0 -0.00000000000E+00 -0.00000000000E+00 -0.45593999997E+02  0.45594000000E+02  0.51100000000E-03 0. -1.
    9900012    2    1    2    0    0  0.26877998623E+01  0.11621854450E+02 -0.41729263805E+02  0.47787271588E+02  0.20000002479E+02 0.  0.
        -12    1    1    2    0    0 -0.26877998623E+01 -0.11621854450E+02  0.41729263805E+02  0.43400728412E+02  0.00000000000E+00 0.  1.
         11    1    3    3    0    0  0.71909982434E+00  0.78715885793E+01 -0.45596581767E+01  0.91252120122E+01  0.51100000000E-03 0. -1.
        -11    1    3    3    0    0  0.38742411576E+01  0.42475038081E+01 -0.10939625009E+02  0.12358253466E+02  0.51100000000E-03 0.  1.
         12    1    3    3    0    0 -0.19055411196E+01 -0.49723793764E+00 -0.26229980620E+02  0.26303806110E+02  0.00000000000E+00 0. -1.
</event>
<event>
 7    1  0.2886681E-010  0.4778727E+02  0.7816164E-02  0.1312668E+00
        -11   -1    0    0    0    0  0.00000000000E+00  0.00000000000E+00  0.45593999997E+02  0.45594000000E+02  0.51100000000E-03 0.  1.
         11   -1    0    0    0    0 -0.00000000000E+00 -0.00000000000E+00 -0.45593999997E+02  0.45594000000E+02  0.51100000000E-03 0. -1.
    9900012    2    1    2    0    0 -0.36194272502E+02  0.68417338397E+01 -0.22951877026E+02  0.47787270249E+02  0.19999996372E+02 0.  0.
        -12    1    1    2    0    0  0.36194272502E+02 -0.68417338397E+01  0.22951877026E+02  0.43400729751E+02  0.00000000000E+00 0.  1.
         11    1    3    3    0    0 -0.29358368185E+02  0.36610789754E+01 -0.12887780238E+02  0.32270918200E+02  0.51100000000E-03 0. -1.
        -11    1    3    3    0    0 -0.77563331342E+01  0.34334866285E+01 -0.40009798530E+01  0.93785592797E+01  0.51100000000E-03 0.  1.
        -12    1    3    3    0    0  0.92042881668E+00 -0.25283176424E+00 -0.60631169349E+01  0.61377927689E+01  0.00000000000E+00 0.  1.
</event>
<event>
 7    1  0.2886681E-010  0.4778727E+02  0.7816164E-02  0.1312668E+00
        -11   -1    0    0    0    0  0.00000000000E+00  0.00000000000E+00  0.45593999997E+02  0.45594000000E+02  0.51100000000E-03 0.  1.
         11   -1    0    0    0    0 -0.00000000000E+00 -0.00000000000E+00 -0.45593999997E+02  0.45594000000E+02  0.51100000000E-03 0. -1.
    9900012    2    1    2    0    0  0.18328284559E+02  0.24144538007E+02 -0.31060236270E+02  0.47787274112E+02  0.20000013987E+02 0.  0.
        -12    1    1    2    0    0 -0.18328284559E+02 -0.24144538007E+02  0.31060236270E+02  0.43400725888E+02  0.00000000000E+00 0.  1.
         11    1    3    3    0    0  0.40775196252E+01  0.72803911436E+01  0.55306691124E+00  0.83627833146E+01  0.51100000000E-03 0. -1.
        -11    1    3    3    0    0  0.35733895141E+01  0.10081854360E+02 -0.11888455027E+02  0.15992131289E+02  0.51100000000E-03 0.  1.
         12    1    3    3    0    0  0.10677375419E+02  0.67822925026E+01 -0.19724848155E+02  0.23432359509E+02  0.00000000000E+00 0. -1.
</event>
<event>
 7    1  0.2886681E-010  0.4778728E+02  0.7816164E-02  0.1312668E+00
        -11   -1    0    0    0    0  0.00000000000E+00  0.00000000000E+00  0.45593999997E+02  0.45594000000E+02  0.51100000000E-03 0.  1.
         11   -1    0    0    0    0 -0.00000000000E+00 -0.00000000000E+00 -0.45593999997E+02  0.45594000000E+02  0.51100000000E-03 0. -1.
    9900012    2    1    2    0    0 -0.12688455656E+02 -0.37489197179E+02 -0.17809719649E+02  0.47787275052E+02  0.20000018271E+02 0.  0.
        -12    1    1    2    0    0  0.12688455656E+02  0.37489197179E+02  0.17809719649E+02  0.43400724948E+02  0.00000000000E+00 0.  1.
         11    1    3    3    0    0  0.12140852135E+01 -0.12652266262E+02 -0.10371252009E+02  0.16404777138E+02  0.51100000000E-03 0. -1.
        -11    1    3    3    0    0 -0.15100381280E+02 -0.20542510648E+02 -0.83577517112E+01  0.26830361020E+02  0.51100000000E-03 0.  1.
        -12    1    3    3    0    0  0.11978404101E+01 -0.42944202690E+01  0.91928407141E+00  0.45521368937E+01  0.00000000000E+00 0.  1.
</event>
<event>
 7    1  0.2886681E-010  0.4778727E+02  0.7816164E-02  0.1312668E+00
        -11   -1    0    0    0    0  0.00000000000E+00  0.00000000000E+00  0.45593999997E+02  0.45594000000E+02  0.51100000000E-03 0.  1.
         11   -1    0    0    0    0 -0.00000000000E+00 -0.00000000000E+00 -0.45593999997E+02  0.45594000000E+02  0.51100000000E-03 0. -1.
    9900012    2    1    2    0    0  0.11007428867E+02  0.13862941920E+02 -0.39626741445E+02  0.47787270899E+02  0.19999999336E+02 0.  0.
        -12    1    1    2    0    0 -0.11007428867E+02 -0.13862941920E+02  0.39626741445E+02  0.43400729101E+02  0.00000000000E+00 0.  1.
         11    1    3    3    0    0  0.44292331961E+01  0.86652525486E+00 -0.10687986275E+02  0.11601811221E+02  0.51100000000E-03 0. -1.
        -11    1    3    3    0    0  0.79743524360E+01  0.51057586068E+01 -0.45331865169E+01  0.10498040197E+02  0.51100000000E-03 0.  1.
        -12    1    3    3    0    0 -0.13961567651E+01  0.78906580580E+01 -0.24405568653E+02  0.25687419481E+02  0.00000000000E+00 0.  1.
</event>
<event>
 7    1  0.2886681E-010  0.4778730E+02  0.7816164E-02  0.1312668E+00
        -11   -1    0    0    0    0  0.00000000000E+00  0.00000000000E+00  0.45593999997E+02  0.45594000000E+02  0.51100000000E-03 0. -1.
         11   -1    0    0    0    0 -0.00000000000E+00 -0.00000000000E+00 -0.45593999997E+02  0.45594000000E+02  0.51100000000E-03 0.  1.
    9900012    2    1    2    0    0 -0.30118793261E+02 -0.30581576903E+02  0.64223496882E+01  0.47787295756E+02  0.20000112668E+02 0.  0.
        -12    1    1    2    0    0  0.30118793261E+02  0.30581576903E+02 -0.64223496882E+01  0.43400704244E+02  0.00000000000E+00 0.  1.
         11    1    3    3    0    0 -0.92623885783E+01 -0.13331920624E+02  0.60195803774E+01  0.17313789241E+02  0.51100000000E-03 0. -1.
        -11    1    3    3    0    0 -0.19437542681E+02 -0.89165151066E+01 -0.25117465270E+01  0.21532096461E+02  0.51100000000E-03 0.  1.
        -12    1    3    3    0    0 -0.14188620017E+01 -0.83331411723E+01  0.29145158378E+01  0.89414100535E+01  0.00000000000E+00 0.  1.
</event>
<event>
 7    1  0.2886681E-010  0.4778727E+02  0.7816164E-02  0.1312668E+00
        -11   -1    0    0    0    0  0.00000000000E+00  0.00000000000E+00  0.45593999997E+02  0.45594000000E+02  0.51100000000E-03 0.  1.
         11   -1    0    0    0    0 -0.00000000000E+00 -0.00000000000E+00 -0.45593999997E+02  0.45594000000E+02  0.51100000000E-03 0. -1.
    9900012    2    1    2    0    0 -0.55516272560E+01  0.11436179958E+02 -0.41497186905E+02  0.47787270764E+02  0.19999998720E+02 0.  0.
        -12    1    1    2    0    0  0.55516272560E+01 -0.11436179958E+02  0.41497186905E+02  0.43400729236E+02  0.00000000000E+00 0.  1.
         11    1    3    3    0    0 -0.90940290307E+01  0.11552748526E+02 -0.16451585733E+02  0.22064043961E+02  0.51100000000E-03 0. -1.
        -11    1    3    3    0    0  0.39667009113E+01 -0.44522358020E+00 -0.11611909487E+02  0.12278818443E+02  0.51100000000E-03 0.  1.
         12    1    3    3    0    0 -0.42429913663E+00  0.32865501262E+00 -0.13433691684E+02  0.13444408360E+02  0.00000000000E+00 0. -1.
</event>
<event>
 7    1  0.2886681E-010  0.4778727E+02  0.7816164E-02  0.1312668E+00
        -11   -1    0    0    0    0  0.00000000000E+00  0.00000000000E+00  0.45593999997E+02  0.45594000000E+02  0.51100000000E-03 0.  1.
         11   -1    0    0    0    0 -0.00000000000E+00 -0.00000000000E+00 -0.45593999997E+02  0.45594000000E+02  0.51100000000E-03 0. -1.
    9900012    2    1    2    0    0 -0.19062406536E+02  0.31209923808E+02 -0.23370675402E+02  0.47787272405E+02  0.20000006203E+02 0.  0.
        -12    1    1    2    0    0  0.19062406536E+02 -0.31209923808E+02  0.23370675402E+02  0.43400727595E+02  0.00000000000E+00 0.  1.
         11    1    3    3    0    0 -0.46808621026E+01 -0.16686716457E+01 -0.11662414096E+01  0.51044151841E+01  0.51100000000E-03 0.  1.
        -11    1    3    3    0    0 -0.14132710092E+02  0.26347792146E+02 -0.17696754134E+02  0.34743556994E+02  0.51100000000E-03 0. -1.
         12    1    3    3    0    0 -0.24883434117E+00  0.65308033080E+01 -0.45076798588E+01  0.79393002265E+01  0.00000000000E+00 0. -1.
</event>
<event>
 7    1  0.2886681E-010  0.4778727E+02  0.7816164E-02  0.1312668E+00
        -11   -1    0    0    0    0  0.00000000000E+00  0.00000000000E+00  0.45593999997E+02  0.45594000000E+02  0.51100000000E-03 0. -1.
         11   -1    0    0    0    0 -0.00000000000E+00 -0.00000000000E+00 -0.45593999997E+02  0.45594000000E+02  0.51100000000E-03 0.  1.
    9900012    2    1    2    0    0 -0.38579336517E+02  0.76133430064E+01  0.18365593510E+02  0.47787271633E+02  0.20000002682E+02 0.  0.
        -12    1    1    2    0    0  0.38579336517E+02 -0.76133430064E+01 -0.18365593510E+02  0.43400728367E+02  0.00000000000E+00 0.  1.
         11    1    3    3    0    0 -0.20252458880E+02  0.97891867628E+01  0.50722984517E+01  0.23059021662E+02  0.51100000000E-03 0. -1.
        -11    1    3    3    0    0 -0.84901989890E+01 -0.26095654675E+01  0.11800128338E+02  0.14769439389E+02  0.51100000000E-03 0.  1.
         12    1    3    3    0    0 -0.98366786480E+01  0.43372171110E+00  0.14931667200E+01  0.99588105816E+01  0.00000000000E+00 0. -1.
</event>
<event>
 7    1  0.2886681E-010  0.4778726E+02  0.7816164E-02  0.1312668E+00
        -11   -1    0    0    0    0  0.00000000000E+00  0.00000000000E+00  0.45593999997E+02  0.45594000000E+02  0.51100000000E-03 0.  1.
         11   -1    0    0    0    0 -0.00000000000E+00 -0.00000000000E+00 -0.45593999997E+02  0.45594000000E+02  0.51100000000E-03 0. -1.
    9900012    2    1    2    0    0 -0.28743073851E+02 -0.29219792516E+02  0.14271069414E+02  0.47787262779E+02  0.19999962317E+02 0.  0.
        -12    1    1    2    0    0  0.28743073851E+02  0.29219792516E+02 -0.14271069414E+02  0.43400737221E+02  0.00000000000E+00 0.  1.
         11    1    3    3    0    0 -0.26912833504E+02 -0.28776526337E+02  0.12393864499E+02  0.41303715967E+02  0.51100000000E-03 0. -1.
        -11    1    3    3    0    0 -0.38406915586E+01 -0.10115386974E+01  0.55291282247E+00  0.40099669618E+01  0.51100000000E-03 0.  1.
         12    1    3    3    0    0  0.20104512112E+01  0.56827251905E+00  0.13242920928E+01  0.24735798503E+01  0.00000000000E+00 0. -1.
</event>
<event>
 7    1  0.2886681E-010  0.4778727E+02  0.7816164E-02  0.1312668E+00
        -11   -1    0    0    0    0  0.00000000000E+00  0.00000000000E+00  0.45593999997E+02  0.45594000000E+02  0.51100000000E-03 0. -1.
         11   -1    0    0    0    0 -0.00000000000E+00 -0.00000000000E+00 -0.45593999997E+02  0.45594000000E+02  0.51100000000E-03 0.  1.
    9900012    2    1    2    0    0  0.81051755445E+01 -0.33988319125E+02  0.25743411757E+02  0.47787274701E+02  0.20000016673E+02 0.  0.
        -12    1    1    2    0    0 -0.81051755445E+01  0.33988319125E+02 -0.25743411757E+02  0.43400725299E+02  0.00000000000E+00 0.  1.
         11    1    3    3    0    0  0.71292987230E+01 -0.14869892424E+02  0.21732175280E+02  0.27280543317E+02  0.51100000000E-03 0. -1.
        -11    1    3    3    0    0  0.32238356384E+01 -0.13948734401E+02  0.17114184456E+01  0.14418365405E+02  0.51100000000E-03 0.  1.
         12    1    3    3    0    0 -0.22479588169E+01 -0.51696922999E+01  0.22998180316E+01  0.60883659792E+01  0.00000000000E+00 0. -1.
</event>
<event>
 7    1  0.2886681E-010  0.4778728E+02  0.7816164E-02  0.1312668E+00
        -11   -1    0    0    0    0  0.00000000000E+00  0.00000000000E+00  0.45593999997E+02  0.45594000000E+02  0.51100000000E-03 0.  1.
         11   -1    0    0    0    0 -0.00000000000E+00 -0.00000000000E+00 -0.45593999997E+02  0.45594000000E+02  0.51100000000E-03 0. -1.
    9900012    2    1    2    0    0  0.40543397034E+02  0.12796648134E+01 -0.15434320936E+02  0.47787275952E+02  0.20000022378E+02 0.  0.
        -12    1    1    2    0    0 -0.40543397034E+02 -0.12796648134E+01  0.15434320936E+02  0.43400724048E+02  0.00000000000E+00 0.  1.
         11    1    3    3    0    0  0.18010197654E+01  0.36773971088E+01 -0.68454789505E+01  0.79766850266E+01  0.51100000000E-03 0. -1.
        -11    1    3    3    0    0  0.29199820100E+02 -0.16317255613E+01 -0.55563811351E+01  0.29768530259E+02  0.51100000000E-03 0.  1.
         12    1    3    3    0    0  0.95425571683E+01 -0.76600673407E+00 -0.30324608503E+01  0.10042060667E+02  0.00000000000E+00 0. -1.
</event>
<event>
 7    1  0.2886681E-010  0.4778727E+02  0.7816164E-02  0.1312668E+00
        -11   -1    0    0    0    0  0.00000000000E+00  0.00000000000E+00  0.45593999997E+02  0.45594000000E+02  0.51100000000E-03 0. -1.
         11   -1    0    0    0    0 -0.00000000000E+00 -0.00000000000E+00 -0.45593999997E+02  0.45594000000E+02  0.51100000000E-03 0.  1.
    9900012    2    1    2    0    0 -0.28003395897E+02  0.18459505388E+02  0.27544140899E+02  0.47787271679E+02  0.20000002893E+02 0.  0.
        -12    1    1    2    0    0  0.28003395897E+02 -0.18459505388E+02 -0.27544140899E+02  0.43400728321E+02  0.00000000000E+00 0.  1.
         11    1    3    3    0    0 -0.19924931147E+02  0.64350790423E+01  0.22495180344E+02  0.30731844436E+02  0.51100000000E-03 0. -1.
        -11    1    3    3    0    0 -0.68417984915E+01  0.55904440054E+01  0.85337730359E-01  0.88357542725E+01  0.51100000000E-03 0.  1.
        -12    1    3    3    0    0 -0.12366662585E+01  0.64339823398E+01  0.49636228250E+01  0.82196729699E+01  0.00000000000E+00 0.  1.
</event>
<event>
 7    1  0.2886681E-010  0.4778727E+02  0.7816164E-02  0.1312668E+00
        -11   -1    0    0    0    0  0.00000000000E+00  0.00000000000E+00  0.45593999997E+02  0.45594000000E+02  0.51100000000E-03 0.  1.
         11   -1    0    0    0    0 -0.00000000000E+00 -0.00000000000E+00 -0.45593999997E+02  0.45594000000E+02  0.51100000000E-03 0. -1.
    9900012    2    1    2    0    0  0.13219503744E+01 -0.24157377632E+01 -0.43313282182E+02  0.47787265500E+02  0.19999974722E+02 0.  0.
        -12    1    1    2    0    0 -0.13219503744E+01  0.24157377632E+01  0.43313282182E+02  0.43400734500E+02  0.00000000000E+00 0.  1.
         11    1    3    3    0    0 -0.52141820252E+01 -0.29705153468E+01 -0.29998876100E+02  0.30593205506E+02  0.51100000000E-03 0. -1.
        -11    1    3    3    0    0  0.80462450067E+01  0.52544768462E+00 -0.13445485228E+02  0.15677985434E+02  0.51100000000E-03 0.  1.
        -12    1    3    3    0    0 -0.15101126071E+01  0.29329898936E-01  0.13107914643E+00  0.15160745601E+01  0.00000000000E+00 0.  1.
</event>
<event>
 7    1  0.2886681E-010  0.4778727E+02  0.7816164E-02  0.1312668E+00
        -11   -1    0    0    0    0  0.00000000000E+00  0.00000000000E+00  0.45593999997E+02  0.45594000000E+02  0.51100000000E-03 0. -1.
         11   -1    0    0    0    0 -0.00000000000E+00 -0.00000000000E+00 -0.45593999997E+02  0.45594000000E+02  0.51100000000E-03 0.  1.
    9900012    2    1    2    0    0 -0.39570072069E+02 -0.81529223401E+01 -0.15854424767E+02  0.47787268083E+02  0.19999986496E+02 0.  0.
        -12    1    1    2    0    0  0.39570072069E+02  0.81529223401E+01  0.15854424767E+02  0.43400731917E+02  0.00000000000E+00 0.  1.
         11    1    3    3    0    0 -0.31944503384E+02 -0.11502838379E+02 -0.10089244646E+02  0.35419760657E+02  0.51100000000E-03 0. -1.
        -11    1    3    3    0    0 -0.54978281202E+01  0.55968137345E+01 -0.42315641167E+01  0.89138416607E+01  0.51100000000E-03 0.  1.
        -12    1    3    3    0    0 -0.21277405656E+01 -0.22468976951E+01 -0.15336160048E+01  0.34536657651E+01  0.00000000000E+00 0.  1.
</event>
<event>
 7    1  0.2886681E-010  0.4778727E+02  0.7816164E-02  0.1312668E+00
        -11   -1    0    0    0    0  0.00000000000E+00  0.00000000000E+00  0.45593999997E+02  0.45594000000E+02  0.51100000000E-03 0. -1.
         11   -1    0    0    0    0 -0.00000000000E+00 -0.00000000000E+00 -0.45593999997E+02  0.45594000000E+02  0.51100000000E-03 0.  1.
    9900012    2    1    2    0    0 -0.41919866992E+02  0.10753362079E+02 -0.32731229648E+01  0.47787269839E+02  0.19999994502E+02 0.  0.
        -12    1    1    2    0    0  0.41919866992E+02 -0.10753362079E+02  0.32731229648E+01  0.43400730161E+02  0.00000000000E+00 0.  1.
         11    1    3    3    0    0 -0.11510800858E+02  0.74970843945E+01  0.17237042502E+01  0.13844709004E+02  0.51100000000E-03 0. -1.
        -11    1    3    3    0    0 -0.74941166579E+01  0.14021398654E+01 -0.76495807176E+01  0.10800178985E+02  0.51100000000E-03 0.  1.
        -12    1    3    3    0    0 -0.22914949476E+02  0.18541378188E+01  0.26527535026E+01  0.23142381850E+02  0.00000000000E+00 0.  1.
</event>
<event>
 7    1  0.2886681E-010  0.4778727E+02  0.7816164E-02  0.1312668E+00
        -11   -1    0    0    0    0  0.00000000000E+00  0.00000000000E+00  0.45593999997E+02  0.45594000000E+02  0.51100000000E-03 0.  1.
         11   -1    0    0    0    0 -0.00000000000E+00 -0.00000000000E+00 -0.45593999997E+02  0.45594000000E+02  0.51100000000E-03 0. -1.
    9900012    2    1    2    0    0 -0.14729279352E+02 -0.22267722260E+02 -0.34217249542E+02  0.47787270846E+02  0.19999999095E+02 0.  0.
        -12    1    1    2    0    0  0.14729279352E+02  0.22267722260E+02  0.34217249542E+02  0.43400729154E+02  0.00000000000E+00 0.  1.
         11    1    3    3    0    0 -0.83936745048E+01 -0.20707434066E+02 -0.20181553813E+02  0.30108914159E+02  0.51100000000E-03 0. -1.
        -11    1    3    3    0    0 -0.83175027121E+00  0.25702185219E+01 -0.89665874003E+00  0.28463711847E+01  0.51100000000E-03 0.  1.
         12    1    3    3    0    0 -0.55038545764E+01 -0.41305067164E+01 -0.13139036989E+02  0.14831985502E+02  0.00000000000E+00 0. -1.
</event>
<event>
 7    1  0.2886681E-010  0.4778727E+02  0.7816164E-02  0.1312668E+00
        -11   -1    0    0    0    0  0.00000000000E+00  0.00000000000E+00  0.45593999997E+02  0.45594000000E+02  0.51100000000E-03 0. -1.
         11   -1    0    0    0    0 -0.00000000000E+00 -0.00000000000E+00 -0.45593999997E+02  0.45594000000E+02  0.51100000000E-03 0.  1.
    9900012    2    1    2    0    0  0.29873451860E+02 -0.28053367957E+00  0.31482083381E+02  0.47787269600E+02  0.19999993416E+02 0.  0.
        -12    1    1    2    0    0 -0.29873451860E+02  0.28053367957E+00 -0.31482083381E+02  0.43400730400E+02  0.00000000000E+00 0.  1.
         11    1    3    3    0    0  0.36928243099E+01  0.95284215668E-01 -0.18811037393E+01  0.41454290495E+01  0.51100000000E-03 0. -1.
        -11    1    3    3    0    0  0.19226594289E+01 -0.30991902506E+01  0.54870014080E+01  0.65885342984E+01  0.51100000000E-03 0.  1.
         12    1    3    3    0    0  0.24257968121E+02  0.27233723554E+01  0.27876185713E+02  0.37053306253E+02  0.00000000000E+00 0. -1.
</event>
<event>
 7    1  0.2886681E-010  0.4778727E+02  0.7816164E-02  0.1312668E+00
        -11   -1    0    0    0    0  0.00000000000E+00  0.00000000000E+00  0.45593999997E+02  0.45594000000E+02  0.51100000000E-03 0.  1.
         11   -1    0    0    0    0 -0.00000000000E+00 -0.00000000000E+00 -0.45593999997E+02  0.45594000000E+02  0.51100000000E-03 0. -1.
    9900012    2    1    2    0    0 -0.17109065553E+02 -0.34327505257E+02 -0.20310721352E+02  0.47787272551E+02  0.20000006869E+02 0.  0.
        -12    1    1    2    0    0  0.17109065553E+02  0.34327505257E+02  0.20310721352E+02  0.43400727449E+02  0.00000000000E+00 0.  1.
         11    1    3    3    0    0 -0.40383261566E+01 -0.72985267236E+01 -0.56622663955E+01  0.10081558980E+02  0.51100000000E-03 0. -1.
        -11    1    3    3    0    0 -0.12323952977E+02 -0.16180833072E+02 -0.11497368705E+01  0.20372065949E+02  0.51100000000E-03 0.  1.
        -12    1    3    3    0    0 -0.74678641910E+00 -0.10848145461E+02 -0.13498718087E+02  0.17333647622E+02  0.00000000000E+00 0.  1.
</event>
<event>
 7    1  0.2886681E-010  0.4778727E+02  0.7816164E-02  0.1312668E+00
        -11   -1    0    0    0    0  0.00000000000E+00  0.00000000000E+00  0.45593999997E+02  0.45594000000E+02  0.51100000000E-03 0.  1.
         11   -1    0    0    0    0 -0.00000000000E+00 -0.00000000000E+00 -0.45593999997E+02  0.45594000000E+02  0.51100000000E-03 0. -1.
    9900012    2    1    2    0    0  0.11288711508E+02 -0.18640566893E+02 -0.37532886543E+02  0.47787270585E+02  0.19999997903E+02 0.  0.
        -12    1    1    2    0    0 -0.11288711508E+02  0.18640566893E+02  0.37532886543E+02  0.43400729415E+02  0.00000000000E+00 0.  1.
         11    1    3    3    0    0  0.99252982897E+01 -0.16513806876E+02 -0.33003028070E+02  0.38215405608E+02  0.51100000000E-03 0. -1.
        -11    1    3    3    0    0  0.12440655335E+01 -0.11437677105E+01  0.21974183894E+01  0.27721023549E+01  0.51100000000E-03 0.  1.
         12    1    3    3    0    0  0.11934768437E+00 -0.98299230620E+00 -0.67272768616E+01  0.67997626221E+01  0.00000000000E+00 0. -1.
</event>
<event>
 7    1  0.2886681E-010  0.4778727E+02  0.7816164E-02  0.1312668E+00
        -11   -1    0    0    0    0  0.00000000000E+00  0.00000000000E+00  0.45593999997E+02  0.45594000000E+02  0.51100000000E-03 0.  1.
         11   -1    0    0    0    0 -0.00000000000E+00 -0.00000000000E+00 -0.45593999997E+02  0.45594000000E+02  0.51100000000E-03 0. -1.
    9900012    2    1    2    0    0  0.39896892846E+01 -0.37908434019E+02 -0.20752259790E+02  0.47787271011E+02  0.19999999848E+02 0.  0.
        -12    1    1    2    0    0 -0.39896892846E+01  0.37908434019E+02  0.20752259790E+02  0.43400728989E+02  0.00000000000E+00 0.  1.
         11    1    3    3    0    0 -0.23833304245E+01 -0.28982680967E+01  0.24115583026E+01  0.44604748156E+01  0.51100000000E-03 0. -1.
        -11    1    3    3    0    0  0.79010585630E+00 -0.27570869505E+00  0.45589651186E+00  0.95295563345E+00  0.51100000000E-03 0.  1.
         12    1    3    3    0    0  0.55829138528E+01 -0.34734457228E+02 -0.23619714604E+02  0.42373840562E+02  0.00000000000E+00 0. -1.
</event>
<event>
 7    1  0.2886681E-010  0.4778727E+02  0.7816164E-02  0.1312668E+00
        -11   -1    0    0    0    0  0.00000000000E+00  0.00000000000E+00  0.45593999997E+02  0.45594000000E+02  0.51100000000E-03 0.  1.
         11   -1    0    0    0    0 -0.00000000000E+00 -0.00000000000E+00 -0.45593999997E+02  0.45594000000E+02  0.51100000000E-03 0. -1.
    9900012    2    1    2    0    0  0.17352190870E+02 -0.30267727591E+02 -0.25814517165E+02  0.47787272380E+02  0.20000006089E+02 0.  0.
        -12    1    1    2    0    0 -0.17352190870E+02  0.30267727591E+02  0.25814517165E+02  0.43400727620E+02  0.00000000000E+00 0.  1.
         11    1    3    3    0    0  0.95461358413E-01 -0.59103990476E+00 -0.37805797196E+01  0.38276917741E+01  0.51100000000E-03 0. -1.
        -11    1    3    3    0    0 -0.26265260932E+01 -0.80635046901E+01 -0.31620474820E+01  0.90508171866E+01  0.51100000000E-03 0.  1.
        -12    1    3    3    0    0  0.19883255605E+02 -0.21613182996E+02 -0.18871889963E+02  0.34908763419E+02  0.00000000000E+00 0.  1.
</event>
<event>
 7    1  0.2886681E-010  0.4778727E+02  0.7816164E-02  0.1312668E+00
        -11   -1    0    0    0    0  0.00000000000E+00  0.00000000000E+00  0.45593999997E+02  0.45594000000E+02  0.51100000000E-03 0. -1.
         11   -1    0    0    0    0 -0.00000000000E+00 -0.00000000000E+00 -0.45593999997E+02  0.45594000000E+02  0.51100000000E-03 0.  1.
    9900012    2    1    2    0    0 -0.36950423767E+02 -0.12098128281E+02  0.19285362588E+02  0.47787265737E+02  0.19999975800E+02 0.  0.
        -12    1    1    2    0    0  0.36950423767E+02  0.12098128281E+02 -0.19285362588E+02  0.43400734263E+02  0.00000000000E+00 0.  1.
         11    1    3    3    0    0 -0.26436765818E+02 -0.60628217406E+01  0.18772102331E+02  0.32985636579E+02  0.51100000000E-03 0. -1.
        -11    1    3    3    0    0 -0.20733731051E+01 -0.48480083886E+01 -0.24011459671E+01  0.57937521163E+01  0.51100000000E-03 0.  1.
        -12    1    3    3    0    0 -0.84402848438E+01 -0.11872981516E+01  0.29144062241E+01  0.90078770409E+01  0.00000000000E+00 0.  1.
</event>
<event>
 7    1  0.2886681E-010  0.4778727E+02  0.7816164E-02  0.1312668E+00
        -11   -1    0    0    0    0  0.00000000000E+00  0.00000000000E+00  0.45593999997E+02  0.45594000000E+02  0.51100000000E-03 0.  1.
         11   -1    0    0    0    0 -0.00000000000E+00 -0.00000000000E+00 -0.45593999997E+02  0.45594000000E+02  0.51100000000E-03 0. -1.
    9900012    2    1    2    0    0 -0.24326365727E+02 -0.31483126495E+02 -0.17339664605E+02  0.47787270835E+02  0.19999999047E+02 0.  0.
        -12    1    1    2    0    0  0.24326365727E+02  0.31483126495E+02  0.17339664605E+02  0.43400729165E+02  0.00000000000E+00 0.  1.
         11    1    3    3    0    0 -0.77846900597E+01 -0.87833310815E+01 -0.63318958657E+01  0.13335711819E+02  0.51100000000E-03 0. -1.
        -11    1    3    3    0    0  0.27779766354E+01  0.75377622336E-01 -0.86205510166E+00  0.29096348967E+01  0.51100000000E-03 0.  1.
        -12    1    3    3    0    0 -0.19319652303E+02 -0.22775173036E+02 -0.10145713638E+02  0.31541924119E+02  0.00000000000E+00 0.  1.
</event>
<event>
 7    1  0.2886681E-010  0.4778727E+02  0.7816164E-02  0.1312668E+00
        -11   -1    0    0    0    0  0.00000000000E+00  0.00000000000E+00  0.45593999997E+02  0.45594000000E+02  0.51100000000E-03 0. -1.
         11   -1    0    0    0    0 -0.00000000000E+00 -0.00000000000E+00 -0.45593999997E+02  0.45594000000E+02  0.51100000000E-03 0.  1.
    9900012    2    1    2    0    0 -0.81288250127E+01 -0.37677006555E+02  0.19949653108E+02  0.47787270995E+02  0.19999999775E+02 0.  0.
        -12    1    1    2    0    0  0.81288250127E+01  0.37677006555E+02 -0.19949653108E+02  0.43400729005E+02  0.00000000000E+00 0.  1.
         11    1    3    3    0    0 -0.43151412255E+00 -0.23664124509E+02  0.11816911438E+02  0.26454042969E+02  0.51100000000E-03 0. -1.
        -11    1    3    3    0    0 -0.10721572072E+02 -0.10676588204E+02  0.70975224441E+01  0.16712763640E+02  0.51100000000E-03 0.  1.
        -12    1    3    3    0    0  0.30242611820E+01 -0.33362938418E+01  0.10352192255E+01  0.46204643858E+01  0.00000000000E+00 0.  1.
</event>
<event>
 7    1  0.2886681E-010  0.4778728E+02  0.7816164E-02  0.1312668E+00
        -11   -1    0    0    0    0  0.00000000000E+00  0.00000000000E+00  0.45593999997E+02  0.45594000000E+02  0.51100000000E-03 0. -1.
         11   -1    0    0    0    0 -0.00000000000E+00 -0.00000000000E+00 -0.45593999997E+02  0.45594000000E+02  0.51100000000E-03 0.  1.
    9900012    2    1    2    0    0 -0.24328947918E+02 -0.22299735519E+02  0.28185932244E+02  0.47787277800E+02  0.20000030801E+02 0.  0.
        -12    1    1    2    0    0  0.24328947918E+02  0.22299735519E+02 -0.28185932244E+02  0.43400722200E+02  0.00000000000E+00 0.  1.
         11    1    3    3    0    0 -0.11853158497E+02 -0.20756796489E+02  0.23214750474E+02  0.33320663359E+02  0.51100000000E-03 0. -1.
        -11    1    3    3    0    0 -0.70821564060E+01  0.88185385812E+00  0.47026493286E+01  0.85469009913E+01  0.51100000000E-03 0.  1.
         12    1    3    3    0    0 -0.53936330156E+01 -0.24247928879E+01  0.26853244146E+00  0.59197134499E+01  0.00000000000E+00 0. -1.
</event>
<event>
 7    1  0.2886681E-010  0.4778727E+02  0.7816164E-02  0.1312668E+00
        -11   -1    0    0    0    0  0.00000000000E+00  0.00000000000E+00  0.45593999997E+02  0.45594000000E+02  0.51100000000E-03 0.  1.
         11   -1    0    0    0    0 -0.00000000000E+00 -0.00000000000E+00 -0.45593999997E+02  0.45594000000E+02  0.51100000000E-03 0. -1.
    9900012    2    1    2    0    0 -0.33970862994E+02  0.15361622846E+02 -0.22217656179E+02  0.47787271491E+02  0.20000002034E+02 0.  0.
        -12    1    1    2    0    0  0.33970862994E+02 -0.15361622846E+02  0.22217656179E+02  0.43400728509E+02  0.00000000000E+00 0.  1.
         11    1    3    3    0    0 -0.32816120597E+02  0.11523479245E+02 -0.14353155902E+02  0.37625808025E+02  0.51100000000E-03 0. -1.
        -11    1    3    3    0    0 -0.26798607997E+01  0.39555194271E+01 -0.67457505788E+01  0.82663739921E+01  0.51100000000E-03 0.  1.
         12    1    3    3    0    0  0.15251184022E+01 -0.11737582562E+00 -0.11187496982E+01  0.18950894734E+01  0.00000000000E+00 0. -1.
</event>
<event>
 7    1  0.2886681E-010  0.4778728E+02  0.7816164E-02  0.1312668E+00
        -11   -1    0    0    0    0  0.00000000000E+00  0.00000000000E+00  0.45593999997E+02  0.45594000000E+02  0.51100000000E-03 0. -1.
         11   -1    0    0    0    0 -0.00000000000E+00 -0.00000000000E+00 -0.45593999997E+02  0.45594000000E+02  0.51100000000E-03 0.  1.
    9900012    2    1    2    0    0 -0.21687203672E+02 -0.34974702903E+02  0.13786151629E+02  0.47787278543E+02  0.20000034189E+02 0.  0.
        -12    1    1    2    0    0  0.21687203672E+02  0.34974702903E+02 -0.13786151629E+02  0.43400721457E+02  0.00000000000E+00 0.  1.
         11    1    3    3    0    0 -0.58008632261E+00 -0.67141488279E+01 -0.19392610661E+01  0.70126334831E+01  0.51100000000E-03 0. -1.
        -11    1    3    3    0    0 -0.44480292247E+00 -0.88328939384E+01  0.12473975781E+01  0.89316216862E+01  0.51100000000E-03 0.  1.
         12    1    3    3    0    0 -0.20662314426E+02 -0.19427660137E+02  0.14478015117E+02  0.31843023374E+02  0.00000000000E+00 0. -1.
</event>
<event>
 7    1  0.2886681E-010  0.4778727E+02  0.7816164E-02  0.1312668E+00
        -11   -1    0    0    0    0  0.00000000000E+00  0.00000000000E+00  0.45593999997E+02  0.45594000000E+02  0.51100000000E-03 0. -1.
         11   -1    0    0    0    0 -0.00000000000E+00 -0.00000000000E+00 -0.45593999997E+02  0.45594000000E+02  0.51100000000E-03 0.  1.
    9900012    2    1    2    0    0  0.14988137719E+02 -0.23504463246E+02  0.33264386558E+02  0.47787268695E+02  0.19999989286E+02 0.  0.
        -12    1    1    2    0    0 -0.14988137719E+02  0.23504463246E+02 -0.33264386558E+02  0.43400731305E+02  0.00000000000E+00 0.  1.
         11    1    3    3    0    0  0.17887195145E+01 -0.12677760260E+02  0.58639411842E+01  0.14082291333E+02  0.51100000000E-03 0. -1.
        -11    1    3    3    0    0  0.14045741214E+02 -0.73001885697E+01  0.23883872269E+02  0.28653358516E+02  0.51100000000E-03 0.  1.
        -12    1    3    3    0    0 -0.84632300953E+00 -0.35265144167E+01  0.35165731044E+01  0.50516188460E+01  0.00000000000E+00 0.  1.
</event>
<event>
 7    1  0.2886681E-010  0.4778727E+02  0.7816164E-02  0.1312668E+00
        -11   -1    0    0    0    0  0.00000000000E+00  0.00000000000E+00  0.45593999997E+02  0.45594000000E+02  0.51100000000E-03 0.  1.
         11   -1    0    0    0    0 -0.00000000000E+00 -0.00000000000E+00 -0.45593999997E+02  0.45594000000E+02  0.51100000000E-03 0. -1.
    9900012    2    1    2    0    0  0.14596649407E+02  0.97065567586E+01 -0.39703197783E+02  0.47787270373E+02  0.19999996937E+02 0.  0.
        -12    1    1    2    0    0 -0.14596649407E+02 -0.97065567586E+01  0.39703197783E+02  0.43400729627E+02  0.00000000000E+00 0.  1.
         11    1    3    3    0    0  0.12902630355E+02  0.60703359309E+01 -0.26195704042E+02  0.29825186653E+02  0.51100000000E-03 0.  1.
        -11    1    3    3    0    0 -0.31351454946E+01  0.21520247458E+01 -0.12149440891E+02  0.12730642639E+02  0.51100000000E-03 0. -1.
         12    1    3    3    0    0  0.48291645468E+01  0.14841960820E+01 -0.13580528492E+01  0.52314410798E+01  0.00000000000E+00 0. -1.
</event>
<event>
 7    1  0.2886681E-010  0.4778727E+02  0.7816164E-02  0.1312668E+00
        -11   -1    0    0    0    0  0.00000000000E+00  0.00000000000E+00  0.45593999997E+02  0.45594000000E+02  0.51100000000E-03 0.  1.
         11   -1    0    0    0    0 -0.00000000000E+00 -0.00000000000E+00 -0.45593999997E+02  0.45594000000E+02  0.51100000000E-03 0. -1.
    9900012    2    1    2    0    0  0.38457976651E+02 -0.98703361656E+01 -0.17526660056E+02  0.47787270550E+02  0.19999997744E+02 0.  0.
        -12    1    1    2    0    0 -0.38457976651E+02  0.98703361656E+01  0.17526660056E+02  0.43400729450E+02  0.00000000000E+00 0.  1.
         11    1    3    3    0    0  0.27343525051E+02 -0.10309980948E+02 -0.11384422909E+02  0.31361906106E+02  0.51100000000E-03 0. -1.
        -11    1    3    3    0    0  0.45817562317E+01 -0.49620511379E+01 -0.28898309189E+01  0.73461258268E+01  0.51100000000E-03 0.  1.
         12    1    3    3    0    0  0.65326953680E+01  0.54016959204E+01 -0.32524062276E+01  0.90792386166E+01  0.00000000000E+00 0. -1.
</event>
<event>
 7    1  0.2886681E-010  0.4778730E+02  0.7816164E-02  0.1312668E+00
        -11   -1    0    0    0    0  0.00000000000E+00  0.00000000000E+00  0.45593999997E+02  0.45594000000E+02  0.51100000000E-03 0.  1.
         11   -1    0    0    0    0 -0.00000000000E+00 -0.00000000000E+00 -0.45593999997E+02  0.45594000000E+02  0.51100000000E-03 0. -1.
    9900012    2    1    2    0    0 -0.87452400699E+01 -0.40740776713E+01 -0.42314811106E+02  0.47787302175E+02  0.20000141937E+02 0.  0.
        -12    1    1    2    0    0  0.87452400699E+01  0.40740776713E+01  0.42314811106E+02  0.43400697825E+02  0.00000000000E+00 0.  1.
         11    1    3    3    0    0 -0.33434606650E+01 -0.17086754985E+01 -0.91444725535E+01  0.98853264853E+01  0.51100000000E-03 0. -1.
        -11    1    3    3    0    0 -0.27366434357E+01 -0.98738111793E+01 -0.20821578400E+02  0.23206022749E+02  0.51100000000E-03 0.  1.
        -12    1    3    3    0    0 -0.26651359692E+01  0.75084090065E+01 -0.12348760152E+02  0.14695952941E+02  0.00000000000E+00 0.  1.
</event>
<event>
 7    1  0.2886681E-010  0.4778728E+02  0.7816164E-02  0.1312668E+00
        -11   -1    0    0    0    0  0.00000000000E+00  0.00000000000E+00  0.45593999997E+02  0.45594000000E+02  0.51100000000E-03 0.  1.
         11   -1    0    0    0    0 -0.00000000000E+00 -0.00000000000E+00 -0.45593999997E+02  0.45594000000E+02  0.51100000000E-03 0. -1.
    9900012    2    1    2    0    0  0.16712601890E+01  0.10133759174E+02 -0.42167951605E+02  0.47787281940E+02  0.20000049676E+02 0.  0.
        -12    1    1    2    0    0 -0.16712601890E+01 -0.10133759174E+02  0.42167951605E+02  0.43400718060E+02  0.00000000000E+00 0.  1.
         11    1    3    3    0    0  0.40927791665E+00 -0.38577684419E+01 -0.17867132056E+02  0.18283443164E+02  0.51100000000E-03 0. -1.
        -11    1    3    3    0    0  0.18979548705E+01  0.13481818260E+02 -0.24975800885E+02  0.28445602233E+02  0.51100000000E-03 0.  1.
        -12    1    3    3    0    0 -0.63597259820E+00  0.50970935582E+00  0.67498133707E+00  0.10582365418E+01  0.00000000000E+00 0.  1.
</event>
<event>
 7    1  0.2886681E-010  0.4778728E+02  0.7816164E-02  0.1312668E+00
        -11   -1    0    0    0    0  0.00000000000E+00  0.00000000000E+00  0.45593999997E+02  0.45594000000E+02  0.51100000000E-03 0. -1.
         11   -1    0    0    0    0 -0.00000000000E+00 -0.00000000000E+00 -0.45593999997E+02  0.45594000000E+02  0.51100000000E-03 0.  1.
    9900012    2    1    2    0    0  0.27326978193E+02 -0.59907837129E+01  0.33180853626E+02  0.47787282563E+02  0.20000052520E+02 0.  0.
        -12    1    1    2    0    0 -0.27326978193E+02  0.59907837129E+01 -0.33180853626E+02  0.43400717437E+02  0.00000000000E+00 0.  1.
         11    1    3    3    0    0  0.36590309616E+01  0.27220125907E+01  0.13109685807E+02  0.13880263770E+02  0.51100000000E-03 0. -1.
        -11    1    3    3    0    0  0.24260885674E+02 -0.71108679832E+01  0.17239097445E+02  0.30599697681E+02  0.51100000000E-03 0.  1.
        -12    1    3    3    0    0 -0.59293844216E+00 -0.16019283204E+01  0.28320703737E+01  0.33073211125E+01  0.00000000000E+00 0.  1.
</event>
<event>
 7    1  0.2886681E-010  0.4778728E+02  0.7816164E-02  0.1312668E+00
        -11   -1    0    0    0    0  0.00000000000E+00  0.00000000000E+00  0.45593999997E+02  0.45594000000E+02  0.51100000000E-03 0.  1.
         11   -1    0    0    0    0 -0.00000000000E+00 -0.00000000000E+00 -0.45593999997E+02  0.45594000000E+02  0.51100000000E-03 0. -1.
    9900012    2    1    2    0    0 -0.18689800503E+02 -0.64954108066E+01 -0.38628016817E+02  0.47787277799E+02  0.20000030798E+02 0.  0.
        -12    1    1    2    0    0  0.18689800503E+02  0.64954108066E+01  0.38628016817E+02  0.43400722201E+02  0.00000000000E+00 0.  1.
         11    1    3    3    0    0 -0.61220375348E+01  0.44326222263E+01 -0.19194281123E+02  0.20628812652E+02  0.51100000000E-03 0. -1.
        -11    1    3    3    0    0 -0.13960758074E+02 -0.93221203151E+01 -0.16527156470E+02  0.23557410605E+02  0.51100000000E-03 0.  1.
        -12    1    3    3    0    0  0.13929951067E+01 -0.16059127178E+01 -0.29065792240E+01  0.36010545414E+01  0.00000000000E+00 0.  1.
</event>
<event>
 7    1  0.2886681E-010  0.4778727E+02  0.7816164E-02  0.1312668E+00
        -11   -1    0    0    0    0  0.00000000000E+00  0.00000000000E+00  0.45593999997E+02  0.45594000000E+02  0.51100000000E-03 0.  1.
         11   -1    0    0    0    0 -0.00000000000E+00 -0.00000000000E+00 -0.45593999997E+02  0.45594000000E+02  0.51100000000E-03 0. -1.
    9900012    2    1    2    0    0 -0.30964344969E+02  0.38090188083E+01 -0.30171576567E+02  0.47787270558E+02  0.19999997780E+02 0.  0.
        -12    1    1    2    0    0  0.30964344969E+02 -0.38090188083E+01  0.30171576567E+02  0.43400729442E+02  0.00000000000E+00 0.  1.
         11    1    3    3    0    0 -0.58025369433E+01  0.38394083234E+01  0.66929546415E+00  0.69898818253E+01  0.51100000000E-03 0. -1.
        -11    1    3    3    0    0 -0.98884316087E+00 -0.15734631854E+01 -0.52117593185E+01  0.55331756386E+01  0.51100000000E-03 0.  1.
         12    1    3    3    0    0 -0.24172964864E+02  0.15430736703E+01 -0.25629112712E+02  0.35264213094E+02  0.00000000000E+00 0. -1.
</event>
<event>
 7    1  0.2886681E-010  0.4778727E+02  0.7816164E-02  0.1312668E+00
        -11   -1    0    0    0    0  0.00000000000E+00  0.00000000000E+00  0.45593999997E+02  0.45594000000E+02  0.51100000000E-03 0.  1.
         11   -1    0    0    0    0 -0.00000000000E+00 -0.00000000000E+00 -0.45593999997E+02  0.45594000000E+02  0.51100000000E-03 0. -1.
    9900012    2    1    2    0    0  0.19522010786E+02 -0.34021195365E+02 -0.18576132549E+02  0.47787270286E+02  0.19999996544E+02 0.  0.
        -12    1    1    2    0    0 -0.19522010786E+02  0.34021195365E+02  0.18576132549E+02  0.43400729714E+02  0.00000000000E+00 0.  1.
         11    1    3    3    0    0  0.40550403837E+01 -0.18796863922E+02 -0.45718011168E+01  0.19765293105E+02  0.51100000000E-03 0. -1.
        -11    1    3    3    0    0  0.89649569396E+01 -0.70508242317E+01 -0.13347954819E+02  0.17557120304E+02  0.51100000000E-03 0.  1.
        -12    1    3    3    0    0  0.65020134626E+01 -0.81735072107E+01 -0.65637661384E+00  0.10464856877E+02  0.00000000000E+00 0.  1.
</event>
<event>
 7    1  0.2886681E-010  0.4778727E+02  0.7816164E-02  0.1312668E+00
        -11   -1    0    0    0    0  0.00000000000E+00  0.00000000000E+00  0.45593999997E+02  0.45594000000E+02  0.51100000000E-03 0.  1.
         11   -1    0    0    0    0 -0.00000000000E+00 -0.00000000000E+00 -0.45593999997E+02  0.45594000000E+02  0.51100000000E-03 0. -1.
    9900012    2    1    2    0    0 -0.45036300492E+01 -0.23579662255E+02 -0.36157161944E+02  0.47787268260E+02  0.19999987306E+02 0.  0.
        -12    1    1    2    0    0  0.45036300492E+01  0.23579662255E+02  0.36157161944E+02  0.43400731740E+02  0.00000000000E+00 0.  1.
         11    1    3    3    0    0  0.66773960926E+00  0.14513562804E+01 -0.48566190431E+01  0.51126372871E+01  0.51100000000E-03 0. -1.
        -11    1    3    3    0    0 -0.38689719410E+01 -0.17998847504E+02 -0.11707812220E+02  0.21817431623E+02  0.51100000000E-03 0.  1.
        -12    1    3    3    0    0 -0.13023977174E+01 -0.70321710316E+01 -0.19592730680E+02  0.20857199351E+02  0.00000000000E+00 0.  1.
</event>
<event>
 7    1  0.2886681E-010  0.4778727E+02  0.7816164E-02  0.1312668E+00
        -11   -1    0    0    0    0  0.00000000000E+00  0.00000000000E+00  0.45593999997E+02  0.45594000000E+02  0.51100000000E-03 0.  1.
         11   -1    0    0    0    0 -0.00000000000E+00 -0.00000000000E+00 -0.45593999997E+02  0.45594000000E+02  0.51100000000E-03 0. -1.
    9900012    2    1    2    0    0 -0.21600670640E+02 -0.25116650721E+02 -0.28039051303E+02  0.47787268284E+02  0.19999987414E+02 0.  0.
        -12    1    1    2    0    0  0.21600670640E+02  0.25116650721E+02  0.28039051303E+02  0.43400731716E+02  0.00000000000E+00 0.  1.
         11    1    3    3    0    0 -0.11084895768E+02 -0.39509811486E+01 -0.55594392119E+01  0.13015088584E+02  0.51100000000E-03 0. -1.
        -11    1    3    3    0    0 -0.42102390030E+01 -0.18637181410E+02 -0.19664835027E+02  0.27418540812E+02  0.51100000000E-03 0.  1.
        -12    1    3    3    0    0 -0.63055358687E+01 -0.25284881624E+01 -0.28147770641E+01  0.73536388883E+01  0.00000000000E+00 0.  1.
</event>
<event>
 7    1  0.2886681E-010  0.4778726E+02  0.7816164E-02  0.1312668E+00
        -11   -1    0    0    0    0  0.00000000000E+00  0.00000000000E+00  0.45593999997E+02  0.45594000000E+02  0.51100000000E-03 0.  1.
         11   -1    0    0    0    0 -0.00000000000E+00 -0.00000000000E+00 -0.45593999997E+02  0.45594000000E+02  0.51100000000E-03 0. -1.
    9900012    2    1    2    0    0 -0.28642029645E+02 -0.32563761740E+02  0.16910504134E+01  0.47787261615E+02  0.19999957009E+02 0.  0.
        -12    1    1    2    0    0  0.28642029645E+02  0.32563761740E+02 -0.16910504134E+01  0.43400738385E+02  0.00000000000E+00 0.  1.
         11    1    3    3    0    0 -0.14485868165E+02 -0.13486673683E+02  0.91271529469E+01  0.21795312907E+02  0.51100000000E-03 0. -1.
        -11    1    3    3    0    0 -0.26052199936E+01 -0.31910217506E+01 -0.45528409501E+01  0.61398820841E+01  0.51100000000E-03 0.  1.
         12    1    3    3    0    0 -0.11550941486E+02 -0.15886066306E+02 -0.28832615833E+01  0.19852066625E+02  0.00000000000E+00 0. -1.
</event>
<event>
 7    1  0.2886681E-010  0.4778727E+02  0.7816164E-02  0.1312668E+00
        -11   -1    0    0    0    0  0.00000000000E+00  0.00000000000E+00  0.45593999997E+02  0.45594000000E+02  0.51100000000E-03 0.  1.
         11   -1    0    0    0    0 -0.00000000000E+00 -0.00000000000E+00 -0.45593999997E+02  0.45594000000E+02  0.51100000000E-03 0. -1.
    9900012    2    1    2    0    0 -0.55576161926E+01 -0.41997072190E+02 -0.94330219739E+01  0.47787273349E+02  0.20000010510E+02 0.  0.
        -12    1    1    2    0    0  0.55576161926E+01  0.41997072190E+02  0.94330219739E+01  0.43400726651E+02  0.00000000000E+00 0.  1.
         11    1    3    3    0    0  0.36605512211E+00 -0.31638185296E+02 -0.73464657285E+00  0.31648830484E+02  0.51100000000E-03 0. -1.
        -11    1    3    3    0    0 -0.19893683921E+01  0.34710152355E+00 -0.22986062418E+01  0.30596824971E+01  0.51100000000E-03 0.  1.
         12    1    3    3    0    0 -0.39343029226E+01 -0.10705988417E+02 -0.63997691593E+01  0.13078760368E+02  0.00000000000E+00 0. -1.
</event>
<event>
 7    1  0.2886681E-010  0.4778727E+02  0.7816164E-02  0.1312668E+00
        -11   -1    0    0    0    0  0.00000000000E+00  0.00000000000E+00  0.45593999997E+02  0.45594000000E+02  0.51100000000E-03 0.  1.
         11   -1    0    0    0    0 -0.00000000000E+00 -0.00000000000E+00 -0.45593999997E+02  0.45594000000E+02  0.51100000000E-03 0. -1.
    9900012    2    1    2    0    0  0.52130588771E+01 -0.68248855719E+01 -0.42542547422E+02  0.47787269740E+02  0.19999994052E+02 0.  0.
        -12    1    1    2    0    0 -0.52130588771E+01  0.68248855719E+01  0.42542547422E+02  0.43400730260E+02  0.00000000000E+00 0.  1.
         11    1    3    3    0    0  0.11212408805E+02 -0.31588685159E+01 -0.31361248362E+02  0.33454812219E+02  0.51100000000E-03 0. -1.
        -11    1    3    3    0    0 -0.16608973428E+01 -0.29473040452E+01 -0.15029816077E+01  0.37019096548E+01  0.51100000000E-03 0.  1.
         12    1    3    3    0    0 -0.43384525849E+01 -0.71871301085E+00 -0.96783174524E+01  0.10630547866E+02  0.00000000000E+00 0. -1.
</event>
<event>
 7    1  0.2886681E-010  0.4778727E+02  0.7816164E-02  0.1312668E+00
        -11   -1    0    0    0    0  0.00000000000E+00  0.00000000000E+00  0.45593999997E+02  0.45594000000E+02  0.51100000000E-03 0.  1.
         11   -1    0    0    0    0 -0.00000000000E+00 -0.00000000000E+00 -0.45593999997E+02  0.45594000000E+02  0.51100000000E-03 0. -1.
    9900012    2    1    2    0    0  0.22958597300E+02 -0.36830991080E+02  0.64456134986E-01  0.47787271337E+02  0.20000001332E+02 0.  0.
        -12    1    1    2    0    0 -0.22958597300E+02  0.36830991080E+02 -0.64456134986E-01  0.43400728663E+02  0.00000000000E+00 0.  1.
         11    1    3    3    0    0  0.83064347616E+00 -0.98476047591E+01 -0.67082758078E+00  0.99053166522E+01  0.51100000000E-03 0. -1.
        -11    1    3    3    0    0  0.20648656211E+02 -0.28681506382E+02 -0.43527954316E+00  0.35343815304E+02  0.51100000000E-03 0.  1.
        -12    1    3    3    0    0  0.14792976133E+01  0.16981200618E+01  0.11705632589E+01  0.25381393807E+01  0.00000000000E+00 0.  1.
</event>
<event>
 7    1  0.2886681E-010  0.4778727E+02  0.7816164E-02  0.1312668E+00
        -11   -1    0    0    0    0  0.00000000000E+00  0.00000000000E+00  0.45593999997E+02  0.45594000000E+02  0.51100000000E-03 0.  1.
         11   -1    0    0    0    0 -0.00000000000E+00 -0.00000000000E+00 -0.45593999997E+02  0.45594000000E+02  0.51100000000E-03 0. -1.
    9900012    2    1    2    0    0 -0.41065245024E+02 -0.84204018295E-01  0.14044997865E+02  0.47787269542E+02  0.19999993151E+02 0.  0.
        -12    1    1    2    0    0  0.41065245024E+02  0.84204018295E-01 -0.14044997865E+02  0.43400730458E+02  0.00000000000E+00 0.  1.
         11    1    3    3    0    0 -0.18335450461E+02 -0.12629877055E+01  0.11588722467E+01  0.18415397544E+02  0.51100000000E-03 0. -1.
        -11    1    3    3    0    0  0.10587815614E+01  0.23491744022E+01  0.12839134840E+01  0.28789013290E+01  0.51100000000E-03 0.  1.
        -12    1    3    3    0    0 -0.23788576125E+02 -0.11703907150E+01  0.11602212135E+02  0.26492970669E+02  0.00000000000E+00 0.  1.
</event>
<event>
 7    1  0.2886681E-010  0.4778727E+02  0.7816164E-02  0.1312668E+00
        -11   -1    0    0    0    0  0.00000000000E+00  0.00000000000E+00  0.45593999997E+02  0.45594000000E+02  0.51100000000E-03 0. -1.
         11   -1    0    0    0    0 -0.00000000000E+00 -0.00000000000E+00 -0.45593999997E+02  0.45594000000E+02  0.51100000000E-03 0.  1.
    9900012    2    1    2    0    0  0.31894192978E+02 -0.58725239213E+01  0.28842631950E+02  0.47787268431E+02  0.19999988083E+02 0.  0.
        -12    1    1    2    0    0 -0.31894192978E+02  0.58725239213E+01 -0.28842631950E+02  0.43400731569E+02  0.00000000000E+00 0.  1.
         11    1    3    3    0    0  0.31939744042E+02 -0.26393272180E+01  0.21705469638E+02  0.38707114463E+02  0.51100000000E-03 0. -1.
        -11    1    3    3    0    0 -0.34490489570E+00 -0.74135691306E+00  0.64173260212E+01  0.64692072917E+01  0.51100000000E-03 0.  1.
         12    1    3    3    0    0  0.29935383200E+00 -0.24918397903E+01  0.71983629105E+00  0.26109466757E+01  0.00000000000E+00 0. -1.
</event>
<event>
 7    1  0.2886681E-010  0.4778727E+02  0.7816164E-02  0.1312668E+00
        -11   -1    0    0    0    0  0.00000000000E+00  0.00000000000E+00  0.45593999997E+02  0.45594000000E+02  0.51100000000E-03 0.  1.
         11   -1    0    0    0    0 -0.00000000000E+00 -0.00000000000E+00 -0.45593999997E+02  0.45594000000E+02  0.51100000000E-03 0. -1.
    9900012    2    1    2    0    0  0.19159663226E+02  0.36919828181E+02 -0.12387767566E+02  0.47787271974E+02  0.20000004241E+02 0.  0.
        -12    1    1    2    0    0 -0.19159663226E+02 -0.36919828181E+02  0.12387767566E+02  0.43400728026E+02  0.00000000000E+00 0.  1.
         11    1    3    3    0    0  0.13260485554E+02  0.11503004935E+02 -0.54232015121E+01  0.18373097577E+02  0.51100000000E-03 0. -1.
        -11    1    3    3    0    0  0.15701403109E+01  0.23670595258E+02 -0.70413973547E+01  0.24745579352E+02  0.51100000000E-03 0.  1.
        -12    1    3    3    0    0  0.43290373603E+01  0.17462279880E+01  0.76831300334E-01  0.46685950459E+01  0.00000000000E+00 0.  1.
</event>
<event>
 7    1  0.2886681E-010  0.4778727E+02  0.7816164E-02  0.1312668E+00
        -11   -1    0    0    0    0  0.00000000000E+00  0.00000000000E+00  0.45593999997E+02  0.45594000000E+02  0.51100000000E-03 0. -1.
         11   -1    0    0    0    0 -0.00000000000E+00 -0.00000000000E+00 -0.45593999997E+02  0.45594000000E+02  0.51100000000E-03 0.  1.
    9900012    2    1    2    0    0  0.37054112650E+02  0.20728964329E+02  0.89958819423E+01  0.47787272836E+02  0.20000008168E+02 0.  0.
        -12    1    1    2    0    0 -0.37054112650E+02 -0.20728964329E+02 -0.89958819423E+01  0.43400727164E+02  0.00000000000E+00 0.  1.
         11    1    3    3    0    0  0.12394325748E+02  0.30085051974E+00 -0.14268985266E+01  0.12479818166E+02  0.51100000000E-03 0. -1.
        -11    1    3    3    0    0  0.12744705228E+02  0.17152999412E+02  0.62435437418E+01  0.22262855587E+02  0.51100000000E-03 0.  1.
        -12    1    3    3    0    0  0.11915081673E+02  0.32751143970E+01  0.41792367271E+01  0.13044599082E+02  0.00000000000E+00 0.  1.
</event>
<event>
 7    1  0.2886681E-010  0.4778727E+02  0.7816164E-02  0.1312668E+00
        -11   -1    0    0    0    0  0.00000000000E+00  0.00000000000E+00  0.45593999997E+02  0.45594000000E+02  0.51100000000E-03 0.  1.
         11   -1    0    0    0    0 -0.00000000000E+00 -0.00000000000E+00 -0.45593999997E+02  0.45594000000E+02  0.51100000000E-03 0. -1.
    9900012    2    1    2    0    0 -0.78026280764E+01  0.84541983568E+01 -0.41848159653E+02  0.47787274878E+02  0.20000017479E+02 0.  0.
        -12    1    1    2    0    0  0.78026280764E+01 -0.84541983568E+01  0.41848159653E+02  0.43400725122E+02  0.00000000000E+00 0.  1.
         11    1    3    3    0    0 -0.25504542031E+00  0.22480277405E+00 -0.88333848102E+01  0.88399248821E+01  0.51100000000E-03 0. -1.
        -11    1    3    3    0    0  0.36160285807E+01 -0.22969875417E+01 -0.29744347528E+01  0.52152734178E+01  0.51100000000E-03 0.  1.
        -12    1    3    3    0    0 -0.11163611237E+02  0.10526383124E+02 -0.30040340090E+02  0.33732076578E+02  0.00000000000E+00 0.  1.
</event>
<event>
 7    1  0.2886681E-010  0.4778728E+02  0.7816164E-02  0.1312668E+00
        -11   -1    0    0    0    0  0.00000000000E+00  0.00000000000E+00  0.45593999997E+02  0.45594000000E+02  0.51100000000E-03 0.  1.
         11   -1    0    0    0    0 -0.00000000000E+00 -0.00000000000E+00 -0.45593999997E+02  0.45594000000E+02  0.51100000000E-03 0. -1.
    9900012    2    1    2    0    0 -0.22521972515E+01  0.56802434182E+01 -0.42968422022E+02  0.47787275942E+02  0.20000022328E+02 0.  0.
        -12    1    1    2    0    0  0.22521972515E+01 -0.56802434182E+01  0.42968422022E+02  0.43400724058E+02  0.00000000000E+00 0.  1.
         11    1    3    3    0    0 -0.21730954663E+01  0.23581782058E+01  0.27727855863E+00  0.32187314296E+01  0.51100000000E-03 0. -1.
        -11    1    3    3    0    0  0.43609951287E+01  0.71329515200E+00 -0.30553285331E+02  0.30871189048E+02  0.51100000000E-03 0.  1.
         12    1    3    3    0    0 -0.44400969139E+01  0.26087700603E+01 -0.12692415250E+02  0.13697355464E+02  0.00000000000E+00 0. -1.
</event>
<event>
 7    1  0.2886681E-010  0.4778727E+02  0.7816164E-02  0.1312668E+00
        -11   -1    0    0    0    0  0.00000000000E+00  0.00000000000E+00  0.45593999997E+02  0.45594000000E+02  0.51100000000E-03 0.  1.
         11   -1    0    0    0    0 -0.00000000000E+00 -0.00000000000E+00 -0.45593999997E+02  0.45594000000E+02  0.51100000000E-03 0. -1.
    9900012    2    1    2    0    0 -0.26975441787E+02  0.25416749956E+02 -0.22581796202E+02  0.47787272384E+02  0.20000006107E+02 0.  0.
        -12    1    1    2    0    0  0.26975441787E+02 -0.25416749956E+02  0.22581796202E+02  0.43400727616E+02  0.00000000000E+00 0.  1.
         11    1    3    3    0    0 -0.73828836625E+01  0.13193330545E+02 -0.15700911199E+02  0.21796549149E+02  0.51100000000E-03 0. -1.
        -11    1    3    3    0    0 -0.19122662338E+02  0.12886425819E+02 -0.45257525382E+01  0.23499332365E+02  0.51100000000E-03 0.  1.
        -12    1    3    3    0    0 -0.46989578636E+00 -0.66300640769E+00 -0.23551324641E+01  0.24913908706E+01  0.00000000000E+00 0.  1.
</event>
<event>
 7    1  0.2886681E-010  0.4778727E+02  0.7816164E-02  0.1312668E+00
        -11   -1    0    0    0    0  0.00000000000E+00  0.00000000000E+00  0.45593999997E+02  0.45594000000E+02  0.51100000000E-03 0.  1.
         11   -1    0    0    0    0 -0.00000000000E+00 -0.00000000000E+00 -0.45593999997E+02  0.45594000000E+02  0.51100000000E-03 0. -1.
    9900012    2    1    2    0    0  0.37148258658E+02  0.77528851608E+01 -0.21059983948E+02  0.47787271048E+02  0.20000000018E+02 0.  0.
        -12    1    1    2    0    0 -0.37148258658E+02 -0.77528851608E+01  0.21059983948E+02  0.43400728952E+02  0.00000000000E+00 0.  1.
         11    1    3    3    0    0  0.15099651411E+02  0.88656944341E+00 -0.14741656931E+02  0.21121125146E+02  0.51100000000E-03 0. -1.
        -11    1    3    3    0    0  0.18689020984E+02  0.71824492032E+01 -0.60510004963E+00  0.20030806979E+02  0.51100000000E-03 0.  1.
        -12    1    3    3    0    0  0.33595862629E+01 -0.31613348582E+00 -0.57132269682E+01  0.66353389234E+01  0.00000000000E+00 0.  1.
</event>
<event>
 7    1  0.2886681E-010  0.4778726E+02  0.7816164E-02  0.1312668E+00
        -11   -1    0    0    0    0  0.00000000000E+00  0.00000000000E+00  0.45593999997E+02  0.45594000000E+02  0.51100000000E-03 0.  1.
         11   -1    0    0    0    0 -0.00000000000E+00 -0.00000000000E+00 -0.45593999997E+02  0.45594000000E+02  0.51100000000E-03 0. -1.
    9900012    2    1    2    0    0 -0.36549836528E+02 -0.23297689629E+02 -0.22250859703E+01  0.47787263832E+02  0.19999967117E+02 0.  0.
        -12    1    1    2    0    0  0.36549836528E+02  0.23297689629E+02  0.22250859703E+01  0.43400736168E+02  0.00000000000E+00 0.  1.
         11    1    3    3    0    0 -0.98264561240E+01  0.12957048920E+01 -0.38087467798E+01  0.10618128056E+02  0.51100000000E-03 0. -1.
        -11    1    3    3    0    0 -0.70557873144E+01 -0.11493003063E+02  0.11341120517E+01  0.13533641950E+02  0.51100000000E-03 0.  1.
         12    1    3    3    0    0 -0.19667593090E+02 -0.13100391459E+02  0.44954875779E+00  0.23635493826E+02  0.00000000000E+00 0. -1.
</event>
<event>
 7    1  0.2886681E-010  0.4778726E+02  0.7816164E-02  0.1312668E+00
        -11   -1    0    0    0    0  0.00000000000E+00  0.00000000000E+00  0.45593999997E+02  0.45594000000E+02  0.51100000000E-03 0.  1.
         11   -1    0    0    0    0 -0.00000000000E+00 -0.00000000000E+00 -0.45593999997E+02  0.45594000000E+02  0.51100000000E-03 0. -1.
    9900012    2    1    2    0    0  0.37792447756E+02 -0.51724946086E+01 -0.20702668718E+02  0.47787259223E+02  0.19999946103E+02 0.  0.
        -12    1    1    2    0    0 -0.37792447756E+02  0.51724946086E+01  0.20702668718E+02  0.43400740777E+02  0.00000000000E+00 0.  1.
         11    1    3    3    0    0  0.26823866291E+01 -0.33776107217E+01 -0.11047290634E+01  0.44524014621E+01  0.51100000000E-03 0. -1.
        -11    1    3    3    0    0  0.16043131599E+02  0.19526296489E+01 -0.62026987331E+00  0.16173421686E+02  0.51100000000E-03 0.  1.
        -12    1    3    3    0    0  0.19066929528E+02 -0.37475135358E+01 -0.18977669782E+02  0.27161436075E+02  0.00000000000E+00 0.  1.
</event>
<event>
 7    1  0.2886681E-010  0.4778727E+02  0.7816164E-02  0.1312668E+00
        -11   -1    0    0    0    0  0.00000000000E+00  0.00000000000E+00  0.45593999997E+02  0.45594000000E+02  0.51100000000E-03 0.  1.
         11   -1    0    0    0    0 -0.00000000000E+00 -0.00000000000E+00 -0.45593999997E+02  0.45594000000E+02  0.51100000000E-03 0. -1.
    9900012    2    1    2    0    0 -0.11303676883E+02  0.84318916138E+01 -0.41045745093E+02  0.47787273076E+02  0.20000009262E+02 0.  0.
        -12    1    1    2    0    0  0.11303676883E+02 -0.84318916138E+01  0.41045745093E+02  0.43400726924E+02  0.00000000000E+00 0.  1.
         11    1    3    3    0    0  0.25881711566E+01 -0.44431160374E+01 -0.62886908609E+01  0.81232716970E+01  0.51100000000E-03 0. -1.
        -11    1    3    3    0    0 -0.73302483598E+01  0.64797744962E+01 -0.15351865723E+02  0.18204389580E+02  0.51100000000E-03 0.  1.
         12    1    3    3    0    0 -0.65615996802E+01  0.63952331550E+01 -0.19405188510E+02  0.21459611799E+02  0.00000000000E+00 0. -1.
</event>
<event>
 7    1  0.2886681E-010  0.4778727E+02  0.7816164E-02  0.1312668E+00
        -11   -1    0    0    0    0  0.00000000000E+00  0.00000000000E+00  0.45593999997E+02  0.45594000000E+02  0.51100000000E-03 0.  1.
         11   -1    0    0    0    0 -0.00000000000E+00 -0.00000000000E+00 -0.45593999997E+02  0.45594000000E+02  0.51100000000E-03 0. -1.
    9900012    2    1    2    0    0  0.81703321580E+01 -0.31744634553E+02 -0.28445507801E+02  0.47787273457E+02  0.20000010998E+02 0.  0.
        -12    1    1    2    0    0 -0.81703321580E+01  0.31744634553E+02  0.28445507801E+02  0.43400726543E+02  0.00000000000E+00 0.  1.
         11    1    3    3    0    0  0.31363335781E+01 -0.17633188687E+02 -0.37928887568E+01  0.18307155349E+02  0.51100000000E-03 0. -1.
        -11    1    3    3    0    0  0.21685449917E+01 -0.32110030634E+01 -0.11624896893E+02  0.12253626242E+02  0.51100000000E-03 0.  1.
         12    1    3    3    0    0  0.28654535882E+01 -0.10900442802E+02 -0.13027722151E+02  0.17226491865E+02  0.00000000000E+00 0. -1.
</event>
<event>
 7    1  0.2886681E-010  0.4778727E+02  0.7816164E-02  0.1312668E+00
        -11   -1    0    0    0    0  0.00000000000E+00  0.00000000000E+00  0.45593999997E+02  0.45594000000E+02  0.51100000000E-03 0. -1.
         11   -1    0    0    0    0 -0.00000000000E+00 -0.00000000000E+00 -0.45593999997E+02  0.45594000000E+02  0.51100000000E-03 0.  1.
    9900012    2    1    2    0    0 -0.37136959133E+02  0.13304039098E+02  0.18096190113E+02  0.47787270898E+02  0.19999999333E+02 0.  0.
        -12    1    1    2    0    0  0.37136959133E+02 -0.13304039098E+02 -0.18096190113E+02  0.43400729102E+02  0.00000000000E+00 0.  1.
         11    1    3    3    0    0 -0.28172403728E+02  0.12692051570E+02  0.12693732267E+02  0.33405139485E+02  0.51100000000E-03 0. -1.
        -11    1    3    3    0    0 -0.91224206135E+01  0.17342579045E+01  0.44465873816E+00  0.92964471700E+01  0.51100000000E-03 0.  1.
         12    1    3    3    0    0  0.15786520833E+00 -0.11222703773E+01  0.49577991085E+01  0.50856842434E+01  0.00000000000E+00 0. -1.
</event>
<event>
 7    1  0.2886681E-010  0.4778727E+02  0.7816164E-02  0.1312668E+00
        -11   -1    0    0    0    0  0.00000000000E+00  0.00000000000E+00  0.45593999997E+02  0.45594000000E+02  0.51100000000E-03 0.  1.
         11   -1    0    0    0    0 -0.00000000000E+00 -0.00000000000E+00 -0.45593999997E+02  0.45594000000E+02  0.51100000000E-03 0. -1.
    9900012    2    1    2    0    0 -0.50103871472E+01  0.39827519782E+02  0.16501158075E+02  0.47787268103E+02  0.19999986590E+02 0.  0.
        -12    1    1    2    0    0  0.50103871472E+01 -0.39827519782E+02 -0.16501158075E+02  0.43400731897E+02  0.00000000000E+00 0.  1.
         11    1    3    3    0    0 -0.25783000460E+01  0.59286465868E+01 -0.26584233907E+01  0.69902572673E+01  0.51100000000E-03 0. -1.
        -11    1    3    3    0    0  0.32120607991E+01  0.25927275004E+02  0.12401334808E+02  0.28919440330E+02  0.51100000000E-03 0.  1.
        -12    1    3    3    0    0 -0.56441479003E+01  0.79715981910E+01  0.67582466576E+01  0.11877570506E+02  0.00000000000E+00 0.  1.
</event>
<event>
 7    1  0.2886681E-010  0.4778727E+02  0.7816164E-02  0.1312668E+00
        -11   -1    0    0    0    0  0.00000000000E+00  0.00000000000E+00  0.45593999997E+02  0.45594000000E+02  0.51100000000E-03 0.  1.
         11   -1    0    0    0    0 -0.00000000000E+00 -0.00000000000E+00 -0.45593999997E+02  0.45594000000E+02  0.51100000000E-03 0. -1.
    9900012    2    1    2    0    0  0.95311332840E+01 -0.24383628740E+02 -0.34615303554E+02  0.47787273136E+02  0.20000009536E+02 0.  0.
        -12    1    1    2    0    0 -0.95311332840E+01  0.24383628740E+02  0.34615303554E+02  0.43400726864E+02  0.00000000000E+00 0.  1.
         11    1    3    3    0    0  0.23366821469E+01 -0.42090961178E+01 -0.62031575305E+01  0.78521167333E+01  0.51100000000E-03 0. -1.
        -11    1    3    3    0    0  0.95067867828E+01 -0.21890035914E+02 -0.20313485391E+02  0.31339916341E+02  0.51100000000E-03 0.  1.
        -12    1    3    3    0    0 -0.23123356457E+01  0.17155032918E+01 -0.80986606326E+01  0.85952400620E+01  0.00000000000E+00 0.  1.
</event>
<event>
 7    1  0.2886681E-010  0.4778727E+02  0.7816164E-02  0.1312668E+00
        -11   -1    0    0    0    0  0.00000000000E+00  0.00000000000E+00  0.45593999997E+02  0.45594000000E+02  0.51100000000E-03 0. -1.
         11   -1    0    0    0    0 -0.00000000000E+00 -0.00000000000E+00 -0.45593999997E+02  0.45594000000E+02  0.51100000000E-03 0.  1.
    9900012    2    1    2    0    0  0.11052425704E+02  0.41943433167E+02  0.14884266869E+01  0.47787272888E+02  0.20000008407E+02 0.  0.
        -12    1    1    2    0    0 -0.11052425704E+02 -0.41943433167E+02 -0.14884266869E+01  0.43400727112E+02  0.00000000000E+00 0.  1.
         11    1    3    3    0    0  0.92166664423E+01  0.16094277761E+02 -0.57132031756E+01  0.19406530029E+02  0.51100000000E-03 0. -1.
        -11    1    3    3    0    0  0.40816450815E+01  0.61981545498E+01  0.37061139854E+01  0.82953135882E+01  0.51100000000E-03 0.  1.
         12    1    3    3    0    0 -0.22458858200E+01  0.19651000856E+02  0.34955158771E+01  0.20085429271E+02  0.00000000000E+00 0. -1.
</event>
<event>
 7    1  0.2886681E-010  0.4778727E+02  0.7816164E-02  0.1312668E+00
        -11   -1    0    0    0    0  0.00000000000E+00  0.00000000000E+00  0.45593999997E+02  0.45594000000E+02  0.51100000000E-03 0. -1.
         11   -1    0    0    0    0 -0.00000000000E+00 -0.00000000000E+00 -0.45593999997E+02  0.45594000000E+02  0.51100000000E-03 0.  1.
    9900012    2    1    2    0    0 -0.38159009629E+02  0.20630616977E+02  0.13750707786E+01  0.47787271983E+02  0.20000004281E+02 0.  0.
        -12    1    1    2    0    0  0.38159009629E+02 -0.20630616977E+02 -0.13750707786E+01  0.43400728017E+02  0.00000000000E+00 0.  1.
         11    1    3    3    0    0 -0.10040641484E+02 -0.33293516873E+00 -0.43726796394E+01  0.10956534796E+02  0.51100000000E-03 0. -1.
        -11    1    3    3    0    0 -0.60862702496E+01  0.31301459803E+01  0.49998505263E+01  0.84757893412E+01  0.51100000000E-03 0.  1.
         12    1    3    3    0    0 -0.22032097896E+02  0.17833406165E+02  0.74789989165E+00  0.28354947846E+02  0.00000000000E+00 0. -1.
</event>
<event>
 7    1  0.2886681E-010  0.4778727E+02  0.7816164E-02  0.1312668E+00
        -11   -1    0    0    0    0  0.00000000000E+00  0.00000000000E+00  0.45593999997E+02  0.45594000000E+02  0.51100000000E-03 0.  1.
         11   -1    0    0    0    0 -0.00000000000E+00 -0.00000000000E+00 -0.45593999997E+02  0.45594000000E+02  0.51100000000E-03 0. -1.
    9900012    2    1    2    0    0 -0.16289548978E+02 -0.19319910385E+02 -0.35284770175E+02  0.47787270173E+02  0.19999996028E+02 0.  0.
        -12    1    1    2    0    0  0.16289548978E+02  0.19319910385E+02  0.35284770175E+02  0.43400729827E+02  0.00000000000E+00 0.  1.
         11    1    3    3    0    0 -0.19980670126E+01 -0.76083667208E+01 -0.85913179230E+01  0.11648616221E+02  0.51100000000E-03 0. -1.
        -11    1    3    3    0    0 -0.13750692487E+02 -0.15272278364E+02 -0.20856489681E+02  0.29279979378E+02  0.51100000000E-03 0.  1.
        -12    1    3    3    0    0 -0.54078947869E+00  0.35607347002E+01 -0.58369625706E+01  0.68586745743E+01  0.00000000000E+00 0.  1.
</event>
<event>
 7    1  0.2886681E-010  0.4778728E+02  0.7816164E-02  0.1312668E+00
        -11   -1    0    0    0    0  0.00000000000E+00  0.00000000000E+00  0.45593999997E+02  0.45594000000E+02  0.51100000000E-03 0. -1.
         11   -1    0    0    0    0 -0.00000000000E+00 -0.00000000000E+00 -0.45593999997E+02  0.45594000000E+02  0.51100000000E-03 0.  1.
    9900012    2    1    2    0    0 -0.62902189241E+01  0.40555177015E+02 -0.14118555827E+02  0.47787275865E+02  0.20000021978E+02 0.  0.
        -12    1    1    2    0    0  0.62902189241E+01 -0.40555177015E+02  0.14118555827E+02  0.43400724135E+02  0.00000000000E+00 0.  1.
         11    1    3    3    0    0 -0.47757348596E+01  0.29362321251E+02 -0.22327760402E+01  0.29831842749E+02  0.51100000000E-03 0. -1.
        -11    1    3    3    0    0 -0.39726831875E+01  0.55370401907E+01 -0.85841105500E+01  0.10960291054E+02  0.51100000000E-03 0.  1.
        -12    1    3    3    0    0  0.24581991230E+01  0.56558155738E+01 -0.33016692363E+01  0.69951420628E+01  0.00000000000E+00 0.  1.
</event>
<event>
 7    1  0.2886681E-010  0.4778727E+02  0.7816164E-02  0.1312668E+00
        -11   -1    0    0    0    0  0.00000000000E+00  0.00000000000E+00  0.45593999997E+02  0.45594000000E+02  0.51100000000E-03 0. -1.
         11   -1    0    0    0    0 -0.00000000000E+00 -0.00000000000E+00 -0.45593999997E+02  0.45594000000E+02  0.51100000000E-03 0.  1.
    9900012    2    1    2    0    0  0.27820848567E+02  0.10838479763E+02  0.31498427834E+02  0.47787271727E+02  0.20000003113E+02 0.  0.
        -12    1    1    2    0    0 -0.27820848567E+02 -0.10838479763E+02 -0.31498427834E+02  0.43400728273E+02  0.00000000000E+00 0.  1.
         11    1    3    3    0    0  0.17578972700E+02  0.50818517805E+01  0.25090702785E+02  0.31054611014E+02  0.51100000000E-03 0. -1.
        -11    1    3    3    0    0 -0.14095316044E+01 -0.64508824956E+00  0.23824805057E+01  0.28423813634E+01  0.51100000000E-03 0.  1.
         12    1    3    3    0    0  0.11651407472E+02  0.64017162317E+01  0.40252445433E+01  0.13890279350E+02  0.00000000000E+00 0. -1.
</event>
<event>
 7    1  0.4796139E-010  0.4778727E+02  0.7816164E-02  0.1312668E+00
        -11   -1    0    0    0    0  0.00000000000E+00  0.00000000000E+00  0.45593999997E+02  0.45594000000E+02  0.51100000000E-03 0. -1.
         11   -1    0    0    0    0 -0.00000000000E+00 -0.00000000000E+00 -0.45593999997E+02  0.45594000000E+02  0.51100000000E-03 0.  1.
    9900012    2    1    2    0    0  0.76448516681E+01 -0.30906222586E+02  0.29495508439E+02  0.47787269941E+02  0.19999994968E+02 0.  0.
        -12    1    1    2    0    0 -0.76448516681E+01  0.30906222586E+02 -0.29495508439E+02  0.43400730059E+02  0.00000000000E+00 0.  1.
         11    1    3    3    0    0  0.15239470655E+01 -0.22099362355E+02  0.17935193647E+02  0.28502199960E+02  0.51100000000E-03 0. -1.
        -11    1    3    3    0    0 -0.58987838917E+00  0.84262663712E+00 -0.14333075718E+01  0.17641845199E+01  0.51100000000E-03 0.  1.
         12    1    3    3    0    0  0.67107829918E+01 -0.96494868686E+01  0.12993622364E+02  0.17520885461E+02  0.00000000000E+00 0. -1.
</event>
<event>
 7    1  0.2886681E-010  0.4778727E+02  0.7816164E-02  0.1312668E+00
        -11   -1    0    0    0    0  0.00000000000E+00  0.00000000000E+00  0.45593999997E+02  0.45594000000E+02  0.51100000000E-03 0.  1.
         11   -1    0    0    0    0 -0.00000000000E+00 -0.00000000000E+00 -0.45593999997E+02  0.45594000000E+02  0.51100000000E-03 0. -1.
    9900012    2    1    2    0    0  0.28224980917E+02 -0.18706394094E+02 -0.27148566383E+02  0.47787269771E+02  0.19999994193E+02 0.  0.
        -12    1    1    2    0    0 -0.28224980917E+02  0.18706394094E+02  0.27148566383E+02  0.43400730229E+02  0.00000000000E+00 0.  1.
         11    1    3    3    0    0  0.48253657414E+01 -0.70606084034E+01  0.54588900994E+00  0.85693839123E+01  0.51100000000E-03 0. -1.
        -11    1    3    3    0    0  0.67189177761E+01 -0.62969382178E+01 -0.47812753974E+01  0.10375735236E+02  0.51100000000E-03 0.  1.
         12    1    3    3    0    0  0.16680697399E+02 -0.53488474732E+01 -0.22913179996E+02  0.28842150622E+02  0.00000000000E+00 0. -1.
</event>
<event>
 7    1  0.2886681E-010  0.4778727E+02  0.7816164E-02  0.1312668E+00
        -11   -1    0    0    0    0  0.00000000000E+00  0.00000000000E+00  0.45593999997E+02  0.45594000000E+02  0.51100000000E-03 0.  1.
         11   -1    0    0    0    0 -0.00000000000E+00 -0.00000000000E+00 -0.45593999997E+02  0.45594000000E+02  0.51100000000E-03 0. -1.
    9900012    2    1    2    0    0  0.58937801582E+01 -0.40566922415E+02  0.14255221258E+02  0.47787272219E+02  0.20000005356E+02 0.  0.
        -12    1    1    2    0    0 -0.58937801582E+01  0.40566922415E+02 -0.14255221258E+02  0.43400727781E+02  0.00000000000E+00 0.  1.
         11    1    3    3    0    0  0.44596403436E+00 -0.21277339318E+02  0.14673183446E+02  0.25850074759E+02  0.51100000000E-03 0. -1.
        -11    1    3    3    0    0 -0.11631206637E+01 -0.19555451339E+01  0.22434964888E+01  0.31953533772E+01  0.51100000000E-03 0.  1.
         12    1    3    3    0    0  0.66109367875E+01 -0.17334037964E+02 -0.26614586769E+01  0.18741844083E+02  0.00000000000E+00 0. -1.
</event>
<event>
 7    1  0.2886681E-010  0.4778727E+02  0.7816164E-02  0.1312668E+00
        -11   -1    0    0    0    0  0.00000000000E+00  0.00000000000E+00  0.45593999997E+02  0.45594000000E+02  0.51100000000E-03 0.  1.
         11   -1    0    0    0    0 -0.00000000000E+00 -0.00000000000E+00 -0.45593999997E+02  0.45594000000E+02  0.51100000000E-03 0. -1.
    9900012    2    1    2    0    0 -0.33014447729E+02 -0.19310793330E+02 -0.20512503298E+02  0.47787270865E+02  0.19999999181E+02 0.  0.
        -12    1    1    2    0    0  0.33014447729E+02  0.19310793330E+02  0.20512503298E+02  0.43400729135E+02  0.00000000000E+00 0.  1.
         11    1    3    3    0    0 -0.24646263854E+02 -0.14808798308E+02 -0.20235601067E+02  0.35159897328E+02  0.51100000000E-03 0. -1.
        -11    1    3    3    0    0 -0.98644378203E+01 -0.43701914847E+01  0.73837260372E+00  0.10814384009E+02  0.51100000000E-03 0.  1.
         12    1    3    3    0    0  0.14962539448E+01 -0.13180353720E+00 -0.10152748351E+01  0.18129895285E+01  0.00000000000E+00 0. -1.
</event>
<event>
 7    1  0.2886681E-010  0.4778727E+02  0.7816164E-02  0.1312668E+00
        -11   -1    0    0    0    0  0.00000000000E+00  0.00000000000E+00  0.45593999997E+02  0.45594000000E+02  0.51100000000E-03 0.  1.
         11   -1    0    0    0    0 -0.00000000000E+00 -0.00000000000E+00 -0.45593999997E+02  0.45594000000E+02  0.51100000000E-03 0. -1.
    9900012    2    1    2    0    0  0.70761399655E+01  0.83037030681E+01 -0.42007141818E+02  0.47787271836E+02  0.20000003608E+02 0.  0.
        -12    1    1    2    0    0 -0.70761399655E+01 -0.83037030681E+01  0.42007141818E+02  0.43400728164E+02  0.00000000000E+00 0.  1.
         11    1    3    3    0    0 -0.49708944036E+00 -0.22916043822E+01  0.54449421142E+00  0.24072853515E+01  0.51100000000E-03 0. -1.
        -11    1    3    3    0    0 -0.44060822015E+00  0.17762330498E+01 -0.86605012521E+00  0.20246438036E+01  0.51100000000E-03 0.  1.
         12    1    3    3    0    0  0.80138376260E+01  0.88190744006E+01 -0.41685585904E+02  0.43355342681E+02  0.00000000000E+00 0. -1.
</event>
<event>
 7    1  0.2886681E-010  0.4778727E+02  0.7816164E-02  0.1312668E+00
        -11   -1    0    0    0    0  0.00000000000E+00  0.00000000000E+00  0.45593999997E+02  0.45594000000E+02  0.51100000000E-03 0.  1.
         11   -1    0    0    0    0 -0.00000000000E+00 -0.00000000000E+00 -0.45593999997E+02  0.45594000000E+02  0.51100000000E-03 0. -1.
    9900012    2    1    2    0    0  0.24907940702E+02  0.35377752559E+02  0.34106365426E+01  0.47787270424E+02  0.19999997172E+02 0.  0.
        -12    1    1    2    0    0 -0.24907940702E+02 -0.35377752559E+02 -0.34106365426E+01  0.43400729576E+02  0.00000000000E+00 0.  1.
         11    1    3    3    0    0  0.57737042813E+01  0.16579790444E+02  0.97837701421E+01  0.20098439510E+02  0.51100000000E-03 0. -1.
        -11    1    3    3    0    0  0.61748588493E+01  0.50269411183E+01 -0.28265446839E+01  0.84491640963E+01  0.51100000000E-03 0.  1.
         12    1    3    3    0    0  0.12959377571E+02  0.13771020997E+02 -0.35465889157E+01  0.19239666818E+02  0.00000000000E+00 0. -1.
</event>
<event>
 7    1  0.2886681E-010  0.4778726E+02  0.7816164E-02  0.1312668E+00
        -11   -1    0    0    0    0  0.00000000000E+00  0.00000000000E+00  0.45593999997E+02  0.45594000000E+02  0.51100000000E-03 0.  1.
         11   -1    0    0    0    0 -0.00000000000E+00 -0.00000000000E+00 -0.45593999997E+02  0.45594000000E+02  0.51100000000E-03 0. -1.
    9900012    2    1    2    0    0 -0.13589971133E+02  0.24860433273E+02 -0.32876974936E+02  0.47787263383E+02  0.19999965070E+02 0.  0.
        -12    1    1    2    0    0  0.13589971133E+02 -0.24860433273E+02  0.32876974936E+02  0.43400736617E+02  0.00000000000E+00 0.  1.
         11    1    3    3    0    0 -0.26299438373E+01  0.10631276307E+02 -0.17671668333E+02  0.20790105878E+02  0.51100000000E-03 0. -1.
        -11    1    3    3    0    0 -0.97038046318E+01  0.11181559879E+02 -0.40270761116E+01  0.15343026035E+02  0.51100000000E-03 0.  1.
        -12    1    3    3    0    0 -0.12562226637E+01  0.30475970877E+01 -0.11178230492E+02  0.11654131470E+02  0.00000000000E+00 0.  1.
</event>
<event>
 7    1  0.2886681E-010  0.4778727E+02  0.7816164E-02  0.1312668E+00
        -11   -1    0    0    0    0  0.00000000000E+00  0.00000000000E+00  0.45593999997E+02  0.45594000000E+02  0.51100000000E-03 0.  1.
         11   -1    0    0    0    0 -0.00000000000E+00 -0.00000000000E+00 -0.45593999997E+02  0.45594000000E+02  0.51100000000E-03 0. -1.
    9900012    2    1    2    0    0 -0.38550234788E+02  0.26008788669E+01 -0.19767102759E+02  0.47787268156E+02  0.19999986832E+02 0.  0.
        -12    1    1    2    0    0  0.38550234788E+02 -0.26008788669E+01  0.19767102759E+02  0.43400731844E+02  0.00000000000E+00 0.  1.
         11    1    3    3    0    0 -0.96518390066E+01 -0.95842230006E+00  0.29974689573E+01  0.10151915579E+02  0.51100000000E-03 0.  1.
        -11    1    3    3    0    0 -0.23769503770E+02  0.55948451042E+01 -0.17870416883E+02  0.30259600147E+02  0.51100000000E-03 0. -1.
        -12    1    3    3    0    0 -0.51288920112E+01 -0.20355439373E+01 -0.48941548337E+01  0.73757524307E+01  0.00000000000E+00 0.  1.
</event>
<event>
 7    1  0.2886681E-010  0.4778727E+02  0.7816164E-02  0.1312668E+00
        -11   -1    0    0    0    0  0.00000000000E+00  0.00000000000E+00  0.45593999997E+02  0.45594000000E+02  0.51100000000E-03 0.  1.
         11   -1    0    0    0    0 -0.00000000000E+00 -0.00000000000E+00 -0.45593999997E+02  0.45594000000E+02  0.51100000000E-03 0. -1.
    9900012    2    1    2    0    0 -0.35162719806E+02 -0.15683305670E+02 -0.20030986199E+02  0.47787270178E+02  0.19999996051E+02 0.  0.
        -12    1    1    2    0    0  0.35162719806E+02  0.15683305670E+02  0.20030986199E+02  0.43400729822E+02  0.00000000000E+00 0.  1.
         11    1    3    3    0    0 -0.25505754160E+02 -0.31708534454E+01 -0.96885032671E+01  0.27467524509E+02  0.51100000000E-03 0. -1.
        -11    1    3    3    0    0 -0.62668849299E+01 -0.11614270277E+02 -0.53995174539E+01  0.14259029062E+02  0.51100000000E-03 0.  1.
         12    1    3    3    0    0 -0.33900807170E+01 -0.89818194797E+00 -0.49429654783E+01  0.60607166077E+01  0.00000000000E+00 0. -1.
</event>
<event>
 7    1  0.2886681E-010  0.4778726E+02  0.7816164E-02  0.1312668E+00
        -11   -1    0    0    0    0  0.00000000000E+00  0.00000000000E+00  0.45593999997E+02  0.45594000000E+02  0.51100000000E-03 0. -1.
         11   -1    0    0    0    0 -0.00000000000E+00 -0.00000000000E+00 -0.45593999997E+02  0.45594000000E+02  0.51100000000E-03 0.  1.
    9900012    2    1    2    0    0  0.41700868619E+02  0.11143890538E+02 -0.45249517285E+01  0.47787263508E+02  0.19999965640E+02 0.  0.
        -12    1    1    2    0    0 -0.41700868619E+02 -0.11143890538E+02  0.45249517285E+01  0.43400736492E+02  0.00000000000E+00 0.  1.
         11    1    3    3    0    0  0.89382606155E+01  0.53739558784E+01 -0.71771344655E+01  0.12660298733E+02  0.51100000000E-03 0. -1.
        -11    1    3    3    0    0  0.26026519106E+02  0.35750196727E+01  0.65024149190E+01  0.27063663138E+02  0.51100000000E-03 0.  1.
        -12    1    3    3    0    0  0.67360888976E+01  0.21949149869E+01 -0.38502321820E+01  0.80633016371E+01  0.00000000000E+00 0.  1.
</event>
<event>
 7    1  0.2886681E-010  0.4778727E+02  0.7816164E-02  0.1312668E+00
        -11   -1    0    0    0    0  0.00000000000E+00  0.00000000000E+00  0.45593999997E+02  0.45594000000E+02  0.51100000000E-03 0.  1.
         11   -1    0    0    0    0 -0.00000000000E+00 -0.00000000000E+00 -0.45593999997E+02  0.45594000000E+02  0.51100000000E-03 0. -1.
    9900012    2    1    2    0    0 -0.16494319061E+01  0.10599333461E+02 -0.42054212092E+02  0.47787271318E+02  0.20000001249E+02 0.  0.
        -12    1    1    2    0    0  0.16494319061E+01 -0.10599333461E+02  0.42054212092E+02  0.43400728682E+02  0.00000000000E+00 0.  1.
         11    1    3    3    0    0 -0.15910528061E+01  0.88212452995E+00 -0.29553612585E+02  0.29609552679E+02  0.51100000000E-03 0. -1.
        -11    1    3    3    0    0  0.35992413701E+01  0.85964353291E+01 -0.95759518761E+01  0.13362338620E+02  0.51100000000E-03 0.  1.
         12    1    3    3    0    0 -0.36576204701E+01  0.11207736016E+01 -0.29246476304E+01  0.48153800194E+01  0.00000000000E+00 0. -1.
</event>
<event>
 7    1  0.2886681E-010  0.4778727E+02  0.7816164E-02  0.1312668E+00
        -11   -1    0    0    0    0  0.00000000000E+00  0.00000000000E+00  0.45593999997E+02  0.45594000000E+02  0.51100000000E-03 0.  1.
         11   -1    0    0    0    0 -0.00000000000E+00 -0.00000000000E+00 -0.45593999997E+02  0.45594000000E+02  0.51100000000E-03 0. -1.
    9900012    2    1    2    0    0  0.27727360479E+02  0.68999445229E+01 -0.32668141429E+02  0.47787271689E+02  0.20000002937E+02 0.  0.
        -12    1    1    2    0    0 -0.27727360479E+02 -0.68999445229E+01  0.32668141429E+02  0.43400728311E+02  0.00000000000E+00 0.  1.
         11    1    3    3    0    0  0.85420544501E+01  0.84579243559E+01 -0.19841466986E+02  0.23198857538E+02  0.51100000000E-03 0. -1.
        -11    1    3    3    0    0  0.15450939265E+02  0.20638870016E+01 -0.81358206489E+01  0.17583592682E+02  0.51100000000E-03 0.  1.
         12    1    3    3    0    0  0.37343667639E+01 -0.36218668346E+01 -0.46908537941E+01  0.70048214690E+01  0.00000000000E+00 0. -1.
</event>
<event>
 7    1  0.2886681E-010  0.4778727E+02  0.7816164E-02  0.1312668E+00
        -11   -1    0    0    0    0  0.00000000000E+00  0.00000000000E+00  0.45593999997E+02  0.45594000000E+02  0.51100000000E-03 0.  1.
         11   -1    0    0    0    0 -0.00000000000E+00 -0.00000000000E+00 -0.45593999997E+02  0.45594000000E+02  0.51100000000E-03 0. -1.
    9900012    2    1    2    0    0 -0.23689092491E+02 -0.83290121416E+01 -0.35398836640E+02  0.47787272106E+02  0.20000004838E+02 0.  0.
        -12    1    1    2    0    0  0.23689092491E+02  0.83290121416E+01  0.35398836640E+02  0.43400727894E+02  0.00000000000E+00 0.  1.
         11    1    3    3    0    0 -0.23718848223E+02 -0.74035404375E+01 -0.27065696787E+02  0.36741640068E+02  0.51100000000E-03 0. -1.
        -11    1    3    3    0    0 -0.34010151497E+01 -0.15483893870E+01 -0.47802845368E+01  0.60675805933E+01  0.51100000000E-03 0.  1.
         12    1    3    3    0    0  0.34307708822E+01  0.62291768286E+00 -0.35528553164E+01  0.49780514446E+01  0.00000000000E+00 0. -1.
</event>
<event>
 7    1  0.2886681E-010  0.4778727E+02  0.7816164E-02  0.1312668E+00
        -11   -1    0    0    0    0  0.00000000000E+00  0.00000000000E+00  0.45593999997E+02  0.45594000000E+02  0.51100000000E-03 0. -1.
         11   -1    0    0    0    0 -0.00000000000E+00 -0.00000000000E+00 -0.45593999997E+02  0.45594000000E+02  0.51100000000E-03 0.  1.
    9900012    2    1    2    0    0 -0.27818221242E+02 -0.15034979952E+02  0.29727418349E+02  0.47787268935E+02  0.19999990384E+02 0.  0.
        -12    1    1    2    0    0  0.27818221242E+02  0.15034979952E+02 -0.29727418349E+02  0.43400731065E+02  0.00000000000E+00 0.  1.
         11    1    3    3    0    0 -0.74783098669E+01 -0.30621513122E+01  0.66910946100E+01  0.10491550718E+02  0.51100000000E-03 0. -1.
        -11    1    3    3    0    0 -0.63542121006E+01 -0.11706623204E+02  0.18076994263E+02  0.22454370624E+02  0.51100000000E-03 0.  1.
        -12    1    3    3    0    0 -0.13985699275E+02 -0.26620543506E+00  0.49593294761E+01  0.14841347593E+02  0.00000000000E+00 0.  1.
</event>
<event>
 7    1  0.2886681E-010  0.4778727E+02  0.7816164E-02  0.1312668E+00
        -11   -1    0    0    0    0  0.00000000000E+00  0.00000000000E+00  0.45593999997E+02  0.45594000000E+02  0.51100000000E-03 0.  1.
         11   -1    0    0    0    0 -0.00000000000E+00 -0.00000000000E+00 -0.45593999997E+02  0.45594000000E+02  0.51100000000E-03 0. -1.
    9900012    2    1    2    0    0  0.11606861522E+02  0.39591422748E+02 -0.13469358813E+02  0.47787267098E+02  0.19999982006E+02 0.  0.
        -12    1    1    2    0    0 -0.11606861522E+02 -0.39591422748E+02  0.13469358813E+02  0.43400732902E+02  0.00000000000E+00 0.  1.
         11    1    3    3    0    0 -0.29008666966E+01  0.96262256185E+01 -0.29177878836E+01  0.10468654815E+02  0.51100000000E-03 0. -1.
        -11    1    3    3    0    0  0.94267212541E+01  0.57270575244E+01 -0.33678718270E+01  0.11532771670E+02  0.51100000000E-03 0.  1.
        -12    1    3    3    0    0  0.50810069649E+01  0.24238139605E+02 -0.71836991028E+01  0.25785840612E+02  0.00000000000E+00 0.  1.
</event>
<event>
 7    1  0.2886681E-010  0.4778727E+02  0.7816164E-02  0.1312668E+00
        -11   -1    0    0    0    0  0.00000000000E+00  0.00000000000E+00  0.45593999997E+02  0.45594000000E+02  0.51100000000E-03 0.  1.
         11   -1    0    0    0    0 -0.00000000000E+00 -0.00000000000E+00 -0.45593999997E+02  0.45594000000E+02  0.51100000000E-03 0. -1.
    9900012    2    1    2    0    0  0.38658261297E+02  0.14913989529E+02 -0.12912580888E+02  0.47787274253E+02  0.20000014627E+02 0.  0.
        -12    1    1    2    0    0 -0.38658261297E+02 -0.14913989529E+02  0.12912580888E+02  0.43400725747E+02  0.00000000000E+00 0.  1.
         11    1    3    3    0    0  0.24886262663E+02  0.84223724247E+01 -0.14753094212E+02  0.30131648074E+02  0.51100000000E-03 0. -1.
        -11    1    3    3    0    0  0.60540352844E+01  0.58222821535E+01  0.44188901162E+01  0.94908852496E+01  0.51100000000E-03 0.  1.
        -12    1    3    3    0    0  0.77179633497E+01  0.66933495089E+00 -0.25783767929E+01  0.81647409285E+01  0.00000000000E+00 0.  1.
</event>
<event>
 7    1  0.2886681E-010  0.4778728E+02  0.7816164E-02  0.1312668E+00
        -11   -1    0    0    0    0  0.00000000000E+00  0.00000000000E+00  0.45593999997E+02  0.45594000000E+02  0.51100000000E-03 0.  1.
         11   -1    0    0    0    0 -0.00000000000E+00 -0.00000000000E+00 -0.45593999997E+02  0.45594000000E+02  0.51100000000E-03 0. -1.
    9900012    2    1    2    0    0  0.39067656173E+01 -0.35241178880E+02 -0.25028360560E+02  0.47787281817E+02  0.20000049118E+02 0.  0.
        -12    1    1    2    0    0 -0.39067656173E+01  0.35241178880E+02  0.25028360560E+02  0.43400718183E+02  0.00000000000E+00 0.  1.
         11    1    3    3    0    0  0.99713096626E+01 -0.27819661333E+02 -0.13846272769E+02  0.32635561017E+02  0.51100000000E-03 0. -1.
        -11    1    3    3    0    0 -0.91742585115E+00  0.14782909005E+00 -0.40983333402E+00  0.10156216102E+01  0.51100000000E-03 0.  1.
         12    1    3    3    0    0 -0.51471181942E+01 -0.75693466378E+01 -0.10772254457E+02  0.14136099190E+02  0.00000000000E+00 0. -1.
</event>
<event>
 7    1  0.2886681E-010  0.4778727E+02  0.7816164E-02  0.1312668E+00
        -11   -1    0    0    0    0  0.00000000000E+00  0.00000000000E+00  0.45593999997E+02  0.45594000000E+02  0.51100000000E-03 0.  1.
         11   -1    0    0    0    0 -0.00000000000E+00 -0.00000000000E+00 -0.45593999997E+02  0.45594000000E+02  0.51100000000E-03 0. -1.
    9900012    2    1    2    0    0  0.79589803207E+01  0.33202991660E+02 -0.26792520320E+02  0.47787272264E+02  0.20000005562E+02 0.  0.
        -12    1    1    2    0    0 -0.79589803207E+01 -0.33202991660E+02  0.26792520320E+02  0.43400727736E+02  0.00000000000E+00 0.  1.
         11    1    3    3    0    0  0.73994130297E+01  0.32200350254E+01 -0.62425511839E+01  0.10202420511E+02  0.51100000000E-03 0. -1.
        -11    1    3    3    0    0  0.39663695457E+01  0.25036456494E+02 -0.15304247390E+02  0.29610407454E+02  0.51100000000E-03 0.  1.
        -12    1    3    3    0    0 -0.34068022547E+01  0.49465001404E+01 -0.52457217460E+01  0.79744442991E+01  0.00000000000E+00 0.  1.
</event>
<event>
 7    1  0.2886681E-010  0.4778727E+02  0.7816164E-02  0.1312668E+00
        -11   -1    0    0    0    0  0.00000000000E+00  0.00000000000E+00  0.45593999997E+02  0.45594000000E+02  0.51100000000E-03 0.  1.
         11   -1    0    0    0    0 -0.00000000000E+00 -0.00000000000E+00 -0.45593999997E+02  0.45594000000E+02  0.51100000000E-03 0. -1.
    9900012    2    1    2    0    0 -0.13917993347E+02  0.15825413776E+02 -0.37940335392E+02  0.47787270632E+02  0.19999998119E+02 0.  0.
        -12    1    1    2    0    0  0.13917993347E+02 -0.15825413776E+02  0.37940335392E+02  0.43400729368E+02  0.00000000000E+00 0.  1.
         11    1    3    3    0    0 -0.76676553862E+00 -0.13647523012E+00  0.19300794533E+01  0.20812885040E+01  0.51100000000E-03 0.  1.
        -11    1    3    3    0    0 -0.91946847690E+01  0.13578193190E+02 -0.36416479287E+02  0.39938321474E+02  0.51100000000E-03 0. -1.
         12    1    3    3    0    0 -0.39565430394E+01  0.23836958169E+01 -0.34539355591E+01  0.57676606537E+01  0.00000000000E+00 0. -1.
</event>
<event>
 7    1  0.2886681E-010  0.4778727E+02  0.7816164E-02  0.1312668E+00
        -11   -1    0    0    0    0  0.00000000000E+00  0.00000000000E+00  0.45593999997E+02  0.45594000000E+02  0.51100000000E-03 0.  1.
         11   -1    0    0    0    0 -0.00000000000E+00 -0.00000000000E+00 -0.45593999997E+02  0.45594000000E+02  0.51100000000E-03 0. -1.
    9900012    2    1    2    0    0  0.96124102042E+01 -0.62045638686E+00 -0.42318317927E+02  0.47787269266E+02  0.19999991891E+02 0.  0.
        -12    1    1    2    0    0 -0.96124102042E+01  0.62045638686E+00  0.42318317927E+02  0.43400730734E+02  0.00000000000E+00 0.  1.
         11    1    3    3    0    0  0.11381283035E+02 -0.46958533050E+01 -0.30847483658E+02  0.33213730445E+02  0.51100000000E-03 0. -1.
        -11    1    3    3    0    0 -0.10050094761E+01  0.64173132378E+01 -0.77637510860E+01  0.10122637227E+02  0.51100000000E-03 0.  1.
         12    1    3    3    0    0 -0.76386335448E+00 -0.23419163196E+01 -0.37070831837E+01  0.44509015945E+01  0.00000000000E+00 0. -1.
</event>
<event>
 7    1  0.2886681E-010  0.4778728E+02  0.7816164E-02  0.1312668E+00
        -11   -1    0    0    0    0  0.00000000000E+00  0.00000000000E+00  0.45593999997E+02  0.45594000000E+02  0.51100000000E-03 0.  1.
         11   -1    0    0    0    0 -0.00000000000E+00 -0.00000000000E+00 -0.45593999997E+02  0.45594000000E+02  0.51100000000E-03 0. -1.
    9900012    2    1    2    0    0 -0.31219356413E+02 -0.76279966297E+01 -0.29168274398E+02  0.47787276748E+02  0.20000026006E+02 0.  0.
        -12    1    1    2    0    0  0.31219356413E+02  0.76279966297E+01  0.29168274398E+02  0.43400723252E+02  0.00000000000E+00 0.  1.
         11    1    3    3    0    0 -0.11950138574E+02 -0.54900309084E+01 -0.15329527954E+02  0.20197541407E+02  0.51100000000E-03 0. -1.
        -11    1    3    3    0    0 -0.53507453728E+01  0.49309401950E+01 -0.93459510678E+00  0.73360831188E+01  0.51100000000E-03 0.  1.
        -12    1    3    3    0    0 -0.13918472466E+02 -0.70689059163E+01 -0.12904151337E+02  0.20253652223E+02  0.00000000000E+00 0.  1.
</event>
<event>
 7    1  0.2886681E-010  0.4778727E+02  0.7816164E-02  0.1312668E+00
        -11   -1    0    0    0    0  0.00000000000E+00  0.00000000000E+00  0.45593999997E+02  0.45594000000E+02  0.51100000000E-03 0.  1.
         11   -1    0    0    0    0 -0.00000000000E+00 -0.00000000000E+00 -0.45593999997E+02  0.45594000000E+02  0.51100000000E-03 0. -1.
    9900012    2    1    2    0    0  0.22141476541E+02  0.21508455930E+02 -0.30508430670E+02  0.47787274178E+02  0.20000014288E+02 0.  0.
        -12    1    1    2    0    0 -0.22141476541E+02 -0.21508455930E+02  0.30508430670E+02  0.43400725822E+02  0.00000000000E+00 0.  1.
         11    1    3    3    0    0  0.94538854814E+01  0.16028250149E+02 -0.92047957325E+01  0.20760756688E+02  0.51100000000E-03 0. -1.
        -11    1    3    3    0    0  0.12481029460E+02  0.14269143556E+01 -0.15691474294E+02  0.20100610606E+02  0.51100000000E-03 0.  1.
        -12    1    3    3    0    0  0.20656160001E+00  0.40532914257E+01 -0.56121606436E+01  0.69259068840E+01  0.00000000000E+00 0.  1.
</event>
<event>
 7    1  0.2886681E-010  0.4778728E+02  0.7816164E-02  0.1312668E+00
        -11   -1    0    0    0    0  0.00000000000E+00  0.00000000000E+00  0.45593999997E+02  0.45594000000E+02  0.51100000000E-03 0.  1.
         11   -1    0    0    0    0 -0.00000000000E+00 -0.00000000000E+00 -0.45593999997E+02  0.45594000000E+02  0.51100000000E-03 0. -1.
    9900012    2    1    2    0    0  0.29000237713E+02 -0.31539756539E+02 -0.69175753737E+01  0.47787275593E+02  0.20000020739E+02 0.  0.
        -12    1    1    2    0    0 -0.29000237713E+02  0.31539756539E+02  0.69175753737E+01  0.43400724407E+02  0.00000000000E+00 0.  1.
         11    1    3    3    0    0  0.90459047724E+01 -0.17613757840E+02 -0.85800779123E+01  0.21579865515E+02  0.51100000000E-03 0. -1.
        -11    1    3    3    0    0  0.18824189045E+02 -0.15268209427E+02  0.79681635676E+00  0.24250839756E+02  0.51100000000E-03 0.  1.
        -12    1    3    3    0    0  0.11301438963E+01  0.13422107272E+01  0.86568618184E+00  0.19565703228E+01  0.00000000000E+00 0.  1.
</event>
<event>
 7    1  0.2886681E-010  0.4778727E+02  0.7816164E-02  0.1312668E+00
        -11   -1    0    0    0    0  0.00000000000E+00  0.00000000000E+00  0.45593999997E+02  0.45594000000E+02  0.51100000000E-03 0.  1.
         11   -1    0    0    0    0 -0.00000000000E+00 -0.00000000000E+00 -0.45593999997E+02  0.45594000000E+02  0.51100000000E-03 0. -1.
    9900012    2    1    2    0    0  0.27338606228E+02  0.29040083515E+02 -0.17114251450E+02  0.47787269088E+02  0.19999991078E+02 0.  0.
        -12    1    1    2    0    0 -0.27338606228E+02 -0.29040083515E+02  0.17114251450E+02  0.43400730912E+02  0.00000000000E+00 0.  1.
         11    1    3    3    0    0  0.28675148125E+01  0.16854473175E+00  0.14173851026E+01  0.32031280519E+01  0.51100000000E-03 0. -1.
        -11    1    3    3    0    0 -0.63409882898E+00 -0.11662832338E+01 -0.11288820779E+01  0.17426052087E+01  0.51100000000E-03 0.  1.
         12    1    3    3    0    0  0.25105190244E+02  0.30037822017E+02 -0.17402754475E+02  0.42841535827E+02  0.00000000000E+00 0. -1.
</event>
<event>
 7    1  0.2886681E-010  0.4778727E+02  0.7816164E-02  0.1312668E+00
        -11   -1    0    0    0    0  0.00000000000E+00  0.00000000000E+00  0.45593999997E+02  0.45594000000E+02  0.51100000000E-03 0. -1.
         11   -1    0    0    0    0 -0.00000000000E+00 -0.00000000000E+00 -0.45593999997E+02  0.45594000000E+02  0.51100000000E-03 0.  1.
    9900012    2    1    2    0    0 -0.30132719007E+02  0.28177138290E+02 -0.13479301609E+02  0.47787269029E+02  0.19999990811E+02 0.  0.
        -12    1    1    2    0    0  0.30132719007E+02 -0.28177138290E+02  0.13479301609E+02  0.43400730971E+02  0.00000000000E+00 0.  1.
         11    1    3    3    0    0 -0.15889298524E+02  0.10882646135E+02 -0.90784874674E+01  0.21291329913E+02  0.51100000000E-03 0. -1.
        -11    1    3    3    0    0 -0.11230540392E+02  0.18807532984E+02 -0.13466397944E+01  0.21946794149E+02  0.51100000000E-03 0.  1.
        -12    1    3    3    0    0 -0.30128800910E+01 -0.15130408291E+01 -0.30541743471E+01  0.45491449675E+01  0.00000000000E+00 0.  1.
</event>
<event>
 7    1  0.2886681E-010  0.4778727E+02  0.7816164E-02  0.1312668E+00
        -11   -1    0    0    0    0  0.00000000000E+00  0.00000000000E+00  0.45593999997E+02  0.45594000000E+02  0.51100000000E-03 0.  1.
         11   -1    0    0    0    0 -0.00000000000E+00 -0.00000000000E+00 -0.45593999997E+02  0.45594000000E+02  0.51100000000E-03 0. -1.
    9900012    2    1    2    0    0 -0.25796439372E+01 -0.48205202959E+01 -0.43054981221E+02  0.47787269745E+02  0.19999994074E+02 0.  0.
        -12    1    1    2    0    0  0.25796439372E+01  0.48205202959E+01  0.43054981221E+02  0.43400730255E+02  0.00000000000E+00 0.  1.
         11    1    3    3    0    0  0.57892475402E+01 -0.21016222422E+01 -0.29144834527E+02  0.29788480709E+02  0.51100000000E-03 0. -1.
        -11    1    3    3    0    0 -0.90817871316E+01 -0.76469926038E+00 -0.12562190585E+02  0.15520059762E+02  0.51100000000E-03 0.  1.
        -12    1    3    3    0    0  0.71289565423E+00 -0.19541987933E+01 -0.13479561099E+01  0.24787292736E+01  0.00000000000E+00 0.  1.
</event>
<event>
 7    1  0.2886681E-010  0.4778727E+02  0.7816164E-02  0.1312668E+00
        -11   -1    0    0    0    0  0.00000000000E+00  0.00000000000E+00  0.45593999997E+02  0.45594000000E+02  0.51100000000E-03 0.  1.
         11   -1    0    0    0    0 -0.00000000000E+00 -0.00000000000E+00 -0.45593999997E+02  0.45594000000E+02  0.51100000000E-03 0. -1.
    9900012    2    1    2    0    0  0.11413088591E+02 -0.76852478940E+01 -0.41161896111E+02  0.47787270538E+02  0.19999997691E+02 0.  0.
        -12    1    1    2    0    0 -0.11413088591E+02  0.76852478940E+01  0.41161896111E+02  0.43400729462E+02  0.00000000000E+00 0.  1.
         11    1    3    3    0    0  0.10803840891E+02 -0.48230366301E+01 -0.98838581554E+01  0.15416721851E+02  0.51100000000E-03 0. -1.
        -11    1    3    3    0    0 -0.33499529317E+00  0.13974345874E+01 -0.93274627064E+00  0.17132020135E+01  0.51100000000E-03 0.  1.
         12    1    3    3    0    0  0.94424299299E+00 -0.42596458513E+01 -0.30345291685E+02  0.30657346673E+02  0.00000000000E+00 0. -1.
</event>
<event>
 7    1  0.2886681E-010  0.4778727E+02  0.7816164E-02  0.1312668E+00
        -11   -1    0    0    0    0  0.00000000000E+00  0.00000000000E+00  0.45593999997E+02  0.45594000000E+02  0.51100000000E-03 0. -1.
         11   -1    0    0    0    0 -0.00000000000E+00 -0.00000000000E+00 -0.45593999997E+02  0.45594000000E+02  0.51100000000E-03 0.  1.
    9900012    2    1    2    0    0 -0.85447218292E+01 -0.40927676161E+02  0.11642001271E+02  0.47787272579E+02  0.20000006998E+02 0.  0.
        -12    1    1    2    0    0  0.85447218292E+01  0.40927676161E+02 -0.11642001271E+02  0.43400727421E+02  0.00000000000E+00 0.  1.
         11    1    3    3    0    0 -0.98765437793E+01 -0.14214007757E+02  0.95147223101E+01  0.19751305639E+02  0.51100000000E-03 0. -1.
        -11    1    3    3    0    0 -0.75160255257E+00 -0.18086809667E+02  0.48716131835E+01  0.18746471817E+02  0.51100000000E-03 0.  1.
         12    1    3    3    0    0  0.20834245027E+01 -0.86268587364E+01 -0.27443342225E+01  0.92894951230E+01  0.00000000000E+00 0. -1.
</event>
<event>
 7    1  0.2886681E-010  0.4778727E+02  0.7816164E-02  0.1312668E+00
        -11   -1    0    0    0    0  0.00000000000E+00  0.00000000000E+00  0.45593999997E+02  0.45594000000E+02  0.51100000000E-03 0. -1.
         11   -1    0    0    0    0 -0.00000000000E+00 -0.00000000000E+00 -0.45593999997E+02  0.45594000000E+02  0.51100000000E-03 0.  1.
    9900012    2    1    2    0    0 -0.37663174385E+01  0.38692076285E+01  0.43063531423E+02  0.47787266673E+02  0.19999980068E+02 0.  0.
        -12    1    1    2    0    0  0.37663174385E+01 -0.38692076285E+01 -0.43063531423E+02  0.43400733327E+02  0.00000000000E+00 0.  1.
         11    1    3    3    0    0 -0.96048587165E+01 -0.13446091010E+01  0.29109707690E+02  0.30682835050E+02  0.51100000000E-03 0. -1.
        -11    1    3    3    0    0  0.69828237142E+01  0.34519734707E+01  0.10857499442E+02  0.13362680954E+02  0.51100000000E-03 0.  1.
         12    1    3    3    0    0 -0.11442824361E+01  0.17618432588E+01  0.30963242902E+01  0.37417506694E+01  0.00000000000E+00 0. -1.
</event>
<event>
 7    1  0.2886681E-010  0.4778727E+02  0.7816164E-02  0.1312668E+00
        -11   -1    0    0    0    0  0.00000000000E+00  0.00000000000E+00  0.45593999997E+02  0.45594000000E+02  0.51100000000E-03 0.  1.
         11   -1    0    0    0    0 -0.00000000000E+00 -0.00000000000E+00 -0.45593999997E+02  0.45594000000E+02  0.51100000000E-03 0. -1.
    9900012    2    1    2    0    0 -0.34127251744E+02 -0.26608042479E+02 -0.33114890442E+01  0.47787271943E+02  0.20000004098E+02 0.  0.
        -12    1    1    2    0    0  0.34127251744E+02  0.26608042479E+02  0.33114890442E+01  0.43400728057E+02  0.00000000000E+00 0.  1.
         11    1    3    3    0    0 -0.14694234054E+02 -0.19288976435E+02 -0.17608843016E+01  0.24312256994E+02  0.51100000000E-03 0. -1.
        -11    1    3    3    0    0 -0.19942265289E+02 -0.76473775002E+01 -0.33108773309E+01  0.21613380958E+02  0.51100000000E-03 0.  1.
        -12    1    3    3    0    0  0.50924759907E+00  0.32831145672E+00  0.17602725883E+01  0.18616339906E+01  0.00000000000E+00 0.  1.
</event>
<event>
 7    1  0.2886681E-010  0.4778727E+02  0.7816164E-02  0.1312668E+00
        -11   -1    0    0    0    0  0.00000000000E+00  0.00000000000E+00  0.45593999997E+02  0.45594000000E+02  0.51100000000E-03 0.  1.
         11   -1    0    0    0    0 -0.00000000000E+00 -0.00000000000E+00 -0.45593999997E+02  0.45594000000E+02  0.51100000000E-03 0. -1.
    9900012    2    1    2    0    0 -0.73027420583E+01 -0.52500905607E+01 -0.42458565314E+02  0.47787271193E+02  0.20000000676E+02 0.  0.
        -12    1    1    2    0    0  0.73027420583E+01  0.52500905607E+01  0.42458565314E+02  0.43400728807E+02  0.00000000000E+00 0.  1.
         11    1    3    3    0    0 -0.11910952497E+02 -0.23423141656E+01 -0.17544994549E+02  0.21335042982E+02  0.51100000000E-03 0. -1.
        -11    1    3    3    0    0  0.35012694643E+01  0.11768880250E+01 -0.58043683325E+01  0.68800178260E+01  0.51100000000E-03 0.  1.
         12    1    3    3    0    0  0.11069409747E+01 -0.40846644200E+01 -0.19109202432E+02  0.19572210385E+02  0.00000000000E+00 0. -1.
</event>
<event>
 7    1  0.2886681E-010  0.4778727E+02  0.7816164E-02  0.1312668E+00
        -11   -1    0    0    0    0  0.00000000000E+00  0.00000000000E+00  0.45593999997E+02  0.45594000000E+02  0.51100000000E-03 0. -1.
         11   -1    0    0    0    0 -0.00000000000E+00 -0.00000000000E+00 -0.45593999997E+02  0.45594000000E+02  0.51100000000E-03 0.  1.
    9900012    2    1    2    0    0 -0.38768263359E+02  0.84682032168E+01  0.17576546218E+02  0.47787266290E+02  0.19999978321E+02 0.  0.
        -12    1    1    2    0    0  0.38768263359E+02 -0.84682032168E+01 -0.17576546218E+02  0.43400733710E+02  0.00000000000E+00 0.  1.
         11    1    3    3    0    0 -0.14021254108E+02  0.10292074491E+02  0.11452222636E+02  0.20824883377E+02  0.51100000000E-03 0. -1.
        -11    1    3    3    0    0 -0.12503455735E+02 -0.52231768314E+01  0.30895267562E+01  0.13898314911E+02  0.51100000000E-03 0.  1.
        -12    1    3    3    0    0 -0.12243553517E+02  0.33993055568E+01  0.30347968265E+01  0.13064068002E+02  0.00000000000E+00 0.  1.
</event>
<event>
 7    1  0.2886681E-010  0.4778727E+02  0.7816164E-02  0.1312668E+00
        -11   -1    0    0    0    0  0.00000000000E+00  0.00000000000E+00  0.45593999997E+02  0.45594000000E+02  0.51100000000E-03 0. -1.
         11   -1    0    0    0    0 -0.00000000000E+00 -0.00000000000E+00 -0.45593999997E+02  0.45594000000E+02  0.51100000000E-03 0.  1.
    9900012    2    1    2    0    0  0.15569120471E+01  0.33852095444E+02  0.27115216927E+02  0.47787270397E+02  0.19999997047E+02 0.  0.
        -12    1    1    2    0    0 -0.15569120471E+01 -0.33852095444E+02 -0.27115216927E+02  0.43400729603E+02  0.00000000000E+00 0.  1.
         11    1    3    3    0    0  0.19232601787E+01  0.30978795980E+02  0.29227425798E+02  0.42633638704E+02  0.51100000000E-03 0. -1.
        -11    1    3    3    0    0 -0.98942074439E+00  0.28618354307E+01 -0.28703192374E+01  0.41722641608E+01  0.51100000000E-03 0.  1.
        -12    1    3    3    0    0  0.62307261277E+00  0.11464033336E-01  0.75811036613E+00  0.98136753160E+00  0.00000000000E+00 0.  1.
</event>
<event>
 7    1  0.2886681E-010  0.4778728E+02  0.7816164E-02  0.1312668E+00
        -11   -1    0    0    0    0  0.00000000000E+00  0.00000000000E+00  0.45593999997E+02  0.45594000000E+02  0.51100000000E-03 0.  1.
         11   -1    0    0    0    0 -0.00000000000E+00 -0.00000000000E+00 -0.45593999997E+02  0.45594000000E+02  0.51100000000E-03 0. -1.
    9900012    2    1    2    0    0 -0.25081257415E+02  0.12842299299E+02 -0.33009518335E+02  0.47787280818E+02  0.20000044560E+02 0.  0.
        -12    1    1    2    0    0  0.25081257415E+02 -0.12842299299E+02  0.33009518335E+02  0.43400719182E+02  0.00000000000E+00 0.  1.
         11    1    3    3    0    0 -0.15948544463E+01  0.74691369463E+01 -0.45446408552E+01  0.88873690253E+01  0.51100000000E-03 0.  1.
        -11    1    3    3    0    0 -0.12103979102E+02 -0.28788914964E+01 -0.12765630080E+02  0.17825701611E+02  0.51100000000E-03 0. -1.
         12    1    3    3    0    0 -0.11382423867E+02  0.82520538494E+01 -0.15699247400E+02  0.21074210181E+02  0.00000000000E+00 0. -1.
</event>
<event>
 7    1  0.2886681E-010  0.4778727E+02  0.7816164E-02  0.1312668E+00
        -11   -1    0    0    0    0  0.00000000000E+00  0.00000000000E+00  0.45593999997E+02  0.45594000000E+02  0.51100000000E-03 0.  1.
         11   -1    0    0    0    0 -0.00000000000E+00 -0.00000000000E+00 -0.45593999997E+02  0.45594000000E+02  0.51100000000E-03 0. -1.
    9900012    2    1    2    0    0  0.52232179445E+01  0.17422193888E+02 -0.39405687066E+02  0.47787273984E+02  0.20000013405E+02 0.  0.
        -12    1    1    2    0    0 -0.52232179445E+01 -0.17422193888E+02  0.39405687066E+02  0.43400726016E+02  0.00000000000E+00 0.  1.
         11    1    3    3    0    0  0.77276449238E+01  0.47533267424E+01 -0.16181567871E+02  0.18551381356E+02  0.51100000000E-03 0. -1.
        -11    1    3    3    0    0 -0.56254066839E+01  0.52006412293E+01 -0.18104102337E+02  0.19658341518E+02  0.51100000000E-03 0.  1.
        -12    1    3    3    0    0  0.31209797046E+01  0.74682259160E+01 -0.51200168574E+01  0.95775511102E+01  0.00000000000E+00 0.  1.
</event>
<event>
 7    1  0.2886681E-010  0.4778729E+02  0.7816164E-02  0.1312668E+00
        -11   -1    0    0    0    0  0.00000000000E+00  0.00000000000E+00  0.45593999997E+02  0.45594000000E+02  0.51100000000E-03 0. -1.
         11   -1    0    0    0    0 -0.00000000000E+00 -0.00000000000E+00 -0.45593999997E+02  0.45594000000E+02  0.51100000000E-03 0.  1.
    9900012    2    1    2    0    0  0.33621778743E+02  0.13720566800E+02  0.23768543743E+02  0.47787289973E+02  0.20000086303E+02 0.  0.
        -12    1    1    2    0    0 -0.33621778743E+02 -0.13720566800E+02 -0.23768543743E+02  0.43400710027E+02  0.00000000000E+00 0.  1.
         11    1    3    3    0    0  0.16953384378E+02  0.95911245087E+01  0.13954398437E+02  0.23961054801E+02  0.51100000000E-03 0. -1.
        -11    1    3    3    0    0  0.75524049441E+01  0.45190088311E+01 -0.18739116583E+01  0.89984335536E+01  0.51100000000E-03 0.  1.
        -12    1    3    3    0    0  0.91159894215E+01 -0.38956654000E+00  0.11688056964E+02  0.14827801618E+02  0.00000000000E+00 0.  1.
</event>
<event>
 7    1  0.2886681E-010  0.4778726E+02  0.7816164E-02  0.1312668E+00
        -11   -1    0    0    0    0  0.00000000000E+00  0.00000000000E+00  0.45593999997E+02  0.45594000000E+02  0.51100000000E-03 0.  1.
         11   -1    0    0    0    0 -0.00000000000E+00 -0.00000000000E+00 -0.45593999997E+02  0.45594000000E+02  0.51100000000E-03 0. -1.
    9900012    2    1    2    0    0 -0.13535883382E+02 -0.35686412541E+02 -0.20661163136E+02  0.47787264509E+02  0.19999970204E+02 0.  0.
        -12    1    1    2    0    0  0.13535883382E+02  0.35686412541E+02  0.20661163136E+02  0.43400735491E+02  0.00000000000E+00 0.  1.
         11    1    3    3    0    0 -0.11821175839E+02 -0.25557254366E+02 -0.98603340069E+01  0.29835207992E+02  0.51100000000E-03 0. -1.
        -11    1    3    3    0    0 -0.14773905141E+01  0.12985407052E+01 -0.44749615879E+01  0.48881665447E+01  0.51100000000E-03 0.  1.
        -12    1    3    3    0    0 -0.23731702941E+00 -0.11427698880E+02 -0.63258675415E+01  0.13063889973E+02  0.00000000000E+00 0.  1.
</event>
<event>
 7    1  0.2886681E-010  0.4778728E+02  0.7816164E-02  0.1312668E+00
        -11   -1    0    0    0    0  0.00000000000E+00  0.00000000000E+00  0.45593999997E+02  0.45594000000E+02  0.51100000000E-03 0.  1.
         11   -1    0    0    0    0 -0.00000000000E+00 -0.00000000000E+00 -0.45593999997E+02  0.45594000000E+02  0.51100000000E-03 0. -1.
    9900012    2    1    2    0    0  0.90707811587E+01  0.23106432119E+02 -0.35601072465E+02  0.47787278384E+02  0.20000033466E+02 0.  0.
        -12    1    1    2    0    0 -0.90707811587E+01 -0.23106432119E+02  0.35601072465E+02  0.43400721616E+02  0.00000000000E+00 0.  1.
         11    1    3    3    0    0  0.10608879330E+02  0.11094973975E+02 -0.14478398291E+02  0.21101440365E+02  0.51100000000E-03 0. -1.
        -11    1    3    3    0    0 -0.27430081534E+01 -0.24852792088E+00 -0.71057777244E+00  0.28444298003E+01  0.51100000000E-03 0.  1.
        -12    1    3    3    0    0  0.12049099825E+01  0.12259986064E+02 -0.20412096402E+02  0.23841408219E+02  0.00000000000E+00 0.  1.
</event>
<event>
 7    1  0.2886681E-010  0.4778728E+02  0.7816164E-02  0.1312668E+00
        -11   -1    0    0    0    0  0.00000000000E+00  0.00000000000E+00  0.45593999997E+02  0.45594000000E+02  0.51100000000E-03 0.  1.
         11   -1    0    0    0    0 -0.00000000000E+00 -0.00000000000E+00 -0.45593999997E+02  0.45594000000E+02  0.51100000000E-03 0. -1.
    9900012    2    1    2    0    0 -0.33048938391E+02  0.23214888685E+02 -0.15888975009E+02  0.47787275211E+02  0.20000018996E+02 0.  0.
        -12    1    1    2    0    0  0.33048938391E+02 -0.23214888685E+02  0.15888975009E+02  0.43400724789E+02  0.00000000000E+00 0.  1.
         11    1    3    3    0    0 -0.19970137034E+02  0.16187633302E+02 -0.14190764723E+01  0.25746060346E+02  0.51100000000E-03 0. -1.
        -11    1    3    3    0    0  0.38004333862E+00  0.22759516847E+01 -0.14735456058E+01  0.27378323403E+01  0.51100000000E-03 0.  1.
         12    1    3    3    0    0 -0.13458844695E+02  0.47513036984E+01 -0.12996352931E+02  0.19303382524E+02  0.00000000000E+00 0. -1.
</event>
<event>
 7    1  0.2886681E-010  0.4778727E+02  0.7816164E-02  0.1312668E+00
        -11   -1    0    0    0    0  0.00000000000E+00  0.00000000000E+00  0.45593999997E+02  0.45594000000E+02  0.51100000000E-03 0.  1.
         11   -1    0    0    0    0 -0.00000000000E+00 -0.00000000000E+00 -0.45593999997E+02  0.45594000000E+02  0.51100000000E-03 0. -1.
    9900012    2    1    2    0    0  0.23886419500E+02 -0.17915122098E+02 -0.31497783222E+02  0.47787274381E+02  0.20000015214E+02 0.  0.
        -12    1    1    2    0    0 -0.23886419500E+02  0.17915122098E+02  0.31497783222E+02  0.43400725619E+02  0.00000000000E+00 0.  1.
         11    1    3    3    0    0 -0.17780725601E+01 -0.38499465616E+01 -0.82220756270E+01  0.92512787459E+01  0.51100000000E-03 0. -1.
        -11    1    3    3    0    0  0.10652327355E+02 -0.12089334724E+01 -0.10471162094E+02  0.14985954561E+02  0.51100000000E-03 0.  1.
         12    1    3    3    0    0  0.15012164705E+02 -0.12856242064E+02 -0.12804545501E+02  0.23550041075E+02  0.00000000000E+00 0. -1.
</event>
<event>
 7    1  0.2886681E-010  0.4778727E+02  0.7816164E-02  0.1312668E+00
        -11   -1    0    0    0    0  0.00000000000E+00  0.00000000000E+00  0.45593999997E+02  0.45594000000E+02  0.51100000000E-03 0. -1.
         11   -1    0    0    0    0 -0.00000000000E+00 -0.00000000000E+00 -0.45593999997E+02  0.45594000000E+02  0.51100000000E-03 0.  1.
    9900012    2    1    2    0    0  0.14128602796E+02 -0.28739628734E+02  0.29292307379E+02  0.47787274795E+02  0.20000017100E+02 0.  0.
        -12    1    1    2    0    0 -0.14128602796E+02  0.28739628734E+02 -0.29292307379E+02  0.43400725205E+02  0.00000000000E+00 0.  1.
         11    1    3    3    0    0  0.32061997705E+00 -0.48957369577E+01  0.33836251915E+01  0.59598621819E+01  0.51100000000E-03 0. -1.
        -11    1    3    3    0    0  0.59093657152E+00 -0.64895245817E+00 -0.26157215379E+01  0.27590477976E+01  0.51100000000E-03 0.  1.
        -12    1    3    3    0    0  0.13217046247E+02 -0.23194939318E+02  0.28524403726E+02  0.39068364816E+02  0.00000000000E+00 0.  1.
</event>
<event>
 7    1  0.2886681E-010  0.4778726E+02  0.7816164E-02  0.1312668E+00
        -11   -1    0    0    0    0  0.00000000000E+00  0.00000000000E+00  0.45593999997E+02  0.45594000000E+02  0.51100000000E-03 0. -1.
         11   -1    0    0    0    0 -0.00000000000E+00 -0.00000000000E+00 -0.45593999997E+02  0.45594000000E+02  0.51100000000E-03 0.  1.
    9900012    2    1    2    0    0  0.18045835235E+02 -0.37559329782E+02  0.12135423597E+02  0.47787263499E+02  0.19999965597E+02 0.  0.
        -12    1    1    2    0    0 -0.18045835235E+02  0.37559329782E+02 -0.12135423597E+02  0.43400736501E+02  0.00000000000E+00 0.  1.
         11    1    3    3    0    0  0.48426436647E+01 -0.12218277156E+02  0.46125340181E+01  0.13928853673E+02  0.51100000000E-03 0. -1.
        -11    1    3    3    0    0  0.12304867241E+02 -0.89854103997E+01  0.85036785654E+01  0.17448779535E+02  0.51100000000E-03 0.  1.
        -12    1    3    3    0    0  0.89832432906E+00 -0.16355642226E+02 -0.98078898647E+00  0.16409630291E+02  0.00000000000E+00 0.  1.
</event>
<event>
 7    1  0.2886681E-010  0.4778727E+02  0.7816164E-02  0.1312668E+00
        -11   -1    0    0    0    0  0.00000000000E+00  0.00000000000E+00  0.45593999997E+02  0.45594000000E+02  0.51100000000E-03 0. -1.
         11   -1    0    0    0    0 -0.00000000000E+00 -0.00000000000E+00 -0.45593999997E+02  0.45594000000E+02  0.51100000000E-03 0.  1.
    9900012    2    1    2    0    0  0.13963921420E+02 -0.19686990025E+02  0.36070130147E+02  0.47787274586E+02  0.20000016147E+02 0.  0.
        -12    1    1    2    0    0 -0.13963921420E+02  0.19686990025E+02 -0.36070130147E+02  0.43400725414E+02  0.00000000000E+00 0.  1.
         11    1    3    3    0    0 -0.43463914470E+01 -0.44508281067E+01  0.65304811402E+01  0.90193222378E+01  0.51100000000E-03 0. -1.
        -11    1    3    3    0    0 -0.77934373681E+00 -0.20551033875E+00  0.10787102471E+01  0.13465612566E+01  0.51100000000E-03 0.  1.
         12    1    3    3    0    0  0.19089656604E+02 -0.15030651580E+02  0.28460938759E+02  0.37421391092E+02  0.00000000000E+00 0. -1.
</event>
<event>
 7    1  0.2886681E-010  0.4778728E+02  0.7816164E-02  0.1312668E+00
        -11   -1    0    0    0    0  0.00000000000E+00  0.00000000000E+00  0.45593999997E+02  0.45594000000E+02  0.51100000000E-03 0.  1.
         11   -1    0    0    0    0 -0.00000000000E+00 -0.00000000000E+00 -0.45593999997E+02  0.45594000000E+02  0.51100000000E-03 0. -1.
    9900012    2    1    2    0    0  0.74124498284E+01  0.23423470308E+02 -0.35777359335E+02  0.47787276334E+02  0.20000024119E+02 0.  0.
        -12    1    1    2    0    0 -0.74124498284E+01 -0.23423470308E+02  0.35777359335E+02  0.43400723666E+02  0.00000000000E+00 0.  1.
         11    1    3    3    0    0  0.39139955822E+01  0.15268517173E+02 -0.11592503507E+02  0.19566121637E+02  0.51100000000E-03 0. -1.
        -11    1    3    3    0    0  0.64083487401E+01  0.88366079742E+01 -0.14923750210E+02  0.18489751071E+02  0.51100000000E-03 0.  1.
         12    1    3    3    0    0 -0.29098944939E+01 -0.68165483933E+00 -0.92611056173E+01  0.97314036264E+01  0.00000000000E+00 0. -1.
</event>
<event>
 7    1  0.2886681E-010  0.4778727E+02  0.7816164E-02  0.1312668E+00
        -11   -1    0    0    0    0  0.00000000000E+00  0.00000000000E+00  0.45593999997E+02  0.45594000000E+02  0.51100000000E-03 0.  1.
         11   -1    0    0    0    0 -0.00000000000E+00 -0.00000000000E+00 -0.45593999997E+02  0.45594000000E+02  0.51100000000E-03 0. -1.
    9900012    2    1    2    0    0 -0.24992980821E+02  0.47174211019E+01 -0.35167028857E+02  0.47787273384E+02  0.20000010667E+02 0.  0.
        -12    1    1    2    0    0  0.24992980821E+02 -0.47174211019E+01  0.35167028857E+02  0.43400726616E+02  0.00000000000E+00 0.  1.
         11    1    3    3    0    0 -0.22283726743E+02  0.38594233730E+00 -0.24558190812E+02  0.33163506528E+02  0.51100000000E-03 0. -1.
        -11    1    3    3    0    0 -0.19572881702E+01 -0.21771773519E+01 -0.57982156466E+01  0.64954124694E+01  0.51100000000E-03 0.  1.
         12    1    3    3    0    0 -0.75196590783E+00  0.65086561165E+01 -0.48106223986E+01  0.81283543864E+01  0.00000000000E+00 0. -1.
</event>
<event>
 7    1  0.2886681E-010  0.4778727E+02  0.7816164E-02  0.1312668E+00
        -11   -1    0    0    0    0  0.00000000000E+00  0.00000000000E+00  0.45593999997E+02  0.45594000000E+02  0.51100000000E-03 0. -1.
         11   -1    0    0    0    0 -0.00000000000E+00 -0.00000000000E+00 -0.45593999997E+02  0.45594000000E+02  0.51100000000E-03 0.  1.
    9900012    2    1    2    0    0  0.29223015135E+02 -0.31765512517E+02 -0.45377043749E+01  0.47787272356E+02  0.20000005979E+02 0.  0.
        -12    1    1    2    0    0 -0.29223015135E+02  0.31765512517E+02  0.45377043749E+01  0.43400727644E+02  0.00000000000E+00 0.  1.
         11    1    3    3    0    0  0.88973539257E+00  0.20025436335E+01 -0.26295742992E+01  0.34229331470E+01  0.51100000000E-03 0.  1.
        -11    1    3    3    0    0  0.17309003794E+02 -0.23497294039E+02 -0.62104226733E-01  0.29184384466E+02  0.51100000000E-03 0. -1.
        -12    1    3    3    0    0  0.11024275949E+02 -0.10270762111E+02 -0.18460258490E+01  0.15179954742E+02  0.00000000000E+00 0.  1.
</event>
<event>
 7    1  0.2886681E-010  0.4778728E+02  0.7816164E-02  0.1312668E+00
        -11   -1    0    0    0    0  0.00000000000E+00  0.00000000000E+00  0.45593999997E+02  0.45594000000E+02  0.51100000000E-03 0. -1.
         11   -1    0    0    0    0 -0.00000000000E+00 -0.00000000000E+00 -0.45593999997E+02  0.45594000000E+02  0.51100000000E-03 0.  1.
    9900012    2    1    2    0    0  0.26261793966E+02  0.33817643549E+02  0.70928105885E+01  0.47787276509E+02  0.20000024914E+02 0.  0.
        -12    1    1    2    0    0 -0.26261793966E+02 -0.33817643549E+02 -0.70928105885E+01  0.43400723491E+02  0.00000000000E+00 0.  1.
         11    1    3    3    0    0  0.14617255091E+02  0.28840563935E+02 -0.23159744550E+00  0.32334129215E+02  0.51100000000E-03 0. -1.
        -11    1    3    3    0    0  0.53635359252E+01  0.43800933987E+00  0.50425116346E+01  0.73747063432E+01  0.51100000000E-03 0.  1.
         12    1    3    3    0    0  0.62810029497E+01  0.45390702747E+01  0.22818963995E+01  0.80784409505E+01  0.00000000000E+00 0. -1.
</event>
<event>
 7    1  0.2886681E-010  0.4778727E+02  0.7816164E-02  0.1312668E+00
        -11   -1    0    0    0    0  0.00000000000E+00  0.00000000000E+00  0.45593999997E+02  0.45594000000E+02  0.51100000000E-03 0.  1.
         11   -1    0    0    0    0 -0.00000000000E+00 -0.00000000000E+00 -0.45593999997E+02  0.45594000000E+02  0.51100000000E-03 0. -1.
    9900012    2    1    2    0    0 -0.39422596587E+02 -0.18141812966E+02 -0.59720738300E+00  0.47787272403E+02  0.20000006193E+02 0.  0.
        -12    1    1    2    0    0  0.39422596587E+02  0.18141812966E+02  0.59720738300E+00  0.43400727597E+02  0.00000000000E+00 0.  1.
         11    1    3    3    0    0 -0.89348905707E+01  0.34882877027E+01  0.65212328040E+00  0.96138278350E+01  0.51100000000E-03 0. -1.
        -11    1    3    3    0    0 -0.89476525966E-01 -0.14540002313E+01 -0.85008067175E+00  0.16866416724E+01  0.51100000000E-03 0.  1.
         12    1    3    3    0    0 -0.30398229490E+02 -0.20176100437E+02 -0.39924999165E+00  0.36486802895E+02  0.00000000000E+00 0. -1.
</event>
<event>
 7    1  0.2886681E-010  0.4778727E+02  0.7816164E-02  0.1312668E+00
        -11   -1    0    0    0    0  0.00000000000E+00  0.00000000000E+00  0.45593999997E+02  0.45594000000E+02  0.51100000000E-03 0. -1.
         11   -1    0    0    0    0 -0.00000000000E+00 -0.00000000000E+00 -0.45593999997E+02  0.45594000000E+02  0.51100000000E-03 0.  1.
    9900012    2    1    2    0    0 -0.46205843884E+01 -0.42832130329E+01  0.42940980935E+02  0.47787267776E+02  0.19999985097E+02 0.  0.
        -12    1    1    2    0    0  0.46205843884E+01  0.42832130329E+01 -0.42940980935E+02  0.43400732224E+02  0.00000000000E+00 0.  1.
         11    1    3    3    0    0 -0.15759027139E+01  0.65842134647E+00  0.35054858123E+02  0.35096439510E+02  0.51100000000E-03 0. -1.
        -11    1    3    3    0    0  0.19736955847E+00  0.13853551595E+01  0.46933697686E+01  0.48975385355E+01  0.51100000000E-03 0.  1.
         12    1    3    3    0    0 -0.32420512330E+01 -0.63269895389E+01  0.31927530434E+01  0.77932897302E+01  0.00000000000E+00 0. -1.
</event>
<event>
 7    1  0.2886681E-010  0.4778727E+02  0.7816164E-02  0.1312668E+00
        -11   -1    0    0    0    0  0.00000000000E+00  0.00000000000E+00  0.45593999997E+02  0.45594000000E+02  0.51100000000E-03 0.  1.
         11   -1    0    0    0    0 -0.00000000000E+00 -0.00000000000E+00 -0.45593999997E+02  0.45594000000E+02  0.51100000000E-03 0. -1.
    9900012    2    1    2    0    0 -0.51856298344E+01  0.16212403841E+01 -0.43059305531E+02  0.47787274546E+02  0.20000015963E+02 0.  0.
        -12    1    1    2    0    0  0.51856298344E+01 -0.16212403841E+01  0.43059305531E+02  0.43400725454E+02  0.00000000000E+00 0.  1.
         11    1    3    3    0    0 -0.21685885532E+01 -0.30821324015E+01 -0.48578648555E+01  0.61482654195E+01  0.51100000000E-03 0. -1.
        -11    1    3    3    0    0  0.24523282073E+01 -0.16808554461E+01 -0.29091035885E+02  0.29242564145E+02  0.51100000000E-03 0.  1.
        -12    1    3    3    0    0 -0.54693694885E+01  0.63842282317E+01 -0.91104047909E+01  0.12396444981E+02  0.00000000000E+00 0.  1.
</event>
<event>
 7    1  0.2886681E-010  0.4778727E+02  0.7816164E-02  0.1312668E+00
        -11   -1    0    0    0    0  0.00000000000E+00  0.00000000000E+00  0.45593999997E+02  0.45594000000E+02  0.51100000000E-03 0.  1.
         11   -1    0    0    0    0 -0.00000000000E+00 -0.00000000000E+00 -0.45593999997E+02  0.45594000000E+02  0.51100000000E-03 0. -1.
    9900012    2    1    2    0    0  0.48038954859E+01  0.42174129559E+02 -0.90492467271E+01  0.47787268644E+02  0.19999989055E+02 0.  0.
        -12    1    1    2    0    0 -0.48038954859E+01 -0.42174129559E+02  0.90492467271E+01  0.43400731356E+02  0.00000000000E+00 0.  1.
         11    1    3    3    0    0 -0.11804567802E+01  0.20297724489E+02 -0.78273251604E+01  0.21786649973E+02  0.51100000000E-03 0. -1.
        -11    1    3    3    0    0 -0.10320764420E+01  0.66226238729E+00  0.30179380892E+01  0.32575640934E+01  0.51100000000E-03 0.  1.
        -12    1    3    3    0    0  0.70164287081E+01  0.21214142683E+02 -0.42398596558E+01  0.22743054577E+02  0.00000000000E+00 0.  1.
</event>
<event>
 7    1  0.2886681E-010  0.4778727E+02  0.7816164E-02  0.1312668E+00
        -11   -1    0    0    0    0  0.00000000000E+00  0.00000000000E+00  0.45593999997E+02  0.45594000000E+02  0.51100000000E-03 0. -1.
         11   -1    0    0    0    0 -0.00000000000E+00 -0.00000000000E+00 -0.45593999997E+02  0.45594000000E+02  0.51100000000E-03 0.  1.
    9900012    2    1    2    0    0 -0.34566925202E+02 -0.14067626416E+02  0.22155197825E+02  0.47787271647E+02  0.20000002747E+02 0.  0.
        -12    1    1    2    0    0  0.34566925202E+02  0.14067626416E+02 -0.22155197825E+02  0.43400728353E+02  0.00000000000E+00 0.  1.
         11    1    3    3    0    0 -0.15314398965E+02 -0.44338832571E+01  0.14765146895E+02  0.21730156453E+02  0.51100000000E-03 0. -1.
        -11    1    3    3    0    0 -0.35794684001E+01 -0.85421212973E+00 -0.34758956849E+01  0.50620276040E+01  0.51100000000E-03 0.  1.
        -12    1    3    3    0    0 -0.15673057837E+02 -0.87795310289E+01  0.10865946615E+02  0.20995087590E+02  0.00000000000E+00 0.  1.
</event>
<event>
 7    1  0.2886681E-010  0.4778727E+02  0.7816164E-02  0.1312668E+00
        -11   -1    0    0    0    0  0.00000000000E+00  0.00000000000E+00  0.45593999997E+02  0.45594000000E+02  0.51100000000E-03 0.  1.
         11   -1    0    0    0    0 -0.00000000000E+00 -0.00000000000E+00 -0.45593999997E+02  0.45594000000E+02  0.51100000000E-03 0. -1.
    9900012    2    1    2    0    0  0.23090417667E+02  0.10617571002E+01 -0.36733207692E+02  0.47787271164E+02  0.20000000546E+02 0.  0.
        -12    1    1    2    0    0 -0.23090417667E+02 -0.10617571002E+01  0.36733207692E+02  0.43400728836E+02  0.00000000000E+00 0.  1.
         11    1    3    3    0    0  0.12647602497E+02 -0.16128254753E+01 -0.16516825655E+02  0.20865487891E+02  0.51100000000E-03 0. -1.
        -11    1    3    3    0    0  0.47961863638E+01 -0.28045255688E+01 -0.36488971187E+00  0.55679360687E+01  0.51100000000E-03 0.  1.
        -12    1    3    3    0    0  0.56466288065E+01  0.54791081443E+01 -0.19851492324E+02  0.21353847205E+02  0.00000000000E+00 0.  1.
</event>
<event>
 7    1  0.2886681E-010  0.4778727E+02  0.7816164E-02  0.1312668E+00
        -11   -1    0    0    0    0  0.00000000000E+00  0.00000000000E+00  0.45593999997E+02  0.45594000000E+02  0.51100000000E-03 0.  1.
         11   -1    0    0    0    0 -0.00000000000E+00 -0.00000000000E+00 -0.45593999997E+02  0.45594000000E+02  0.51100000000E-03 0. -1.
    9900012    2    1    2    0    0  0.40823125846E+02  0.35826453780E+00 -0.14729827897E+02  0.47787265131E+02  0.19999973038E+02 0.  0.
        -12    1    1    2    0    0 -0.40823125846E+02 -0.35826453780E+00  0.14729827897E+02  0.43400734869E+02  0.00000000000E+00 0.  1.
         11    1    3    3    0    0  0.35529877807E+02  0.41967188281E+01 -0.92534816483E+01  0.36954182291E+02  0.51100000000E-03 0. -1.
        -11    1    3    3    0    0  0.22830398193E+01  0.16494948465E+01 -0.55494566211E+00  0.28707262172E+01  0.51100000000E-03 0.  1.
         12    1    3    3    0    0  0.30102082188E+01 -0.54879491368E+01 -0.49214005870E+01  0.79623566226E+01  0.00000000000E+00 0. -1.
</event>
<event>
 7    1  0.2886681E-010  0.4778728E+02  0.7816164E-02  0.1312668E+00
        -11   -1    0    0    0    0  0.00000000000E+00  0.00000000000E+00  0.45593999997E+02  0.45594000000E+02  0.51100000000E-03 0.  1.
         11   -1    0    0    0    0 -0.00000000000E+00 -0.00000000000E+00 -0.45593999997E+02  0.45594000000E+02  0.51100000000E-03 0. -1.
    9900012    2    1    2    0    0  0.15801275353E+02  0.90893890334E+00 -0.40411832328E+02  0.47787278062E+02  0.20000031994E+02 0.  0.
        -12    1    1    2    0    0 -0.15801275353E+02 -0.90893890334E+00  0.40411832328E+02  0.43400721938E+02  0.00000000000E+00 0.  1.
         11    1    3    3    0    0 -0.17697610540E+01  0.45895222452E+01 -0.14786837018E+02  0.15583527132E+02  0.51100000000E-03 0. -1.
        -11    1    3    3    0    0  0.13121394186E+02 -0.20587218361E+00 -0.21586384658E+02  0.25262331080E+02  0.51100000000E-03 0.  1.
        -12    1    3    3    0    0  0.44496422209E+01 -0.34747111582E+01 -0.40386106514E+01  0.69414198490E+01  0.00000000000E+00 0.  1.
</event>
<event>
 7    1  0.2886681E-010  0.4778727E+02  0.7816164E-02  0.1312668E+00
        -11   -1    0    0    0    0  0.00000000000E+00  0.00000000000E+00  0.45593999997E+02  0.45594000000E+02  0.51100000000E-03 0.  1.
         11   -1    0    0    0    0 -0.00000000000E+00 -0.00000000000E+00 -0.45593999997E+02  0.45594000000E+02  0.51100000000E-03 0. -1.
    9900012    2    1    2    0    0  0.27456811477E+02  0.47302080436E+00 -0.33608373767E+02  0.47787273826E+02  0.20000012681E+02 0.  0.
        -12    1    1    2    0    0 -0.27456811477E+02 -0.47302080436E+00  0.33608373767E+02  0.43400726174E+02  0.00000000000E+00 0.  1.
         11    1    3    3    0    0  0.49425563497E+01 -0.49191920973E+00 -0.21716980770E+02  0.22277749029E+02  0.51100000000E-03 0. -1.
        -11    1    3    3    0    0  0.14801820626E+02  0.11709488374E+01 -0.80818140116E+01  0.16905050518E+02  0.51100000000E-03 0.  1.
         12    1    3    3    0    0  0.77124345011E+01 -0.20600882333E+00 -0.38095789859E+01  0.86044742791E+01  0.00000000000E+00 0. -1.
</event>
<event>
 7    1  0.2886681E-010  0.4778728E+02  0.7816164E-02  0.1312668E+00
        -11   -1    0    0    0    0  0.00000000000E+00  0.00000000000E+00  0.45593999997E+02  0.45594000000E+02  0.51100000000E-03 0.  1.
         11   -1    0    0    0    0 -0.00000000000E+00 -0.00000000000E+00 -0.45593999997E+02  0.45594000000E+02  0.51100000000E-03 0. -1.
    9900012    2    1    2    0    0 -0.10681168119E+02 -0.35104264131E+02 -0.23178131221E+02  0.47787280197E+02  0.20000041730E+02 0.  0.
        -12    1    1    2    0    0  0.10681168119E+02  0.35104264131E+02  0.23178131221E+02  0.43400719803E+02  0.00000000000E+00 0.  1.
         11    1    3    3    0    0 -0.14186601510E+02 -0.21873762591E+02 -0.17045575074E+02  0.31149201951E+02  0.51100000000E-03 0. -1.
        -11    1    3    3    0    0  0.37355037269E+01 -0.98287159629E+01 -0.75511585148E+01  0.12945178282E+02  0.51100000000E-03 0.  1.
         12    1    3    3    0    0 -0.23007033575E+00 -0.34017855764E+01  0.14186023681E+01  0.36928999642E+01  0.00000000000E+00 0. -1.
</event>
<event>
 7    1  0.2886681E-010  0.4778727E+02  0.7816164E-02  0.1312668E+00
        -11   -1    0    0    0    0  0.00000000000E+00  0.00000000000E+00  0.45593999997E+02  0.45594000000E+02  0.51100000000E-03 0.  1.
         11   -1    0    0    0    0 -0.00000000000E+00 -0.00000000000E+00 -0.45593999997E+02  0.45594000000E+02  0.51100000000E-03 0. -1.
    9900012    2    1    2    0    0  0.36474031115E+02 -0.11738908778E+02 -0.20383002315E+02  0.47787266038E+02  0.19999977174E+02 0.  0.
        -12    1    1    2    0    0 -0.36474031115E+02  0.11738908778E+02  0.20383002315E+02  0.43400733962E+02  0.00000000000E+00 0.  1.
         11    1    3    3    0    0  0.10518185921E+02 -0.79591787303E+00 -0.40988513791E+01  0.11316638336E+02  0.51100000000E-03 0. -1.
        -11    1    3    3    0    0 -0.17718767635E+01 -0.24902293696E+01  0.30573565921E+00  0.30715247244E+01  0.51100000000E-03 0.  1.
        -12    1    3    3    0    0  0.27727721957E+02 -0.84527615349E+01 -0.16589886595E+02  0.33399102978E+02  0.00000000000E+00 0.  1.
</event>
<event>
 7    1  0.2886681E-010  0.4778727E+02  0.7816164E-02  0.1312668E+00
        -11   -1    0    0    0    0  0.00000000000E+00  0.00000000000E+00  0.45593999997E+02  0.45594000000E+02  0.51100000000E-03 0.  1.
         11   -1    0    0    0    0 -0.00000000000E+00 -0.00000000000E+00 -0.45593999997E+02  0.45594000000E+02  0.51100000000E-03 0. -1.
    9900012    2    1    2    0    0 -0.24804185471E+02  0.33949352335E+02  0.10761842651E+02  0.47787269613E+02  0.19999993475E+02 0.  0.
        -12    1    1    2    0    0  0.24804185471E+02 -0.33949352335E+02 -0.10761842651E+02  0.43400730387E+02  0.00000000000E+00 0.  1.
         11    1    3    3    0    0 -0.81539768473E+01  0.13068426246E+02  0.31624359232E+01  0.15724888051E+02  0.51100000000E-03 0. -1.
        -11    1    3    3    0    0 -0.19223393256E+02  0.14010911690E+02  0.52577303435E+01  0.24361613725E+02  0.51100000000E-03 0.  1.
        -12    1    3    3    0    0  0.25731846329E+01  0.68700143986E+01  0.23416763847E+01  0.77007678373E+01  0.00000000000E+00 0.  1.
</event>
<event>
 7    1  0.2886681E-010  0.4778727E+02  0.7816164E-02  0.1312668E+00
        -11   -1    0    0    0    0  0.00000000000E+00  0.00000000000E+00  0.45593999997E+02  0.45594000000E+02  0.51100000000E-03 0.  1.
         11   -1    0    0    0    0 -0.00000000000E+00 -0.00000000000E+00 -0.45593999997E+02  0.45594000000E+02  0.51100000000E-03 0. -1.
    9900012    2    1    2    0    0  0.33539947819E+02 -0.39218917359E+01 -0.27263789244E+02  0.47787267997E+02  0.19999986104E+02 0.  0.
        -12    1    1    2    0    0 -0.33539947819E+02  0.39218917359E+01  0.27263789244E+02  0.43400732003E+02  0.00000000000E+00 0.  1.
         11    1    3    3    0    0  0.20844911797E+02 -0.32621624861E+01 -0.13239068788E+02  0.24908331830E+02  0.51100000000E-03 0. -1.
        -11    1    3    3    0    0  0.98837531175E+00  0.47045935409E+01 -0.18299216649E+01  0.51438020668E+01  0.51100000000E-03 0.  1.
        -12    1    3    3    0    0  0.11706660710E+02 -0.53643227907E+01 -0.12194798791E+02  0.17735134100E+02  0.00000000000E+00 0.  1.
</event>
<event>
 7    1  0.2886681E-010  0.4778728E+02  0.7816164E-02  0.1312668E+00
        -11   -1    0    0    0    0  0.00000000000E+00  0.00000000000E+00  0.45593999997E+02  0.45594000000E+02  0.51100000000E-03 0. -1.
         11   -1    0    0    0    0 -0.00000000000E+00 -0.00000000000E+00 -0.45593999997E+02  0.45594000000E+02  0.51100000000E-03 0.  1.
    9900012    2    1    2    0    0  0.13177963961E+02 -0.37338230600E+02  0.17771344500E+02  0.47787275537E+02  0.20000020485E+02 0.  0.
        -12    1    1    2    0    0 -0.13177963961E+02  0.37338230600E+02 -0.17771344500E+02  0.43400724463E+02  0.00000000000E+00 0.  1.
         11    1    3    3    0    0 -0.17404989725E+01 -0.11686661835E+02 -0.53530700609E+00  0.11827677514E+02  0.51100000000E-03 0. -1.
        -11    1    3    3    0    0  0.11288484135E+02 -0.22452711232E+02  0.18356557358E+02  0.31121010813E+02  0.51100000000E-03 0.  1.
        -12    1    3    3    0    0  0.36299787986E+01 -0.31988575332E+01 -0.49905851761E-01  0.48385872102E+01  0.00000000000E+00 0.  1.
</event>
<event>
 7    1  0.2886681E-010  0.4778727E+02  0.7816164E-02  0.1312668E+00
        -11   -1    0    0    0    0  0.00000000000E+00  0.00000000000E+00  0.45593999997E+02  0.45594000000E+02  0.51100000000E-03 0.  1.
         11   -1    0    0    0    0 -0.00000000000E+00 -0.00000000000E+00 -0.45593999997E+02  0.45594000000E+02  0.51100000000E-03 0. -1.
    9900012    2    1    2    0    0  0.36564707612E+02  0.23318595947E+02  0.16997122393E+01  0.47787265198E+02  0.19999973342E+02 0.  0.
        -12    1    1    2    0    0 -0.36564707612E+02 -0.23318595947E+02 -0.16997122393E+01  0.43400734802E+02  0.00000000000E+00 0.  1.
         11    1    3    3    0    0  0.42156684683E+01  0.25692302805E+01 -0.45626609651E+01  0.67224013725E+01  0.51100000000E-03 0. -1.
        -11    1    3    3    0    0  0.51737027265E+01  0.84771107131E+01 -0.19845212739E+01  0.10127533307E+02  0.51100000000E-03 0.  1.
         12    1    3    3    0    0  0.27175336417E+02  0.12272254953E+02  0.82468944783E+01  0.30937330518E+02  0.00000000000E+00 0. -1.
</event>
<event>
 7    1  0.2886681E-010  0.4778722E+02  0.7816164E-02  0.1312668E+00
        -11   -1    0    0    0    0  0.00000000000E+00  0.00000000000E+00  0.45593999997E+02  0.45594000000E+02  0.51100000000E-03 0.  1.
         11   -1    0    0    0    0 -0.00000000000E+00 -0.00000000000E+00 -0.45593999997E+02  0.45594000000E+02  0.51100000000E-03 0. -1.
    9900012    2    1    2    0    0  0.29051430521E+02  0.25466750575E+02 -0.19775907332E+02  0.47787222231E+02  0.19999777439E+02 0.  0.
        -12    1    1    2    0    0 -0.29051430521E+02 -0.25466750575E+02  0.19775907332E+02  0.43400777769E+02  0.00000000000E+00 0.  1.
         11    1    3    3    0    0  0.14962360148E+02  0.34560904747E+01 -0.79606912860E+01  0.17297091911E+02  0.51100000000E-03 0. -1.
        -11    1    3    3    0    0  0.99802951004E+00  0.61276693711E+01  0.93481417287E+00  0.62783972973E+01  0.51100000000E-03 0.  1.
        -12    1    3    3    0    0  0.13091040862E+02  0.15882990729E+02 -0.12750030219E+02  0.24211733022E+02  0.00000000000E+00 0.  1.
</event>
<event>
 7    1  0.2886681E-010  0.4778727E+02  0.7816164E-02  0.1312668E+00
        -11   -1    0    0    0    0  0.00000000000E+00  0.00000000000E+00  0.45593999997E+02  0.45594000000E+02  0.51100000000E-03 0. -1.
         11   -1    0    0    0    0 -0.00000000000E+00 -0.00000000000E+00 -0.45593999997E+02  0.45594000000E+02  0.51100000000E-03 0.  1.
    9900012    2    1    2    0    0  0.16572895479E+02 -0.31403789541E+02  0.24955248716E+02  0.47787270737E+02  0.19999998597E+02 0.  0.
        -12    1    1    2    0    0 -0.16572895479E+02  0.31403789541E+02 -0.24955248716E+02  0.43400729263E+02  0.00000000000E+00 0.  1.
         11    1    3    3    0    0  0.15812870019E+02 -0.25382436727E+02  0.20741850903E+02  0.36394221130E+02  0.51100000000E-03 0. -1.
        -11    1    3    3    0    0 -0.13088383041E+01 -0.11512054261E+01  0.56478362399E+01  0.59107009816E+01  0.51100000000E-03 0.  1.
        -12    1    3    3    0    0  0.20688637636E+01 -0.48701473877E+01 -0.14344384272E+01  0.54823486255E+01  0.00000000000E+00 0.  1.
</event>
<event>
 7    1  0.2886681E-010  0.4778728E+02  0.7816164E-02  0.1312668E+00
        -11   -1    0    0    0    0  0.00000000000E+00  0.00000000000E+00  0.45593999997E+02  0.45594000000E+02  0.51100000000E-03 0.  1.
         11   -1    0    0    0    0 -0.00000000000E+00 -0.00000000000E+00 -0.45593999997E+02  0.45594000000E+02  0.51100000000E-03 0. -1.
    9900012    2    1    2    0    0  0.43177345330E+02 -0.31622462408E+01 -0.30561203064E+01  0.47787276246E+02  0.20000023715E+02 0.  0.
        -12    1    1    2    0    0 -0.43177345330E+02  0.31622462408E+01  0.30561203064E+01  0.43400723754E+02  0.00000000000E+00 0.  1.
         11    1    3    3    0    0  0.16140051932E+02 -0.62754175207E+01 -0.73641086937E+01  0.18817870191E+02  0.51100000000E-03 0. -1.
        -11    1    3    3    0    0  0.22378236138E+02 -0.36924019822E+00  0.12951062656E+01  0.22418721896E+02  0.51100000000E-03 0.  1.
         12    1    3    3    0    0  0.46590572603E+01  0.34824114781E+01  0.30128821217E+01  0.65506841579E+01  0.00000000000E+00 0. -1.
</event>
<event>
 7    1  0.2886681E-010  0.4778728E+02  0.7816164E-02  0.1312668E+00
        -11   -1    0    0    0    0  0.00000000000E+00  0.00000000000E+00  0.45593999997E+02  0.45594000000E+02  0.51100000000E-03 0. -1.
         11   -1    0    0    0    0 -0.00000000000E+00 -0.00000000000E+00 -0.45593999997E+02  0.45594000000E+02  0.51100000000E-03 0.  1.
    9900012    2    1    2    0    0 -0.38850552753E+01 -0.22944925254E+01  0.43165547214E+02  0.47787276311E+02  0.20000024013E+02 0.  0.
        -12    1    1    2    0    0  0.38850552753E+01  0.22944925254E+01 -0.43165547214E+02  0.43400723689E+02  0.00000000000E+00 0.  1.
         11    1    3    3    0    0  0.41092094046E+01  0.27331318253E+00  0.17517091841E+01  0.44753533217E+01  0.51100000000E-03 0. -1.
        -11    1    3    3    0    0 -0.32690242896E+00 -0.32725648356E+01  0.43312691008E+01  0.54384223895E+01  0.51100000000E-03 0.  1.
         12    1    3    3    0    0 -0.76673622510E+01  0.70475912774E+00  0.37082568929E+02  0.37873500600E+02  0.00000000000E+00 0. -1.
</event>
<event>
 7    1  0.2886681E-010  0.4778726E+02  0.7816164E-02  0.1312668E+00
        -11   -1    0    0    0    0  0.00000000000E+00  0.00000000000E+00  0.45593999997E+02  0.45594000000E+02  0.51100000000E-03 0.  1.
         11   -1    0    0    0    0 -0.00000000000E+00 -0.00000000000E+00 -0.45593999997E+02  0.45594000000E+02  0.51100000000E-03 0. -1.
    9900012    2    1    2    0    0 -0.96685960377E+01  0.15688952823E+02 -0.39293750409E+02  0.47787264854E+02  0.19999971776E+02 0.  0.
        -12    1    1    2    0    0  0.96685960377E+01 -0.15688952823E+02  0.39293750409E+02  0.43400735146E+02  0.00000000000E+00 0.  1.
         11    1    3    3    0    0  0.43253046290E+01  0.47271073421E+01 -0.10447138726E+02  0.12255468647E+02  0.51100000000E-03 0. -1.
        -11    1    3    3    0    0 -0.13972183887E+02  0.82310719657E+01 -0.17488277750E+02  0.23849786733E+02  0.51100000000E-03 0.  1.
        -12    1    3    3    0    0 -0.21716779688E-01  0.27307735149E+01 -0.11358333934E+02  0.11682009474E+02  0.00000000000E+00 0.  1.
</event>
<event>
 7    1  0.2886681E-010  0.4778727E+02  0.7816164E-02  0.1312668E+00
        -11   -1    0    0    0    0  0.00000000000E+00  0.00000000000E+00  0.45593999997E+02  0.45594000000E+02  0.51100000000E-03 0.  1.
         11   -1    0    0    0    0 -0.00000000000E+00 -0.00000000000E+00 -0.45593999997E+02  0.45594000000E+02  0.51100000000E-03 0. -1.
    9900012    2    1    2    0    0  0.25386868642E+02 -0.34024622967E+02  0.90252657902E+01  0.47787268554E+02  0.19999988643E+02 0.  0.
        -12    1    1    2    0    0 -0.25386868642E+02  0.34024622967E+02 -0.90252657902E+01  0.43400731446E+02  0.00000000000E+00 0.  1.
         11    1    3    3    0    0  0.67426901163E+01 -0.20141867279E+02  0.66865577155E+01  0.22268110424E+02  0.51100000000E-03 0. -1.
        -11    1    3    3    0    0 -0.44790899168E+00 -0.37851533870E+01  0.22831205373E+00  0.38183943331E+01  0.51100000000E-03 0.  1.
         12    1    3    3    0    0  0.19092087517E+02 -0.10097602301E+02  0.21103960209E+01  0.21700763797E+02  0.00000000000E+00 0. -1.
</event>
<event>
 7    1  0.2886681E-010  0.4778728E+02  0.7816164E-02  0.1312668E+00
        -11   -1    0    0    0    0  0.00000000000E+00  0.00000000000E+00  0.45593999997E+02  0.45594000000E+02  0.51100000000E-03 0.  1.
         11   -1    0    0    0    0 -0.00000000000E+00 -0.00000000000E+00 -0.45593999997E+02  0.45594000000E+02  0.51100000000E-03 0. -1.
    9900012    2    1    2    0    0  0.16051069757E+02  0.41008988421E+00 -0.40321423832E+02  0.47787283026E+02  0.20000054627E+02 0.  0.
        -12    1    1    2    0    0 -0.16051069757E+02 -0.41008988421E+00  0.40321423832E+02  0.43400716974E+02  0.00000000000E+00 0.  1.
         11    1    3    3    0    0  0.95498699101E+01  0.23555511672E+00 -0.34377096023E+02  0.35679689359E+02  0.51100000000E-03 0. -1.
        -11    1    3    3    0    0  0.80632670414E+01  0.88295617910E+00 -0.64007096146E+01  0.10332713624E+02  0.51100000000E-03 0.  1.
         12    1    3    3    0    0 -0.15620671945E+01 -0.70842141161E+00  0.45638180542E+00  0.17748800435E+01  0.00000000000E+00 0. -1.
</event>
<event>
 7    1  0.2886681E-010  0.4778727E+02  0.7816164E-02  0.1312668E+00
        -11   -1    0    0    0    0  0.00000000000E+00  0.00000000000E+00  0.45593999997E+02  0.45594000000E+02  0.51100000000E-03 0.  1.
         11   -1    0    0    0    0 -0.00000000000E+00 -0.00000000000E+00 -0.45593999997E+02  0.45594000000E+02  0.51100000000E-03 0. -1.
    9900012    2    1    2    0    0 -0.36755016767E+02  0.73052060569E+01 -0.21893512278E+02  0.47787272207E+02  0.20000005303E+02 0.  0.
        -12    1    1    2    0    0  0.36755016767E+02 -0.73052060569E+01  0.21893512278E+02  0.43400727793E+02  0.00000000000E+00 0.  1.
         11    1    3    3    0    0 -0.18828368483E+02 -0.25884253350E+01 -0.11108795288E+02  0.22013921469E+02  0.51100000000E-03 0. -1.
        -11    1    3    3    0    0 -0.11758484273E+02  0.55045246745E+01 -0.48686209579E+00  0.12992258435E+02  0.51100000000E-03 0.  1.
        -12    1    3    3    0    0 -0.61681640114E+01  0.43891067174E+01 -0.10297854894E+02  0.12781092303E+02  0.00000000000E+00 0.  1.
</event>
<event>
 7    1  0.2886681E-010  0.4778726E+02  0.7816164E-02  0.1312668E+00
        -11   -1    0    0    0    0  0.00000000000E+00  0.00000000000E+00  0.45593999997E+02  0.45594000000E+02  0.51100000000E-03 0.  1.
         11   -1    0    0    0    0 -0.00000000000E+00 -0.00000000000E+00 -0.45593999997E+02  0.45594000000E+02  0.51100000000E-03 0. -1.
    9900012    2    1    2    0    0  0.25139261855E+02 -0.33619351886E+02 -0.11017290016E+02  0.47787262827E+02  0.19999962534E+02 0.  0.
        -12    1    1    2    0    0 -0.25139261855E+02  0.33619351886E+02  0.11017290016E+02  0.43400737173E+02  0.00000000000E+00 0.  1.
         11    1    3    3    0    0  0.95549238564E+01 -0.79205709177E+01 -0.10732848827E+01  0.12457285188E+02  0.51100000000E-03 0. -1.
        -11    1    3    3    0    0  0.28883385367E+01 -0.33160947932E+01  0.41016611268E+01  0.60135354360E+01  0.51100000000E-03 0.  1.
        -12    1    3    3    0    0  0.12695999461E+02 -0.22382686175E+02 -0.14045666260E+02  0.29316442203E+02  0.00000000000E+00 0.  1.
</event>
<event>
 7    1  0.2886681E-010  0.4778727E+02  0.7816164E-02  0.1312668E+00
        -11   -1    0    0    0    0  0.00000000000E+00  0.00000000000E+00  0.45593999997E+02  0.45594000000E+02  0.51100000000E-03 0.  1.
         11   -1    0    0    0    0 -0.00000000000E+00 -0.00000000000E+00 -0.45593999997E+02  0.45594000000E+02  0.51100000000E-03 0. -1.
    9900012    2    1    2    0    0 -0.23373070256E+02  0.42081774702E+01 -0.36326495509E+02  0.47787269053E+02  0.19999990920E+02 0.  0.
        -12    1    1    2    0    0  0.23373070256E+02 -0.42081774702E+01  0.36326495509E+02  0.43400730947E+02  0.00000000000E+00 0.  1.
         11    1    3    3    0    0 -0.13620781752E+02 -0.27054587843E+01 -0.27363761391E+02  0.30685837784E+02  0.51100000000E-03 0. -1.
        -11    1    3    3    0    0 -0.10730825667E+02  0.42747939197E+01 -0.60049441569E+01  0.13018595821E+02  0.51100000000E-03 0.  1.
         12    1    3    3    0    0  0.97853716315E+00  0.26388423348E+01 -0.29577899609E+01  0.40828354486E+01  0.00000000000E+00 0. -1.
</event>
<event>
 7    1  0.3329454E-010  0.4778727E+02  0.7816164E-02  0.1312668E+00
        -11   -1    0    0    0    0  0.00000000000E+00  0.00000000000E+00  0.45593999997E+02  0.45594000000E+02  0.51100000000E-03 0.  1.
         11   -1    0    0    0    0 -0.00000000000E+00 -0.00000000000E+00 -0.45593999997E+02  0.45594000000E+02  0.51100000000E-03 0. -1.
    9900012    2    1    2    0    0 -0.20909898836E+02  0.29950756283E+02 -0.23438253173E+02  0.47787269787E+02  0.19999994265E+02 0.  0.
        -12    1    1    2    0    0  0.20909898836E+02 -0.29950756283E+02  0.23438253173E+02  0.43400730213E+02  0.00000000000E+00 0.  1.
         11    1    3    3    0    0 -0.15116390101E+02  0.12348267938E+02 -0.18321243582E+02  0.26770374248E+02  0.51100000000E-03 0. -1.
        -11    1    3    3    0    0  0.12291916432E+01  0.90444937949E+00  0.10821377250E+01  0.18708188295E+01  0.51100000000E-03 0.  1.
         12    1    3    3    0    0 -0.70227003781E+01  0.16698038965E+02 -0.61991473162E+01  0.19146076709E+02  0.00000000000E+00 0. -1.
</event>
<event>
 7    1  0.2886681E-010  0.4778728E+02  0.7816164E-02  0.1312668E+00
        -11   -1    0    0    0    0  0.00000000000E+00  0.00000000000E+00  0.45593999997E+02  0.45594000000E+02  0.51100000000E-03 0. -1.
         11   -1    0    0    0    0 -0.00000000000E+00 -0.00000000000E+00 -0.45593999997E+02  0.45594000000E+02  0.51100000000E-03 0.  1.
    9900012    2    1    2    0    0 -0.12487834390E+02 -0.29309677065E+02  0.29472349113E+02  0.47787279503E+02  0.20000038566E+02 0.  0.
        -12    1    1    2    0    0  0.12487834390E+02  0.29309677065E+02 -0.29472349113E+02  0.43400720497E+02  0.00000000000E+00 0.  1.
         11    1    3    3    0    0 -0.13904498641E+02 -0.22154714443E+02  0.26311522941E+02  0.37100710158E+02  0.51100000000E-03 0. -1.
        -11    1    3    3    0    0  0.28639401159E+01 -0.69666497026E+01  0.37511183919E+00  0.75416888174E+01  0.51100000000E-03 0.  1.
         12    1    3    3    0    0 -0.14472758652E+01 -0.18831291939E+00  0.27857143330E+01  0.31448805272E+01  0.00000000000E+00 0. -1.
</event>
<event>
 7    1  0.2886681E-010  0.4778727E+02  0.7816164E-02  0.1312668E+00
        -11   -1    0    0    0    0  0.00000000000E+00  0.00000000000E+00  0.45593999997E+02  0.45594000000E+02  0.51100000000E-03 0.  1.
         11   -1    0    0    0    0 -0.00000000000E+00 -0.00000000000E+00 -0.45593999997E+02  0.45594000000E+02  0.51100000000E-03 0. -1.
    9900012    2    1    2    0    0  0.20246677525E+02  0.28602051884E+02 -0.25605035669E+02  0.47787272190E+02  0.20000005225E+02 0.  0.
        -12    1    1    2    0    0 -0.20246677525E+02 -0.28602051884E+02  0.25605035669E+02  0.43400727810E+02  0.00000000000E+00 0.  1.
         11    1    3    3    0    0  0.43799604800E+01  0.44674279711E+01 -0.11333785047E+02  0.12945912491E+02  0.51100000000E-03 0. -1.
        -11    1    3    3    0    0  0.13482995348E+02  0.25313969881E+02 -0.11229242513E+02  0.30800716263E+02  0.51100000000E-03 0.  1.
        -12    1    3    3    0    0  0.23837216972E+01 -0.11793459672E+01 -0.30420081086E+01  0.40406434355E+01  0.00000000000E+00 0.  1.
</event>
<event>
 7    1  0.2886681E-010  0.4778727E+02  0.7816164E-02  0.1312668E+00
        -11   -1    0    0    0    0  0.00000000000E+00  0.00000000000E+00  0.45593999997E+02  0.45594000000E+02  0.51100000000E-03 0. -1.
         11   -1    0    0    0    0 -0.00000000000E+00 -0.00000000000E+00 -0.45593999997E+02  0.45594000000E+02  0.51100000000E-03 0.  1.
    9900012    2    1    2    0    0  0.34542124971E+02  0.17738547473E+02  0.19385786699E+02  0.47787272012E+02  0.20000004413E+02 0.  0.
        -12    1    1    2    0    0 -0.34542124971E+02 -0.17738547473E+02 -0.19385786699E+02  0.43400727988E+02  0.00000000000E+00 0.  1.
         11    1    3    3    0    0  0.12692998790E+02  0.41427322885E+01  0.47470209561E+01  0.14170697135E+02  0.51100000000E-03 0.  1.
        -11    1    3    3    0    0  0.22638046768E+02  0.14315468056E+02  0.16508506777E+02  0.31463384805E+02  0.51100000000E-03 0. -1.
        -12    1    3    3    0    0 -0.78892058737E+00 -0.71965287171E+00 -0.18697410341E+01  0.21531900714E+01  0.00000000000E+00 0.  1.
</event>
<event>
 7    1  0.2886681E-010  0.4778727E+02  0.7816164E-02  0.1312668E+00
        -11   -1    0    0    0    0  0.00000000000E+00  0.00000000000E+00  0.45593999997E+02  0.45594000000E+02  0.51100000000E-03 0. -1.
         11   -1    0    0    0    0 -0.00000000000E+00 -0.00000000000E+00 -0.45593999997E+02  0.45594000000E+02  0.51100000000E-03 0.  1.
    9900012    2    1    2    0    0 -0.64121242790E+01 -0.42292827255E+02  0.73365131290E+01  0.47787274201E+02  0.20000014392E+02 0.  0.
        -12    1    1    2    0    0  0.64121242790E+01  0.42292827255E+02 -0.73365131290E+01  0.43400725799E+02  0.00000000000E+00 0.  1.
         11    1    3    3    0    0 -0.84178610859E+01 -0.32660797141E+02  0.99851801240E+01  0.35175159950E+02  0.51100000000E-03 0. -1.
        -11    1    3    3    0    0  0.63927299321E+00  0.98278355988E+00  0.73956662100E+00  0.13861791130E+01  0.51100000000E-03 0.  1.
         12    1    3    3    0    0  0.13664638136E+01 -0.10614813674E+02 -0.33882336159E+01  0.11225935138E+02  0.00000000000E+00 0. -1.
</event>
<event>
 7    1  0.2886681E-010  0.4778727E+02  0.7816164E-02  0.1312668E+00
        -11   -1    0    0    0    0  0.00000000000E+00  0.00000000000E+00  0.45593999997E+02  0.45594000000E+02  0.51100000000E-03 0.  1.
         11   -1    0    0    0    0 -0.00000000000E+00 -0.00000000000E+00 -0.45593999997E+02  0.45594000000E+02  0.51100000000E-03 0. -1.
    9900012    2    1    2    0    0 -0.22302972950E+02  0.22220366506E+02 -0.29874002917E+02  0.47787270278E+02  0.19999996507E+02 0.  0.
        -12    1    1    2    0    0  0.22302972950E+02 -0.22220366506E+02  0.29874002917E+02  0.43400729722E+02  0.00000000000E+00 0.  1.
         11    1    3    3    0    0 -0.51409645495E+01  0.39339790734E+01 -0.16356915082E+02  0.17591315445E+02  0.51100000000E-03 0. -1.
        -11    1    3    3    0    0 -0.15465858200E+02  0.19351911730E+02 -0.13457323086E+02  0.28191998907E+02  0.51100000000E-03 0.  1.
        -12    1    3    3    0    0 -0.16961502004E+01 -0.10655242966E+01 -0.59764749549E-01  0.20039559263E+01  0.00000000000E+00 0.  1.
</event>
<event>
 7    1  0.2886681E-010  0.4778727E+02  0.7816164E-02  0.1312668E+00
        -11   -1    0    0    0    0  0.00000000000E+00  0.00000000000E+00  0.45593999997E+02  0.45594000000E+02  0.51100000000E-03 0.  1.
         11   -1    0    0    0    0 -0.00000000000E+00 -0.00000000000E+00 -0.45593999997E+02  0.45594000000E+02  0.51100000000E-03 0. -1.
    9900012    2    1    2    0    0 -0.29996734807E+01  0.36647394586E+02 -0.23056321900E+02  0.47787267858E+02  0.19999985472E+02 0.  0.
        -12    1    1    2    0    0  0.29996734807E+01 -0.36647394586E+02  0.23056321900E+02  0.43400732142E+02  0.00000000000E+00 0.  1.
         11    1    3    3    0    0 -0.70630450143E+01  0.22394982736E+02 -0.21254972027E+02  0.31673264637E+02  0.51100000000E-03 0. -1.
        -11    1    3    3    0    0  0.24511943363E+00  0.81942805506E+01  0.13177713402E+01  0.83031824529E+01  0.51100000000E-03 0.  1.
         12    1    3    3    0    0  0.38182521000E+01  0.60581312991E+01 -0.31191212132E+01  0.78108207686E+01  0.00000000000E+00 0. -1.
</event>
<event>
 7    1  0.2886681E-010  0.4778726E+02  0.7816164E-02  0.1312668E+00
        -11   -1    0    0    0    0  0.00000000000E+00  0.00000000000E+00  0.45593999997E+02  0.45594000000E+02  0.51100000000E-03 0.  1.
         11   -1    0    0    0    0 -0.00000000000E+00 -0.00000000000E+00 -0.45593999997E+02  0.45594000000E+02  0.51100000000E-03 0. -1.
    9900012    2    1    2    0    0  0.39461451435E+02  0.11249250821E+02 -0.14137610672E+02  0.47787264650E+02  0.19999970847E+02 0.  0.
        -12    1    1    2    0    0 -0.39461451435E+02 -0.11249250821E+02  0.14137610672E+02  0.43400735350E+02  0.00000000000E+00 0.  1.
         11    1    3    3    0    0  0.46927843686E+01  0.46389528734E+00 -0.88713697534E+00  0.47983785013E+01  0.51100000000E-03 0. -1.
        -11    1    3    3    0    0  0.17401423018E+02  0.13750922113E+02 -0.12261599445E+02  0.25342537426E+02  0.51100000000E-03 0.  1.
        -12    1    3    3    0    0  0.17367244048E+02 -0.29655665791E+01 -0.98887425205E+00  0.17646348723E+02  0.00000000000E+00 0.  1.
</event>
<event>
 7    1  0.2886681E-010  0.4778727E+02  0.7816164E-02  0.1312668E+00
        -11   -1    0    0    0    0  0.00000000000E+00  0.00000000000E+00  0.45593999997E+02  0.45594000000E+02  0.51100000000E-03 0.  1.
         11   -1    0    0    0    0 -0.00000000000E+00 -0.00000000000E+00 -0.45593999997E+02  0.45594000000E+02  0.51100000000E-03 0. -1.
    9900012    2    1    2    0    0 -0.66957342469E-01  0.25445468749E+02 -0.35158879850E+02  0.47787271948E+02  0.20000004120E+02 0.  0.
        -12    1    1    2    0    0  0.66957342469E-01 -0.25445468749E+02  0.35158879850E+02  0.43400728052E+02  0.00000000000E+00 0.  1.
         11    1    3    3    0    0 -0.32471665187E+01  0.17602434494E+01 -0.11508915813E+02  0.12087087774E+02  0.51100000000E-03 0. -1.
        -11    1    3    3    0    0  0.76138438976E+01  0.13341315399E+02 -0.11909887087E+02  0.19437250993E+02  0.51100000000E-03 0.  1.
        -12    1    3    3    0    0 -0.44336347214E+01  0.10343909900E+02 -0.11740076949E+02  0.16262933181E+02  0.00000000000E+00 0.  1.
</event>
<event>
 7    1  0.2886681E-010  0.4778725E+02  0.7816164E-02  0.1312668E+00
        -11   -1    0    0    0    0  0.00000000000E+00  0.00000000000E+00  0.45593999997E+02  0.45594000000E+02  0.51100000000E-03 0. -1.
         11   -1    0    0    0    0 -0.00000000000E+00 -0.00000000000E+00 -0.45593999997E+02  0.45594000000E+02  0.51100000000E-03 0.  1.
    9900012    2    1    2    0    0 -0.89636283725E+01  0.40415947204E+02  0.13031864249E+02  0.47787252221E+02  0.19999914177E+02 0.  0.
        -12    1    1    2    0    0  0.89636283725E+01 -0.40415947204E+02 -0.13031864249E+02  0.43400747779E+02  0.00000000000E+00 0.  1.
         11    1    3    3    0    0 -0.57663134728E+01  0.25986245440E+01  0.45907789408E+01  0.78152717247E+01  0.51100000000E-03 0. -1.
        -11    1    3    3    0    0 -0.58630351337E+01  0.18197385793E+02  0.23876117066E+01  0.19267089054E+02  0.51100000000E-03 0.  1.
         12    1    3    3    0    0  0.26657202340E+01  0.19619936866E+02  0.60534736013E+01  0.20704891443E+02  0.00000000000E+00 0. -1.
</event>
<event>
 7    1  0.2886681E-010  0.4778727E+02  0.7816164E-02  0.1312668E+00
        -11   -1    0    0    0    0  0.00000000000E+00  0.00000000000E+00  0.45593999997E+02  0.45594000000E+02  0.51100000000E-03 0. -1.
         11   -1    0    0    0    0 -0.00000000000E+00 -0.00000000000E+00 -0.45593999997E+02  0.45594000000E+02  0.51100000000E-03 0.  1.
    9900012    2    1    2    0    0  0.42662220040E+02  0.29835200613E+01 -0.73930100639E+01  0.47787274102E+02  0.20000013941E+02 0.  0.
        -12    1    1    2    0    0 -0.42662220040E+02 -0.29835200613E+01  0.73930100639E+01  0.43400725898E+02  0.00000000000E+00 0.  1.
         11    1    3    3    0    0  0.32821797725E+02 -0.60095637864E+00 -0.30256908826E+01  0.32966442939E+02  0.51100000000E-03 0. -1.
        -11    1    3    3    0    0  0.41897035775E+01  0.63069428477E+01 -0.82296353390E+00  0.76163254519E+01  0.51100000000E-03 0.  1.
         12    1    3    3    0    0  0.56507187371E+01 -0.27224664077E+01 -0.35443556474E+01  0.72045057111E+01  0.00000000000E+00 0. -1.
</event>
<event>
 7    1  0.2886681E-010  0.4778731E+02  0.7816164E-02  0.1312668E+00
        -11   -1    0    0    0    0  0.00000000000E+00  0.00000000000E+00  0.45593999997E+02  0.45594000000E+02  0.51100000000E-03 0.  1.
         11   -1    0    0    0    0 -0.00000000000E+00 -0.00000000000E+00 -0.45593999997E+02  0.45594000000E+02  0.51100000000E-03 0. -1.
    9900012    2    1    2    0    0  0.31147403445E+02  0.26997251122E+02 -0.13587040048E+02  0.47787309144E+02  0.20000173709E+02 0.  0.
        -12    1    1    2    0    0 -0.31147403445E+02 -0.26997251122E+02  0.13587040048E+02  0.43400690856E+02  0.00000000000E+00 0.  1.
         11    1    3    3    0    0  0.14467918651E+02  0.11463052470E+02 -0.12145849045E+02  0.22096241565E+02  0.51100000000E-03 0. -1.
        -11    1    3    3    0    0 -0.94845684633E+00 -0.19657566404E+00  0.15994899462E+01  0.18699146318E+01  0.51100000000E-03 0.  1.
        -12    1    3    3    0    0  0.17627941640E+02  0.15730774317E+02 -0.30406809489E+01  0.23821152947E+02  0.00000000000E+00 0.  1.
</event>
<event>
 7    1  0.2886681E-010  0.4778727E+02  0.7816164E-02  0.1312668E+00
        -11   -1    0    0    0    0  0.00000000000E+00  0.00000000000E+00  0.45593999997E+02  0.45594000000E+02  0.51100000000E-03 0.  1.
         11   -1    0    0    0    0 -0.00000000000E+00 -0.00000000000E+00 -0.45593999997E+02  0.45594000000E+02  0.51100000000E-03 0. -1.
    9900012    2    1    2    0    0 -0.58947503682E+01  0.40868358599E+02 -0.13366084986E+02  0.47787273689E+02  0.20000012056E+02 0.  0.
        -12    1    1    2    0    0  0.58947503682E+01 -0.40868358599E+02  0.13366084986E+02  0.43400726311E+02  0.00000000000E+00 0.  1.
         11    1    3    3    0    0 -0.13734473162E+01  0.11103164199E+02 -0.11041464574E+02  0.15718796168E+02  0.51100000000E-03 0. -1.
        -11    1    3    3    0    0 -0.64305607319E+01  0.29159791243E+02 -0.14869770225E+01  0.29897435302E+02  0.51100000000E-03 0.  1.
        -12    1    3    3    0    0  0.19092576798E+01  0.60540315678E+00 -0.83764338898E+00  0.21710422191E+01  0.00000000000E+00 0.  1.
</event>
<event>
 7    1  0.2886681E-010  0.4778727E+02  0.7816164E-02  0.1312668E+00
        -11   -1    0    0    0    0  0.00000000000E+00  0.00000000000E+00  0.45593999997E+02  0.45594000000E+02  0.51100000000E-03 0. -1.
         11   -1    0    0    0    0 -0.00000000000E+00 -0.00000000000E+00 -0.45593999997E+02  0.45594000000E+02  0.51100000000E-03 0.  1.
    9900012    2    1    2    0    0  0.42994581321E+02 -0.59049228065E+01  0.46991341811E+00  0.47787274719E+02  0.20000016753E+02 0.  0.
        -12    1    1    2    0    0 -0.42994581321E+02  0.59049228065E+01 -0.46991341811E+00  0.43400725281E+02  0.00000000000E+00 0.  1.
         11    1    3    3    0    0  0.53566677528E+01  0.14859396126E+01 -0.63313872118E+01  0.84254596453E+01  0.51100000000E-03 0.  1.
        -11    1    3    3    0    0  0.21335065676E+02 -0.66162474729E+01  0.53978103372E+01  0.22980341919E+02  0.51100000000E-03 0. -1.
        -12    1    3    3    0    0  0.16302847892E+02 -0.77461494628E+00  0.14034902928E+01  0.16381473154E+02  0.00000000000E+00 0.  1.
</event>
<event>
 7    1  0.2886681E-010  0.4778728E+02  0.7816164E-02  0.1312668E+00
        -11   -1    0    0    0    0  0.00000000000E+00  0.00000000000E+00  0.45593999997E+02  0.45594000000E+02  0.51100000000E-03 0. -1.
         11   -1    0    0    0    0 -0.00000000000E+00 -0.00000000000E+00 -0.45593999997E+02  0.45594000000E+02  0.51100000000E-03 0.  1.
    9900012    2    1    2    0    0  0.38391192821E+02  0.10190339261E+01  0.20216346737E+02  0.47787276598E+02  0.20000025323E+02 0.  0.
        -12    1    1    2    0    0 -0.38391192821E+02 -0.10190339261E+01 -0.20216346737E+02  0.43400723402E+02  0.00000000000E+00 0.  1.
         11    1    3    3    0    0  0.13549362053E+02 -0.12215728342E+01 -0.19983835805E+01  0.13750308703E+02  0.51100000000E-03 0. -1.
        -11    1    3    3    0    0  0.11150413389E+02 -0.11829522828E+01  0.13067470665E+02  0.17218881633E+02  0.51100000000E-03 0.  1.
        -12    1    3    3    0    0  0.13691417379E+02  0.34235590431E+01  0.91472596527E+01  0.16818086262E+02  0.00000000000E+00 0.  1.
</event>
<event>
 7    1  0.2886681E-010  0.4778727E+02  0.7816164E-02  0.1312668E+00
        -11   -1    0    0    0    0  0.00000000000E+00  0.00000000000E+00  0.45593999997E+02  0.45594000000E+02  0.51100000000E-03 0. -1.
         11   -1    0    0    0    0 -0.00000000000E+00 -0.00000000000E+00 -0.45593999997E+02  0.45594000000E+02  0.51100000000E-03 0.  1.
    9900012    2    1    2    0    0 -0.36224411262E+02  0.70619771544E+01  0.22837327306E+02  0.47787274072E+02  0.20000013804E+02 0.  0.
        -12    1    1    2    0    0  0.36224411262E+02 -0.70619771544E+01 -0.22837327306E+02  0.43400725928E+02  0.00000000000E+00 0.  1.
         11    1    3    3    0    0 -0.10145392220E+01  0.60851896091E+01  0.50368945528E+01  0.79642406674E+01  0.51100000000E-03 0. -1.
        -11    1    3    3    0    0 -0.26371143259E+02  0.12554752620E+01  0.10719251056E+02  0.28494135509E+02  0.51100000000E-03 0.  1.
        -12    1    3    3    0    0 -0.88387287806E+01 -0.27868771671E+00  0.70811816978E+01  0.11328897896E+02  0.00000000000E+00 0.  1.
</event>
<event>
 7    1  0.2886681E-010  0.4778727E+02  0.7816164E-02  0.1312668E+00
        -11   -1    0    0    0    0  0.00000000000E+00  0.00000000000E+00  0.45593999997E+02  0.45594000000E+02  0.51100000000E-03 0.  1.
         11   -1    0    0    0    0 -0.00000000000E+00 -0.00000000000E+00 -0.45593999997E+02  0.45594000000E+02  0.51100000000E-03 0. -1.
    9900012    2    1    2    0    0 -0.39268422740E+01 -0.70791004015E+01 -0.42639062293E+02  0.47787269753E+02  0.19999994114E+02 0.  0.
        -12    1    1    2    0    0  0.39268422740E+01  0.70791004015E+01  0.42639062293E+02  0.43400730247E+02  0.00000000000E+00 0.  1.
         11    1    3    3    0    0 -0.18238641859E+01  0.16069668323E+01 -0.24615034245E+02  0.24734767719E+02  0.51100000000E-03 0. -1.
        -11    1    3    3    0    0  0.84345328212E+00 -0.73148569447E+01 -0.34699029228E+01  0.81399491469E+01  0.51100000000E-03 0.  1.
         12    1    3    3    0    0 -0.29464313702E+01 -0.13712102891E+01 -0.14554125125E+02  0.14912552888E+02  0.00000000000E+00 0. -1.
</event>
<event>
 7    1  0.2886681E-010  0.4778727E+02  0.7816164E-02  0.1312668E+00
        -11   -1    0    0    0    0  0.00000000000E+00  0.00000000000E+00  0.45593999997E+02  0.45594000000E+02  0.51100000000E-03 0.  1.
         11   -1    0    0    0    0 -0.00000000000E+00 -0.00000000000E+00 -0.45593999997E+02  0.45594000000E+02  0.51100000000E-03 0. -1.
    9900012    2    1    2    0    0  0.38512696424E+01 -0.42724050243E+02 -0.65914294016E+01  0.47787266266E+02  0.19999978215E+02 0.  0.
        -12    1    1    2    0    0 -0.38512696424E+01  0.42724050243E+02  0.65914294016E+01  0.43400733734E+02  0.00000000000E+00 0.  1.
         11    1    3    3    0    0  0.43046353120E+01 -0.98931101951E+01 -0.40761895953E+01  0.11533379226E+02  0.51100000000E-03 0. -1.
        -11    1    3    3    0    0 -0.31345515664E+01 -0.89655947222E+00 -0.26586033364E+01  0.42068283030E+01  0.51100000000E-03 0.  1.
        -12    1    3    3    0    0  0.26811858968E+01 -0.31934380576E+02  0.14336353009E+00  0.32047058737E+02  0.00000000000E+00 0.  1.
</event>
<event>
 7    1  0.2886681E-010  0.4778727E+02  0.7816164E-02  0.1312668E+00
        -11   -1    0    0    0    0  0.00000000000E+00  0.00000000000E+00  0.45593999997E+02  0.45594000000E+02  0.51100000000E-03 0.  1.
         11   -1    0    0    0    0 -0.00000000000E+00 -0.00000000000E+00 -0.45593999997E+02  0.45594000000E+02  0.51100000000E-03 0. -1.
    9900012    2    1    2    0    0  0.12056270260E+02 -0.41324252040E+02 -0.55295398903E+01  0.47787271081E+02  0.20000000169E+02 0.  0.
        -12    1    1    2    0    0 -0.12056270260E+02  0.41324252040E+02  0.55295398903E+01  0.43400728919E+02  0.00000000000E+00 0.  1.
         11    1    3    3    0    0  0.31118671717E+01 -0.19518098576E+02 -0.41900425067E+01  0.20203869575E+02  0.51100000000E-03 0. -1.
        -11    1    3    3    0    0  0.91880641308E+01 -0.77960772227E+01  0.38363576429E+01  0.12645828670E+02  0.51100000000E-03 0.  1.
        -12    1    3    3    0    0 -0.24366104202E+00 -0.14010076241E+02 -0.51758550265E+01  0.14937572836E+02  0.00000000000E+00 0.  1.
</event>
<event>
 7    1  0.2886681E-010  0.4778727E+02  0.7816164E-02  0.1312668E+00
        -11   -1    0    0    0    0  0.00000000000E+00  0.00000000000E+00  0.45593999997E+02  0.45594000000E+02  0.51100000000E-03 0.  1.
         11   -1    0    0    0    0 -0.00000000000E+00 -0.00000000000E+00 -0.45593999997E+02  0.45594000000E+02  0.51100000000E-03 0. -1.
    9900012    2    1    2    0    0 -0.22560870995E+02  0.33305452873E+02 -0.16290404114E+02  0.47787270083E+02  0.19999995617E+02 0.  0.
        -12    1    1    2    0    0  0.22560870995E+02 -0.33305452873E+02  0.16290404114E+02  0.43400729917E+02  0.00000000000E+00 0.  1.
         11    1    3    3    0    0 -0.49965505606E+01  0.11212173702E+02 -0.11030965610E+02  0.16503349938E+02  0.51100000000E-03 0. -1.
        -11    1    3    3    0    0 -0.10139863023E+02  0.17051551269E+02  0.17226326528E+01  0.19913304254E+02  0.51100000000E-03 0.  1.
        -12    1    3    3    0    0 -0.74244574124E+01  0.50417279019E+01 -0.69820711564E+01  0.11370615891E+02  0.00000000000E+00 0.  1.
</event>
<event>
 7    1  0.2886681E-010  0.4778727E+02  0.7816164E-02  0.1312668E+00
        -11   -1    0    0    0    0  0.00000000000E+00  0.00000000000E+00  0.45593999997E+02  0.45594000000E+02  0.51100000000E-03 0.  1.
         11   -1    0    0    0    0 -0.00000000000E+00 -0.00000000000E+00 -0.45593999997E+02  0.45594000000E+02  0.51100000000E-03 0. -1.
    9900012    2    1    2    0    0 -0.14084865479E+02  0.34259484959E+02 -0.22616972838E+02  0.47787271831E+02  0.20000003587E+02 0.  0.
        -12    1    1    2    0    0  0.14084865479E+02 -0.34259484959E+02  0.22616972838E+02  0.43400728169E+02  0.00000000000E+00 0.  1.
         11    1    3    3    0    0  0.46553546790E+00 -0.15367950325E+00 -0.41072145139E+01  0.41363694209E+01  0.51100000000E-03 0. -1.
        -11    1    3    3    0    0 -0.12617566996E+02  0.21538878926E+02 -0.61706261615E+01  0.25713866488E+02  0.51100000000E-03 0.  1.
        -12    1    3    3    0    0 -0.19328339512E+01  0.12874285537E+02 -0.12339132162E+02  0.17937035922E+02  0.00000000000E+00 0.  1.
</event>
<event>
 7    1  0.2886681E-010  0.4778727E+02  0.7816164E-02  0.1312668E+00
        -11   -1    0    0    0    0  0.00000000000E+00  0.00000000000E+00  0.45593999997E+02  0.45594000000E+02  0.51100000000E-03 0. -1.
         11   -1    0    0    0    0 -0.00000000000E+00 -0.00000000000E+00 -0.45593999997E+02  0.45594000000E+02  0.51100000000E-03 0.  1.
    9900012    2    1    2    0    0  0.25604281570E+02 -0.14533862506E+02  0.31887476037E+02  0.47787268185E+02  0.19999986963E+02 0.  0.
        -12    1    1    2    0    0 -0.25604281570E+02  0.14533862506E+02 -0.31887476037E+02  0.43400731815E+02  0.00000000000E+00 0.  1.
         11    1    3    3    0    0  0.14399793493E+01 -0.72612073440E+01  0.77598443942E+01  0.10724451403E+02  0.51100000000E-03 0. -1.
        -11    1    3    3    0    0  0.15377793658E+02  0.17727849019E+01  0.14319572517E+02  0.21087187139E+02  0.51100000000E-03 0.  1.
        -12    1    3    3    0    0  0.87865085620E+01 -0.90454400644E+01  0.98080591261E+01  0.15975629643E+02  0.00000000000E+00 0.  1.
</event>
<event>
 7    1  0.2886681E-010  0.4778727E+02  0.7816164E-02  0.1312668E+00
        -11   -1    0    0    0    0  0.00000000000E+00  0.00000000000E+00  0.45593999997E+02  0.45594000000E+02  0.51100000000E-03 0.  1.
         11   -1    0    0    0    0 -0.00000000000E+00 -0.00000000000E+00 -0.45593999997E+02  0.45594000000E+02  0.51100000000E-03 0. -1.
    9900012    2    1    2    0    0 -0.19172155920E+02  0.32470416333E+02  0.21487761298E+02  0.47787269764E+02  0.19999994162E+02 0.  0.
        -12    1    1    2    0    0  0.19172155920E+02 -0.32470416333E+02 -0.21487761298E+02  0.43400730236E+02  0.00000000000E+00 0.  1.
         11    1    3    3    0    0 -0.98295418436E+00  0.74817047612E+00 -0.51686510849E+00  0.13390697485E+01  0.51100000000E-03 0. -1.
        -11    1    3    3    0    0 -0.50377634326E+01  0.10222558949E+02 -0.20832097536E+01  0.11585315490E+02  0.51100000000E-03 0.  1.
        -12    1    3    3    0    0 -0.13151438303E+02  0.21499686908E+02  0.24087836160E+02  0.34862884525E+02  0.00000000000E+00 0.  1.
</event>
<event>
 7    1  0.2886681E-010  0.4778727E+02  0.7816164E-02  0.1312668E+00
        -11   -1    0    0    0    0  0.00000000000E+00  0.00000000000E+00  0.45593999997E+02  0.45594000000E+02  0.51100000000E-03 0. -1.
         11   -1    0    0    0    0 -0.00000000000E+00 -0.00000000000E+00 -0.45593999997E+02  0.45594000000E+02  0.51100000000E-03 0.  1.
    9900012    2    1    2    0    0 -0.24329448927E+02  0.26664654094E+02  0.24097667395E+02  0.47787269166E+02  0.19999991435E+02 0.  0.
        -12    1    1    2    0    0  0.24329448927E+02 -0.26664654094E+02 -0.24097667395E+02  0.43400730834E+02  0.00000000000E+00 0.  1.
         11    1    3    3    0    0 -0.95601926569E+01  0.19963102619E+02  0.14300643854E+02  0.26352061869E+02  0.51100000000E-03 0. -1.
        -11    1    3    3    0    0 -0.59284611108E+01  0.67762776796E+00  0.88791430518E+01  0.10697897556E+02  0.51100000000E-03 0.  1.
        -12    1    3    3    0    0 -0.88407951593E+01  0.60239237073E+01  0.91788048874E+00  0.10737309741E+02  0.00000000000E+00 0.  1.
</event>
<event>
 7    1  0.2886681E-010  0.4778727E+02  0.7816164E-02  0.1312668E+00
        -11   -1    0    0    0    0  0.00000000000E+00  0.00000000000E+00  0.45593999997E+02  0.45594000000E+02  0.51100000000E-03 0. -1.
         11   -1    0    0    0    0 -0.00000000000E+00 -0.00000000000E+00 -0.45593999997E+02  0.45594000000E+02  0.51100000000E-03 0.  1.
    9900012    2    1    2    0    0 -0.21807217181E+02  0.11941466682E+02  0.35573445854E+02  0.47787269619E+02  0.19999993499E+02 0.  0.
        -12    1    1    2    0    0  0.21807217181E+02 -0.11941466682E+02 -0.35573445854E+02  0.43400730381E+02  0.00000000000E+00 0.  1.
         11    1    3    3    0    0 -0.84501506745E+01  0.12236580302E+02  0.22307131093E+02  0.26809458065E+02  0.51100000000E-03 0. -1.
        -11    1    3    3    0    0 -0.11610468866E+02 -0.36966902600E+01  0.11540948719E+02  0.16782788915E+02  0.51100000000E-03 0.  1.
        -12    1    3    3    0    0 -0.17465976408E+01  0.34015766398E+01  0.17253660421E+01  0.41950226381E+01  0.00000000000E+00 0.  1.
</event>
<event>
 7    1  0.2886681E-010  0.4778727E+02  0.7816164E-02  0.1312668E+00
        -11   -1    0    0    0    0  0.00000000000E+00  0.00000000000E+00  0.45593999997E+02  0.45594000000E+02  0.51100000000E-03 0.  1.
         11   -1    0    0    0    0 -0.00000000000E+00 -0.00000000000E+00 -0.45593999997E+02  0.45594000000E+02  0.51100000000E-03 0. -1.
    9900012    2    1    2    0    0 -0.38016075675E+02  0.19980466781E+02  0.62595527180E+01  0.47787273477E+02  0.20000011089E+02 0.  0.
        -12    1    1    2    0    0  0.38016075675E+02 -0.19980466781E+02 -0.62595527180E+01  0.43400726523E+02  0.00000000000E+00 0.  1.
         11    1    3    3    0    0 -0.21443504233E+02  0.42692610655E+01  0.87381934792E+01  0.23545838048E+02  0.51100000000E-03 0. -1.
        -11    1    3    3    0    0  0.44854533494E+00  0.11283884746E+01 -0.13261027688E+01  0.17980551387E+01  0.51100000000E-03 0.  1.
         12    1    3    3    0    0 -0.17021116777E+02  0.14582817241E+02 -0.11525379924E+01  0.22443380290E+02  0.00000000000E+00 0. -1.
</event>
<event>
 7    1  0.2886681E-010  0.4778721E+02  0.7816164E-02  0.1312668E+00
        -11   -1    0    0    0    0  0.00000000000E+00  0.00000000000E+00  0.45593999997E+02  0.45594000000E+02  0.51100000000E-03 0.  1.
         11   -1    0    0    0    0 -0.00000000000E+00 -0.00000000000E+00 -0.45593999997E+02  0.45594000000E+02  0.51100000000E-03 0. -1.
    9900012    2    1    2    0    0  0.36291801092E+02  0.11090324648E+02  0.21060353037E+02  0.47787209715E+02  0.19999720374E+02 0.  0.
        -12    1    1    2    0    0 -0.36291801092E+02 -0.11090324648E+02 -0.21060353037E+02  0.43400790285E+02  0.00000000000E+00 0.  1.
         11    1    3    3    0    0  0.12670725445E+02 -0.31507170526E+01  0.31342342852E+01  0.13427498876E+02  0.51100000000E-03 0. -1.
        -11    1    3    3    0    0  0.17036990212E+02  0.13045272173E+02  0.17438271634E+02  0.27650162376E+02  0.51100000000E-03 0.  1.
        -12    1    3    3    0    0  0.65840854345E+01  0.11957695268E+01  0.48784711774E+00  0.67095484632E+01  0.00000000000E+00 0.  1.
</event>
<event>
 7    1  0.2886681E-010  0.4778727E+02  0.7816164E-02  0.1312668E+00
        -11   -1    0    0    0    0  0.00000000000E+00  0.00000000000E+00  0.45593999997E+02  0.45594000000E+02  0.51100000000E-03 0.  1.
         11   -1    0    0    0    0 -0.00000000000E+00 -0.00000000000E+00 -0.45593999997E+02  0.45594000000E+02  0.51100000000E-03 0. -1.
    9900012    2    1    2    0    0 -0.28173868764E+02 -0.51322210766E+01 -0.32611605156E+02  0.47787269993E+02  0.19999995205E+02 0.  0.
        -12    1    1    2    0    0  0.28173868764E+02  0.51322210766E+01  0.32611605156E+02  0.43400730007E+02  0.00000000000E+00 0.  1.
         11    1    3    3    0    0 -0.10029829135E+02 -0.99970008378E+01 -0.19805410341E+02  0.24347315607E+02  0.51100000000E-03 0. -1.
        -11    1    3    3    0    0 -0.23337034127E+01 -0.11183377552E+01 -0.81084393087E+00  0.27118847864E+01  0.51100000000E-03 0.  1.
         12    1    3    3    0    0 -0.15810336216E+02  0.59831175164E+01 -0.11995350884E+02  0.20728069599E+02  0.00000000000E+00 0. -1.
</event>
<event>
 7    1  0.2886681E-010  0.4778730E+02  0.7816164E-02  0.1312668E+00
        -11   -1    0    0    0    0  0.00000000000E+00  0.00000000000E+00  0.45593999997E+02  0.45594000000E+02  0.51100000000E-03 0.  1.
         11   -1    0    0    0    0 -0.00000000000E+00 -0.00000000000E+00 -0.45593999997E+02  0.45594000000E+02  0.51100000000E-03 0. -1.
    9900012    2    1    2    0    0 -0.28711829399E+02  0.11204353797E+02 -0.30556741599E+02  0.47787295529E+02  0.20000111635E+02 0.  0.
        -12    1    1    2    0    0  0.28711829399E+02 -0.11204353797E+02  0.30556741599E+02  0.43400704471E+02  0.00000000000E+00 0.  1.
         11    1    3    3    0    0 -0.12196538472E+02 -0.16281160857E+01 -0.15386615604E+02  0.19701630711E+02  0.51100000000E-03 0. -1.
        -11    1    3    3    0    0 -0.11374518989E+01  0.68693082751E+01 -0.29676163495E+01  0.75688797097E+01  0.51100000000E-03 0.  1.
        -12    1    3    3    0    0 -0.15377839028E+02  0.59631616079E+01 -0.12202509645E+02  0.20516785108E+02  0.00000000000E+00 0.  1.
</event>
<event>
 7    1  0.2886681E-010  0.4778728E+02  0.7816164E-02  0.1312668E+00
        -11   -1    0    0    0    0  0.00000000000E+00  0.00000000000E+00  0.45593999997E+02  0.45594000000E+02  0.51100000000E-03 0.  1.
         11   -1    0    0    0    0 -0.00000000000E+00 -0.00000000000E+00 -0.45593999997E+02  0.45594000000E+02  0.51100000000E-03 0. -1.
    9900012    2    1    2    0    0 -0.20698821793E+02 -0.22139489449E+02 -0.31064844460E+02  0.47787276757E+02  0.20000026047E+02 0.  0.
        -12    1    1    2    0    0  0.20698821793E+02  0.22139489449E+02  0.31064844460E+02  0.43400723243E+02  0.00000000000E+00 0.  1.
         11    1    3    3    0    0 -0.29551605849E+01 -0.82391497595E+01 -0.59161271533E+01  0.10564900548E+02  0.51100000000E-03 0.  1.
        -11    1    3    3    0    0 -0.93645917623E+01 -0.97739447992E+01 -0.40185497556E+01  0.14119997104E+02  0.51100000000E-03 0. -1.
        -12    1    3    3    0    0 -0.83790694460E+01 -0.41263948898E+01 -0.21130167551E+02  0.23102379105E+02  0.00000000000E+00 0.  1.
</event>
<event>
 7    1  0.2886681E-010  0.4778727E+02  0.7816164E-02  0.1312668E+00
        -11   -1    0    0    0    0  0.00000000000E+00  0.00000000000E+00  0.45593999997E+02  0.45594000000E+02  0.51100000000E-03 0.  1.
         11   -1    0    0    0    0 -0.00000000000E+00 -0.00000000000E+00 -0.45593999997E+02  0.45594000000E+02  0.51100000000E-03 0. -1.
    9900012    2    1    2    0    0  0.41856861974E+01 -0.37640958916E+02 -0.21195783910E+02  0.47787274054E+02  0.20000013723E+02 0.  0.
        -12    1    1    2    0    0 -0.41856861974E+01  0.37640958916E+02  0.21195783910E+02  0.43400725946E+02  0.00000000000E+00 0.  1.
         11    1    3    3    0    0  0.39296750786E+00 -0.68947282540E+01 -0.60423337293E+01  0.91761374399E+01  0.51100000000E-03 0. -1.
        -11    1    3    3    0    0 -0.10251552549E+01  0.20829004793E+01 -0.75728422166E+00  0.24419044528E+01  0.51100000000E-03 0.  1.
        -12    1    3    3    0    0  0.48178739444E+01 -0.32829131141E+02 -0.14396165959E+02  0.36169232162E+02  0.00000000000E+00 0.  1.
</event>
<event>
 7    1  0.2886681E-010  0.4778727E+02  0.7816164E-02  0.1312668E+00
        -11   -1    0    0    0    0  0.00000000000E+00  0.00000000000E+00  0.45593999997E+02  0.45594000000E+02  0.51100000000E-03 0. -1.
         11   -1    0    0    0    0 -0.00000000000E+00 -0.00000000000E+00 -0.45593999997E+02  0.45594000000E+02  0.51100000000E-03 0.  1.
    9900012    2    1    2    0    0 -0.36922404792E+01 -0.10100463554E+02  0.42047249469E+02  0.47787271992E+02  0.20000004320E+02 0.  0.
        -12    1    1    2    0    0  0.36922404792E+01  0.10100463554E+02 -0.42047249469E+02  0.43400728008E+02  0.00000000000E+00 0.  1.
         11    1    3    3    0    0 -0.44147158501E+01 -0.80277459821E+01  0.22074151475E+02  0.23899844878E+02  0.51100000000E-03 0. -1.
        -11    1    3    3    0    0  0.34924137662E+01 -0.28270920026E+01  0.87864080809E+00  0.45783635763E+01  0.51100000000E-03 0.  1.
        -12    1    3    3    0    0 -0.27699383954E+01  0.75437443117E+00  0.19094457186E+02  0.19309063538E+02  0.00000000000E+00 0.  1.
</event>
<event>
 7    1  0.2886681E-010  0.4778727E+02  0.7816164E-02  0.1312668E+00
        -11   -1    0    0    0    0  0.00000000000E+00  0.00000000000E+00  0.45593999997E+02  0.45594000000E+02  0.51100000000E-03 0.  1.
         11   -1    0    0    0    0 -0.00000000000E+00 -0.00000000000E+00 -0.45593999997E+02  0.45594000000E+02  0.51100000000E-03 0. -1.
    9900012    2    1    2    0    0  0.18555548672E+02 -0.36810149077E+02 -0.13576738640E+02  0.47787270816E+02  0.19999998960E+02 0.  0.
        -12    1    1    2    0    0 -0.18555548672E+02  0.36810149077E+02  0.13576738640E+02  0.43400729184E+02  0.00000000000E+00 0.  1.
         11    1    3    3    0    0  0.89058382326E+01 -0.21310076713E+02 -0.16985279175E+02  0.28669374480E+02  0.51100000000E-03 0. -1.
        -11    1    3    3    0    0  0.57192576232E+01 -0.59156214905E+01  0.29756330257E+01  0.87497930001E+01  0.51100000000E-03 0.  1.
         12    1    3    3    0    0  0.39304528163E+01 -0.95844508734E+01  0.43290750946E+00  0.10368103337E+02  0.00000000000E+00 0. -1.
</event>
<event>
 7    1  0.2886681E-010  0.4778727E+02  0.7816164E-02  0.1312668E+00
        -11   -1    0    0    0    0  0.00000000000E+00  0.00000000000E+00  0.45593999997E+02  0.45594000000E+02  0.51100000000E-03 0. -1.
         11   -1    0    0    0    0 -0.00000000000E+00 -0.00000000000E+00 -0.45593999997E+02  0.45594000000E+02  0.51100000000E-03 0.  1.
    9900012    2    1    2    0    0  0.37377152430E+00  0.37521368451E+02  0.21808949177E+02  0.47787273511E+02  0.20000011245E+02 0.  0.
        -12    1    1    2    0    0 -0.37377152430E+00 -0.37521368451E+02 -0.21808949177E+02  0.43400726489E+02  0.00000000000E+00 0.  1.
         11    1    3    3    0    0 -0.15031727533E+00  0.28190138941E+02  0.11358586198E+02  0.30392828258E+02  0.51100000000E-03 0. -1.
        -11    1    3    3    0    0 -0.65754576087E+00 -0.21168509857E+01  0.74159943318E+00  0.23373905329E+01  0.51100000000E-03 0.  1.
        -12    1    3    3    0    0  0.11816345605E+01  0.11448080495E+02  0.97087635461E+01  0.15057054720E+02  0.00000000000E+00 0.  1.
</event>
<event>
 7    1  0.2886681E-010  0.4778726E+02  0.7816164E-02  0.1312668E+00
        -11   -1    0    0    0    0  0.00000000000E+00  0.00000000000E+00  0.45593999997E+02  0.45594000000E+02  0.51100000000E-03 0.  1.
         11   -1    0    0    0    0 -0.00000000000E+00 -0.00000000000E+00 -0.45593999997E+02  0.45594000000E+02  0.51100000000E-03 0. -1.
    9900012    2    1    2    0    0 -0.25696858469E+02  0.18594746863E+01 -0.34926183710E+02  0.47787257036E+02  0.19999936132E+02 0.  0.
        -12    1    1    2    0    0  0.25696858469E+02 -0.18594746863E+01  0.34926183710E+02  0.43400742964E+02  0.00000000000E+00 0.  1.
         11    1    3    3    0    0 -0.11377184933E+02  0.49317123381E+01 -0.65438935368E+01  0.14020865396E+02  0.51100000000E-03 0. -1.
        -11    1    3    3    0    0 -0.84032006874E+01 -0.66225714756E+01 -0.12523028299E+02  0.16471140603E+02  0.51100000000E-03 0.  1.
        -12    1    3    3    0    0 -0.59164728483E+01  0.35503338237E+01 -0.15859261874E+02  0.17295251037E+02  0.00000000000E+00 0.  1.
</event>
<event>
 7    1  0.2886681E-010  0.4778728E+02  0.7816164E-02  0.1312668E+00
        -11   -1    0    0    0    0  0.00000000000E+00  0.00000000000E+00  0.45593999997E+02  0.45594000000E+02  0.51100000000E-03 0.  1.
         11   -1    0    0    0    0 -0.00000000000E+00 -0.00000000000E+00 -0.45593999997E+02  0.45594000000E+02  0.51100000000E-03 0. -1.
    9900012    2    1    2    0    0 -0.24891903626E+02  0.29057328926E+02 -0.20486271745E+02  0.47787279264E+02  0.20000037475E+02 0.  0.
        -12    1    1    2    0    0  0.24891903626E+02 -0.29057328926E+02  0.20486271745E+02  0.43400720736E+02  0.00000000000E+00 0.  1.
         11    1    3    3    0    0 -0.14953992775E+02  0.13752559197E+02 -0.14744383966E+02  0.25102821418E+02  0.51100000000E-03 0. -1.
        -11    1    3    3    0    0  0.28680270609E+01  0.25679155232E+01 -0.14993958538E+01  0.41313384688E+01  0.51100000000E-03 0.  1.
        -12    1    3    3    0    0 -0.12805937912E+02  0.12736854206E+02 -0.42424919255E+01  0.18553119377E+02  0.00000000000E+00 0.  1.
</event>
<event>
 7    1  0.2886681E-010  0.4778727E+02  0.7816164E-02  0.1312668E+00
        -11   -1    0    0    0    0  0.00000000000E+00  0.00000000000E+00  0.45593999997E+02  0.45594000000E+02  0.51100000000E-03 0. -1.
         11   -1    0    0    0    0 -0.00000000000E+00 -0.00000000000E+00 -0.45593999997E+02  0.45594000000E+02  0.51100000000E-03 0.  1.
    9900012    2    1    2    0    0 -0.39764361312E+02 -0.17032706812E+02  0.35079515375E+01  0.47787271251E+02  0.20000000944E+02 0.  0.
        -12    1    1    2    0    0  0.39764361312E+02  0.17032706812E+02 -0.35079515375E+01  0.43400728749E+02  0.00000000000E+00 0.  1.
         11    1    3    3    0    0 -0.58864483682E+01 -0.90169877312E+01  0.45541655181E+01  0.11691739219E+02  0.51100000000E-03 0. -1.
        -11    1    3    3    0    0  0.47967640780E+00 -0.67654704860E+00  0.42526891398E+00  0.93201892443E+00  0.51100000000E-03 0.  1.
         12    1    3    3    0    0 -0.34357589352E+02 -0.73391720324E+01 -0.14714828945E+01  0.35163513108E+02  0.00000000000E+00 0. -1.
</event>
<event>
 7    1  0.2886681E-010  0.4778727E+02  0.7816164E-02  0.1312668E+00
        -11   -1    0    0    0    0  0.00000000000E+00  0.00000000000E+00  0.45593999997E+02  0.45594000000E+02  0.51100000000E-03 0. -1.
         11   -1    0    0    0    0 -0.00000000000E+00 -0.00000000000E+00 -0.45593999997E+02  0.45594000000E+02  0.51100000000E-03 0.  1.
    9900012    2    1    2    0    0 -0.13070724586E+02 -0.12604641005E+02  0.39419574124E+02  0.47787266824E+02  0.19999980756E+02 0.  0.
        -12    1    1    2    0    0  0.13070724586E+02  0.12604641005E+02 -0.39419574124E+02  0.43400733176E+02  0.00000000000E+00 0.  1.
         11    1    3    3    0    0 -0.32539354748E+01 -0.11473444837E+02  0.30548564335E+02  0.32793944803E+02  0.51100000000E-03 0. -1.
        -11    1    3    3    0    0  0.86282589457E+00 -0.40696726772E+00 -0.18560629697E+00  0.97187490961E+00  0.51100000000E-03 0.  1.
         12    1    3    3    0    0 -0.10679615006E+02 -0.72422890072E+00  0.90566160861E+01  0.14021447112E+02  0.00000000000E+00 0. -1.
</event>
<event>
 7    1  0.2886681E-010  0.4778727E+02  0.7816164E-02  0.1312668E+00
        -11   -1    0    0    0    0  0.00000000000E+00  0.00000000000E+00  0.45593999997E+02  0.45594000000E+02  0.51100000000E-03 0.  1.
         11   -1    0    0    0    0 -0.00000000000E+00 -0.00000000000E+00 -0.45593999997E+02  0.45594000000E+02  0.51100000000E-03 0. -1.
    9900012    2    1    2    0    0  0.14535288032E+02 -0.23538585213E+02 -0.33440750583E+02  0.47787269688E+02  0.19999993818E+02 0.  0.
        -12    1    1    2    0    0 -0.14535288032E+02  0.23538585213E+02  0.33440750583E+02  0.43400730312E+02  0.00000000000E+00 0.  1.
         11    1    3    3    0    0  0.27309719075E+01 -0.17542289203E+01 -0.41116211033E+01  0.52384114980E+01  0.51100000000E-03 0. -1.
        -11    1    3    3    0    0  0.69999222926E+01 -0.11299480247E+02 -0.27929393859E+02  0.30931023383E+02  0.51100000000E-03 0.  1.
        -12    1    3    3    0    0  0.48043938317E+01 -0.10484876046E+02 -0.13997356208E+01  0.11617834807E+02  0.00000000000E+00 0.  1.
</event>
<event>
 7    1  0.2886681E-010  0.4778727E+02  0.7816164E-02  0.1312668E+00
        -11   -1    0    0    0    0  0.00000000000E+00  0.00000000000E+00  0.45593999997E+02  0.45594000000E+02  0.51100000000E-03 0. -1.
         11   -1    0    0    0    0 -0.00000000000E+00 -0.00000000000E+00 -0.45593999997E+02  0.45594000000E+02  0.51100000000E-03 0.  1.
    9900012    2    1    2    0    0 -0.18257740464E+02  0.38214346183E+02 -0.94837737642E+01  0.47787270676E+02  0.19999998322E+02 0.  0.
        -12    1    1    2    0    0  0.18257740464E+02 -0.38214346183E+02  0.94837737642E+01  0.43400729324E+02  0.00000000000E+00 0.  1.
         11    1    3    3    0    0 -0.82081607240E+01  0.13560353638E+02  0.35954496465E+01  0.16253748850E+02  0.51100000000E-03 0. -1.
        -11    1    3    3    0    0 -0.10899474558E+02  0.23638126154E+02 -0.94870440306E+01  0.27704937438E+02  0.51100000000E-03 0.  1.
         12    1    3    3    0    0  0.84989481734E+00  0.10158663904E+01 -0.35921793802E+01  0.38285843889E+01  0.00000000000E+00 0. -1.
</event>
<event>
 7    1  0.2886681E-010  0.4778727E+02  0.7816164E-02  0.1312668E+00
        -11   -1    0    0    0    0  0.00000000000E+00  0.00000000000E+00  0.45593999997E+02  0.45594000000E+02  0.51100000000E-03 0.  1.
         11   -1    0    0    0    0 -0.00000000000E+00 -0.00000000000E+00 -0.45593999997E+02  0.45594000000E+02  0.51100000000E-03 0. -1.
    9900012    2    1    2    0    0  0.19295069379E+02 -0.25936902247E+02  0.28958603313E+02  0.47787270671E+02  0.19999998296E+02 0.  0.
        -12    1    1    2    0    0 -0.19295069379E+02  0.25936902247E+02 -0.28958603313E+02  0.43400729329E+02  0.00000000000E+00 0.  1.
         11    1    3    3    0    0  0.11287028588E+02 -0.15564988997E+02  0.64627910629E+01  0.20283825216E+02  0.51100000000E-03 0. -1.
        -11    1    3    3    0    0  0.72673036673E+01 -0.89744962330E+01  0.23087739553E+02  0.25814705173E+02  0.51100000000E-03 0.  1.
        -12    1    3    3    0    0  0.74073712317E+00 -0.13974170172E+01 -0.59192730335E+00  0.16887402814E+01  0.00000000000E+00 0.  1.
</event>
<event>
 7    1  0.2886681E-010  0.4778727E+02  0.7816164E-02  0.1312668E+00
        -11   -1    0    0    0    0  0.00000000000E+00  0.00000000000E+00  0.45593999997E+02  0.45594000000E+02  0.51100000000E-03 0. -1.
         11   -1    0    0    0    0 -0.00000000000E+00 -0.00000000000E+00 -0.45593999997E+02  0.45594000000E+02  0.51100000000E-03 0.  1.
    9900012    2    1    2    0    0  0.28129931374E+02 -0.31895577420E+02 -0.86603915233E+01  0.47787270980E+02  0.19999999708E+02 0.  0.
        -12    1    1    2    0    0 -0.28129931374E+02  0.31895577420E+02  0.86603915233E+01  0.43400729020E+02  0.00000000000E+00 0.  1.
         11    1    3    3    0    0  0.64945218728E+01 -0.16024657018E+02  0.19593414277E+01  0.17401363912E+02  0.51100000000E-03 0. -1.
        -11    1    3    3    0    0  0.19169254962E+02 -0.90987882504E+01 -0.86497257333E+01  0.22914319518E+02  0.51100000000E-03 0.  1.
        -12    1    3    3    0    0  0.24661545392E+01 -0.67721321519E+01 -0.19700072177E+01  0.74715875509E+01  0.00000000000E+00 0.  1.
</event>
<event>
 7    1  0.2886681E-010  0.4778727E+02  0.7816164E-02  0.1312668E+00
        -11   -1    0    0    0    0  0.00000000000E+00  0.00000000000E+00  0.45593999997E+02  0.45594000000E+02  0.51100000000E-03 0. -1.
         11   -1    0    0    0    0 -0.00000000000E+00 -0.00000000000E+00 -0.45593999997E+02  0.45594000000E+02  0.51100000000E-03 0.  1.
    9900012    2    1    2    0    0 -0.18324114015E+02 -0.28245938072E+02  0.27386443650E+02  0.47787268810E+02  0.19999989812E+02 0.  0.
        -12    1    1    2    0    0  0.18324114015E+02  0.28245938072E+02 -0.27386443650E+02  0.43400731190E+02  0.00000000000E+00 0.  1.
         11    1    3    3    0    0 -0.85120747871E+01 -0.14033119611E+02  0.16119762840E+02  0.23005012877E+02  0.51100000000E-03 0. -1.
        -11    1    3    3    0    0 -0.66701529571E+01 -0.90151566500E+01 -0.83141343895E+00  0.11245231810E+02  0.51100000000E-03 0.  1.
        -12    1    3    3    0    0 -0.31418862713E+01 -0.51976618108E+01  0.12098094249E+02  0.13537024123E+02  0.00000000000E+00 0.  1.
</event>
<event>
 7    1  0.2886681E-010  0.4778727E+02  0.7816164E-02  0.1312668E+00
        -11   -1    0    0    0    0  0.00000000000E+00  0.00000000000E+00  0.45593999997E+02  0.45594000000E+02  0.51100000000E-03 0.  1.
         11   -1    0    0    0    0 -0.00000000000E+00 -0.00000000000E+00 -0.45593999997E+02  0.45594000000E+02  0.51100000000E-03 0. -1.
    9900012    2    1    2    0    0  0.42068615676E+01 -0.30023453138E+02 -0.31056687118E+02  0.47787271466E+02  0.20000001921E+02 0.  0.
        -12    1    1    2    0    0 -0.42068615676E+01  0.30023453138E+02  0.31056687118E+02  0.43400728534E+02  0.00000000000E+00 0.  1.
         11    1    3    3    0    0  0.40964992039E+01 -0.13563491819E+02 -0.10000035070E+02  0.17342154357E+02  0.51100000000E-03 0. -1.
        -11    1    3    3    0    0 -0.33793244553E+01  0.70166656564E+00 -0.57819959632E+00  0.34994977894E+01  0.51100000000E-03 0.  1.
        -12    1    3    3    0    0  0.34896868190E+01 -0.17161627884E+02 -0.20478452451E+02  0.26945619320E+02  0.00000000000E+00 0.  1.
</event>
<event>
 7    1  0.2886681E-010  0.4778727E+02  0.7816164E-02  0.1312668E+00
        -11   -1    0    0    0    0  0.00000000000E+00  0.00000000000E+00  0.45593999997E+02  0.45594000000E+02  0.51100000000E-03 0. -1.
         11   -1    0    0    0    0 -0.00000000000E+00 -0.00000000000E+00 -0.45593999997E+02  0.45594000000E+02  0.51100000000E-03 0.  1.
    9900012    2    1    2    0    0  0.19208951613E+02 -0.45880080580E+01  0.38646985904E+02  0.47787272363E+02  0.20000006010E+02 0.  0.
        -12    1    1    2    0    0 -0.19208951613E+02  0.45880080580E+01 -0.38646985904E+02  0.43400727637E+02  0.00000000000E+00 0.  1.
         11    1    3    3    0    0  0.15467118645E+02 -0.17058799174E+01  0.26063883674E+02  0.30355688394E+02  0.51100000000E-03 0. -1.
        -11    1    3    3    0    0 -0.70382096187E+00 -0.62748475969E+01  0.80615568417E+01  0.10240008559E+02  0.51100000000E-03 0.  1.
        -12    1    3    3    0    0  0.44456539301E+01  0.33927194564E+01  0.45215453880E+01  0.71915754096E+01  0.00000000000E+00 0.  1.
</event>
<event>
 7    1  0.2886681E-010  0.4778727E+02  0.7816164E-02  0.1312668E+00
        -11   -1    0    0    0    0  0.00000000000E+00  0.00000000000E+00  0.45593999997E+02  0.45594000000E+02  0.51100000000E-03 0.  1.
         11   -1    0    0    0    0 -0.00000000000E+00 -0.00000000000E+00 -0.45593999997E+02  0.45594000000E+02  0.51100000000E-03 0. -1.
    9900012    2    1    2    0    0 -0.87161469320E+01  0.19051466750E+02 -0.38009126177E+02  0.47787271027E+02  0.19999999920E+02 0.  0.
        -12    1    1    2    0    0  0.87161469320E+01 -0.19051466750E+02  0.38009126177E+02  0.43400728973E+02  0.00000000000E+00 0.  1.
         11    1    3    3    0    0 -0.50592589058E+01  0.88414075986E+01 -0.23302961512E+02  0.25432156899E+02  0.51100000000E-03 0. -1.
        -11    1    3    3    0    0 -0.62532440196E+01  0.84683729389E+01 -0.40990505997E+01  0.11296841022E+02  0.51100000000E-03 0.  1.
        -12    1    3    3    0    0  0.25963559934E+01  0.17416862123E+01 -0.10607114065E+02  0.11058273106E+02  0.00000000000E+00 0.  1.
</event>
<event>
 7    1  0.2886681E-010  0.4778727E+02  0.7816164E-02  0.1312668E+00
        -11   -1    0    0    0    0  0.00000000000E+00  0.00000000000E+00  0.45593999997E+02  0.45594000000E+02  0.51100000000E-03 0.  1.
         11   -1    0    0    0    0 -0.00000000000E+00 -0.00000000000E+00 -0.45593999997E+02  0.45594000000E+02  0.51100000000E-03 0. -1.
    9900012    2    1    2    0    0  0.42260857056E+02  0.61071631111E+01  0.77682498587E+01  0.47787272054E+02  0.20000004601E+02 0.  0.
        -12    1    1    2    0    0 -0.42260857056E+02 -0.61071631111E+01 -0.77682498587E+01  0.43400727946E+02  0.00000000000E+00 0.  1.
         11    1    3    3    0    0  0.22280242033E+02  0.16459098251E+01  0.10329709208E+02  0.24613433259E+02  0.51100000000E-03 0. -1.
        -11    1    3    3    0    0 -0.22866162196E+00  0.27369142357E+01 -0.19101303439E+00  0.27530840727E+01  0.51100000000E-03 0.  1.
         12    1    3    3    0    0  0.20209276645E+02  0.17243390504E+01 -0.23704463151E+01  0.20420754722E+02  0.00000000000E+00 0. -1.
</event>
<event>
 7    1  0.2886681E-010  0.4778727E+02  0.7816164E-02  0.1312668E+00
        -11   -1    0    0    0    0  0.00000000000E+00  0.00000000000E+00  0.45593999997E+02  0.45594000000E+02  0.51100000000E-03 0. -1.
         11   -1    0    0    0    0 -0.00000000000E+00 -0.00000000000E+00 -0.45593999997E+02  0.45594000000E+02  0.51100000000E-03 0.  1.
    9900012    2    1    2    0    0 -0.16103856946E+02 -0.35793206315E+02  0.18523918395E+02  0.47787269827E+02  0.19999994451E+02 0.  0.
        -12    1    1    2    0    0  0.16103856946E+02  0.35793206315E+02 -0.18523918395E+02  0.43400730173E+02  0.00000000000E+00 0.  1.
         11    1    3    3    0    0 -0.10993215358E+02 -0.29281053470E+02  0.17714368411E+02  0.35944814990E+02  0.51100000000E-03 0. -1.
        -11    1    3    3    0    0 -0.73486348320E+01 -0.39273146922E+01  0.11295191486E+01  0.84084510080E+01  0.51100000000E-03 0.  1.
         12    1    3    3    0    0  0.22379932439E+01 -0.25848381529E+01 -0.31996916456E+00  0.34340038298E+01  0.00000000000E+00 0. -1.
</event>
<event>
 7    1  0.2886681E-010  0.4778733E+02  0.7816164E-02  0.1312668E+00
        -11   -1    0    0    0    0  0.00000000000E+00  0.00000000000E+00  0.45593999997E+02  0.45594000000E+02  0.51100000000E-03 0.  1.
         11   -1    0    0    0    0 -0.00000000000E+00 -0.00000000000E+00 -0.45593999997E+02  0.45594000000E+02  0.51100000000E-03 0. -1.
    9900012    2    1    2    0    0 -0.20763557949E+02 -0.22215073393E+01 -0.38046788401E+02  0.47787325568E+02  0.20000248593E+02 0.  0.
        -12    1    1    2    0    0  0.20763557949E+02  0.22215073393E+01  0.38046788401E+02  0.43400674432E+02  0.00000000000E+00 0.  1.
         11    1    3    3    0    0 -0.17566777643E+02  0.53316835150E+01 -0.28393991478E+02  0.33811791998E+02  0.51100000000E-03 0. -1.
        -11    1    3    3    0    0 -0.21007888188E+01 -0.91123199490E+00 -0.57617619299E+01  0.62001256607E+01  0.51100000000E-03 0.  1.
         12    1    3    3    0    0 -0.10959914875E+01 -0.66419588594E+01 -0.38910349931E+01  0.77754079088E+01  0.00000000000E+00 0. -1.
</event>
<event>
 7    1  0.2886681E-010  0.4778727E+02  0.7816164E-02  0.1312668E+00
        -11   -1    0    0    0    0  0.00000000000E+00  0.00000000000E+00  0.45593999997E+02  0.45594000000E+02  0.51100000000E-03 0.  1.
         11   -1    0    0    0    0 -0.00000000000E+00 -0.00000000000E+00 -0.45593999997E+02  0.45594000000E+02  0.51100000000E-03 0. -1.
    9900012    2    1    2    0    0 -0.46954431264E+01 -0.40658640876E+02 -0.14437822436E+02  0.47787274421E+02  0.20000015396E+02 0.  0.
        -12    1    1    2    0    0  0.46954431264E+01  0.40658640876E+02  0.14437822436E+02  0.43400725579E+02  0.00000000000E+00 0.  1.
         11    1    3    3    0    0 -0.80193367295E+01 -0.24402067508E+02 -0.43608589438E+01  0.26053555443E+02  0.51100000000E-03 0. -1.
        -11    1    3    3    0    0  0.56619643568E+01 -0.46877537295E+01 -0.49718038013E+01  0.88742159488E+01  0.51100000000E-03 0.  1.
        -12    1    3    3    0    0 -0.23380707537E+01 -0.11568819639E+02 -0.51051596908E+01  0.12859503029E+02  0.00000000000E+00 0.  1.
</event>
<event>
 7    1  0.2886681E-010  0.4778728E+02  0.7816164E-02  0.1312668E+00
        -11   -1    0    0    0    0  0.00000000000E+00  0.00000000000E+00  0.45593999997E+02  0.45594000000E+02  0.51100000000E-03 0.  1.
         11   -1    0    0    0    0 -0.00000000000E+00 -0.00000000000E+00 -0.45593999997E+02  0.45594000000E+02  0.51100000000E-03 0. -1.
    9900012    2    1    2    0    0  0.17363638314E+02  0.39558590968E+02 -0.41526725254E+01  0.47787277149E+02  0.20000027832E+02 0.  0.
        -12    1    1    2    0    0 -0.17363638314E+02 -0.39558590968E+02  0.41526725254E+01  0.43400722851E+02  0.00000000000E+00 0.  1.
         11    1    3    3    0    0  0.10864184713E+01  0.17047258348E+02  0.40488376211E+01  0.17555124854E+02  0.51100000000E-03 0. -1.
        -11    1    3    3    0    0  0.50722264661E+01  0.15060974652E+01 -0.15484118202E+01  0.55130200729E+01  0.51100000000E-03 0.  1.
         12    1    3    3    0    0  0.11204993376E+02  0.21005235155E+02 -0.66530983263E+01  0.24719132222E+02  0.00000000000E+00 0. -1.
</event>
<event>
 7    1  0.2886681E-010  0.4778727E+02  0.7816164E-02  0.1312668E+00
        -11   -1    0    0    0    0  0.00000000000E+00  0.00000000000E+00  0.45593999997E+02  0.45594000000E+02  0.51100000000E-03 0. -1.
         11   -1    0    0    0    0 -0.00000000000E+00 -0.00000000000E+00 -0.45593999997E+02  0.45594000000E+02  0.51100000000E-03 0.  1.
    9900012    2    1    2    0    0  0.84773778605E+00  0.36873147722E+02 -0.22875211006E+02  0.47787274651E+02  0.20000016442E+02 0.  0.
        -12    1    1    2    0    0 -0.84773778605E+00 -0.36873147722E+02  0.22875211006E+02  0.43400725349E+02  0.00000000000E+00 0.  1.
         11    1    3    3    0    0  0.55218680953E+01  0.13944227158E+02 -0.18919269693E+01  0.15116609614E+02  0.51100000000E-03 0. -1.
        -11    1    3    3    0    0 -0.24608800446E+01  0.20051376296E+02 -0.13339412217E+02  0.24208542718E+02  0.51100000000E-03 0.  1.
         12    1    3    3    0    0 -0.22132502646E+01  0.28775442679E+01 -0.76438718191E+01  0.84621223186E+01  0.00000000000E+00 0. -1.
</event>
<event>
 7    1  0.2886681E-010  0.4778727E+02  0.7816164E-02  0.1312668E+00
        -11   -1    0    0    0    0  0.00000000000E+00  0.00000000000E+00  0.45593999997E+02  0.45594000000E+02  0.51100000000E-03 0.  1.
         11   -1    0    0    0    0 -0.00000000000E+00 -0.00000000000E+00 -0.45593999997E+02  0.45594000000E+02  0.51100000000E-03 0. -1.
    9900012    2    1    2    0    0 -0.37987393929E+02  0.20795312798E+02  0.28524099880E+01  0.47787269884E+02  0.19999994707E+02 0.  0.
        -12    1    1    2    0    0  0.37987393929E+02 -0.20795312798E+02 -0.28524099880E+01  0.43400730116E+02  0.00000000000E+00 0.  1.
         11    1    3    3    0    0 -0.35268445507E+01  0.68143094293E+01 -0.46606882499E+01  0.89774974635E+01  0.51100000000E-03 0. -1.
        -11    1    3    3    0    0 -0.13713776247E+01 -0.68381643834E+00 -0.71814940796E+00  0.16923416747E+01  0.51100000000E-03 0.  1.
         12    1    3    3    0    0 -0.33089171754E+02  0.14664819808E+02  0.82312476459E+01  0.37117430745E+02  0.00000000000E+00 0. -1.
</event>
<event>
 7    1  0.2886681E-010  0.4778727E+02  0.7816164E-02  0.1312668E+00
        -11   -1    0    0    0    0  0.00000000000E+00  0.00000000000E+00  0.45593999997E+02  0.45594000000E+02  0.51100000000E-03 0. -1.
         11   -1    0    0    0    0 -0.00000000000E+00 -0.00000000000E+00 -0.45593999997E+02  0.45594000000E+02  0.51100000000E-03 0.  1.
    9900012    2    1    2    0    0 -0.27625554492E+01  0.43228202908E+02 -0.27044647316E+01  0.47787269951E+02  0.19999995016E+02 0.  0.
        -12    1    1    2    0    0  0.27625554492E+01 -0.43228202908E+02  0.27044647316E+01  0.43400730049E+02  0.00000000000E+00 0.  1.
         11    1    3    3    0    0  0.49578580658E+01  0.27822485392E+02  0.42803212749E+00  0.28264010009E+02  0.51100000000E-03 0. -1.
        -11    1    3    3    0    0 -0.62678201360E+01  0.34742030975E+01 -0.29020737509E+00  0.71721598561E+01  0.51100000000E-03 0.  1.
         12    1    3    3    0    0 -0.14525933789E+01  0.11931514418E+02 -0.28422894840E+01  0.12351100087E+02  0.00000000000E+00 0. -1.
</event>
<event>
 7    1  0.2886681E-010  0.4778727E+02  0.7816164E-02  0.1312668E+00
        -11   -1    0    0    0    0  0.00000000000E+00  0.00000000000E+00  0.45593999997E+02  0.45594000000E+02  0.51100000000E-03 0.  1.
         11   -1    0    0    0    0 -0.00000000000E+00 -0.00000000000E+00 -0.45593999997E+02  0.45594000000E+02  0.51100000000E-03 0. -1.
    9900012    2    1    2    0    0 -0.21807365028E+01  0.17365808104E+02 -0.39715196050E+02  0.47787266134E+02  0.19999977612E+02 0.  0.
        -12    1    1    2    0    0  0.21807365028E+01 -0.17365808104E+02  0.39715196050E+02  0.43400733866E+02  0.00000000000E+00 0.  1.
         11    1    3    3    0    0 -0.22555730276E+01  0.13717929970E+02 -0.18741976753E+02  0.23335185991E+02  0.51100000000E-03 0. -1.
        -11    1    3    3    0    0 -0.34001974893E+01 -0.29559520184E+01 -0.11774966820E+02  0.12607491391E+02  0.51100000000E-03 0.  1.
         12    1    3    3    0    0  0.34750340142E+01  0.66038301519E+01 -0.91982524769E+01  0.11844588752E+02  0.00000000000E+00 0. -1.
</event>
<event>
 7    1  0.2886681E-010  0.4778727E+02  0.7816164E-02  0.1312668E+00
        -11   -1    0    0    0    0  0.00000000000E+00  0.00000000000E+00  0.45593999997E+02  0.45594000000E+02  0.51100000000E-03 0.  1.
         11   -1    0    0    0    0 -0.00000000000E+00 -0.00000000000E+00 -0.45593999997E+02  0.45594000000E+02  0.51100000000E-03 0. -1.
    9900012    2    1    2    0    0  0.32835911285E+02  0.14025596422E+02 -0.24672025189E+02  0.47787271298E+02  0.20000001157E+02 0.  0.
        -12    1    1    2    0    0 -0.32835911285E+02 -0.14025596422E+02  0.24672025189E+02  0.43400728702E+02  0.00000000000E+00 0.  1.
         11    1    3    3    0    0  0.34268307566E+02  0.16457070526E+02 -0.23698284005E+02  0.44796883137E+02  0.51100000000E-03 0. -1.
        -11    1    3    3    0    0 -0.11673939554E+01 -0.18437830389E+01 -0.72909452549E+00  0.23008528049E+01  0.51100000000E-03 0.  1.
         12    1    3    3    0    0 -0.26500232543E+00 -0.58769106489E+00 -0.24464665813E+00  0.68953535629E+00  0.00000000000E+00 0. -1.
</event>
<event>
 7    1  0.2886681E-010  0.4778725E+02  0.7816164E-02  0.1312668E+00
        -11   -1    0    0    0    0  0.00000000000E+00  0.00000000000E+00  0.45593999997E+02  0.45594000000E+02  0.51100000000E-03 0.  1.
         11   -1    0    0    0    0 -0.00000000000E+00 -0.00000000000E+00 -0.45593999997E+02  0.45594000000E+02  0.51100000000E-03 0. -1.
    9900012    2    1    2    0    0  0.34095231578E+02 -0.15188236675E+02 -0.22146272298E+02  0.47787254312E+02  0.19999923708E+02 0.  0.
        -12    1    1    2    0    0 -0.34095231578E+02  0.15188236675E+02  0.22146272298E+02  0.43400745688E+02  0.00000000000E+00 0.  1.
         11    1    3    3    0    0 -0.11520968008E+01  0.97152991134E-01 -0.54407055041E+01  0.55621976220E+01  0.51100000000E-03 0. -1.
        -11    1    3    3    0    0  0.58999136729E+01 -0.11382468173E+01 -0.41858341721E+01  0.73229635492E+01  0.51100000000E-03 0.  1.
         12    1    3    3    0    0  0.29347414705E+02 -0.14147142849E+02 -0.12519732621E+02  0.34902093141E+02  0.00000000000E+00 0. -1.
</event>
<event>
 7    1  0.2886681E-010  0.4778726E+02  0.7816164E-02  0.1312668E+00
        -11   -1    0    0    0    0  0.00000000000E+00  0.00000000000E+00  0.45593999997E+02  0.45594000000E+02  0.51100000000E-03 0.  1.
         11   -1    0    0    0    0 -0.00000000000E+00 -0.00000000000E+00 -0.45593999997E+02  0.45594000000E+02  0.51100000000E-03 0. -1.
    9900012    2    1    2    0    0  0.12011821234E+02  0.77875493750E+01 -0.40971873494E+02  0.47787260464E+02  0.19999951761E+02 0.  0.
        -12    1    1    2    0    0 -0.12011821234E+02 -0.77875493750E+01  0.40971873494E+02  0.43400739536E+02  0.00000000000E+00 0.  1.
         11    1    3    3    0    0  0.44584302429E+01  0.77074133217E+01 -0.19805668254E+02  0.21715117213E+02  0.51100000000E-03 0. -1.
        -11    1    3    3    0    0 -0.16981628465E-01 -0.50314691120E+01 -0.33320555621E+01  0.60347795594E+01  0.51100000000E-03 0.  1.
        -12    1    3    3    0    0  0.75703726198E+01  0.51116051653E+01 -0.17834149678E+02  0.20037363691E+02  0.00000000000E+00 0.  1.
</event>
<event>
 7    1  0.2886681E-010  0.4778727E+02  0.7816164E-02  0.1312668E+00
        -11   -1    0    0    0    0  0.00000000000E+00  0.00000000000E+00  0.45593999997E+02  0.45594000000E+02  0.51100000000E-03 0.  1.
         11   -1    0    0    0    0 -0.00000000000E+00 -0.00000000000E+00 -0.45593999997E+02  0.45594000000E+02  0.51100000000E-03 0. -1.
    9900012    2    1    2    0    0 -0.11450702714E+02 -0.41855569021E+02  0.78471581641E+00  0.47787273858E+02  0.20000012828E+02 0.  0.
        -12    1    1    2    0    0  0.11450702714E+02  0.41855569021E+02 -0.78471581641E+00  0.43400726142E+02  0.00000000000E+00 0.  1.
         11    1    3    3    0    0 -0.88326744637E+01 -0.30641255965E+02  0.27112335508E+01  0.32003960582E+02  0.51100000000E-03 0. -1.
        -11    1    3    3    0    0 -0.84597610610E+00  0.19600189674E+01  0.67336941325E+00  0.22384763909E+01  0.51100000000E-03 0.  1.
         12    1    3    3    0    0 -0.17720521445E+01 -0.13174332023E+02 -0.25998871476E+01  0.13544836885E+02  0.00000000000E+00 0. -1.
</event>
<event>
 7    1  0.2886681E-010  0.4778727E+02  0.7816164E-02  0.1312668E+00
        -11   -1    0    0    0    0  0.00000000000E+00  0.00000000000E+00  0.45593999997E+02  0.45594000000E+02  0.51100000000E-03 0. -1.
         11   -1    0    0    0    0 -0.00000000000E+00 -0.00000000000E+00 -0.45593999997E+02  0.45594000000E+02  0.51100000000E-03 0.  1.
    9900012    2    1    2    0    0  0.39069324833E+02 -0.17619045777E+02  0.68396249693E+01  0.47787269744E+02  0.19999994073E+02 0.  0.
        -12    1    1    2    0    0 -0.39069324833E+02  0.17619045777E+02 -0.68396249693E+01  0.43400730256E+02  0.00000000000E+00 0.  1.
         11    1    3    3    0    0  0.35240851668E+02 -0.17715023611E+02  0.77267779702E+00  0.39450433700E+02  0.51100000000E-03 0. -1.
        -11    1    3    3    0    0 -0.57677142733E+00 -0.10027887218E+01  0.15322832102E+01  0.19199329669E+01  0.51100000000E-03 0.  1.
         12    1    3    3    0    0  0.44052445921E+01  0.10987665563E+01  0.45346639620E+01  0.64169030778E+01  0.00000000000E+00 0. -1.
</event>
<event>
 7    1  0.2886681E-010  0.4778727E+02  0.7816164E-02  0.1312668E+00
        -11   -1    0    0    0    0  0.00000000000E+00  0.00000000000E+00  0.45593999997E+02  0.45594000000E+02  0.51100000000E-03 0.  1.
         11   -1    0    0    0    0 -0.00000000000E+00 -0.00000000000E+00 -0.45593999997E+02  0.45594000000E+02  0.51100000000E-03 0. -1.
    9900012    2    1    2    0    0  0.33160236302E+01  0.39920064815E+01 -0.43089336673E+02  0.47787273470E+02  0.20000011059E+02 0.  0.
        -12    1    1    2    0    0 -0.33160236302E+01 -0.39920064815E+01  0.43089336673E+02  0.43400726530E+02  0.00000000000E+00 0.  1.
         11    1    3    3    0    0  0.95166658396E+01  0.27649226468E+01 -0.24118906804E+02  0.26075532432E+02  0.51100000000E-03 0. -1.
        -11    1    3    3    0    0  0.84780841049E+00 -0.17474320491E+01 -0.86476412092E+01  0.88630692545E+01  0.51100000000E-03 0.  1.
         12    1    3    3    0    0 -0.70484506199E+01  0.29745158838E+01 -0.10322788660E+02  0.12848671783E+02  0.00000000000E+00 0. -1.
</event>
<event>
 7    1  0.2886681E-010  0.4778727E+02  0.7816164E-02  0.1312668E+00
        -11   -1    0    0    0    0  0.00000000000E+00  0.00000000000E+00  0.45593999997E+02  0.45594000000E+02  0.51100000000E-03 0. -1.
         11   -1    0    0    0    0 -0.00000000000E+00 -0.00000000000E+00 -0.45593999997E+02  0.45594000000E+02  0.51100000000E-03 0.  1.
    9900012    2    1    2    0    0 -0.34324860270E+02 -0.13982733251E+02  0.22581201328E+02  0.47787268265E+02  0.19999987326E+02 0.  0.
        -12    1    1    2    0    0  0.34324860270E+02  0.13982733251E+02 -0.22581201328E+02  0.43400731735E+02  0.00000000000E+00 0.  1.
         11    1    3    3    0    0 -0.47691534780E+01 -0.47411354675E+01  0.14025903589E+02  0.15554715111E+02  0.51100000000E-03 0. -1.
        -11    1    3    3    0    0 -0.20741328318E+02 -0.75425766349E+01  0.54403925796E+01  0.22730838840E+02  0.51100000000E-03 0.  1.
         12    1    3    3    0    0 -0.88143784742E+01 -0.16990211483E+01  0.31149051592E+01  0.95017143137E+01  0.00000000000E+00 0. -1.
</event>
<event>
 7    1  0.2886681E-010  0.4778727E+02  0.7816164E-02  0.1312668E+00
        -11   -1    0    0    0    0  0.00000000000E+00  0.00000000000E+00  0.45593999997E+02  0.45594000000E+02  0.51100000000E-03 0.  1.
         11   -1    0    0    0    0 -0.00000000000E+00 -0.00000000000E+00 -0.45593999997E+02  0.45594000000E+02  0.51100000000E-03 0. -1.
    9900012    2    1    2    0    0  0.33342899148E+02  0.15913847749E+01 -0.27737010020E+02  0.47787272426E+02  0.20000006298E+02 0.  0.
        -12    1    1    2    0    0 -0.33342899148E+02 -0.15913847749E+01  0.27737010020E+02  0.43400727574E+02  0.00000000000E+00 0.  1.
         11    1    3    3    0    0  0.19559141347E+02  0.13818219591E+01 -0.25726005238E+02  0.32346511217E+02  0.51100000000E-03 0. -1.
        -11    1    3    3    0    0  0.11217768205E+02 -0.23933202029E+01 -0.25387154698E+01  0.11747824547E+02  0.51100000000E-03 0.  1.
         12    1    3    3    0    0  0.25659895960E+01  0.26028830187E+01  0.52771068742E+00  0.36929366614E+01  0.00000000000E+00 0. -1.
</event>
<event>
 7    1  0.2886681E-010  0.4778728E+02  0.7816164E-02  0.1312668E+00
        -11   -1    0    0    0    0  0.00000000000E+00  0.00000000000E+00  0.45593999997E+02  0.45594000000E+02  0.51100000000E-03 0. -1.
         11   -1    0    0    0    0 -0.00000000000E+00 -0.00000000000E+00 -0.45593999997E+02  0.45594000000E+02  0.51100000000E-03 0.  1.
    9900012    2    1    2    0    0 -0.32894688412E+02 -0.24457421326E+02  0.14261729255E+02  0.47787275295E+02  0.20000019379E+02 0.  0.
        -12    1    1    2    0    0  0.32894688412E+02  0.24457421326E+02 -0.14261729255E+02  0.43400724705E+02  0.00000000000E+00 0.  1.
         11    1    3    3    0    0 -0.21367685700E+02 -0.23855088444E+02  0.13394270726E+02  0.34713826142E+02  0.51100000000E-03 0. -1.
        -11    1    3    3    0    0 -0.10790598720E+02 -0.22998360915E+01  0.73615851692E-02  0.11032965206E+02  0.51100000000E-03 0.  1.
         12    1    3    3    0    0 -0.73640399207E+00  0.16975032100E+01  0.86009694294E+00  0.20404839472E+01  0.00000000000E+00 0. -1.
</event>
<event>
 7    1  0.2886681E-010  0.4778727E+02  0.7816164E-02  0.1312668E+00
        -11   -1    0    0    0    0  0.00000000000E+00  0.00000000000E+00  0.45593999997E+02  0.45594000000E+02  0.51100000000E-03 0.  1.
         11   -1    0    0    0    0 -0.00000000000E+00 -0.00000000000E+00 -0.45593999997E+02  0.45594000000E+02  0.51100000000E-03 0. -1.
    9900012    2    1    2    0    0 -0.13090550015E+02 -0.23368759533E+02 -0.34149118335E+02  0.47787266079E+02  0.19999977361E+02 0.  0.
        -12    1    1    2    0    0  0.13090550015E+02  0.23368759533E+02  0.34149118335E+02  0.43400733921E+02  0.00000000000E+00 0.  1.
         11    1    3    3    0    0 -0.11257781414E+02 -0.18889406219E+02 -0.18320795741E+02  0.28621650311E+02  0.51100000000E-03 0. -1.
        -11    1    3    3    0    0  0.38311744818E+01 -0.13642752984E+01 -0.83010455892E+01  0.92437277726E+01  0.51100000000E-03 0.  1.
        -12    1    3    3    0    0 -0.56639430826E+01 -0.31150780156E+01 -0.75272770050E+01  0.99218879956E+01  0.00000000000E+00 0.  1.
</event>
<event>
 7    1  0.2886681E-010  0.4778726E+02  0.7816164E-02  0.1312668E+00
        -11   -1    0    0    0    0  0.00000000000E+00  0.00000000000E+00  0.45593999997E+02  0.45594000000E+02  0.51100000000E-03 0.  1.
         11   -1    0    0    0    0 -0.00000000000E+00 -0.00000000000E+00 -0.45593999997E+02  0.45594000000E+02  0.51100000000E-03 0. -1.
    9900012    2    1    2    0    0  0.23786709108E+01 -0.16179936877E+02 -0.40201686532E+02  0.47787262303E+02  0.19999960143E+02 0.  0.
        -12    1    1    2    0    0 -0.23786709108E+01  0.16179936877E+02  0.40201686532E+02  0.43400737697E+02  0.00000000000E+00 0.  1.
         11    1    3    3    0    0 -0.31646714378E+01 -0.14622943809E+02 -0.22894012740E+02  0.27349249543E+02  0.51100000000E-03 0. -1.
        -11    1    3    3    0    0  0.71545852231E+01 -0.33522883128E+01 -0.10013159347E+02  0.12754971071E+02  0.51100000000E-03 0.  1.
         12    1    3    3    0    0 -0.16112428745E+01  0.17952952441E+01 -0.72945144446E+01  0.76830416891E+01  0.00000000000E+00 0. -1.
</event>
<event>
 7    1  0.2886681E-010  0.4778727E+02  0.7816164E-02  0.1312668E+00
        -11   -1    0    0    0    0  0.00000000000E+00  0.00000000000E+00  0.45593999997E+02  0.45594000000E+02  0.51100000000E-03 0.  1.
         11   -1    0    0    0    0 -0.00000000000E+00 -0.00000000000E+00 -0.45593999997E+02  0.45594000000E+02  0.51100000000E-03 0. -1.
    9900012    2    1    2    0    0  0.30970002664E+02 -0.30391055183E+02  0.93054784578E+00  0.47787271672E+02  0.20000002859E+02 0.  0.
        -12    1    1    2    0    0 -0.30970002664E+02  0.30391055183E+02 -0.93054784578E+00  0.43400728328E+02  0.00000000000E+00 0.  1.
         11    1    3    3    0    0  0.20005379026E+02 -0.15466946574E+02 -0.10420622470E+01  0.25308645169E+02  0.51100000000E-03 0. -1.
        -11    1    3    3    0    0 -0.61592736631E+00 -0.81225761607E+01 -0.21592410681E+01  0.84272137897E+01  0.51100000000E-03 0.  1.
        -12    1    3    3    0    0  0.11580551005E+02 -0.68015324481E+01  0.41318511609E+01  0.14051412713E+02  0.00000000000E+00 0.  1.
</event>
<event>
 7    1  0.2886681E-010  0.4778727E+02  0.7816164E-02  0.1312668E+00
        -11   -1    0    0    0    0  0.00000000000E+00  0.00000000000E+00  0.45593999997E+02  0.45594000000E+02  0.51100000000E-03 0. -1.
         11   -1    0    0    0    0 -0.00000000000E+00 -0.00000000000E+00 -0.45593999997E+02  0.45594000000E+02  0.51100000000E-03 0.  1.
    9900012    2    1    2    0    0  0.87901528256E+01  0.12586371900E+02  0.40594825081E+02  0.47787269964E+02  0.19999995075E+02 0.  0.
        -12    1    1    2    0    0 -0.87901528256E+01 -0.12586371900E+02 -0.40594825081E+02  0.43400730036E+02  0.00000000000E+00 0.  1.
         11    1    3    3    0    0  0.95053521059E+01  0.92773190967E+01  0.25512657881E+02  0.28763102765E+02  0.51100000000E-03 0. -1.
        -11    1    3    3    0    0 -0.59117725153E+01  0.16220864691E+01  0.78309009231E+01  0.99450102219E+01  0.51100000000E-03 0.  1.
        -12    1    3    3    0    0  0.51965732349E+01  0.16869663338E+01  0.72512662768E+01  0.90791569771E+01  0.00000000000E+00 0.  1.
</event>
<event>
 7    1  0.2886681E-010  0.4778727E+02  0.7816164E-02  0.1312668E+00
        -11   -1    0    0    0    0  0.00000000000E+00  0.00000000000E+00  0.45593999997E+02  0.45594000000E+02  0.51100000000E-03 0.  1.
         11   -1    0    0    0    0 -0.00000000000E+00 -0.00000000000E+00 -0.45593999997E+02  0.45594000000E+02  0.51100000000E-03 0. -1.
    9900012    2    1    2    0    0  0.31905967427E+02  0.27128187748E+02  0.11388312697E+02  0.47787274268E+02  0.20000014697E+02 0.  0.
        -12    1    1    2    0    0 -0.31905967427E+02 -0.27128187748E+02 -0.11388312697E+02  0.43400725732E+02  0.00000000000E+00 0.  1.
         11    1    3    3    0    0  0.18338306800E+02  0.23051049340E+02  0.72427144073E-01  0.29455892754E+02  0.51100000000E-03 0. -1.
        -11    1    3    3    0    0  0.55020065031E+01  0.24804205556E+01  0.61738435252E+01  0.86337075366E+01  0.51100000000E-03 0.  1.
         12    1    3    3    0    0  0.80656541244E+01  0.15967178524E+01  0.51420420280E+01  0.96976739775E+01  0.00000000000E+00 0. -1.
</event>
<event>
 7    1  0.2886681E-010  0.4778725E+02  0.7816164E-02  0.1312668E+00
        -11   -1    0    0    0    0  0.00000000000E+00  0.00000000000E+00  0.45593999997E+02  0.45594000000E+02  0.51100000000E-03 0. -1.
         11   -1    0    0    0    0 -0.00000000000E+00 -0.00000000000E+00 -0.45593999997E+02  0.45594000000E+02  0.51100000000E-03 0.  1.
    9900012    2    1    2    0    0 -0.32421588876E+02  0.27043208263E+02  0.10056356462E+02  0.47787252960E+02  0.19999917544E+02 0.  0.
        -12    1    1    2    0    0  0.32421588876E+02 -0.27043208263E+02 -0.10056356462E+02  0.43400747040E+02  0.00000000000E+00 0.  1.
         11    1    3    3    0    0 -0.29822711440E+02  0.27475572089E+02  0.81066637944E+01  0.41352378135E+02  0.51100000000E-03 0. -1.
        -11    1    3    3    0    0  0.13662210875E+01 -0.88865533615E+00 -0.55626751573E+00  0.17221214175E+01  0.51100000000E-03 0.  1.
         12    1    3    3    0    0 -0.39650985227E+01  0.45629150978E+00  0.25059601828E+01  0.47127534069E+01  0.00000000000E+00 0. -1.
</event>
<event>
 7    1  0.2886681E-010  0.4778725E+02  0.7816164E-02  0.1312668E+00
        -11   -1    0    0    0    0  0.00000000000E+00  0.00000000000E+00  0.45593999997E+02  0.45594000000E+02  0.51100000000E-03 0. -1.
         11   -1    0    0    0    0 -0.00000000000E+00 -0.00000000000E+00 -0.45593999997E+02  0.45594000000E+02  0.51100000000E-03 0.  1.
    9900012    2    1    2    0    0  0.23418605089E+02 -0.34187268924E+02  0.12900559169E+02  0.47787252913E+02  0.19999917333E+02 0.  0.
        -12    1    1    2    0    0 -0.23418605089E+02  0.34187268924E+02 -0.12900559169E+02  0.43400747087E+02  0.00000000000E+00 0.  1.
         11    1    3    3    0    0  0.31498554733E+01 -0.20500417008E+01  0.74404977291E+01  0.83357823385E+01  0.51100000000E-03 0. -1.
        -11    1    3    3    0    0  0.85478375345E+01 -0.10954162874E+02 -0.21809986788E+01  0.14064706406E+02  0.51100000000E-03 0.  1.
         12    1    3    3    0    0  0.11720912081E+02 -0.21183064349E+02  0.76410601192E+01  0.25386764169E+02  0.00000000000E+00 0. -1.
</event>
<event>
 7    1  0.2886681E-010  0.4778727E+02  0.7816164E-02  0.1312668E+00
        -11   -1    0    0    0    0  0.00000000000E+00  0.00000000000E+00  0.45593999997E+02  0.45594000000E+02  0.51100000000E-03 0. -1.
         11   -1    0    0    0    0 -0.00000000000E+00 -0.00000000000E+00 -0.45593999997E+02  0.45594000000E+02  0.51100000000E-03 0.  1.
    9900012    2    1    2    0    0  0.24235176639E+02  0.35868249523E+02  0.31222165342E+01  0.47787270206E+02  0.19999996177E+02 0.  0.
        -12    1    1    2    0    0 -0.24235176639E+02 -0.35868249523E+02 -0.31222165342E+01  0.43400729794E+02  0.00000000000E+00 0.  1.
         11    1    3    3    0    0  0.20145981027E+01  0.99651148399E+01 -0.10231767102E+01  0.10218072721E+02  0.51100000000E-03 0. -1.
        -11    1    3    3    0    0  0.13998645737E+02  0.15792149753E+02 -0.49511700732E+01  0.21676442550E+02  0.51100000000E-03 0.  1.
        -12    1    3    3    0    0  0.82219327998E+01  0.10110984930E+02  0.90965633176E+01  0.15892754935E+02  0.00000000000E+00 0.  1.
</event>
<event>
 7    1  0.2886681E-010  0.4778727E+02  0.7816164E-02  0.1312668E+00
        -11   -1    0    0    0    0  0.00000000000E+00  0.00000000000E+00  0.45593999997E+02  0.45594000000E+02  0.51100000000E-03 0.  1.
         11   -1    0    0    0    0 -0.00000000000E+00 -0.00000000000E+00 -0.45593999997E+02  0.45594000000E+02  0.51100000000E-03 0. -1.
    9900012    2    1    2    0    0 -0.47635122162E+01 -0.29323497811E+01 -0.43038744926E+02  0.47787270874E+02  0.19999999221E+02 0.  0.
        -12    1    1    2    0    0  0.47635122162E+01  0.29323497811E+01  0.43038744926E+02  0.43400729126E+02  0.00000000000E+00 0.  1.
         11    1    3    3    0    0 -0.29392434897E+01  0.48916024000E+01 -0.11906288397E+02  0.13203281031E+02  0.51100000000E-03 0. -1.
        -11    1    3    3    0    0 -0.43922014493E+01  0.20497341663E+01 -0.94031485739E+01  0.10578849044E+02  0.51100000000E-03 0.  1.
         12    1    3    3    0    0  0.25679327228E+01 -0.98736863474E+01 -0.21729307956E+02  0.24005140799E+02  0.00000000000E+00 0. -1.
</event>
<event>
 7    1  0.2886681E-010  0.4778727E+02  0.7816164E-02  0.1312668E+00
        -11   -1    0    0    0    0  0.00000000000E+00  0.00000000000E+00  0.45593999997E+02  0.45594000000E+02  0.51100000000E-03 0.  1.
         11   -1    0    0    0    0 -0.00000000000E+00 -0.00000000000E+00 -0.45593999997E+02  0.45594000000E+02  0.51100000000E-03 0. -1.
    9900012    2    1    2    0    0 -0.60675008261E+01  0.18304658226E+02 -0.38881211606E+02  0.47787266193E+02  0.19999977881E+02 0.  0.
        -12    1    1    2    0    0  0.60675008261E+01 -0.18304658226E+02  0.38881211606E+02  0.43400733807E+02  0.00000000000E+00 0.  1.
         11    1    3    3    0    0 -0.24399403164E+01  0.14742742907E+02 -0.16172571233E+02  0.22019396852E+02  0.51100000000E-03 0. -1.
        -11    1    3    3    0    0 -0.51400214169E+01 -0.24741098159E+01 -0.13479979280E+02  0.14637311269E+02  0.51100000000E-03 0.  1.
        -12    1    3    3    0    0  0.15124609072E+01  0.60360251346E+01 -0.92286610931E+01  0.11130558072E+02  0.00000000000E+00 0.  1.
</event>
<event>
 7    1  0.2886681E-010  0.4778727E+02  0.7816164E-02  0.1312668E+00
        -11   -1    0    0    0    0  0.00000000000E+00  0.00000000000E+00  0.45593999997E+02  0.45594000000E+02  0.51100000000E-03 0.  1.
         11   -1    0    0    0    0 -0.00000000000E+00 -0.00000000000E+00 -0.45593999997E+02  0.45594000000E+02  0.51100000000E-03 0. -1.
    9900012    2    1    2    0    0 -0.69017640899E+00 -0.43369497418E+02 -0.14946519393E+01  0.47787266893E+02  0.19999981074E+02 0.  0.
        -12    1    1    2    0    0  0.69017640899E+00  0.43369497418E+02  0.14946519393E+01  0.43400733107E+02  0.00000000000E+00 0.  1.
         11    1    3    3    0    0 -0.93736252469E+00 -0.37364435933E+02 -0.27598785363E-01  0.37376202095E+02  0.51100000000E-03 0. -1.
        -11    1    3    3    0    0  0.40873786729E+01 -0.25778491714E+01  0.58967428795E+00  0.48682324096E+01  0.51100000000E-03 0.  1.
         12    1    3    3    0    0 -0.38401925572E+01 -0.34272123134E+01 -0.20567274419E+01  0.55428323886E+01  0.00000000000E+00 0. -1.
</event>
<event>
 7    1  0.2886681E-010  0.4778727E+02  0.7816164E-02  0.1312668E+00
        -11   -1    0    0    0    0  0.00000000000E+00  0.00000000000E+00  0.45593999997E+02  0.45594000000E+02  0.51100000000E-03 0.  1.
         11   -1    0    0    0    0 -0.00000000000E+00 -0.00000000000E+00 -0.45593999997E+02  0.45594000000E+02  0.51100000000E-03 0. -1.
    9900012    2    1    2    0    0  0.19528969723E+02  0.28113172789E+02 -0.26681312388E+02  0.47787267593E+02  0.19999984264E+02 0.  0.
        -12    1    1    2    0    0 -0.19528969723E+02 -0.28113172789E+02  0.26681312388E+02  0.43400732407E+02  0.00000000000E+00 0.  1.
         11    1    3    3    0    0  0.95326315492E+01  0.16682569284E+02 -0.13283202989E+02  0.23358567252E+02  0.51100000000E-03 0. -1.
        -11    1    3    3    0    0  0.85835746095E+00 -0.28481486212E+01 -0.26921003524E+00  0.29868381950E+01  0.51100000000E-03 0.  1.
        -12    1    3    3    0    0  0.91379807131E+01  0.14278752126E+02 -0.13128899364E+02  0.21441862146E+02  0.00000000000E+00 0.  1.
</event>
<event>
 7    1  0.2886681E-010  0.4778727E+02  0.7816164E-02  0.1312668E+00
        -11   -1    0    0    0    0  0.00000000000E+00  0.00000000000E+00  0.45593999997E+02  0.45594000000E+02  0.51100000000E-03 0. -1.
         11   -1    0    0    0    0 -0.00000000000E+00 -0.00000000000E+00 -0.45593999997E+02  0.45594000000E+02  0.51100000000E-03 0.  1.
    9900012    2    1    2    0    0 -0.38577354336E+02  0.15578704723E+02 -0.12357795133E+02  0.47787269488E+02  0.19999992904E+02 0.  0.
        -12    1    1    2    0    0  0.38577354336E+02 -0.15578704723E+02  0.12357795133E+02  0.43400730512E+02  0.00000000000E+00 0.  1.
         11    1    3    3    0    0 -0.22187355894E+02  0.90194567085E+01 -0.99571930361E+01  0.25937907670E+02  0.51100000000E-03 0. -1.
        -11    1    3    3    0    0  0.13941910154E+01  0.24696989479E+01  0.14709983055E+01  0.31948423681E+01  0.51100000000E-03 0.  1.
        -12    1    3    3    0    0 -0.17784189458E+02  0.40895490664E+01 -0.38716004024E+01  0.18654519450E+02  0.00000000000E+00 0.  1.
</event>
<event>
 7    1  0.2886681E-010  0.4778724E+02  0.7816164E-02  0.1312668E+00
        -11   -1    0    0    0    0  0.00000000000E+00  0.00000000000E+00  0.45593999997E+02  0.45594000000E+02  0.51100000000E-03 0. -1.
         11   -1    0    0    0    0 -0.00000000000E+00 -0.00000000000E+00 -0.45593999997E+02  0.45594000000E+02  0.51100000000E-03 0.  1.
    9900012    2    1    2    0    0 -0.52520663898E+01 -0.13252945285E+02  0.40992701765E+02  0.47787235513E+02  0.19999837996E+02 0.  0.
        -12    1    1    2    0    0  0.52520663898E+01  0.13252945285E+02 -0.40992701765E+02  0.43400764487E+02  0.00000000000E+00 0.  1.
         11    1    3    3    0    0 -0.21036948547E+01 -0.13077390287E+02  0.13340566571E+02  0.18799318750E+02  0.51100000000E-03 0. -1.
        -11    1    3    3    0    0 -0.20758887220E+00 -0.96599155932E-01  0.25077501002E+02  0.25078546236E+02  0.51100000000E-03 0.  1.
        -12    1    3    3    0    0 -0.29407826629E+01 -0.78955841951E-01  0.25746341919E+01  0.39093705270E+01  0.00000000000E+00 0.  1.
</event>
<event>
 7    1  0.2886681E-010  0.4778727E+02  0.7816164E-02  0.1312668E+00
        -11   -1    0    0    0    0  0.00000000000E+00  0.00000000000E+00  0.45593999997E+02  0.45594000000E+02  0.51100000000E-03 0. -1.
         11   -1    0    0    0    0 -0.00000000000E+00 -0.00000000000E+00 -0.45593999997E+02  0.45594000000E+02  0.51100000000E-03 0.  1.
    9900012    2    1    2    0    0 -0.37919023259E+02  0.20055773583E+02  0.65982487596E+01  0.47787271139E+02  0.20000000431E+02 0.  0.
        -12    1    1    2    0    0  0.37919023259E+02 -0.20055773583E+02 -0.65982487596E+01  0.43400728861E+02  0.00000000000E+00 0.  1.
         11    1    3    3    0    0 -0.16649756005E+02  0.18792691912E+01  0.73202941879E+01  0.18284767840E+02  0.51100000000E-03 0. -1.
        -11    1    3    3    0    0 -0.86160653614E+01  0.11785815771E+02  0.28704090229E+01  0.14878887187E+02  0.51100000000E-03 0.  1.
        -12    1    3    3    0    0 -0.12653201893E+02  0.63906886210E+01 -0.35924544512E+01  0.14623616112E+02  0.00000000000E+00 0.  1.
</event>
<event>
 7    1  0.2886681E-010  0.4778729E+02  0.7816164E-02  0.1312668E+00
        -11   -1    0    0    0    0  0.00000000000E+00  0.00000000000E+00  0.45593999997E+02  0.45594000000E+02  0.51100000000E-03 0.  1.
         11   -1    0    0    0    0 -0.00000000000E+00 -0.00000000000E+00 -0.45593999997E+02  0.45594000000E+02  0.51100000000E-03 0. -1.
    9900012    2    1    2    0    0 -0.17547707955E+02 -0.26433785876E+02 -0.29613424925E+02  0.47787285421E+02  0.20000065548E+02 0.  0.
        -12    1    1    2    0    0  0.17547707955E+02  0.26433785876E+02  0.29613424925E+02  0.43400714579E+02  0.00000000000E+00 0.  1.
         11    1    3    3    0    0 -0.27933679170E+01 -0.62837687257E+01 -0.82672912922E+01  0.10753453366E+02  0.51100000000E-03 0. -1.
        -11    1    3    3    0    0 -0.48522260032E+01 -0.14871777513E+02 -0.36233967285E+01  0.16057486344E+02  0.51100000000E-03 0.  1.
        -12    1    3    3    0    0 -0.99021140345E+01 -0.52782396378E+01 -0.17722736904E+02  0.20976345711E+02  0.00000000000E+00 0.  1.
</event>
<event>
 7    1  0.2886681E-010  0.4778727E+02  0.7816164E-02  0.1312668E+00
        -11   -1    0    0    0    0  0.00000000000E+00  0.00000000000E+00  0.45593999997E+02  0.45594000000E+02  0.51100000000E-03 0.  1.
         11   -1    0    0    0    0 -0.00000000000E+00 -0.00000000000E+00 -0.45593999997E+02  0.45594000000E+02  0.51100000000E-03 0. -1.
    9900012    2    1    2    0    0 -0.19542306718E+02 -0.30754683497E+01 -0.38629822113E+02  0.47787269431E+02  0.19999992644E+02 0.  0.
        -12    1    1    2    0    0  0.19542306718E+02  0.30754683497E+01  0.38629822113E+02  0.43400730569E+02  0.00000000000E+00 0.  1.
         11    1    3    3    0    0 -0.20731854128E+02 -0.74554927327E+01 -0.31372273372E+02  0.38335540745E+02  0.51100000000E-03 0. -1.
        -11    1    3    3    0    0  0.74261049770E+00  0.24992027582E+01 -0.82446528773E+00  0.27344520565E+01  0.51100000000E-03 0.  1.
         12    1    3    3    0    0  0.44693691294E+00  0.18808216249E+01 -0.64330834539E+01  0.67172766292E+01  0.00000000000E+00 0. -1.
</event>
<event>
 7    1  0.2886681E-010  0.4778728E+02  0.7816164E-02  0.1312668E+00
        -11   -1    0    0    0    0  0.00000000000E+00  0.00000000000E+00  0.45593999997E+02  0.45594000000E+02  0.51100000000E-03 0.  1.
         11   -1    0    0    0    0 -0.00000000000E+00 -0.00000000000E+00 -0.45593999997E+02  0.45594000000E+02  0.51100000000E-03 0. -1.
    9900012    2    1    2    0    0 -0.10559561649E+02  0.80809926409E+01 -0.41313629209E+02  0.47787277164E+02  0.20000027900E+02 0.  0.
        -12    1    1    2    0    0  0.10559561649E+02 -0.80809926409E+01  0.41313629209E+02  0.43400722836E+02  0.00000000000E+00 0.  1.
         11    1    3    3    0    0 -0.83907651661E+01  0.45948817885E-01 -0.31827832962E+02  0.32915315625E+02  0.51100000000E-03 0. -1.
        -11    1    3    3    0    0 -0.15761811051E+00 -0.15624831601E+01 -0.75512712880E+00  0.17425310144E+01  0.51100000000E-03 0.  1.
         12    1    3    3    0    0 -0.20111783720E+01  0.95975269831E+01 -0.87306691187E+01  0.13129430524E+02  0.00000000000E+00 0. -1.
</event>
<event>
 7    1  0.2886681E-010  0.4778727E+02  0.7816164E-02  0.1312668E+00
        -11   -1    0    0    0    0  0.00000000000E+00  0.00000000000E+00  0.45593999997E+02  0.45594000000E+02  0.51100000000E-03 0.  1.
         11   -1    0    0    0    0 -0.00000000000E+00 -0.00000000000E+00 -0.45593999997E+02  0.45594000000E+02  0.51100000000E-03 0. -1.
    9900012    2    1    2    0    0 -0.31046919663E+02  0.30452961093E+01 -0.30173466048E+02  0.47787273021E+02  0.20000009012E+02 0.  0.
        -12    1    1    2    0    0  0.31046919663E+02 -0.30452961093E+01  0.30173466048E+02  0.43400726979E+02  0.00000000000E+00 0.  1.
         11    1    3    3    0    0 -0.89309434525E+00  0.17236111147E+01 -0.42331115779E+01  0.46570040452E+01  0.51100000000E-03 0. -1.
        -11    1    3    3    0    0 -0.59066220749E+01  0.66975860194E+01 -0.32900936400E+01  0.95168565842E+01  0.51100000000E-03 0.  1.
        -12    1    3    3    0    0 -0.24247203243E+02 -0.53759010248E+01 -0.22650260830E+02  0.33613412392E+02  0.00000000000E+00 0.  1.
</event>
<event>
 7    1  0.2886681E-010  0.4778723E+02  0.7816164E-02  0.1312668E+00
        -11   -1    0    0    0    0  0.00000000000E+00  0.00000000000E+00  0.45593999997E+02  0.45594000000E+02  0.51100000000E-03 0.  1.
         11   -1    0    0    0    0 -0.00000000000E+00 -0.00000000000E+00 -0.45593999997E+02  0.45594000000E+02  0.51100000000E-03 0. -1.
    9900012    2    1    2    0    0  0.21982283404E+02  0.21550922217E+02 -0.30593526070E+02  0.47787229621E+02  0.19999811135E+02 0.  0.
        -12    1    1    2    0    0 -0.21982283404E+02 -0.21550922217E+02  0.30593526070E+02  0.43400770379E+02  0.00000000000E+00 0.  1.
         11    1    3    3    0    0  0.12887608321E+02  0.12566411239E+02 -0.18554559041E+02  0.25851050291E+02  0.51100000000E-03 0. -1.
        -11    1    3    3    0    0  0.44284473458E+00  0.14366630045E+01 -0.10197803113E+02  0.10308021180E+02  0.51100000000E-03 0.  1.
        -12    1    3    3    0    0  0.86518303488E+01  0.75478479736E+01 -0.18411639156E+01  0.11628158151E+02  0.00000000000E+00 0.  1.
</event>
<event>
 7    1  0.2886681E-010  0.4778727E+02  0.7816164E-02  0.1312668E+00
        -11   -1    0    0    0    0  0.00000000000E+00  0.00000000000E+00  0.45593999997E+02  0.45594000000E+02  0.51100000000E-03 0. -1.
         11   -1    0    0    0    0 -0.00000000000E+00 -0.00000000000E+00 -0.45593999997E+02  0.45594000000E+02  0.51100000000E-03 0.  1.
    9900012    2    1    2    0    0  0.27219468417E+02  0.20199431692E+02  0.27105472196E+02  0.47787272765E+02  0.20000007843E+02 0.  0.
        -12    1    1    2    0    0 -0.27219468417E+02 -0.20199431692E+02 -0.27105472196E+02  0.43400727235E+02  0.00000000000E+00 0.  1.
         11    1    3    3    0    0  0.93982330984E+01  0.59070637449E+01  0.65278765287E+01  0.12877630205E+02  0.51100000000E-03 0. -1.
        -11    1    3    3    0    0 -0.10100373332E+01 -0.25669658665E+01  0.32603746990E+01  0.42707765820E+01  0.51100000000E-03 0.  1.
        -12    1    3    3    0    0  0.18831272652E+02  0.16859333814E+02  0.17317220968E+02  0.30638865978E+02  0.00000000000E+00 0.  1.
</event>
<event>
 7    1  0.2886681E-010  0.4778728E+02  0.7816164E-02  0.1312668E+00
        -11   -1    0    0    0    0  0.00000000000E+00  0.00000000000E+00  0.45593999997E+02  0.45594000000E+02  0.51100000000E-03 0.  1.
         11   -1    0    0    0    0 -0.00000000000E+00 -0.00000000000E+00 -0.45593999997E+02  0.45594000000E+02  0.51100000000E-03 0. -1.
    9900012    2    1    2    0    0  0.77736897573E+01  0.11255420206E+02 -0.41188682763E+02  0.47787281985E+02  0.20000049884E+02 0.  0.
        -12    1    1    2    0    0 -0.77736897573E+01 -0.11255420206E+02  0.41188682763E+02  0.43400718015E+02  0.00000000000E+00 0.  1.
         11    1    3    3    0    0  0.63759815824E+01  0.27053449513E+01 -0.23581517597E+02  0.24577632206E+02  0.51100000000E-03 0. -1.
        -11    1    3    3    0    0 -0.19566938297E+01  0.10494536839E+02 -0.97944786778E+01  0.14487779921E+02  0.51100000000E-03 0.  1.
        -12    1    3    3    0    0  0.33544020045E+01 -0.19444615845E+01 -0.78126864881E+01  0.87218698582E+01  0.00000000000E+00 0.  1.
</event>
<event>
 7    1  0.2886681E-010  0.4778726E+02  0.7816164E-02  0.1312668E+00
        -11   -1    0    0    0    0  0.00000000000E+00  0.00000000000E+00  0.45593999997E+02  0.45594000000E+02  0.51100000000E-03 0.  1.
         11   -1    0    0    0    0 -0.00000000000E+00 -0.00000000000E+00 -0.45593999997E+02  0.45594000000E+02  0.51100000000E-03 0. -1.
    9900012    2    1    2    0    0  0.36784028909E+02 -0.79774748285E+01  0.21608310260E+02  0.47787263143E+02  0.19999963976E+02 0.  0.
        -12    1    1    2    0    0 -0.36784028909E+02  0.79774748285E+01 -0.21608310260E+02  0.43400736857E+02  0.00000000000E+00 0.  1.
         11    1    3    3    0    0  0.16549921663E+02  0.35405803411E+01  0.10686735943E+02  0.20016042105E+02  0.51100000000E-03 0. -1.
        -11    1    3    3    0    0  0.63013405027E+01 -0.95035477484E+01  0.40003318311E+01  0.12084161823E+02  0.51100000000E-03 0.  1.
        -12    1    3    3    0    0  0.13932766743E+02 -0.20145074212E+01  0.69212424861E+01  0.15687059215E+02  0.00000000000E+00 0.  1.
</event>
<event>
 7    1 -0.2886681E-010  0.4778727E+02  0.7816164E-02  0.1312668E+00
        -11   -1    0    0    0    0  0.00000000000E+00  0.00000000000E+00  0.45593999997E+02  0.45594000000E+02  0.51100000000E-03 0.  1.
         11   -1    0    0    0    0 -0.00000000000E+00 -0.00000000000E+00 -0.45593999997E+02  0.45594000000E+02  0.51100000000E-03 0. -1.
    9900012    2    1    2    0    0 -0.27103654637E+02  0.30356034132E+02 -0.15083989200E+02  0.47787266906E+02  0.19999981133E+02 0.  0.
        -12    1    1    2    0    0  0.27103654637E+02 -0.30356034132E+02  0.15083989200E+02  0.43400733094E+02  0.00000000000E+00 0.  1.
         11    1    3    3    0    0 -0.10347242697E+02  0.15489250911E+01 -0.84250139797E+01  0.13432998965E+02  0.51100000000E-03 0. -1.
        -11    1    3    3    0    0 -0.17855343619E+01  0.44144204509E+01  0.67405436551E+00  0.48093232813E+01  0.51100000000E-03 0.  1.
         12    1    3    3    0    0 -0.14970877577E+02  0.24392688590E+02 -0.73330295862E+01  0.29544944660E+02  0.00000000000E+00 0. -1.
</event>
<event>
 7    1  0.2886681E-010  0.4778728E+02  0.7816164E-02  0.1312668E+00
        -11   -1    0    0    0    0  0.00000000000E+00  0.00000000000E+00  0.45593999997E+02  0.45594000000E+02  0.51100000000E-03 0.  1.
         11   -1    0    0    0    0 -0.00000000000E+00 -0.00000000000E+00 -0.45593999997E+02  0.45594000000E+02  0.51100000000E-03 0. -1.
    9900012    2    1    2    0    0  0.69123027513E+01 -0.30420318757E+02 -0.30173614748E+02  0.47787277085E+02  0.20000027539E+02 0.  0.
        -12    1    1    2    0    0 -0.69123027513E+01  0.30420318757E+02  0.30173614748E+02  0.43400722915E+02  0.00000000000E+00 0.  1.
         11    1    3    3    0    0 -0.22461633602E+00 -0.65426426465E+01 -0.16389166118E+02  0.17648268799E+02  0.51100000000E-03 0. -1.
        -11    1    3    3    0    0 -0.98370969655E+00  0.19376466643E+00 -0.17761116563E+01  0.20395593617E+01  0.51100000000E-03 0.  1.
         12    1    3    3    0    0  0.81206287839E+01 -0.24071440777E+02 -0.12008336973E+02  0.28099448924E+02  0.00000000000E+00 0. -1.
</event>
<event>
 7    1  0.2886681E-010  0.4778727E+02  0.7816164E-02  0.1312668E+00
        -11   -1    0    0    0    0  0.00000000000E+00  0.00000000000E+00  0.45593999997E+02  0.45594000000E+02  0.51100000000E-03 0.  1.
         11   -1    0    0    0    0 -0.00000000000E+00 -0.00000000000E+00 -0.45593999997E+02  0.45594000000E+02  0.51100000000E-03 0. -1.
    9900012    2    1    2    0    0 -0.17228536073E+02  0.17888536367E+02 -0.35592150254E+02  0.47787270188E+02  0.19999996094E+02 0.  0.
        -12    1    1    2    0    0  0.17228536073E+02 -0.17888536367E+02  0.35592150254E+02  0.43400729812E+02  0.00000000000E+00 0.  1.
         11    1    3    3    0    0 -0.78940644573E+01  0.28192434607E+01 -0.12554905332E+02  0.15096027143E+02  0.51100000000E-03 0. -1.
        -11    1    3    3    0    0 -0.86014069167E+01  0.11759440058E+02 -0.67539196138E+01  0.16058769001E+02  0.51100000000E-03 0.  1.
        -12    1    3    3    0    0 -0.73306469897E+00  0.33098528478E+01 -0.16283325308E+02  0.16632474044E+02  0.00000000000E+00 0.  1.
</event>
<event>
 7    1  0.2886681E-010  0.4778727E+02  0.7816164E-02  0.1312668E+00
        -11   -1    0    0    0    0  0.00000000000E+00  0.00000000000E+00  0.45593999997E+02  0.45594000000E+02  0.51100000000E-03 0.  1.
         11   -1    0    0    0    0 -0.00000000000E+00 -0.00000000000E+00 -0.45593999997E+02  0.45594000000E+02  0.51100000000E-03 0. -1.
    9900012    2    1    2    0    0 -0.11402833229E+02  0.17021656615E+02 -0.38260449212E+02  0.47787269897E+02  0.19999994768E+02 0.  0.
        -12    1    1    2    0    0  0.11402833229E+02 -0.17021656615E+02  0.38260449212E+02  0.43400730103E+02  0.00000000000E+00 0.  1.
         11    1    3    3    0    0  0.17877341583E+01  0.63239813526E-01 -0.94000229449E+01  0.95687211434E+01  0.51100000000E-03 0. -1.
        -11    1    3    3    0    0 -0.12665274308E+02  0.15522865392E+02 -0.30163036863E+02  0.36210182495E+02  0.51100000000E-03 0.  1.
        -12    1    3    3    0    0 -0.52529307858E+00  0.14355514086E+01  0.13026105951E+01  0.20083662583E+01  0.00000000000E+00 0.  1.
</event>
<event>
 7    1  0.2886681E-010  0.4778727E+02  0.7816164E-02  0.1312668E+00
        -11   -1    0    0    0    0  0.00000000000E+00  0.00000000000E+00  0.45593999997E+02  0.45594000000E+02  0.51100000000E-03 0.  1.
         11   -1    0    0    0    0 -0.00000000000E+00 -0.00000000000E+00 -0.45593999997E+02  0.45594000000E+02  0.51100000000E-03 0. -1.
    9900012    2    1    2    0    0  0.18883731698E+02  0.37244617464E+02 -0.11826531805E+02  0.47787266050E+02  0.19999977229E+02 0.  0.
        -12    1    1    2    0    0 -0.18883731698E+02 -0.37244617464E+02  0.11826531805E+02  0.43400733950E+02  0.00000000000E+00 0.  1.
         11    1    3    3    0    0  0.78533927322E+01  0.16869742115E+01 -0.23288036589E+00  0.80359127000E+01  0.51100000000E-03 0. -1.
        -11    1    3    3    0    0  0.10881834557E+01  0.10478799109E+02 -0.62499310065E+01  0.12249531087E+02  0.51100000000E-03 0.  1.
         12    1    3    3    0    0  0.99421555100E+01  0.25078844143E+02 -0.53437204325E+01  0.27501822264E+02  0.00000000000E+00 0. -1.
</event>
<event>
 7    1  0.2886681E-010  0.4778728E+02  0.7816164E-02  0.1312668E+00
        -11   -1    0    0    0    0  0.00000000000E+00  0.00000000000E+00  0.45593999997E+02  0.45594000000E+02  0.51100000000E-03 0.  1.
         11   -1    0    0    0    0 -0.00000000000E+00 -0.00000000000E+00 -0.45593999997E+02  0.45594000000E+02  0.51100000000E-03 0. -1.
    9900012    2    1    2    0    0  0.32315910190E+02 -0.49583944302E+01 -0.28543281715E+02  0.47787278142E+02  0.20000032361E+02 0.  0.
        -12    1    1    2    0    0 -0.32315910190E+02  0.49583944302E+01  0.28543281715E+02  0.43400721858E+02  0.00000000000E+00 0.  1.
         11    1    3    3    0    0  0.88323436818E+01 -0.11999047476E+00 -0.42828809901E+01  0.98167083314E+01  0.51100000000E-03 0. -1.
        -11    1    3    3    0    0  0.24850861600E+02 -0.64085982338E+01 -0.24934412117E+02  0.35782123490E+02  0.51100000000E-03 0.  1.
        -12    1    3    3    0    0 -0.13672950919E+01  0.15701942784E+01  0.67401139237E+00  0.21884463204E+01  0.00000000000E+00 0.  1.
</event>
<event>
 7    1  0.2886681E-010  0.4778727E+02  0.7816164E-02  0.1312668E+00
        -11   -1    0    0    0    0  0.00000000000E+00  0.00000000000E+00  0.45593999997E+02  0.45594000000E+02  0.51100000000E-03 0.  1.
         11   -1    0    0    0    0 -0.00000000000E+00 -0.00000000000E+00 -0.45593999997E+02  0.45594000000E+02  0.51100000000E-03 0. -1.
    9900012    2    1    2    0    0 -0.37057578341E+02 -0.19832494120E+02 -0.10818105318E+02  0.47787270303E+02  0.19999996620E+02 0.  0.
        -12    1    1    2    0    0  0.37057578341E+02  0.19832494120E+02  0.10818105318E+02  0.43400729697E+02  0.00000000000E+00 0.  1.
         11    1    3    3    0    0 -0.19090472816E+02 -0.70901268043E+01 -0.70209304019E+01  0.21540880075E+02  0.51100000000E-03 0. -1.
        -11    1    3    3    0    0 -0.85867382704E+01 -0.98794030488E+01  0.40327860826E+01  0.13696643478E+02  0.51100000000E-03 0.  1.
        -12    1    3    3    0    0 -0.93803672554E+01 -0.28629642668E+01 -0.78299609991E+01  0.12549746750E+02  0.00000000000E+00 0.  1.
</event>
<event>
 7    1  0.2886681E-010  0.4778723E+02  0.7816164E-02  0.1312668E+00
        -11   -1    0    0    0    0  0.00000000000E+00  0.00000000000E+00  0.45593999997E+02  0.45594000000E+02  0.51100000000E-03 0.  1.
         11   -1    0    0    0    0 -0.00000000000E+00 -0.00000000000E+00 -0.45593999997E+02  0.45594000000E+02  0.51100000000E-03 0. -1.
    9900012    2    1    2    0    0 -0.28015312823E+02 -0.21205101944E+01 -0.33079796175E+02  0.47787225455E+02  0.19999792141E+02 0.  0.
        -12    1    1    2    0    0  0.28015312823E+02  0.21205101944E+01  0.33079796175E+02  0.43400774545E+02  0.00000000000E+00 0.  1.
         11    1    3    3    0    0 -0.29219603156E+01 -0.23476352385E+01 -0.15333372583E+02  0.15784852179E+02  0.51100000000E-03 0. -1.
        -11    1    3    3    0    0 -0.21088964664E+02 -0.23953107151E+01 -0.11522232683E+02  0.24150440789E+02  0.51100000000E-03 0.  1.
        -12    1    3    3    0    0 -0.40043878436E+01  0.26224357592E+01 -0.62241909094E+01  0.78519324876E+01  0.00000000000E+00 0.  1.
</event>
<event>
 7    1  0.2886681E-010  0.4778729E+02  0.7816164E-02  0.1312668E+00
        -11   -1    0    0    0    0  0.00000000000E+00  0.00000000000E+00  0.45593999997E+02  0.45594000000E+02  0.51100000000E-03 0.  1.
         11   -1    0    0    0    0 -0.00000000000E+00 -0.00000000000E+00 -0.45593999997E+02  0.45594000000E+02  0.51100000000E-03 0. -1.
    9900012    2    1    2    0    0 -0.18168095362E+02  0.30088611127E+02 -0.25460117326E+02  0.47787288221E+02  0.20000078316E+02 0.  0.
        -12    1    1    2    0    0  0.18168095362E+02 -0.30088611127E+02  0.25460117326E+02  0.43400711779E+02  0.00000000000E+00 0.  1.
         11    1    3    3    0    0  0.19076343058E+01  0.12128035215E+02 -0.63674386752E+01  0.13830133129E+02  0.51100000000E-03 0. -1.
        -11    1    3    3    0    0 -0.19025386027E+02  0.15806386438E+02 -0.14229967941E+02  0.28535927417E+02  0.51100000000E-03 0.  1.
        -12    1    3    3    0    0 -0.10503436409E+01  0.21541894745E+01 -0.48627107103E+01  0.54212276754E+01  0.00000000000E+00 0.  1.
</event>
<event>
 7    1  0.2886681E-010  0.4778726E+02  0.7816164E-02  0.1312668E+00
        -11   -1    0    0    0    0  0.00000000000E+00  0.00000000000E+00  0.45593999997E+02  0.45594000000E+02  0.51100000000E-03 0.  1.
         11   -1    0    0    0    0 -0.00000000000E+00 -0.00000000000E+00 -0.45593999997E+02  0.45594000000E+02  0.51100000000E-03 0. -1.
    9900012    2    1    2    0    0 -0.72213684925E+01 -0.82246944007E+01 -0.41997979383E+02  0.47787262298E+02  0.19999960120E+02 0.  0.
        -12    1    1    2    0    0  0.72213684925E+01  0.82246944007E+01  0.41997979383E+02  0.43400737702E+02  0.00000000000E+00 0.  1.
         11    1    3    3    0    0 -0.59925545086E+01 -0.49652886611E+01 -0.31920602306E+02  0.32855587848E+02  0.51100000000E-03 0. -1.
        -11    1    3    3    0    0 -0.34870417338E+01 -0.50198218081E+01 -0.21110992219E+01  0.64664372899E+01  0.51100000000E-03 0.  1.
        -12    1    3    3    0    0  0.22582277499E+01  0.17604160685E+01 -0.79662778548E+01  0.84652371594E+01  0.00000000000E+00 0.  1.
</event>
<event>
 7    1  0.2886681E-010  0.4778727E+02  0.7816164E-02  0.1312668E+00
        -11   -1    0    0    0    0  0.00000000000E+00  0.00000000000E+00  0.45593999997E+02  0.45594000000E+02  0.51100000000E-03 0.  1.
         11   -1    0    0    0    0 -0.00000000000E+00 -0.00000000000E+00 -0.45593999997E+02  0.45594000000E+02  0.51100000000E-03 0. -1.
    9900012    2    1    2    0    0 -0.26086436116E+02  0.15604099676E+02 -0.30977950598E+02  0.47787268449E+02  0.19999988168E+02 0.  0.
        -12    1    1    2    0    0  0.26086436116E+02 -0.15604099676E+02  0.30977950598E+02  0.43400731551E+02  0.00000000000E+00 0.  1.
         11    1    3    3    0    0 -0.15836785493E+02  0.16551226301E+02 -0.27251041804E+02  0.35600086328E+02  0.51100000000E-03 0. -1.
        -11    1    3    3    0    0 -0.76348615870E+01 -0.49346737609E+00 -0.47976874017E-01  0.76509426573E+01  0.51100000000E-03 0.  1.
         12    1    3    3    0    0 -0.26147890352E+01 -0.45365924939E+00 -0.36789319192E+01  0.45362394645E+01  0.00000000000E+00 0. -1.
</event>
<event>
 7    1  0.2886681E-010  0.4778727E+02  0.7816164E-02  0.1312668E+00
        -11   -1    0    0    0    0  0.00000000000E+00  0.00000000000E+00  0.45593999997E+02  0.45594000000E+02  0.51100000000E-03 0. -1.
         11   -1    0    0    0    0 -0.00000000000E+00 -0.00000000000E+00 -0.45593999997E+02  0.45594000000E+02  0.51100000000E-03 0.  1.
    9900012    2    1    2    0    0 -0.94101660729E+01 -0.38880645389E+02 -0.16833536909E+02  0.47787265257E+02  0.19999973613E+02 0.  0.
        -12    1    1    2    0    0  0.94101660729E+01  0.38880645389E+02  0.16833536909E+02  0.43400734743E+02  0.00000000000E+00 0.  1.
         11    1    3    3    0    0 -0.51283819852E+01 -0.23960196587E+02 -0.17006565547E+02  0.29826407666E+02  0.51100000000E-03 0. -1.
        -11    1    3    3    0    0  0.23094600128E+01 -0.36955973885E+01 -0.19458248423E+01  0.47725548909E+01  0.51100000000E-03 0.  1.
         12    1    3    3    0    0 -0.65912441005E+01 -0.11224851413E+02  0.21188534804E+01  0.13188302700E+02  0.00000000000E+00 0. -1.
</event>
<event>
 7    1  0.2886681E-010  0.4778727E+02  0.7816164E-02  0.1312668E+00
        -11   -1    0    0    0    0  0.00000000000E+00  0.00000000000E+00  0.45593999997E+02  0.45594000000E+02  0.51100000000E-03 0.  1.
         11   -1    0    0    0    0 -0.00000000000E+00 -0.00000000000E+00 -0.45593999997E+02  0.45594000000E+02  0.51100000000E-03 0. -1.
    9900012    2    1    2    0    0 -0.69440765011E+01 -0.26243203044E+01 -0.42761153603E+02  0.47787268289E+02  0.19999987439E+02 0.  0.
        -12    1    1    2    0    0  0.69440765011E+01  0.26243203044E+01  0.42761153603E+02  0.43400731711E+02  0.00000000000E+00 0.  1.
         11    1    3    3    0    0  0.16648805782E+01  0.41683256690E+01 -0.16215821601E+02  0.16825564974E+02  0.51100000000E-03 0. -1.
        -11    1    3    3    0    0 -0.11084958006E+02 -0.69119052709E+01 -0.19311273983E+02  0.23314717059E+02  0.51100000000E-03 0.  1.
        -12    1    3    3    0    0  0.24760009269E+01  0.11925929760E+00 -0.72340580199E+01  0.76469862564E+01  0.00000000000E+00 0.  1.
</event>
<event>
 7    1  0.2886681E-010  0.4778727E+02  0.7816164E-02  0.1312668E+00
        -11   -1    0    0    0    0  0.00000000000E+00  0.00000000000E+00  0.45593999997E+02  0.45594000000E+02  0.51100000000E-03 0.  1.
         11   -1    0    0    0    0 -0.00000000000E+00 -0.00000000000E+00 -0.45593999997E+02  0.45594000000E+02  0.51100000000E-03 0. -1.
    9900012    2    1    2    0    0 -0.11229825115E+02  0.27101008157E+02 -0.31985148322E+02  0.47787270416E+02  0.19999997136E+02 0.  0.
        -12    1    1    2    0    0  0.11229825115E+02 -0.27101008157E+02  0.31985148322E+02  0.43400729584E+02  0.00000000000E+00 0.  1.
         11    1    3    3    0    0 -0.90247736233E+01  0.15020496379E+02 -0.11914031289E+02  0.21189761496E+02  0.51100000000E-03 0. -1.
        -11    1    3    3    0    0  0.32280815233E+01  0.91122915330E+01 -0.17293067965E+02  0.19811728022E+02  0.51100000000E-03 0.  1.
        -12    1    3    3    0    0 -0.54331330151E+01  0.29682202445E+01 -0.27780490679E+01  0.67857808986E+01  0.00000000000E+00 0.  1.
</event>
<event>
 7    1  0.2886681E-010  0.4778727E+02  0.7816164E-02  0.1312668E+00
        -11   -1    0    0    0    0  0.00000000000E+00  0.00000000000E+00  0.45593999997E+02  0.45594000000E+02  0.51100000000E-03 0.  1.
         11   -1    0    0    0    0 -0.00000000000E+00 -0.00000000000E+00 -0.45593999997E+02  0.45594000000E+02  0.51100000000E-03 0. -1.
    9900012    2    1    2    0    0  0.38968587128E+02 -0.47385654061E+01 -0.18509960968E+02  0.47787269132E+02  0.19999991282E+02 0.  0.
        -12    1    1    2    0    0 -0.38968587128E+02  0.47385654061E+01  0.18509960968E+02  0.43400730868E+02  0.00000000000E+00 0.  1.
         11    1    3    3    0    0  0.23140893711E+02 -0.27154014352E+01 -0.18372046561E+02  0.29671644070E+02  0.51100000000E-03 0. -1.
        -11    1    3    3    0    0  0.23795469408E+01  0.12437129383E+01  0.28944690278E+01  0.39480396059E+01  0.51100000000E-03 0.  1.
        -12    1    3    3    0    0  0.13448146476E+02 -0.32668769091E+01 -0.30323834342E+01  0.14167585457E+02  0.00000000000E+00 0.  1.
</event>
<event>
 7    1  0.2886681E-010  0.4778727E+02  0.7816164E-02  0.1312668E+00
        -11   -1    0    0    0    0  0.00000000000E+00  0.00000000000E+00  0.45593999997E+02  0.45594000000E+02  0.51100000000E-03 0.  1.
         11   -1    0    0    0    0 -0.00000000000E+00 -0.00000000000E+00 -0.45593999997E+02  0.45594000000E+02  0.51100000000E-03 0. -1.
    9900012    2    1    2    0    0 -0.35357641314E+01 -0.10454810405E+02 -0.41974023829E+02  0.47787269995E+02  0.19999995216E+02 0.  0.
        -12    1    1    2    0    0  0.35357641314E+01  0.10454810405E+02  0.41974023829E+02  0.43400730005E+02  0.00000000000E+00 0.  1.
         11    1    3    3    0    0  0.56372596331E+01 -0.76538298072E+01 -0.19731880416E+02  0.21902212489E+02  0.51100000000E-03 0. -1.
        -11    1    3    3    0    0 -0.78075645576E+01 -0.30239988336E+01 -0.80144656344E+01  0.11590267164E+02  0.51100000000E-03 0.  1.
         12    1    3    3    0    0 -0.13654592070E+01  0.22301823631E+00 -0.14227677778E+02  0.14294790342E+02  0.00000000000E+00 0. -1.
</event>
<event>
 7    1  0.2886681E-010  0.4778727E+02  0.7816164E-02  0.1312668E+00
        -11   -1    0    0    0    0  0.00000000000E+00  0.00000000000E+00  0.45593999997E+02  0.45594000000E+02  0.51100000000E-03 0.  1.
         11   -1    0    0    0    0 -0.00000000000E+00 -0.00000000000E+00 -0.45593999997E+02  0.45594000000E+02  0.51100000000E-03 0. -1.
    9900012    2    1    2    0    0 -0.12449502725E+01 -0.27668444896E+02 -0.33414524691E+02  0.47787271844E+02  0.20000003647E+02 0.  0.
        -12    1    1    2    0    0  0.12449502725E+01  0.27668444896E+02  0.33414524691E+02  0.43400728156E+02  0.00000000000E+00 0.  1.
         11    1    3    3    0    0 -0.16992652125E+01 -0.10284332263E+02 -0.24670950991E+02  0.26782658857E+02  0.51100000000E-03 0. -1.
        -11    1    3    3    0    0 -0.90824383404E+00  0.51836618428E+00 -0.26512912664E-01  0.10460944311E+01  0.51100000000E-03 0.  1.
         12    1    3    3    0    0  0.13625587741E+01 -0.17902478817E+02 -0.87170607867E+01  0.19958518557E+02  0.00000000000E+00 0. -1.
</event>
<event>
 7    1  0.2886681E-010  0.4778727E+02  0.7816164E-02  0.1312668E+00
        -11   -1    0    0    0    0  0.00000000000E+00  0.00000000000E+00  0.45593999997E+02  0.45594000000E+02  0.51100000000E-03 0.  1.
         11   -1    0    0    0    0 -0.00000000000E+00 -0.00000000000E+00 -0.45593999997E+02  0.45594000000E+02  0.51100000000E-03 0. -1.
    9900012    2    1    2    0    0  0.15116368459E+02  0.34417828399E+02 -0.21691748650E+02  0.47787268824E+02  0.19999989877E+02 0.  0.
        -12    1    1    2    0    0 -0.15116368459E+02 -0.34417828399E+02  0.21691748650E+02  0.43400731176E+02  0.00000000000E+00 0.  1.
         11    1    3    3    0    0  0.91077810110E+01  0.98564454775E+01 -0.89700556422E+01  0.16141966760E+02  0.51100000000E-03 0.  1.
        -11    1    3    3    0    0  0.73429516940E+01  0.24990652024E+02 -0.88206957951E+01  0.27500114595E+02  0.51100000000E-03 0. -1.
        -12    1    3    3    0    0 -0.13343642461E+01 -0.42926910198E+00 -0.39009972128E+01  0.41451874695E+01  0.00000000000E+00 0.  1.
</event>
<event>
 7    1  0.2886681E-010  0.4778728E+02  0.7816164E-02  0.1312668E+00
        -11   -1    0    0    0    0  0.00000000000E+00  0.00000000000E+00  0.45593999997E+02  0.45594000000E+02  0.51100000000E-03 0.  1.
         11   -1    0    0    0    0 -0.00000000000E+00 -0.00000000000E+00 -0.45593999997E+02  0.45594000000E+02  0.51100000000E-03 0. -1.
    9900012    2    1    2    0    0  0.10458191075E+02 -0.10968862746E+02 -0.40668577528E+02  0.47787275252E+02  0.20000019182E+02 0.  0.
        -12    1    1    2    0    0 -0.10458191075E+02  0.10968862746E+02  0.40668577528E+02  0.43400724748E+02  0.00000000000E+00 0.  1.
         11    1    3    3    0    0  0.96348541784E+01 -0.64656819991E+01 -0.28601475411E+02  0.30865512383E+02  0.51100000000E-03 0. -1.
        -11    1    3    3    0    0  0.22856271872E+01 -0.53852598090E+01 -0.12649017259E+01  0.59854065432E+01  0.51100000000E-03 0.  1.
        -12    1    3    3    0    0 -0.14622902911E+01  0.88207906178E+00 -0.10802200392E+02  0.10936356325E+02  0.00000000000E+00 0.  1.
</event>
<event>
 7    1  0.2886681E-010  0.4778727E+02  0.7816164E-02  0.1312668E+00
        -11   -1    0    0    0    0  0.00000000000E+00  0.00000000000E+00  0.45593999997E+02  0.45594000000E+02  0.51100000000E-03 0. -1.
         11   -1    0    0    0    0 -0.00000000000E+00 -0.00000000000E+00 -0.45593999997E+02  0.45594000000E+02  0.51100000000E-03 0.  1.
    9900012    2    1    2    0    0  0.40196165448E+02 -0.50703343441E+01 -0.15562233278E+02  0.47787272913E+02  0.20000008518E+02 0.  0.
        -12    1    1    2    0    0 -0.40196165448E+02  0.50703343441E+01  0.15562233278E+02  0.43400727087E+02  0.00000000000E+00 0.  1.
         11    1    3    3    0    0  0.21549047225E+02  0.12137104098E+01 -0.11816255766E+02  0.24606064900E+02  0.51100000000E-03 0. -1.
        -11    1    3    3    0    0  0.30963596612E+01 -0.42722805665E+01  0.30466984120E+01  0.60927986891E+01  0.51100000000E-03 0.  1.
        -12    1    3    3    0    0  0.15550758562E+02 -0.20117641873E+01 -0.67926759246E+01  0.17088409324E+02  0.00000000000E+00 0.  1.
</event>
<event>
 7    1  0.2886681E-010  0.4778726E+02  0.7816164E-02  0.1312668E+00
        -11   -1    0    0    0    0  0.00000000000E+00  0.00000000000E+00  0.45593999997E+02  0.45594000000E+02  0.51100000000E-03 0. -1.
         11   -1    0    0    0    0 -0.00000000000E+00 -0.00000000000E+00 -0.45593999997E+02  0.45594000000E+02  0.51100000000E-03 0.  1.
    9900012    2    1    2    0    0  0.15058002563E+02  0.40571114747E+02  0.32963193971E+01  0.47787256751E+02  0.19999934828E+02 0.  0.
        -12    1    1    2    0    0 -0.15058002563E+02 -0.40571114747E+02 -0.32963193971E+01  0.43400743249E+02  0.00000000000E+00 0.  1.
         11    1    3    3    0    0  0.79834546502E+01  0.12525602568E+02 -0.33125202715E+01  0.15218378976E+02  0.51100000000E-03 0. -1.
        -11    1    3    3    0    0  0.36329400279E+01  0.27580273458E+02  0.78101134049E+01  0.28894075672E+02  0.51100000000E-03 0.  1.
        -12    1    3    3    0    0  0.34416078854E+01  0.46523872098E+00 -0.12012737363E+01  0.36748021027E+01  0.00000000000E+00 0.  1.
</event>
<event>
 7    1  0.2886681E-010  0.4778727E+02  0.7816164E-02  0.1312668E+00
        -11   -1    0    0    0    0  0.00000000000E+00  0.00000000000E+00  0.45593999997E+02  0.45594000000E+02  0.51100000000E-03 0. -1.
         11   -1    0    0    0    0 -0.00000000000E+00 -0.00000000000E+00 -0.45593999997E+02  0.45594000000E+02  0.51100000000E-03 0.  1.
    9900012    2    1    2    0    0 -0.55644016920E+01  0.39800155776E+02  0.16389276888E+02  0.47787270019E+02  0.19999995325E+02 0.  0.
        -12    1    1    2    0    0  0.55644016920E+01 -0.39800155776E+02 -0.16389276888E+02  0.43400729981E+02  0.00000000000E+00 0.  1.
         11    1    3    3    0    0  0.38643386915E+01  0.11464328355E+02  0.72938748826E+01  0.14126731725E+02  0.51100000000E-03 0. -1.
        -11    1    3    3    0    0 -0.10128567486E+02  0.17404611529E+02  0.12285661868E+01  0.20174681087E+02  0.51100000000E-03 0.  1.
        -12    1    3    3    0    0  0.69982710288E+00  0.10931215891E+02  0.78668358182E+01  0.13485857208E+02  0.00000000000E+00 0.  1.
</event>
<event>
 7    1  0.2886681E-010  0.4778727E+02  0.7816164E-02  0.1312668E+00
        -11   -1    0    0    0    0  0.00000000000E+00  0.00000000000E+00  0.45593999997E+02  0.45594000000E+02  0.51100000000E-03 0.  1.
         11   -1    0    0    0    0 -0.00000000000E+00 -0.00000000000E+00 -0.45593999997E+02  0.45594000000E+02  0.51100000000E-03 0. -1.
    9900012    2    1    2    0    0 -0.22333462302E+02  0.35956811218E+02  0.95889183465E+01  0.47787272283E+02  0.20000005646E+02 0.  0.
        -12    1    1    2    0    0  0.22333462302E+02 -0.35956811218E+02 -0.95889183465E+01  0.43400727717E+02  0.00000000000E+00 0.  1.
         11    1    3    3    0    0 -0.23770025685E+02  0.36657798027E+02  0.69257675122E+01  0.44235444308E+02  0.51100000000E-03 0. -1.
        -11    1    3    3    0    0  0.48455023320E+00 -0.10782204466E+01  0.20263647624E+01  0.23459545331E+01  0.51100000000E-03 0.  1.
         12    1    3    3    0    0  0.95201315025E+00  0.37723363777E+00  0.63678607190E+00  0.12058734416E+01  0.00000000000E+00 0. -1.
</event>
<event>
 7    1  0.2886681E-010  0.4778727E+02  0.7816164E-02  0.1312668E+00
        -11   -1    0    0    0    0  0.00000000000E+00  0.00000000000E+00  0.45593999997E+02  0.45594000000E+02  0.51100000000E-03 0. -1.
         11   -1    0    0    0    0 -0.00000000000E+00 -0.00000000000E+00 -0.45593999997E+02  0.45594000000E+02  0.51100000000E-03 0.  1.
    9900012    2    1    2    0    0 -0.26190106364E+02  0.29858833408E+02  0.17497196300E+02  0.47787268644E+02  0.19999989056E+02 0.  0.
        -12    1    1    2    0    0  0.26190106364E+02 -0.29858833408E+02 -0.17497196300E+02  0.43400731356E+02  0.00000000000E+00 0.  1.
         11    1    3    3    0    0 -0.23999044981E+01  0.75799043707E-01  0.70187842024E+01  0.74181277312E+01  0.51100000000E-03 0.  1.
        -11    1    3    3    0    0 -0.14334656379E+02  0.16018444132E+02  0.18581277330E+01  0.21576041455E+02  0.51100000000E-03 0. -1.
         12    1    3    3    0    0 -0.94555454872E+01  0.13764590232E+02  0.86202843648E+01  0.18793099458E+02  0.00000000000E+00 0. -1.
</event>
<event>
 7    1  0.2886681E-010  0.4778727E+02  0.7816164E-02  0.1312668E+00
        -11   -1    0    0    0    0  0.00000000000E+00  0.00000000000E+00  0.45593999997E+02  0.45594000000E+02  0.51100000000E-03 0. -1.
         11   -1    0    0    0    0 -0.00000000000E+00 -0.00000000000E+00 -0.45593999997E+02  0.45594000000E+02  0.51100000000E-03 0.  1.
    9900012    2    1    2    0    0 -0.27749762452E+02  0.32579446300E+02  0.72217584618E+01  0.47787269215E+02  0.19999991661E+02 0.  0.
        -12    1    1    2    0    0  0.27749762452E+02 -0.32579446300E+02 -0.72217584618E+01  0.43400730785E+02  0.00000000000E+00 0.  1.
         11    1    3    3    0    0 -0.14075744343E+02  0.27230845562E+02  0.93431296493E+01  0.32045898345E+02  0.51100000000E-03 0. -1.
        -11    1    3    3    0    0  0.93667760732E-01 -0.52567460417E-01  0.68060910563E+00  0.68903265748E+00  0.51100000000E-03 0.  1.
         12    1    3    3    0    0 -0.13767685870E+02  0.54011681987E+01 -0.28019802932E+01  0.15052338213E+02  0.00000000000E+00 0. -1.
</event>
<event>
 7    1  0.2886681E-010  0.4778727E+02  0.7816164E-02  0.1312668E+00
        -11   -1    0    0    0    0  0.00000000000E+00  0.00000000000E+00  0.45593999997E+02  0.45594000000E+02  0.51100000000E-03 0.  1.
         11   -1    0    0    0    0 -0.00000000000E+00 -0.00000000000E+00 -0.45593999997E+02  0.45594000000E+02  0.51100000000E-03 0. -1.
    9900012    2    1    2    0    0  0.55977896885E+00  0.55976699977E+01 -0.43034587385E+02  0.47787274507E+02  0.20000015786E+02 0.  0.
        -12    1    1    2    0    0 -0.55977896885E+00 -0.55976699977E+01  0.43034587385E+02  0.43400725493E+02  0.00000000000E+00 0.  1.
         11    1    3    3    0    0 -0.40409146315E+01 -0.31601667343E+01 -0.24720048393E+02  0.25246711422E+02  0.51100000000E-03 0. -1.
        -11    1    3    3    0    0  0.33272483412E+01  0.24812172729E+00 -0.15121974162E+01  0.36631799303E+01  0.51100000000E-03 0.  1.
         12    1    3    3    0    0  0.12734452592E+01  0.85097150047E+01 -0.16802341576E+02  0.18877383154E+02  0.00000000000E+00 0. -1.
</event>
<event>
 7    1  0.2886681E-010  0.4778727E+02  0.7816164E-02  0.1312668E+00
        -11   -1    0    0    0    0  0.00000000000E+00  0.00000000000E+00  0.45593999997E+02  0.45594000000E+02  0.51100000000E-03 0. -1.
         11   -1    0    0    0    0 -0.00000000000E+00 -0.00000000000E+00 -0.45593999997E+02  0.45594000000E+02  0.51100000000E-03 0.  1.
    9900012    2    1    2    0    0 -0.37640217356E+02 -0.21601435624E+02  0.46377959491E+00  0.47787273334E+02  0.20000010440E+02 0.  0.
        -12    1    1    2    0    0  0.37640217356E+02  0.21601435624E+02 -0.46377959491E+00  0.43400726666E+02  0.00000000000E+00 0.  1.
         11    1    3    3    0    0 -0.21838236846E+02 -0.45124996738E+01  0.59984066651E+01  0.23092252481E+02  0.51100000000E-03 0. -1.
        -11    1    3    3    0    0 -0.12253046068E+02 -0.89106330035E+01 -0.33637546984E+01  0.15519386727E+02  0.51100000000E-03 0.  1.
         12    1    3    3    0    0 -0.35489344419E+01 -0.81783029464E+01 -0.21708723718E+01  0.91756341258E+01  0.00000000000E+00 0. -1.
</event>
<event>
 7    1  0.2886681E-010  0.4778727E+02  0.7816164E-02  0.1312668E+00
        -11   -1    0    0    0    0  0.00000000000E+00  0.00000000000E+00  0.45593999997E+02  0.45594000000E+02  0.51100000000E-03 0. -1.
         11   -1    0    0    0    0 -0.00000000000E+00 -0.00000000000E+00 -0.45593999997E+02  0.45594000000E+02  0.51100000000E-03 0.  1.
    9900012    2    1    2    0    0 -0.40903713590E+02  0.11041228606E+02 -0.94127912401E+01  0.47787272432E+02  0.20000006324E+02 0.  0.
        -12    1    1    2    0    0  0.40903713590E+02 -0.11041228606E+02  0.94127912401E+01  0.43400727568E+02  0.00000000000E+00 0.  1.
         11    1    3    3    0    0 -0.25271450320E+01  0.14556464770E+01  0.14374869644E+01  0.32514208760E+01  0.51100000000E-03 0.  1.
        -11    1    3    3    0    0 -0.29383400825E+02  0.77583118902E+01 -0.85764771582E-01  0.30390508441E+02  0.51100000000E-03 0. -1.
        -12    1    3    3    0    0 -0.89931677326E+01  0.18272702384E+01 -0.10764513433E+02  0.14145343115E+02  0.00000000000E+00 0.  1.
</event>
<event>
 7    1  0.2886681E-010  0.4778727E+02  0.7816164E-02  0.1312668E+00
        -11   -1    0    0    0    0  0.00000000000E+00  0.00000000000E+00  0.45593999997E+02  0.45594000000E+02  0.51100000000E-03 0. -1.
         11   -1    0    0    0    0 -0.00000000000E+00 -0.00000000000E+00 -0.45593999997E+02  0.45594000000E+02  0.51100000000E-03 0.  1.
    9900012    2    1    2    0    0 -0.21722371470E+02 -0.37567088659E+02  0.68970016505E+00  0.47787271217E+02  0.20000000785E+02 0.  0.
        -12    1    1    2    0    0  0.21722371470E+02  0.37567088659E+02 -0.68970016505E+00  0.43400728783E+02  0.00000000000E+00 0.  1.
         11    1    3    3    0    0 -0.10691780450E+02 -0.15534199653E+02  0.81515235813E+01  0.20544412014E+02  0.51100000000E-03 0. -1.
        -11    1    3    3    0    0 -0.11759541361E+02 -0.16327829902E+02 -0.39553929756E+01  0.20506827550E+02  0.51100000000E-03 0.  1.
         12    1    3    3    0    0  0.72895034086E+00 -0.57050591042E+01 -0.35064304406E+01  0.67360316520E+01  0.00000000000E+00 0. -1.
</event>
<event>
 7    1  0.2886681E-010  0.4778727E+02  0.7816164E-02  0.1312668E+00
        -11   -1    0    0    0    0  0.00000000000E+00  0.00000000000E+00  0.45593999997E+02  0.45594000000E+02  0.51100000000E-03 0. -1.
         11   -1    0    0    0    0 -0.00000000000E+00 -0.00000000000E+00 -0.45593999997E+02  0.45594000000E+02  0.51100000000E-03 0.  1.
    9900012    2    1    2    0    0  0.21983519883E+02  0.64597907524E+01  0.36859449264E+02  0.47787273704E+02  0.20000012125E+02 0.  0.
        -12    1    1    2    0    0 -0.21983519883E+02 -0.64597907524E+01 -0.36859449264E+02  0.43400726296E+02  0.00000000000E+00 0.  1.
         11    1    3    3    0    0  0.14905003285E+02  0.26153033573E+01  0.15361297963E+02  0.21563126164E+02  0.51100000000E-03 0. -1.
        -11    1    3    3    0    0  0.33638665621E+01  0.19797988460E+00  0.20682594705E+02  0.20955298095E+02  0.51100000000E-03 0.  1.
        -12    1    3    3    0    0  0.37146500358E+01  0.36465075105E+01  0.81555659612E+00  0.52688494450E+01  0.00000000000E+00 0.  1.
</event>
<event>
 7    1  0.2886681E-010  0.4778727E+02  0.7816164E-02  0.1312668E+00
        -11   -1    0    0    0    0  0.00000000000E+00  0.00000000000E+00  0.45593999997E+02  0.45594000000E+02  0.51100000000E-03 0. -1.
         11   -1    0    0    0    0 -0.00000000000E+00 -0.00000000000E+00 -0.45593999997E+02  0.45594000000E+02  0.51100000000E-03 0.  1.
    9900012    2    1    2    0    0  0.35786943429E+02 -0.10416306256E+02 -0.22235517848E+02  0.47787274085E+02  0.20000013861E+02 0.  0.
        -12    1    1    2    0    0 -0.35786943429E+02  0.10416306256E+02  0.22235517848E+02  0.43400725915E+02  0.00000000000E+00 0.  1.
         11    1    3    3    0    0  0.18420692682E+02  0.30197086165E+01 -0.82376793618E+01  0.20403429137E+02  0.51100000000E-03 0. -1.
        -11    1    3    3    0    0  0.75088106529E+01 -0.10651068544E+02 -0.98371045849E+01  0.16327771600E+02  0.51100000000E-03 0.  1.
        -12    1    3    3    0    0  0.98574400943E+01 -0.27849463283E+01 -0.41607339013E+01  0.11056073347E+02  0.00000000000E+00 0.  1.
</event>
<event>
 7    1  0.2886681E-010  0.4778728E+02  0.7816164E-02  0.1312668E+00
        -11   -1    0    0    0    0  0.00000000000E+00  0.00000000000E+00  0.45593999997E+02  0.45594000000E+02  0.51100000000E-03 0.  1.
         11   -1    0    0    0    0 -0.00000000000E+00 -0.00000000000E+00 -0.45593999997E+02  0.45594000000E+02  0.51100000000E-03 0. -1.
    9900012    2    1    2    0    0  0.73654468091E+01  0.18548204778E+02 -0.38540070926E+02  0.47787276801E+02  0.20000026248E+02 0.  0.
        -12    1    1    2    0    0 -0.73654468091E+01 -0.18548204778E+02  0.38540070926E+02  0.43400723199E+02  0.00000000000E+00 0.  1.
         11    1    3    3    0    0 -0.19595655347E+01 -0.23562728843E+01 -0.99657139388E+01  0.10426282826E+02  0.51100000000E-03 0.  1.
        -11    1    3    3    0    0 -0.50614772368E+00  0.14729247661E+00  0.18253389407E+00  0.55785255709E+00  0.51100000000E-03 0. -1.
         12    1    3    3    0    0  0.98311600675E+01  0.20757185186E+02 -0.28756890881E+02  0.36803141418E+02  0.00000000000E+00 0. -1.
</event>
<event>
 7    1  0.2886681E-010  0.4778728E+02  0.7816164E-02  0.1312668E+00
        -11   -1    0    0    0    0  0.00000000000E+00  0.00000000000E+00  0.45593999997E+02  0.45594000000E+02  0.51100000000E-03 0.  1.
         11   -1    0    0    0    0 -0.00000000000E+00 -0.00000000000E+00 -0.45593999997E+02  0.45594000000E+02  0.51100000000E-03 0. -1.
    9900012    2    1    2    0    0  0.36632116157E+02  0.15684538077E+02 -0.17196110802E+02  0.47787275403E+02  0.20000019872E+02 0.  0.
        -12    1    1    2    0    0 -0.36632116157E+02 -0.15684538077E+02  0.17196110802E+02  0.43400724597E+02  0.00000000000E+00 0.  1.
         11    1    3    3    0    0  0.60116069642E+01  0.10136270370E+01 -0.11592525965E+02  0.13097843967E+02  0.51100000000E-03 0. -1.
        -11    1    3    3    0    0  0.24317477881E+02  0.13310298104E+02 -0.37108157684E+01  0.27969160160E+02  0.51100000000E-03 0.  1.
         12    1    3    3    0    0  0.63030313122E+01  0.13606129351E+01 -0.18927690682E+01  0.67202712763E+01  0.00000000000E+00 0. -1.
</event>
<event>
 7    1  0.2886681E-010  0.4778727E+02  0.7816164E-02  0.1312668E+00
        -11   -1    0    0    0    0  0.00000000000E+00  0.00000000000E+00  0.45593999997E+02  0.45594000000E+02  0.51100000000E-03 0.  1.
         11   -1    0    0    0    0 -0.00000000000E+00 -0.00000000000E+00 -0.45593999997E+02  0.45594000000E+02  0.51100000000E-03 0. -1.
    9900012    2    1    2    0    0  0.32116401027E+02  0.61460018492E+01 -0.28537462160E+02  0.47787270741E+02  0.19999998619E+02 0.  0.
        -12    1    1    2    0    0 -0.32116401027E+02 -0.61460018492E+01  0.28537462160E+02  0.43400729259E+02  0.00000000000E+00 0.  1.
         11    1    3    3    0    0  0.25997171743E+01 -0.23337235609E+01 -0.30923877427E+01  0.46655821992E+01  0.51100000000E-03 0. -1.
        -11    1    3    3    0    0  0.89168110996E+00 -0.22846735263E+01  0.10412938120E+01  0.26644176451E+01  0.51100000000E-03 0.  1.
        -12    1    3    3    0    0  0.28625002743E+02  0.10764398936E+02 -0.26486368229E+02  0.40457270897E+02  0.00000000000E+00 0.  1.
</event>
<event>
 7    1  0.2886681E-010  0.4778727E+02  0.7816164E-02  0.1312668E+00
        -11   -1    0    0    0    0  0.00000000000E+00  0.00000000000E+00  0.45593999997E+02  0.45594000000E+02  0.51100000000E-03 0. -1.
         11   -1    0    0    0    0 -0.00000000000E+00 -0.00000000000E+00 -0.45593999997E+02  0.45594000000E+02  0.51100000000E-03 0.  1.
    9900012    2    1    2    0    0 -0.18695794096E+02  0.29171813627E+02  0.26136102445E+02  0.47787270995E+02  0.19999999776E+02 0.  0.
        -12    1    1    2    0    0  0.18695794096E+02 -0.29171813627E+02 -0.26136102445E+02  0.43400729005E+02  0.00000000000E+00 0.  1.
         11    1    3    3    0    0 -0.22632549272E+01  0.20543336698E+01  0.99612665896E+01  0.10419666119E+02  0.51100000000E-03 0. -1.
        -11    1    3    3    0    0 -0.71823303706E+01  0.12702326873E+02  0.12434675897E+01  0.14645176320E+02  0.51100000000E-03 0.  1.
         12    1    3    3    0    0 -0.92502087983E+01  0.14415153084E+02  0.14931368265E+02  0.22722428557E+02  0.00000000000E+00 0. -1.
</event>
<event>
 7    1  0.2886681E-010  0.4778727E+02  0.7816164E-02  0.1312668E+00
        -11   -1    0    0    0    0  0.00000000000E+00  0.00000000000E+00  0.45593999997E+02  0.45594000000E+02  0.51100000000E-03 0.  1.
         11   -1    0    0    0    0 -0.00000000000E+00 -0.00000000000E+00 -0.45593999997E+02  0.45594000000E+02  0.51100000000E-03 0. -1.
    9900012    2    1    2    0    0 -0.71174429531E+01 -0.37157916132E+02 -0.21266276435E+02  0.47787271448E+02  0.20000001839E+02 0.  0.
        -12    1    1    2    0    0  0.71174429531E+01  0.37157916132E+02  0.21266276435E+02  0.43400728552E+02  0.00000000000E+00 0.  1.
         11    1    3    3    0    0  0.12046274141E+00 -0.69771744156E+01 -0.10039043114E+01  0.70500566115E+01  0.51100000000E-03 0. -1.
        -11    1    3    3    0    0  0.32005133986E+01 -0.20316225534E+02 -0.88372230916E+01  0.22385013249E+02  0.51100000000E-03 0.  1.
        -12    1    3    3    0    0 -0.10438419093E+02 -0.98645161829E+01 -0.11425149032E+02  0.18352201587E+02  0.00000000000E+00 0.  1.
</event>
<event>
 7    1  0.2886681E-010  0.4778727E+02  0.7816164E-02  0.1312668E+00
        -11   -1    0    0    0    0  0.00000000000E+00  0.00000000000E+00  0.45593999997E+02  0.45594000000E+02  0.51100000000E-03 0.  1.
         11   -1    0    0    0    0 -0.00000000000E+00 -0.00000000000E+00 -0.45593999997E+02  0.45594000000E+02  0.51100000000E-03 0. -1.
    9900012    2    1    2    0    0  0.20755622969E+02 -0.23890549440E+02 -0.29699643490E+02  0.47787273499E+02  0.20000011190E+02 0.  0.
        -12    1    1    2    0    0 -0.20755622969E+02  0.23890549440E+02  0.29699643490E+02  0.43400726501E+02  0.00000000000E+00 0.  1.
         11    1    3    3    0    0  0.58100601765E+01  0.19893197440E+01 -0.71692527560E+01  0.94399352561E+01  0.51100000000E-03 0. -1.
        -11    1    3    3    0    0  0.30579049061E+01 -0.19840350062E+01 -0.38259961340E+00  0.36651821300E+01  0.51100000000E-03 0.  1.
         12    1    3    3    0    0  0.11887657886E+02 -0.23895834178E+02 -0.22147791121E+02  0.34682156113E+02  0.00000000000E+00 0. -1.
</event>
<event>
 7    1  0.2886681E-010  0.4778726E+02  0.7816164E-02  0.1312668E+00
        -11   -1    0    0    0    0  0.00000000000E+00  0.00000000000E+00  0.45593999997E+02  0.45594000000E+02  0.51100000000E-03 0.  1.
         11   -1    0    0    0    0 -0.00000000000E+00 -0.00000000000E+00 -0.45593999997E+02  0.45594000000E+02  0.51100000000E-03 0. -1.
    9900012    2    1    2    0    0  0.94033941264E+00 -0.43381274238E+02  0.89743403697E+00  0.47787255991E+02  0.19999931363E+02 0.  0.
        -12    1    1    2    0    0 -0.94033941264E+00  0.43381274238E+02 -0.89743403697E+00  0.43400744009E+02  0.00000000000E+00 0.  1.
         11    1    3    3    0    0  0.13502460478E+01 -0.56719455298E+00  0.72180743717E+00  0.16327523658E+01  0.51100000000E-03 0. -1.
        -11    1    3    3    0    0 -0.12346967958E+01 -0.48839062750E+01 -0.58715905990E+01  0.77364457669E+01  0.51100000000E-03 0.  1.
        -12    1    3    3    0    0  0.82479016062E+00 -0.37930173410E+02  0.60472171988E+01  0.38418057858E+02  0.00000000000E+00 0.  1.
</event>
<event>
 7    1  0.2886681E-010  0.4778727E+02  0.7816164E-02  0.1312668E+00
        -11   -1    0    0    0    0  0.00000000000E+00  0.00000000000E+00  0.45593999997E+02  0.45594000000E+02  0.51100000000E-03 0. -1.
         11   -1    0    0    0    0 -0.00000000000E+00 -0.00000000000E+00 -0.45593999997E+02  0.45594000000E+02  0.51100000000E-03 0.  1.
    9900012    2    1    2    0    0  0.33201118695E+02  0.21809094280E+01  0.27866695909E+02  0.47787269713E+02  0.19999993929E+02 0.  0.
        -12    1    1    2    0    0 -0.33201118695E+02 -0.21809094280E+01 -0.27866695909E+02  0.43400730287E+02  0.00000000000E+00 0.  1.
         11    1    3    3    0    0  0.30747636764E+02 -0.24350990133E+01  0.24195347462E+02  0.39201552429E+02  0.51100000000E-03 0. -1.
        -11    1    3    3    0    0  0.16136322143E+01  0.35995837140E+01 -0.71191038717E+00  0.40084446482E+01  0.51100000000E-03 0.  1.
        -12    1    3    3    0    0  0.83984971700E+00  0.10164247272E+01  0.43832588345E+01  0.45772726359E+01  0.00000000000E+00 0.  1.
</event>
<event>
 7    1  0.2886681E-010  0.4778727E+02  0.7816164E-02  0.1312668E+00
        -11   -1    0    0    0    0  0.00000000000E+00  0.00000000000E+00  0.45593999997E+02  0.45594000000E+02  0.51100000000E-03 0.  1.
         11   -1    0    0    0    0 -0.00000000000E+00 -0.00000000000E+00 -0.45593999997E+02  0.45594000000E+02  0.51100000000E-03 0. -1.
    9900012    2    1    2    0    0  0.25108481235E+02  0.32082939764E+02  0.14962379754E+02  0.47787266576E+02  0.19999979627E+02 0.  0.
        -12    1    1    2    0    0 -0.25108481235E+02 -0.32082939764E+02 -0.14962379754E+02  0.43400733424E+02  0.00000000000E+00 0.  1.
         11    1    3    3    0    0  0.26053600322E+02  0.21289554608E+02  0.85579146241E+01  0.34717043770E+02  0.51100000000E-03 0. -1.
        -11    1    3    3    0    0 -0.16398749589E+01  0.30718707089E+01  0.30263598225E+01  0.46135055619E+01  0.51100000000E-03 0.  1.
         12    1    3    3    0    0  0.69475587162E+00  0.77215144470E+01  0.33781053077E+01  0.84567172440E+01  0.00000000000E+00 0. -1.
</event>
<event>
 7    1  0.2886681E-010  0.4778727E+02  0.7816164E-02  0.1312668E+00
        -11   -1    0    0    0    0  0.00000000000E+00  0.00000000000E+00  0.45593999997E+02  0.45594000000E+02  0.51100000000E-03 0.  1.
         11   -1    0    0    0    0 -0.00000000000E+00 -0.00000000000E+00 -0.45593999997E+02  0.45594000000E+02  0.51100000000E-03 0. -1.
    9900012    2    1    2    0    0  0.38324112637E+02  0.11501832660E+02 -0.16810518597E+02  0.47787270750E+02  0.19999998658E+02 0.  0.
        -12    1    1    2    0    0 -0.38324112637E+02 -0.11501832660E+02  0.16810518597E+02  0.43400729250E+02  0.00000000000E+00 0.  1.
         11    1    3    3    0    0  0.69366812845E+01 -0.53140272039E+00  0.25221782036E+01  0.74000891377E+01  0.51100000000E-03 0. -1.
        -11    1    3    3    0    0  0.16538775291E+01 -0.18220384198E+01 -0.34477604293E+00  0.24847546489E+01  0.51100000000E-03 0.  1.
         12    1    3    3    0    0  0.29733553823E+02  0.13855273800E+02 -0.18987920758E+02  0.37902426964E+02  0.00000000000E+00 0. -1.
</event>
<event>
 7    1  0.2886681E-010  0.4778727E+02  0.7816164E-02  0.1312668E+00
        -11   -1    0    0    0    0  0.00000000000E+00  0.00000000000E+00  0.45593999997E+02  0.45594000000E+02  0.51100000000E-03 0. -1.
         11   -1    0    0    0    0 -0.00000000000E+00 -0.00000000000E+00 -0.45593999997E+02  0.45594000000E+02  0.51100000000E-03 0.  1.
    9900012    2    1    2    0    0  0.71900201816E+01 -0.61133604355E+01  0.42362175838E+02  0.47787268350E+02  0.19999987717E+02 0.  0.
        -12    1    1    2    0    0 -0.71900201816E+01  0.61133604355E+01 -0.42362175838E+02  0.43400731650E+02  0.00000000000E+00 0.  1.
         11    1    3    3    0    0  0.15909362870E+01  0.14861083372E+01  0.74599494731E+01  0.77711287894E+01  0.51100000000E-03 0. -1.
        -11    1    3    3    0    0  0.64525035370E+01  0.35737477737E+01  0.80431616925E+01  0.10913245407E+02  0.51100000000E-03 0.  1.
        -12    1    3    3    0    0 -0.85341964233E+00 -0.11173216546E+02  0.26859064672E+02  0.29102894154E+02  0.00000000000E+00 0.  1.
</event>
<event>
 7    1  0.2886681E-010  0.4778727E+02  0.7816164E-02  0.1312668E+00
        -11   -1    0    0    0    0  0.00000000000E+00  0.00000000000E+00  0.45593999997E+02  0.45594000000E+02  0.51100000000E-03 0. -1.
         11   -1    0    0    0    0 -0.00000000000E+00 -0.00000000000E+00 -0.45593999997E+02  0.45594000000E+02  0.51100000000E-03 0.  1.
    9900012    2    1    2    0    0 -0.25740628038E+02 -0.34829177333E+02  0.28233995319E+01  0.47787272928E+02  0.20000008588E+02 0.  0.
        -12    1    1    2    0    0  0.25740628038E+02  0.34829177333E+02 -0.28233995319E+01  0.43400727072E+02  0.00000000000E+00 0.  1.
         11    1    3    3    0    0 -0.15877071378E+02 -0.12716011880E+02  0.22027125470E+01  0.20460456898E+02  0.51100000000E-03 0. -1.
        -11    1    3    3    0    0 -0.87508019250E+01 -0.23608830374E+02  0.15844329471E+01  0.25228234857E+02  0.51100000000E-03 0.  1.
        -12    1    3    3    0    0 -0.11127547352E+01  0.14956649216E+01 -0.96374596233E+00  0.20985811726E+01  0.00000000000E+00 0.  1.
</event>
<event>
 7    1  0.2886681E-010  0.4778727E+02  0.7816164E-02  0.1312668E+00
        -11   -1    0    0    0    0  0.00000000000E+00  0.00000000000E+00  0.45593999997E+02  0.45594000000E+02  0.51100000000E-03 0. -1.
         11   -1    0    0    0    0 -0.00000000000E+00 -0.00000000000E+00 -0.45593999997E+02  0.45594000000E+02  0.51100000000E-03 0.  1.
    9900012    2    1    2    0    0 -0.54549755956E+01 -0.42503139021E+02 -0.68811319959E+01  0.47787267715E+02  0.19999984819E+02 0.  0.
        -12    1    1    2    0    0  0.54549755956E+01  0.42503139021E+02  0.68811319959E+01  0.43400732285E+02  0.00000000000E+00 0.  1.
         11    1    3    3    0    0 -0.19801071235E+01 -0.33917758152E+02  0.91906932576E-01  0.33975632288E+02  0.51100000000E-03 0. -1.
        -11    1    3    3    0    0  0.15722384058E+01 -0.37406854156E+01 -0.51974660735E+01  0.65938088257E+01  0.51100000000E-03 0.  1.
         12    1    3    3    0    0 -0.50471068780E+01 -0.48446954534E+01 -0.17755728550E+01  0.72178266007E+01  0.00000000000E+00 0. -1.
</event>
<event>
 7    1  0.2886681E-010  0.4778728E+02  0.7816164E-02  0.1312668E+00
        -11   -1    0    0    0    0  0.00000000000E+00  0.00000000000E+00  0.45593999997E+02  0.45594000000E+02  0.51100000000E-03 0. -1.
         11   -1    0    0    0    0 -0.00000000000E+00 -0.00000000000E+00 -0.45593999997E+02  0.45594000000E+02  0.51100000000E-03 0.  1.
    9900012    2    1    2    0    0 -0.12507021479E+01  0.39183729426E+02  0.18619721190E+02  0.47787275067E+02  0.20000018338E+02 0.  0.
        -12    1    1    2    0    0  0.12507021479E+01 -0.39183729426E+02 -0.18619721190E+02  0.43400724933E+02  0.00000000000E+00 0.  1.
         11    1    3    3    0    0 -0.34488116033E+01  0.19765187003E+01  0.17770081136E+01  0.43541572945E+01  0.51100000000E-03 0. -1.
        -11    1    3    3    0    0  0.74353620862E+01  0.28915026747E+02  0.15153098992E+02  0.33481036281E+02  0.51100000000E-03 0.  1.
        -12    1    3    3    0    0 -0.52372526308E+01  0.82921839780E+01  0.16896140840E+01  0.99520814906E+01  0.00000000000E+00 0.  1.
</event>
<event>
 7    1  0.2886681E-010  0.4778727E+02  0.7816164E-02  0.1312668E+00
        -11   -1    0    0    0    0  0.00000000000E+00  0.00000000000E+00  0.45593999997E+02  0.45594000000E+02  0.51100000000E-03 0.  1.
         11   -1    0    0    0    0 -0.00000000000E+00 -0.00000000000E+00 -0.45593999997E+02  0.45594000000E+02  0.51100000000E-03 0. -1.
    9900012    2    1    2    0    0  0.27851244569E+02  0.61013546690E+01  0.32721629467E+02  0.47787269732E+02  0.19999994016E+02 0.  0.
        -12    1    1    2    0    0 -0.27851244569E+02 -0.61013546690E+01 -0.32721629467E+02  0.43400730268E+02  0.00000000000E+00 0.  1.
         11    1    3    3    0    0  0.89844992514E+01 -0.87587644965E+00  0.45410966360E+01  0.10104946574E+02  0.51100000000E-03 0. -1.
        -11    1    3    3    0    0  0.38675518961E+01  0.83875530748E+01  0.15249121589E+02  0.17828199958E+02  0.51100000000E-03 0.  1.
         12    1    3    3    0    0  0.14999193421E+02 -0.14103219561E+01  0.12931411242E+02  0.19854123200E+02  0.00000000000E+00 0. -1.
</event>
<event>
 7    1  0.2886681E-010  0.4778727E+02  0.7816164E-02  0.1312668E+00
        -11   -1    0    0    0    0  0.00000000000E+00  0.00000000000E+00  0.45593999997E+02  0.45594000000E+02  0.51100000000E-03 0.  1.
         11   -1    0    0    0    0 -0.00000000000E+00 -0.00000000000E+00 -0.45593999997E+02  0.45594000000E+02  0.51100000000E-03 0. -1.
    9900012    2    1    2    0    0  0.31639851968E+02 -0.28978927969E+02 -0.65394672593E+01  0.47787272692E+02  0.20000007513E+02 0.  0.
        -12    1    1    2    0    0 -0.31639851968E+02  0.28978927969E+02  0.65394672593E+01  0.43400727308E+02  0.00000000000E+00 0.  1.
         11    1    3    3    0    0  0.10175409368E+02 -0.46670083243E+01  0.25314606201E+01  0.11477291302E+02  0.51100000000E-03 0. -1.
        -11    1    3    3    0    0  0.12018042459E+01 -0.37266743899E+01 -0.61327697288E+01  0.72762146932E+01  0.51100000000E-03 0.  1.
        -12    1    3    3    0    0  0.20262638354E+02 -0.20585245255E+02 -0.29381581505E+01  0.29033766697E+02  0.00000000000E+00 0.  1.
</event>
<event>
 7    1  0.2886681E-010  0.4778729E+02  0.7816164E-02  0.1312668E+00
        -11   -1    0    0    0    0  0.00000000000E+00  0.00000000000E+00  0.45593999997E+02  0.45594000000E+02  0.51100000000E-03 0. -1.
         11   -1    0    0    0    0 -0.00000000000E+00 -0.00000000000E+00 -0.45593999997E+02  0.45594000000E+02  0.51100000000E-03 0.  1.
    9900012    2    1    2    0    0  0.36734245875E+02 -0.31056328739E+01 -0.22903540906E+02  0.47787286163E+02  0.20000068930E+02 0.  0.
        -12    1    1    2    0    0 -0.36734245875E+02  0.31056328739E+01  0.22903540906E+02  0.43400713837E+02  0.00000000000E+00 0.  1.
         11    1    3    3    0    0  0.27700918613E+02 -0.70172332958E+01 -0.15934415811E+02  0.32718313872E+02  0.51100000000E-03 0. -1.
        -11    1    3    3    0    0  0.17796486876E+01 -0.48663521124E+00  0.20018376327E+01  0.27223734955E+01  0.51100000000E-03 0.  1.
         12    1    3    3    0    0  0.72536785743E+01  0.43982356332E+01 -0.89709627275E+01  0.12346598795E+02  0.00000000000E+00 0. -1.
</event>
<event>
 7    1  0.2886681E-010  0.4778727E+02  0.7816164E-02  0.1312668E+00
        -11   -1    0    0    0    0  0.00000000000E+00  0.00000000000E+00  0.45593999997E+02  0.45594000000E+02  0.51100000000E-03 0. -1.
         11   -1    0    0    0    0 -0.00000000000E+00 -0.00000000000E+00 -0.45593999997E+02  0.45594000000E+02  0.51100000000E-03 0.  1.
    9900012    2    1    2    0    0  0.10160709775E+02 -0.29783557435E+02  0.29888509019E+02  0.47787270882E+02  0.19999999260E+02 0.  0.
        -12    1    1    2    0    0 -0.10160709775E+02  0.29783557435E+02 -0.29888509019E+02  0.43400729118E+02  0.00000000000E+00 0.  1.
         11    1    3    3    0    0  0.89728565482E+00 -0.17055771831E+02  0.24793822364E+02  0.30107110489E+02  0.51100000000E-03 0. -1.
        -11    1    3    3    0    0  0.72670832791E+01 -0.46999557235E+01  0.24276105657E+01  0.89885135873E+01  0.51100000000E-03 0.  1.
         12    1    3    3    0    0  0.19963408407E+01 -0.80278298800E+01  0.26670760884E+01  0.86916468057E+01  0.00000000000E+00 0. -1.
</event>
<event>
 7    1  0.2886681E-010  0.4778727E+02  0.7816164E-02  0.1312668E+00
        -11   -1    0    0    0    0  0.00000000000E+00  0.00000000000E+00  0.45593999997E+02  0.45594000000E+02  0.51100000000E-03 0.  1.
         11   -1    0    0    0    0 -0.00000000000E+00 -0.00000000000E+00 -0.45593999997E+02  0.45594000000E+02  0.51100000000E-03 0. -1.
    9900012    2    1    2    0    0  0.15526569836E+02  0.33800923303E+02 -0.22361724144E+02  0.47787268511E+02  0.19999988450E+02 0.  0.
        -12    1    1    2    0    0 -0.15526569836E+02 -0.33800923303E+02  0.22361724144E+02  0.43400731489E+02  0.00000000000E+00 0.  1.
         11    1    3    3    0    0 -0.38507396617E+01  0.10447789603E+02 -0.56267710992E+01  0.12475778805E+02  0.51100000000E-03 0. -1.
        -11    1    3    3    0    0  0.10367167236E+02  0.10338707680E+02 -0.45380445651E+01  0.15328433767E+02  0.51100000000E-03 0.  1.
         12    1    3    3    0    0  0.90101422615E+01  0.13014426020E+02 -0.12196908480E+02  0.19983055939E+02  0.00000000000E+00 0. -1.
</event>
<event>
 7    1  0.2886681E-010  0.4778727E+02  0.7816164E-02  0.1312668E+00
        -11   -1    0    0    0    0  0.00000000000E+00  0.00000000000E+00  0.45593999997E+02  0.45594000000E+02  0.51100000000E-03 0. -1.
         11   -1    0    0    0    0 -0.00000000000E+00 -0.00000000000E+00 -0.45593999997E+02  0.45594000000E+02  0.51100000000E-03 0.  1.
    9900012    2    1    2    0    0  0.31126019238E+02 -0.30236006978E+02  0.76022539078E+00  0.47787272653E+02  0.20000007336E+02 0.  0.
        -12    1    1    2    0    0 -0.31126019238E+02  0.30236006978E+02 -0.76022539078E+00  0.43400727347E+02  0.00000000000E+00 0.  1.
         11    1    3    3    0    0  0.20079680837E+02 -0.15145998237E+02 -0.57825211121E+01  0.25807603449E+02  0.51100000000E-03 0. -1.
        -11    1    3    3    0    0 -0.16098090612E+01 -0.33584804138E+01  0.12730986017E+01  0.39359441325E+01  0.51100000000E-03 0.  1.
         12    1    3    3    0    0  0.12656147462E+02 -0.11731528327E+02  0.52696479012E+01  0.18043725072E+02  0.00000000000E+00 0. -1.
</event>
<event>
 7    1  0.2886681E-010  0.4778727E+02  0.7816164E-02  0.1312668E+00
        -11   -1    0    0    0    0  0.00000000000E+00  0.00000000000E+00  0.45593999997E+02  0.45594000000E+02  0.51100000000E-03 0. -1.
         11   -1    0    0    0    0 -0.00000000000E+00 -0.00000000000E+00 -0.45593999997E+02  0.45594000000E+02  0.51100000000E-03 0.  1.
    9900012    2    1    2    0    0 -0.25073978728E+02  0.12338971329E+00  0.35424622851E+02  0.47787267997E+02  0.19999986106E+02 0.  0.
        -12    1    1    2    0    0  0.25073978728E+02 -0.12338971329E+00 -0.35424622851E+02  0.43400732003E+02  0.00000000000E+00 0.  1.
         11    1    3    3    0    0 -0.59273007007E+01 -0.71203286889E+01  0.15427880865E+02  0.17995874040E+02  0.51100000000E-03 0. -1.
        -11    1    3    3    0    0 -0.14801135176E+02  0.89255186428E+01  0.14307724473E+02  0.22437679591E+02  0.51100000000E-03 0.  1.
         12    1    3    3    0    0 -0.43455428515E+01 -0.16818002406E+01  0.56890175122E+01  0.73537143661E+01  0.00000000000E+00 0. -1.
</event>
<event>
 7    1  0.2886681E-010  0.4778727E+02  0.7816164E-02  0.1312668E+00
        -11   -1    0    0    0    0  0.00000000000E+00  0.00000000000E+00  0.45593999997E+02  0.45594000000E+02  0.51100000000E-03 0.  1.
         11   -1    0    0    0    0 -0.00000000000E+00 -0.00000000000E+00 -0.45593999997E+02  0.45594000000E+02  0.51100000000E-03 0. -1.
    9900012    2    1    2    0    0 -0.22442637688E+02 -0.12496820728E+02 -0.34982577003E+02  0.47787271798E+02  0.20000003437E+02 0.  0.
        -12    1    1    2    0    0  0.22442637688E+02  0.12496820728E+02  0.34982577003E+02  0.43400728202E+02  0.00000000000E+00 0.  1.
         11    1    3    3    0    0  0.22753599683E+01  0.14335277108E+01 -0.23932788901E+01  0.36000067764E+01  0.51100000000E-03 0. -1.
        -11    1    3    3    0    0 -0.13791760414E+02 -0.12128937039E+02 -0.16725980801E+02  0.24841139327E+02  0.51100000000E-03 0.  1.
         12    1    3    3    0    0 -0.10926237242E+02 -0.18014113991E+01 -0.15863317312E+02  0.19346125695E+02  0.00000000000E+00 0. -1.
</event>
<event>
 7    1  0.2886681E-010  0.4778727E+02  0.7816164E-02  0.1312668E+00
        -11   -1    0    0    0    0  0.00000000000E+00  0.00000000000E+00  0.45593999997E+02  0.45594000000E+02  0.51100000000E-03 0.  1.
         11   -1    0    0    0    0 -0.00000000000E+00 -0.00000000000E+00 -0.45593999997E+02  0.45594000000E+02  0.51100000000E-03 0. -1.
    9900012    2    1    2    0    0  0.20089516101E+02 -0.56997606837E+01 -0.38046647992E+02  0.47787270139E+02  0.19999995871E+02 0.  0.
        -12    1    1    2    0    0 -0.20089516101E+02  0.56997606837E+01  0.38046647992E+02  0.43400729861E+02  0.00000000000E+00 0.  1.
         11    1    3    3    0    0  0.91633406759E+01 -0.67253362948E+01 -0.23744872957E+02  0.26325196156E+02  0.51100000000E-03 0. -1.
        -11    1    3    3    0    0  0.93043451148E+01  0.55911931989E+01 -0.78617019585E+01  0.13402933908E+02  0.51100000000E-03 0.  1.
        -12    1    3    3    0    0  0.16218303103E+01 -0.45656175877E+01 -0.64400730765E+01  0.80591400747E+01  0.00000000000E+00 0.  1.
</event>
<event>
 7    1  0.2886681E-010  0.4778727E+02  0.7816164E-02  0.1312668E+00
        -11   -1    0    0    0    0  0.00000000000E+00  0.00000000000E+00  0.45593999997E+02  0.45594000000E+02  0.51100000000E-03 0.  1.
         11   -1    0    0    0    0 -0.00000000000E+00 -0.00000000000E+00 -0.45593999997E+02  0.45594000000E+02  0.51100000000E-03 0. -1.
    9900012    2    1    2    0    0 -0.19641304633E+02 -0.26472487817E+02 -0.28232076458E+02  0.47787267287E+02  0.19999982866E+02 0.  0.
        -12    1    1    2    0    0  0.19641304633E+02  0.26472487817E+02  0.28232076458E+02  0.43400732713E+02  0.00000000000E+00 0.  1.
         11    1    3    3    0    0 -0.10539229175E+02 -0.26348814234E+02 -0.22184675233E+02  0.36020760383E+02  0.51100000000E-03 0. -1.
        -11    1    3    3    0    0 -0.70797974475E+01 -0.12995160057E+01 -0.27108671628E+01  0.76916236765E+01  0.51100000000E-03 0.  1.
         12    1    3    3    0    0 -0.20222780115E+01  0.11758424230E+01 -0.33365340632E+01  0.40748832271E+01  0.00000000000E+00 0. -1.
</event>
<event>
 7    1  0.2886681E-010  0.4778727E+02  0.7816164E-02  0.1312668E+00
        -11   -1    0    0    0    0  0.00000000000E+00  0.00000000000E+00  0.45593999997E+02  0.45594000000E+02  0.51100000000E-03 0. -1.
         11   -1    0    0    0    0 -0.00000000000E+00 -0.00000000000E+00 -0.45593999997E+02  0.45594000000E+02  0.51100000000E-03 0.  1.
    9900012    2    1    2    0    0 -0.40891934324E+02 -0.49714155163E+01  0.13665938045E+02  0.47787272729E+02  0.20000007679E+02 0.  0.
        -12    1    1    2    0    0  0.40891934324E+02  0.49714155163E+01 -0.13665938045E+02  0.43400727271E+02  0.00000000000E+00 0.  1.
         11    1    3    3    0    0 -0.87685995951E+01 -0.81625062397E+00  0.85662302702E+01  0.12285556774E+02  0.51100000000E-03 0. -1.
        -11    1    3    3    0    0 -0.29116318615E+02 -0.24589972589E+01 -0.14781526541E+00  0.29220344400E+02  0.51100000000E-03 0.  1.
        -12    1    3    3    0    0 -0.30070161142E+01 -0.16961676335E+01  0.52475230406E+01  0.62813715552E+01  0.00000000000E+00 0.  1.
</event>
<event>
 7    1  0.2886681E-010  0.4778727E+02  0.7816164E-02  0.1312668E+00
        -11   -1    0    0    0    0  0.00000000000E+00  0.00000000000E+00  0.45593999997E+02  0.45594000000E+02  0.51100000000E-03 0. -1.
         11   -1    0    0    0    0 -0.00000000000E+00 -0.00000000000E+00 -0.45593999997E+02  0.45594000000E+02  0.51100000000E-03 0.  1.
    9900012    2    1    2    0    0  0.16131982061E+02  0.10462348906E+02  0.38909147391E+02  0.47787270276E+02  0.19999996497E+02 0.  0.
        -12    1    1    2    0    0 -0.16131982061E+02 -0.10462348906E+02 -0.38909147391E+02  0.43400729724E+02  0.00000000000E+00 0.  1.
         11    1    3    3    0    0  0.46110134411E+01 -0.38359830347E+01  0.89303483904E+01  0.10757663939E+02  0.51100000000E-03 0.  1.
        -11    1    3    3    0    0  0.54611910299E+01  0.45879579112E+00  0.33780456146E+01  0.64378795794E+01  0.51100000000E-03 0. -1.
         12    1    3    3    0    0  0.60597775903E+01  0.13839536150E+02  0.26600753386E+02  0.30591726757E+02  0.00000000000E+00 0. -1.
</event>
<event>
 7    1  0.2886681E-010  0.4778727E+02  0.7816164E-02  0.1312668E+00
        -11   -1    0    0    0    0  0.00000000000E+00  0.00000000000E+00  0.45593999997E+02  0.45594000000E+02  0.51100000000E-03 0.  1.
         11   -1    0    0    0    0 -0.00000000000E+00 -0.00000000000E+00 -0.45593999997E+02  0.45594000000E+02  0.51100000000E-03 0. -1.
    9900012    2    1    2    0    0 -0.42533765099E+02  0.57267864667E+01 -0.64580117289E+01  0.47787272215E+02  0.20000005339E+02 0.  0.
        -12    1    1    2    0    0  0.42533765099E+02 -0.57267864667E+01  0.64580117289E+01  0.43400727785E+02  0.00000000000E+00 0.  1.
         11    1    3    3    0    0 -0.14715956785E+02 -0.56590711392E+01 -0.49745138464E+01  0.16532702699E+02  0.51100000000E-03 0. -1.
        -11    1    3    3    0    0 -0.14846118394E+01 -0.11275609139E+01 -0.95498650096E+00  0.20946277488E+01  0.51100000000E-03 0.  1.
         12    1    3    3    0    0 -0.26333196474E+02  0.12513418520E+02 -0.52851138151E+00  0.29159941768E+02  0.00000000000E+00 0. -1.
</event>
<event>
 7    1  0.2886681E-010  0.4778727E+02  0.7816164E-02  0.1312668E+00
        -11   -1    0    0    0    0  0.00000000000E+00  0.00000000000E+00  0.45593999997E+02  0.45594000000E+02  0.51100000000E-03 0.  1.
         11   -1    0    0    0    0 -0.00000000000E+00 -0.00000000000E+00 -0.45593999997E+02  0.45594000000E+02  0.51100000000E-03 0. -1.
    9900012    2    1    2    0    0 -0.43271702967E+02  0.31490690129E+01 -0.11253568532E+01  0.47787270267E+02  0.19999996454E+02 0.  0.
        -12    1    1    2    0    0  0.43271702967E+02 -0.31490690129E+01  0.11253568532E+01  0.43400729733E+02  0.00000000000E+00 0.  1.
         11    1    3    3    0    0 -0.12398550748E+02  0.82281182299E+01 -0.37313276557E+01  0.15341081989E+02  0.51100000000E-03 0. -1.
        -11    1    3    3    0    0 -0.13972042805E+02 -0.27796253091E+01  0.52564333826E+01  0.15184676130E+02  0.51100000000E-03 0.  1.
         12    1    3    3    0    0 -0.16901109414E+02 -0.22994239079E+01 -0.26504625800E+01  0.17261512148E+02  0.00000000000E+00 0. -1.
</event>
<event>
 7    1  0.2886681E-010  0.4778728E+02  0.7816164E-02  0.1312668E+00
        -11   -1    0    0    0    0  0.00000000000E+00  0.00000000000E+00  0.45593999997E+02  0.45594000000E+02  0.51100000000E-03 0.  1.
         11   -1    0    0    0    0 -0.00000000000E+00 -0.00000000000E+00 -0.45593999997E+02  0.45594000000E+02  0.51100000000E-03 0. -1.
    9900012    2    1    2    0    0 -0.14615290035E+02  0.39649839951E+02 -0.98947417381E+01  0.47787280824E+02  0.20000044588E+02 0.  0.
        -12    1    1    2    0    0  0.14615290035E+02 -0.39649839951E+02  0.98947417381E+01  0.43400719176E+02  0.00000000000E+00 0.  1.
         11    1    3    3    0    0 -0.14566650873E+02  0.16763632189E+02 -0.65163545368E+00  0.22217815168E+02  0.51100000000E-03 0. -1.
        -11    1    3    3    0    0  0.32401022570E+01  0.97570618353E+01 -0.34162780669E+01  0.10833719324E+02  0.51100000000E-03 0.  1.
        -12    1    3    3    0    0 -0.32887414192E+01  0.13129145926E+02 -0.58268282175E+01  0.14735746332E+02  0.00000000000E+00 0.  1.
</event>
<event>
 7    1  0.2886681E-010  0.4778727E+02  0.7816164E-02  0.1312668E+00
        -11   -1    0    0    0    0  0.00000000000E+00  0.00000000000E+00  0.45593999997E+02  0.45594000000E+02  0.51100000000E-03 0.  1.
         11   -1    0    0    0    0 -0.00000000000E+00 -0.00000000000E+00 -0.45593999997E+02  0.45594000000E+02  0.51100000000E-03 0. -1.
    9900012    2    1    2    0    0  0.39362353965E+02  0.18171077590E+02 -0.20100474591E+01  0.47787271190E+02  0.20000000662E+02 0.  0.
        -12    1    1    2    0    0 -0.39362353965E+02 -0.18171077590E+02  0.20100474591E+01  0.43400728810E+02  0.00000000000E+00 0.  1.
         11    1    3    3    0    0  0.32483509874E+02  0.12431842736E+02  0.63584123022E+01  0.35357581009E+02  0.51100000000E-03 0. -1.
        -11    1    3    3    0    0  0.64641422219E+01  0.45374140601E+01 -0.68994971726E+01  0.10486959641E+02  0.51100000000E-03 0.  1.
         12    1    3    3    0    0  0.41470186944E+00  0.12018207947E+01 -0.14689625887E+01  0.19427305397E+01  0.00000000000E+00 0. -1.
</event>
<event>
 7    1  0.2886681E-010  0.4778727E+02  0.7816164E-02  0.1312668E+00
        -11   -1    0    0    0    0  0.00000000000E+00  0.00000000000E+00  0.45593999997E+02  0.45594000000E+02  0.51100000000E-03 0. -1.
         11   -1    0    0    0    0 -0.00000000000E+00 -0.00000000000E+00 -0.45593999997E+02  0.45594000000E+02  0.51100000000E-03 0.  1.
    9900012    2    1    2    0    0 -0.80352813024E+01  0.46095149813E+01  0.42400587015E+02  0.47787272435E+02  0.20000006338E+02 0.  0.
        -12    1    1    2    0    0  0.80352813024E+01 -0.46095149813E+01 -0.42400587015E+02  0.43400727565E+02  0.00000000000E+00 0.  1.
         11    1    3    3    0    0 -0.10189291270E+02 -0.30539499225E+01  0.12774908225E+02  0.16623674297E+02  0.51100000000E-03 0. -1.
        -11    1    3    3    0    0  0.15206096373E+01 -0.10165721623E+00  0.87451020304E+01  0.88769024801E+01  0.51100000000E-03 0.  1.
         12    1    3    3    0    0  0.63340032978E+00  0.77651221200E+01  0.20880576760E+02  0.22286695658E+02  0.00000000000E+00 0. -1.
</event>
<event>
 7    1  0.2886681E-010  0.4778727E+02  0.7816164E-02  0.1312668E+00
        -11   -1    0    0    0    0  0.00000000000E+00  0.00000000000E+00  0.45593999997E+02  0.45594000000E+02  0.51100000000E-03 0.  1.
         11   -1    0    0    0    0 -0.00000000000E+00 -0.00000000000E+00 -0.45593999997E+02  0.45594000000E+02  0.51100000000E-03 0. -1.
    9900012    2    1    2    0    0  0.49547128720E+01 -0.11160752903E+02 -0.41647466929E+02  0.47787273202E+02  0.20000009836E+02 0.  0.
        -12    1    1    2    0    0 -0.49547128720E+01  0.11160752903E+02  0.41647466929E+02  0.43400726798E+02  0.00000000000E+00 0.  1.
         11    1    3    3    0    0  0.55306667921E+01 -0.11929351514E+02 -0.40588047229E+02  0.42664824866E+02  0.51100000000E-03 0. -1.
        -11    1    3    3    0    0  0.13773777742E+01  0.20714766132E+01  0.12879327308E+00  0.24909381486E+01  0.51100000000E-03 0.  1.
         12    1    3    3    0    0 -0.19533316943E+01 -0.13028780018E+01 -0.11882129731E+01  0.26315101872E+01  0.00000000000E+00 0. -1.
</event>
<event>
 7    1  0.2886681E-010  0.4778727E+02  0.7816164E-02  0.1312668E+00
        -11   -1    0    0    0    0  0.00000000000E+00  0.00000000000E+00  0.45593999997E+02  0.45594000000E+02  0.51100000000E-03 0.  1.
         11   -1    0    0    0    0 -0.00000000000E+00 -0.00000000000E+00 -0.45593999997E+02  0.45594000000E+02  0.51100000000E-03 0. -1.
    9900012    2    1    2    0    0  0.17774418431E+02 -0.48281866979E+01 -0.39298624789E+02  0.47787271346E+02  0.20000001376E+02 0.  0.
        -12    1    1    2    0    0 -0.17774418431E+02  0.48281866979E+01  0.39298624789E+02  0.43400728654E+02  0.00000000000E+00 0.  1.
         11    1    3    3    0    0  0.86554461300E+01 -0.48018722747E+01 -0.37437740811E+01  0.10582559694E+02  0.51100000000E-03 0.  1.
        -11    1    3    3    0    0  0.39309582204E+01 -0.80042834879E-02 -0.26323502593E+02  0.26615395650E+02  0.51100000000E-03 0. -1.
        -12    1    3    3    0    0  0.51880140809E+01 -0.18310139696E-01 -0.92313481151E+01  0.10589316002E+02  0.00000000000E+00 0.  1.
</event>
<event>
 7    1  0.2886681E-010  0.4778727E+02  0.7816164E-02  0.1312668E+00
        -11   -1    0    0    0    0  0.00000000000E+00  0.00000000000E+00  0.45593999997E+02  0.45594000000E+02  0.51100000000E-03 0. -1.
         11   -1    0    0    0    0 -0.00000000000E+00 -0.00000000000E+00 -0.45593999997E+02  0.45594000000E+02  0.51100000000E-03 0.  1.
    9900012    2    1    2    0    0 -0.33946936901E+02  0.23509882032E+02  0.13360914969E+02  0.47787272737E+02  0.20000007718E+02 0.  0.
        -12    1    1    2    0    0  0.33946936901E+02 -0.23509882032E+02 -0.13360914969E+02  0.43400727263E+02  0.00000000000E+00 0.  1.
         11    1    3    3    0    0 -0.61149094003E+00  0.65421476132E+01  0.42263964556E+01  0.78125568045E+01  0.51100000000E-03 0. -1.
        -11    1    3    3    0    0 -0.11451360871E+02  0.38155193923E+00  0.27117380009E+01  0.11774241841E+02  0.51100000000E-03 0.  1.
         12    1    3    3    0    0 -0.21884085090E+02  0.16586182479E+02  0.64227805126E+01  0.28200474091E+02  0.00000000000E+00 0. -1.
</event>
<event>
 7    1  0.2886681E-010  0.4778727E+02  0.7816164E-02  0.1312668E+00
        -11   -1    0    0    0    0  0.00000000000E+00  0.00000000000E+00  0.45593999997E+02  0.45594000000E+02  0.51100000000E-03 0. -1.
         11   -1    0    0    0    0 -0.00000000000E+00 -0.00000000000E+00 -0.45593999997E+02  0.45594000000E+02  0.51100000000E-03 0.  1.
    9900012    2    1    2    0    0 -0.29636855821E+02 -0.11497858611E+02  0.29547911048E+02  0.47787273936E+02  0.20000013185E+02 0.  0.
        -12    1    1    2    0    0  0.29636855821E+02  0.11497858611E+02 -0.29547911048E+02  0.43400726064E+02  0.00000000000E+00 0.  1.
         11    1    3    3    0    0 -0.30009144065E+02 -0.10695732700E+02  0.26665876377E+02  0.41545353395E+02  0.51100000000E-03 0. -1.
        -11    1    3    3    0    0  0.23007783826E+01  0.12297303041E+01  0.20552298039E+01  0.33211124032E+01  0.51100000000E-03 0.  1.
         12    1    3    3    0    0 -0.19284901381E+01 -0.20318562145E+01  0.82680486716E+00  0.29208081377E+01  0.00000000000E+00 0. -1.
</event>
<event>
 7    1  0.2886681E-010  0.4778727E+02  0.7816164E-02  0.1312668E+00
        -11   -1    0    0    0    0  0.00000000000E+00  0.00000000000E+00  0.45593999997E+02  0.45594000000E+02  0.51100000000E-03 0. -1.
         11   -1    0    0    0    0 -0.00000000000E+00 -0.00000000000E+00 -0.45593999997E+02  0.45594000000E+02  0.51100000000E-03 0.  1.
    9900012    2    1    2    0    0  0.13761426549E+02  0.11821646906E+02  0.39427083860E+02  0.47787272610E+02  0.20000007138E+02 0.  0.
        -12    1    1    2    0    0 -0.13761426549E+02 -0.11821646906E+02 -0.39427083860E+02  0.43400727390E+02  0.00000000000E+00 0.  1.
         11    1    3    3    0    0  0.15790997136E+01 -0.24792547478E+01  0.54871540039E+00  0.29902088324E+01  0.51100000000E-03 0. -1.
        -11    1    3    3    0    0  0.20139404898E+01  0.43752024353E+01  0.18915362600E+01  0.51745784688E+01  0.51100000000E-03 0.  1.
         12    1    3    3    0    0  0.10168386346E+02  0.99256992189E+01  0.36986832200E+02  0.39622485309E+02  0.00000000000E+00 0. -1.
</event>
<event>
 7    1  0.2886681E-010  0.4778728E+02  0.7816164E-02  0.1312668E+00
        -11   -1    0    0    0    0  0.00000000000E+00  0.00000000000E+00  0.45593999997E+02  0.45594000000E+02  0.51100000000E-03 0. -1.
         11   -1    0    0    0    0 -0.00000000000E+00 -0.00000000000E+00 -0.45593999997E+02  0.45594000000E+02  0.51100000000E-03 0.  1.
    9900012    2    1    2    0    0  0.43941072383E+01  0.32233082700E+02 -0.28728772914E+02  0.47787283509E+02  0.20000056833E+02 0.  0.
        -12    1    1    2    0    0 -0.43941072383E+01 -0.32233082700E+02  0.28728772914E+02  0.43400716491E+02  0.00000000000E+00 0.  1.
         11    1    3    3    0    0 -0.10504459889E+01  0.43305940124E+01  0.22983644911E+01  0.50139765526E+01  0.51100000000E-03 0. -1.
        -11    1    3    3    0    0  0.64265067847E+01  0.15754574719E+02 -0.20726134649E+02  0.26815653484E+02  0.51100000000E-03 0.  1.
         12    1    3    3    0    0 -0.98195355748E+00  0.12147913968E+02 -0.10301002756E+02  0.15957653472E+02  0.00000000000E+00 0. -1.
</event>
<event>
 7    1  0.2886681E-010  0.4778727E+02  0.7816164E-02  0.1312668E+00
        -11   -1    0    0    0    0  0.00000000000E+00  0.00000000000E+00  0.45593999997E+02  0.45594000000E+02  0.51100000000E-03 0.  1.
         11   -1    0    0    0    0 -0.00000000000E+00 -0.00000000000E+00 -0.45593999997E+02  0.45594000000E+02  0.51100000000E-03 0. -1.
    9900012    2    1    2    0    0 -0.41848574451E+01 -0.20203985579E+02 -0.38182576442E+02  0.47787271794E+02  0.20000003416E+02 0.  0.
        -12    1    1    2    0    0  0.41848574451E+01  0.20203985579E+02  0.38182576442E+02  0.43400728206E+02  0.00000000000E+00 0.  1.
         11    1    3    3    0    0  0.34723431971E+00 -0.13680392541E+02 -0.13481404244E+02  0.19209944623E+02  0.51100000000E-03 0. -1.
        -11    1    3    3    0    0 -0.46716900015E+01 -0.39185861368E+01 -0.25194920257E+02  0.25922268647E+02  0.51100000000E-03 0.  1.
         12    1    3    3    0    0  0.13959823668E+00 -0.26050069007E+01  0.49374805903E+00  0.26550585241E+01  0.00000000000E+00 0. -1.
</event>
<event>
 7    1  0.2886681E-010  0.4778727E+02  0.7816164E-02  0.1312668E+00
        -11   -1    0    0    0    0  0.00000000000E+00  0.00000000000E+00  0.45593999997E+02  0.45594000000E+02  0.51100000000E-03 0.  1.
         11   -1    0    0    0    0 -0.00000000000E+00 -0.00000000000E+00 -0.45593999997E+02  0.45594000000E+02  0.51100000000E-03 0. -1.
    9900012    2    1    2    0    0  0.14678450603E+02 -0.40801344920E+02  0.18484488679E+01  0.47787269331E+02  0.19999992188E+02 0.  0.
        -12    1    1    2    0    0 -0.14678450603E+02  0.40801344920E+02 -0.18484488679E+01  0.43400730669E+02  0.00000000000E+00 0.  1.
         11    1    3    3    0    0  0.15327694370E+02 -0.22356690498E+02  0.10700601961E+01  0.27127566308E+02  0.51100000000E-03 0. -1.
        -11    1    3    3    0    0 -0.31602773631E+01 -0.25246305050E+01 -0.16356442415E+01  0.43630774167E+01  0.51100000000E-03 0.  1.
         12    1    3    3    0    0  0.25110335960E+01 -0.15920023917E+02  0.24140329133E+01  0.16296625606E+02  0.00000000000E+00 0. -1.
</event>
<event>
 7    1  0.2886681E-010  0.4778727E+02  0.7816164E-02  0.1312668E+00
        -11   -1    0    0    0    0  0.00000000000E+00  0.00000000000E+00  0.45593999997E+02  0.45594000000E+02  0.51100000000E-03 0.  1.
         11   -1    0    0    0    0 -0.00000000000E+00 -0.00000000000E+00 -0.45593999997E+02  0.45594000000E+02  0.51100000000E-03 0. -1.
    9900012    2    1    2    0    0 -0.13147838753E+02  0.39657884186E+02 -0.11747759952E+02  0.47787270675E+02  0.19999998318E+02 0.  0.
        -12    1    1    2    0    0  0.13147838753E+02 -0.39657884186E+02  0.11747759952E+02  0.43400729325E+02  0.00000000000E+00 0.  1.
         11    1    3    3    0    0 -0.90023865470E+01  0.31625141554E+02 -0.81371455051E+01  0.33873377143E+02  0.51100000000E-03 0. -1.
        -11    1    3    3    0    0 -0.39658017369E+01  0.49100028662E+00 -0.48335684674E+01  0.62715268546E+01  0.51100000000E-03 0.  1.
        -12    1    3    3    0    0 -0.17965046901E+00  0.75417423454E+01  0.12229540204E+01  0.76423666774E+01  0.00000000000E+00 0.  1.
</event>
<event>
 7    1  0.2886681E-010  0.4778726E+02  0.7816164E-02  0.1312668E+00
        -11   -1    0    0    0    0  0.00000000000E+00  0.00000000000E+00  0.45593999997E+02  0.45594000000E+02  0.51100000000E-03 0.  1.
         11   -1    0    0    0    0 -0.00000000000E+00 -0.00000000000E+00 -0.45593999997E+02  0.45594000000E+02  0.51100000000E-03 0. -1.
    9900012    2    1    2    0    0 -0.15535809850E+02  0.12645490323E+02 -0.38501355286E+02  0.47787260697E+02  0.19999952821E+02 0.  0.
        -12    1    1    2    0    0  0.15535809850E+02 -0.12645490323E+02  0.38501355286E+02  0.43400739303E+02  0.00000000000E+00 0.  1.
         11    1    3    3    0    0 -0.15057721493E+01  0.45503097024E+01 -0.24277349918E+02  0.24745956992E+02  0.51100000000E-03 0. -1.
        -11    1    3    3    0    0 -0.11560595258E+02  0.42590605784E+01 -0.61556163006E+01  0.13772384399E+02  0.51100000000E-03 0.  1.
        -12    1    3    3    0    0 -0.24694424424E+01  0.38361200422E+01 -0.80683890680E+01  0.92689193064E+01  0.00000000000E+00 0.  1.
</event>
<event>
 7    1  0.2886681E-010  0.4778727E+02  0.7816164E-02  0.1312668E+00
        -11   -1    0    0    0    0  0.00000000000E+00  0.00000000000E+00  0.45593999997E+02  0.45594000000E+02  0.51100000000E-03 0.  1.
         11   -1    0    0    0    0 -0.00000000000E+00 -0.00000000000E+00 -0.45593999997E+02  0.45594000000E+02  0.51100000000E-03 0. -1.
    9900012    2    1    2    0    0 -0.30961799302E+02  0.78421304660E+01 -0.29385218940E+02  0.47787272835E+02  0.20000008166E+02 0.  0.
        -12    1    1    2    0    0  0.30961799302E+02 -0.78421304660E+01  0.29385218940E+02  0.43400727165E+02  0.00000000000E+00 0.  1.
         11    1    3    3    0    0 -0.11453697873E+02  0.49431178384E+01 -0.10871286205E+01  0.12522118744E+02  0.51100000000E-03 0. -1.
        -11    1    3    3    0    0 -0.53392541947E+00  0.25919351863E+00  0.43188369466E+00  0.73401731620E+00  0.51100000000E-03 0.  1.
         12    1    3    3    0    0 -0.18974176010E+02  0.26398191089E+01 -0.28729974014E+02  0.34531136775E+02  0.00000000000E+00 0. -1.
</event>
<event>
 7    1  0.2886681E-010  0.4778727E+02  0.7816164E-02  0.1312668E+00
        -11   -1    0    0    0    0  0.00000000000E+00  0.00000000000E+00  0.45593999997E+02  0.45594000000E+02  0.51100000000E-03 0.  1.
         11   -1    0    0    0    0 -0.00000000000E+00 -0.00000000000E+00 -0.45593999997E+02  0.45594000000E+02  0.51100000000E-03 0. -1.
    9900012    2    1    2    0    0  0.21782456420E+02 -0.79022962545E+01 -0.36697431185E+02  0.47787272479E+02  0.20000006539E+02 0.  0.
        -12    1    1    2    0    0 -0.21782456420E+02  0.79022962545E+01  0.36697431185E+02  0.43400727521E+02  0.00000000000E+00 0.  1.
         11    1    3    3    0    0  0.12399969522E+02  0.48582376402E+01 -0.10391687097E+02  0.16892272733E+02  0.51100000000E-03 0. -1.
        -11    1    3    3    0    0  0.71352957887E+01 -0.11528290457E+02 -0.20897366971E+02  0.24910115885E+02  0.51100000000E-03 0.  1.
         12    1    3    3    0    0  0.22471911098E+01 -0.12322434381E+01 -0.54083771180E+01  0.59848838606E+01  0.00000000000E+00 0. -1.
</event>
<event>
 7    1  0.2886681E-010  0.4778727E+02  0.7816164E-02  0.1312668E+00
        -11   -1    0    0    0    0  0.00000000000E+00  0.00000000000E+00  0.45593999997E+02  0.45594000000E+02  0.51100000000E-03 0.  1.
         11   -1    0    0    0    0 -0.00000000000E+00 -0.00000000000E+00 -0.45593999997E+02  0.45594000000E+02  0.51100000000E-03 0. -1.
    9900012    2    1    2    0    0 -0.27057095436E+02 -0.33646980847E+01 -0.33767077250E+02  0.47787272902E+02  0.20000008469E+02 0.  0.
        -12    1    1    2    0    0  0.27057095436E+02  0.33646980847E+01  0.33767077250E+02  0.43400727098E+02  0.00000000000E+00 0.  1.
         11    1    3    3    0    0 -0.14441164415E+02  0.36982195888E+01 -0.56015351706E+01  0.15924862772E+02  0.51100000000E-03 0. -1.
        -11    1    3    3    0    0 -0.40764688239E+01 -0.22321979393E+01 -0.12942331840E+02  0.13751518441E+02  0.51100000000E-03 0.  1.
         12    1    3    3    0    0 -0.85394621970E+01 -0.48307197341E+01 -0.15223210239E+02  0.18110891689E+02  0.00000000000E+00 0. -1.
</event>
<event>
 7    1  0.2886681E-010  0.4778727E+02  0.7816164E-02  0.1312668E+00
        -11   -1    0    0    0    0  0.00000000000E+00  0.00000000000E+00  0.45593999997E+02  0.45594000000E+02  0.51100000000E-03 0.  1.
         11   -1    0    0    0    0 -0.00000000000E+00 -0.00000000000E+00 -0.45593999997E+02  0.45594000000E+02  0.51100000000E-03 0. -1.
    9900012    2    1    2    0    0  0.17279783279E+01 -0.41906001719E+02 -0.11159069618E+02  0.47787265860E+02  0.19999976360E+02 0.  0.
        -12    1    1    2    0    0 -0.17279783279E+01  0.41906001719E+02  0.11159069618E+02  0.43400734140E+02  0.00000000000E+00 0.  1.
         11    1    3    3    0    0 -0.39392856912E+01 -0.12698580510E+02  0.37598091189E+01  0.13816949142E+02  0.51100000000E-03 0.  1.
        -11    1    3    3    0    0  0.38869302203E+01 -0.16422588873E+02 -0.12078502900E+02  0.20753310203E+02  0.51100000000E-03 0. -1.
        -12    1    3    3    0    0  0.17803337989E+01 -0.12784832336E+02 -0.28403758375E+01  0.13217006514E+02  0.00000000000E+00 0.  1.
</event>
<event>
 7    1  0.2886681E-010  0.4778727E+02  0.7816164E-02  0.1312668E+00
        -11   -1    0    0    0    0  0.00000000000E+00  0.00000000000E+00  0.45593999997E+02  0.45594000000E+02  0.51100000000E-03 0.  1.
         11   -1    0    0    0    0 -0.00000000000E+00 -0.00000000000E+00 -0.45593999997E+02  0.45594000000E+02  0.51100000000E-03 0. -1.
    9900012    2    1    2    0    0 -0.18861681956E+00 -0.26869739207E+02 -0.34082326450E+02  0.47787269158E+02  0.19999991401E+02 0.  0.
        -12    1    1    2    0    0  0.18861681956E+00  0.26869739207E+02  0.34082326450E+02  0.43400730842E+02  0.00000000000E+00 0.  1.
         11    1    3    3    0    0 -0.54315209348E+01 -0.11683281163E+02 -0.83685760502E+01  0.15363383213E+02  0.51100000000E-03 0. -1.
        -11    1    3    3    0    0  0.34967160226E+01 -0.51255868080E+00 -0.11067237809E+02  0.11617809274E+02  0.51100000000E-03 0.  1.
        -12    1    3    3    0    0  0.17461880927E+01 -0.14673899363E+02 -0.14646512591E+02  0.20806076671E+02  0.00000000000E+00 0.  1.
</event>
<event>
 7    1  0.2886681E-010  0.4778727E+02  0.7816164E-02  0.1312668E+00
        -11   -1    0    0    0    0  0.00000000000E+00  0.00000000000E+00  0.45593999997E+02  0.45594000000E+02  0.51100000000E-03 0. -1.
         11   -1    0    0    0    0 -0.00000000000E+00 -0.00000000000E+00 -0.45593999997E+02  0.45594000000E+02  0.51100000000E-03 0.  1.
    9900012    2    1    2    0    0  0.32937370797E+02 -0.27659678280E+02  0.58047407560E+01  0.47787271748E+02  0.20000003209E+02 0.  0.
        -12    1    1    2    0    0 -0.32937370797E+02  0.27659678280E+02 -0.58047407560E+01  0.43400728252E+02  0.00000000000E+00 0.  1.
         11    1    3    3    0    0  0.66494829755E+01 -0.15219868189E+02 -0.46271744501E+00  0.16615478303E+02  0.51100000000E-03 0. -1.
        -11    1    3    3    0    0  0.98119047169E+01 -0.12525392477E+01 -0.10671789539E+01  0.99489295868E+01  0.51100000000E-03 0.  1.
         12    1    3    3    0    0  0.16475983104E+02 -0.11187270843E+02  0.73346371549E+01  0.21222863859E+02  0.00000000000E+00 0. -1.
</event>
<event>
 7    1  0.2886681E-010  0.4778727E+02  0.7816164E-02  0.1312668E+00
        -11   -1    0    0    0    0  0.00000000000E+00  0.00000000000E+00  0.45593999997E+02  0.45594000000E+02  0.51100000000E-03 0. -1.
         11   -1    0    0    0    0 -0.00000000000E+00 -0.00000000000E+00 -0.45593999997E+02  0.45594000000E+02  0.51100000000E-03 0.  1.
    9900012    2    1    2    0    0 -0.45864859359E+01 -0.23254731817E+01  0.43095005187E+02  0.47787272462E+02  0.20000006465E+02 0.  0.
        -12    1    1    2    0    0  0.45864859359E+01  0.23254731817E+01 -0.43095005187E+02  0.43400727538E+02  0.00000000000E+00 0.  1.
         11    1    3    3    0    0  0.36405257881E+01 -0.12774011251E+01  0.78869967081E+00  0.39379219241E+01  0.51100000000E-03 0. -1.
        -11    1    3    3    0    0 -0.17454828133E+01  0.17326396044E+01  0.28360637455E+01  0.37539323488E+01  0.51100000000E-03 0.  1.
         12    1    3    3    0    0 -0.64815289107E+01 -0.27807116609E+01  0.39470241770E+02  0.40095418189E+02  0.00000000000E+00 0. -1.
</event>
<event>
 7    1  0.2886681E-010  0.4778727E+02  0.7816164E-02  0.1312668E+00
        -11   -1    0    0    0    0  0.00000000000E+00  0.00000000000E+00  0.45593999997E+02  0.45594000000E+02  0.51100000000E-03 0.  1.
         11   -1    0    0    0    0 -0.00000000000E+00 -0.00000000000E+00 -0.45593999997E+02  0.45594000000E+02  0.51100000000E-03 0. -1.
    9900012    2    1    2    0    0 -0.79468428519E+01  0.41366689600E+02 -0.10453133600E+02  0.47787270492E+02  0.19999997482E+02 0.  0.
        -12    1    1    2    0    0  0.79468428519E+01 -0.41366689600E+02  0.10453133600E+02  0.43400729508E+02  0.00000000000E+00 0.  1.
         11    1    3    3    0    0  0.59920597947E+01  0.13052472838E+02 -0.62988137970E+01  0.15682693751E+02  0.51100000000E-03 0. -1.
        -11    1    3    3    0    0 -0.10196313852E+02  0.18144332976E+02 -0.10834558505E+01  0.20841197474E+02  0.51100000000E-03 0.  1.
        -12    1    3    3    0    0 -0.37425887943E+01  0.10169883786E+02 -0.30708639526E+01  0.11263379267E+02  0.00000000000E+00 0.  1.
</event>
<event>
 7    1  0.2886681E-010  0.4778727E+02  0.7816164E-02  0.1312668E+00
        -11   -1    0    0    0    0  0.00000000000E+00  0.00000000000E+00  0.45593999997E+02  0.45594000000E+02  0.51100000000E-03 0. -1.
         11   -1    0    0    0    0 -0.00000000000E+00 -0.00000000000E+00 -0.45593999997E+02  0.45594000000E+02  0.51100000000E-03 0.  1.
    9900012    2    1    2    0    0  0.27437685164E+02  0.16206772206E+02  0.29464167568E+02  0.47787271861E+02  0.20000003725E+02 0.  0.
        -12    1    1    2    0    0 -0.27437685164E+02 -0.16206772206E+02 -0.29464167568E+02  0.43400728139E+02  0.00000000000E+00 0.  1.
         11    1    3    3    0    0  0.37358779327E+01  0.17053676124E+00  0.14882685348E+02  0.15345363799E+02  0.51100000000E-03 0. -1.
        -11    1    3    3    0    0  0.17120971986E+02  0.93070202054E+01  0.86822338016E+01  0.21333764105E+02  0.51100000000E-03 0.  1.
         12    1    3    3    0    0  0.65808352453E+01  0.67292152390E+01  0.58992484184E+01  0.11108143957E+02  0.00000000000E+00 0. -1.
</event>
<event>
 7    1  0.2886681E-010  0.4778727E+02  0.7816164E-02  0.1312668E+00
        -11   -1    0    0    0    0  0.00000000000E+00  0.00000000000E+00  0.45593999997E+02  0.45594000000E+02  0.51100000000E-03 0. -1.
         11   -1    0    0    0    0 -0.00000000000E+00 -0.00000000000E+00 -0.45593999997E+02  0.45594000000E+02  0.51100000000E-03 0.  1.
    9900012    2    1    2    0    0  0.41165297900E+02  0.10816081332E+02  0.84884546950E+01  0.47787271553E+02  0.20000002320E+02 0.  0.
        -12    1    1    2    0    0 -0.41165297900E+02 -0.10816081332E+02 -0.84884546950E+01  0.43400728447E+02  0.00000000000E+00 0.  1.
         11    1    3    3    0    0  0.10075736759E+02  0.61069621607E+01 -0.43291916119E+01  0.12552185401E+02  0.51100000000E-03 0. -1.
        -11    1    3    3    0    0  0.20499480781E+01  0.31141007217E+01  0.11918700724E+01  0.39141365534E+01  0.51100000000E-03 0.  1.
         12    1    3    3    0    0  0.29039613063E+02  0.15950184496E+01  0.11625776234E+02  0.31320949599E+02  0.00000000000E+00 0. -1.
</event>
<event>
 7    1  0.2886681E-010  0.4778727E+02  0.7816164E-02  0.1312668E+00
        -11   -1    0    0    0    0  0.00000000000E+00  0.00000000000E+00  0.45593999997E+02  0.45594000000E+02  0.51100000000E-03 0.  1.
         11   -1    0    0    0    0 -0.00000000000E+00 -0.00000000000E+00 -0.45593999997E+02  0.45594000000E+02  0.51100000000E-03 0. -1.
    9900012    2    1    2    0    0 -0.90872844401E+01  0.63774462139E+01 -0.41956794299E+02  0.47787272511E+02  0.20000006689E+02 0.  0.
        -12    1    1    2    0    0  0.90872844401E+01 -0.63774462139E+01  0.41956794299E+02  0.43400727489E+02  0.00000000000E+00 0.  1.
         11    1    3    3    0    0 -0.57902462355E+01  0.97990415217E+01 -0.27148401260E+02  0.29437796409E+02  0.51100000000E-03 0. -1.
        -11    1    3    3    0    0 -0.58632052064E+01 -0.23920460735E+00 -0.12093481424E+02  0.13441974831E+02  0.51100000000E-03 0.  1.
         12    1    3    3    0    0  0.25661670018E+01 -0.31823907005E+01 -0.27149116151E+01  0.49075012715E+01  0.00000000000E+00 0. -1.
</event>
<event>
 7    1  0.2886681E-010  0.4778728E+02  0.7816164E-02  0.1312668E+00
        -11   -1    0    0    0    0  0.00000000000E+00  0.00000000000E+00  0.45593999997E+02  0.45594000000E+02  0.51100000000E-03 0.  1.
         11   -1    0    0    0    0 -0.00000000000E+00 -0.00000000000E+00 -0.45593999997E+02  0.45594000000E+02  0.51100000000E-03 0. -1.
    9900012    2    1    2    0    0 -0.40270931347E+02 -0.16074327928E+02  0.18683939884E+01  0.47787276204E+02  0.20000023526E+02 0.  0.
        -12    1    1    2    0    0  0.40270931347E+02  0.16074327928E+02 -0.18683939884E+01  0.43400723796E+02  0.00000000000E+00 0.  1.
         11    1    3    3    0    0 -0.16412218462E+02 -0.44795609213E+01  0.27788588644E+00  0.17014834755E+02  0.51100000000E-03 0. -1.
        -11    1    3    3    0    0  0.21981368508E+01  0.18274824350E-01 -0.36478134550E-01  0.21985155218E+01  0.51100000000E-03 0.  1.
        -12    1    3    3    0    0 -0.26056849736E+02 -0.11613041831E+02  0.16269862365E+01  0.28573925928E+02  0.00000000000E+00 0.  1.
</event>
<event>
 7    1  0.2886681E-010  0.4778726E+02  0.7816164E-02  0.1312668E+00
        -11   -1    0    0    0    0  0.00000000000E+00  0.00000000000E+00  0.45593999997E+02  0.45594000000E+02  0.51100000000E-03 0. -1.
         11   -1    0    0    0    0 -0.00000000000E+00 -0.00000000000E+00 -0.45593999997E+02  0.45594000000E+02  0.51100000000E-03 0.  1.
    9900012    2    1    2    0    0 -0.25329797974E+02 -0.19479220084E+02  0.29369807432E+02  0.47787259579E+02  0.19999947725E+02 0.  0.
        -12    1    1    2    0    0  0.25329797974E+02  0.19479220084E+02 -0.29369807432E+02  0.43400740421E+02  0.00000000000E+00 0.  1.
         11    1    3    3    0    0 -0.19016387952E+02 -0.15356581692E+02  0.13855422064E+02  0.28096624937E+02  0.51100000000E-03 0. -1.
        -11    1    3    3    0    0 -0.11501234096E+01  0.24032735414E+01  0.81638263270E+01  0.85875822052E+01  0.51100000000E-03 0.  1.
        -12    1    3    3    0    0 -0.51632866118E+01 -0.65259119340E+01  0.73505590410E+01  0.11103052437E+02  0.00000000000E+00 0.  1.
</event>
<event>
 7    1  0.2886681E-010  0.4778727E+02  0.7816164E-02  0.1312668E+00
        -11   -1    0    0    0    0  0.00000000000E+00  0.00000000000E+00  0.45593999997E+02  0.45594000000E+02  0.51100000000E-03 0.  1.
         11   -1    0    0    0    0 -0.00000000000E+00 -0.00000000000E+00 -0.45593999997E+02  0.45594000000E+02  0.51100000000E-03 0. -1.
    9900012    2    1    2    0    0 -0.15470567638E+02  0.47474742127E+00 -0.40547003109E+02  0.47787270636E+02  0.19999998138E+02 0.  0.
        -12    1    1    2    0    0  0.15470567638E+02 -0.47474742127E+00  0.40547003109E+02  0.43400729364E+02  0.00000000000E+00 0.  1.
         11    1    3    3    0    0 -0.66131702050E+01  0.50361807920E+01 -0.15043834094E+02  0.17187614193E+02  0.51100000000E-03 0. -1.
        -11    1    3    3    0    0  0.20130545312E+01 -0.13739162935E+01  0.26480052547E+00  0.24515615649E+01  0.51100000000E-03 0.  1.
        -12    1    3    3    0    0 -0.10870451965E+02 -0.31875170773E+01 -0.25767969541E+02  0.28148094879E+02  0.00000000000E+00 0.  1.
</event>
<event>
 7    1  0.2886681E-010  0.4778727E+02  0.7816164E-02  0.1312668E+00
        -11   -1    0    0    0    0  0.00000000000E+00  0.00000000000E+00  0.45593999997E+02  0.45594000000E+02  0.51100000000E-03 0.  1.
         11   -1    0    0    0    0 -0.00000000000E+00 -0.00000000000E+00 -0.45593999997E+02  0.45594000000E+02  0.51100000000E-03 0. -1.
    9900012    2    1    2    0    0  0.55084896996E+01 -0.25417341186E+02 -0.34745341459E+02  0.47787269075E+02  0.19999991020E+02 0.  0.
        -12    1    1    2    0    0 -0.55084896996E+01  0.25417341186E+02  0.34745341459E+02  0.43400730925E+02  0.00000000000E+00 0.  1.
         11    1    3    3    0    0  0.72345433589E+01 -0.98859376983E+01 -0.59381755535E+01  0.13613681021E+02  0.51100000000E-03 0. -1.
        -11    1    3    3    0    0 -0.50738752501E+01 -0.12877543244E+02 -0.19293807347E+02  0.23745027527E+02  0.51100000000E-03 0.  1.
         12    1    3    3    0    0  0.33478215908E+01 -0.26538602443E+01 -0.95133585581E+01  0.10428560527E+02  0.00000000000E+00 0. -1.
</event>
<event>
 7    1  0.2886681E-010  0.4778728E+02  0.7816164E-02  0.1312668E+00
        -11   -1    0    0    0    0  0.00000000000E+00  0.00000000000E+00  0.45593999997E+02  0.45594000000E+02  0.51100000000E-03 0. -1.
         11   -1    0    0    0    0 -0.00000000000E+00 -0.00000000000E+00 -0.45593999997E+02  0.45594000000E+02  0.51100000000E-03 0.  1.
    9900012    2    1    2    0    0  0.17282674861E+02  0.15292097940E+02  0.36757091305E+02  0.47787275686E+02  0.20000021164E+02 0.  0.
        -12    1    1    2    0    0 -0.17282674861E+02 -0.15292097940E+02 -0.36757091305E+02  0.43400724314E+02  0.00000000000E+00 0.  1.
         11    1    3    3    0    0  0.77740747146E-01 -0.33606727003E+01  0.85593865013E+01  0.91958285196E+01  0.51100000000E-03 0. -1.
        -11    1    3    3    0    0  0.13516655547E+02  0.12489600796E+02  0.15762983202E+02  0.24231420613E+02  0.51100000000E-03 0.  1.
         12    1    3    3    0    0  0.36882785666E+01  0.61631698440E+01  0.12434721601E+02  0.14360026553E+02  0.00000000000E+00 0. -1.
</event>
<event>
 7    1  0.2886681E-010  0.4778727E+02  0.7816164E-02  0.1312668E+00
        -11   -1    0    0    0    0  0.00000000000E+00  0.00000000000E+00  0.45593999997E+02  0.45594000000E+02  0.51100000000E-03 0.  1.
         11   -1    0    0    0    0 -0.00000000000E+00 -0.00000000000E+00 -0.45593999997E+02  0.45594000000E+02  0.51100000000E-03 0. -1.
    9900012    2    1    2    0    0 -0.32550375699E+02 -0.25403255808E+02  0.13370537180E+02  0.47787266962E+02  0.19999981385E+02 0.  0.
        -12    1    1    2    0    0  0.32550375699E+02  0.25403255808E+02 -0.13370537180E+02  0.43400733038E+02  0.00000000000E+00 0.  1.
         11    1    3    3    0    0 -0.14490272911E+02 -0.45119562183E+01  0.21131970261E+00  0.15177958171E+02  0.51100000000E-03 0. -1.
        -11    1    3    3    0    0 -0.16088505299E+02 -0.14432374514E+02  0.14078128258E+02  0.25793935961E+02  0.51100000000E-03 0.  1.
        -12    1    3    3    0    0 -0.19715974894E+01 -0.64589250750E+01 -0.91891078068E+00  0.68153728297E+01  0.00000000000E+00 0.  1.
</event>
<event>
 7    1  0.2886681E-010  0.4778727E+02  0.7816164E-02  0.1312668E+00
        -11   -1    0    0    0    0  0.00000000000E+00  0.00000000000E+00  0.45593999997E+02  0.45594000000E+02  0.51100000000E-03 0. -1.
         11   -1    0    0    0    0 -0.00000000000E+00 -0.00000000000E+00 -0.45593999997E+02  0.45594000000E+02  0.51100000000E-03 0.  1.
    9900012    2    1    2    0    0  0.26501244263E+01  0.40183849616E+02 -0.16182040080E+02  0.47787270161E+02  0.19999995971E+02 0.  0.
        -12    1    1    2    0    0 -0.26501244263E+01 -0.40183849616E+02  0.16182040080E+02  0.43400729839E+02  0.00000000000E+00 0.  1.
         11    1    3    3    0    0 -0.42209274924E+01  0.28443991553E+02 -0.78811514300E+01  0.29815925820E+02  0.51100000000E-03 0. -1.
        -11    1    3    3    0    0  0.51723226819E+01  0.37576447826E+01 -0.88819838542E-01  0.63938021132E+01  0.51100000000E-03 0.  1.
         12    1    3    3    0    0  0.16987292368E+01  0.79822132801E+01 -0.82120688114E+01  0.11577542228E+02  0.00000000000E+00 0. -1.
</event>
<event>
 7    1  0.2886681E-010  0.4778727E+02  0.7816164E-02  0.1312668E+00
        -11   -1    0    0    0    0  0.00000000000E+00  0.00000000000E+00  0.45593999997E+02  0.45594000000E+02  0.51100000000E-03 0. -1.
         11   -1    0    0    0    0 -0.00000000000E+00 -0.00000000000E+00 -0.45593999997E+02  0.45594000000E+02  0.51100000000E-03 0.  1.
    9900012    2    1    2    0    0 -0.39345302828E+02  0.17752912173E+02 -0.45171186523E+01  0.47787272976E+02  0.20000008808E+02 0.  0.
        -12    1    1    2    0    0  0.39345302828E+02 -0.17752912173E+02  0.45171186523E+01  0.43400727024E+02  0.00000000000E+00 0.  1.
         11    1    3    3    0    0 -0.21357810324E+02  0.14751727391E+02  0.57233608347E+00  0.25963379821E+02  0.51100000000E-03 0. -1.
        -11    1    3    3    0    0 -0.16071309060E+02 -0.16813704801E+01 -0.37023317351E+01  0.16577733323E+02  0.51100000000E-03 0.  1.
        -12    1    3    3    0    0 -0.19161834445E+01  0.46825552618E+01 -0.13871230006E+01  0.52461598328E+01  0.00000000000E+00 0.  1.
</event>
<event>
 7    1  0.2886681E-010  0.4778728E+02  0.7816164E-02  0.1312668E+00
        -11   -1    0    0    0    0  0.00000000000E+00  0.00000000000E+00  0.45593999997E+02  0.45594000000E+02  0.51100000000E-03 0.  1.
         11   -1    0    0    0    0 -0.00000000000E+00 -0.00000000000E+00 -0.45593999997E+02  0.45594000000E+02  0.51100000000E-03 0. -1.
    9900012    2    1    2    0    0 -0.83080554882E+01  0.37833964384E+02  0.19575242116E+02  0.47787277069E+02  0.20000027470E+02 0.  0.
        -12    1    1    2    0    0  0.83080554882E+01 -0.37833964384E+02 -0.19575242116E+02  0.43400722931E+02  0.00000000000E+00 0.  1.
         11    1    3    3    0    0 -0.67475213559E+01  0.88155122613E+01  0.10245671420E+02  0.15106822432E+02  0.51100000000E-03 0. -1.
        -11    1    3    3    0    0 -0.51107554632E+01  0.55535993372E+01  0.15400054935E+01  0.77028503935E+01  0.51100000000E-03 0.  1.
         12    1    3    3    0    0  0.35502213308E+01  0.23464852785E+02  0.77895652024E+01  0.24977604244E+02  0.00000000000E+00 0. -1.
</event>
<event>
 7    1  0.2886681E-010  0.4778728E+02  0.7816164E-02  0.1312668E+00
        -11   -1    0    0    0    0  0.00000000000E+00  0.00000000000E+00  0.45593999997E+02  0.45594000000E+02  0.51100000000E-03 0.  1.
         11   -1    0    0    0    0 -0.00000000000E+00 -0.00000000000E+00 -0.45593999997E+02  0.45594000000E+02  0.51100000000E-03 0. -1.
    9900012    2    1    2    0    0  0.31601204310E+02  0.94507265249E+01 -0.28207632211E+02  0.47787275805E+02  0.20000021706E+02 0.  0.
        -12    1    1    2    0    0 -0.31601204310E+02 -0.94507265249E+01  0.28207632211E+02  0.43400724195E+02  0.00000000000E+00 0.  1.
         11    1    3    3    0    0  0.47289135255E+01  0.74093145728E+01 -0.10966045414E+02  0.14053992951E+02  0.51100000000E-03 0.  1.
        -11    1    3    3    0    0  0.64855025714E-01  0.67890870148E+00 -0.35235981359E+01  0.35889925165E+01  0.51100000000E-03 0. -1.
         12    1    3    3    0    0  0.26807435759E+02  0.13625032506E+01 -0.13717988661E+02  0.30144290338E+02  0.00000000000E+00 0. -1.
</event>
<event>
 7    1  0.2886681E-010  0.4778727E+02  0.7816164E-02  0.1312668E+00
        -11   -1    0    0    0    0  0.00000000000E+00  0.00000000000E+00  0.45593999997E+02  0.45594000000E+02  0.51100000000E-03 0. -1.
         11   -1    0    0    0    0 -0.00000000000E+00 -0.00000000000E+00 -0.45593999997E+02  0.45594000000E+02  0.51100000000E-03 0.  1.
    9900012    2    1    2    0    0 -0.26899903841E+02  0.30701336378E+02  0.14746070218E+02  0.47787268797E+02  0.19999989755E+02 0.  0.
        -12    1    1    2    0    0  0.26899903841E+02 -0.30701336378E+02 -0.14746070218E+02  0.43400731203E+02  0.00000000000E+00 0.  1.
         11    1    3    3    0    0 -0.57485646033E+01  0.11968969070E+02  0.70010520883E+01  0.15010561156E+02  0.51100000000E-03 0. -1.
        -11    1    3    3    0    0 -0.10734240401E+02  0.30691677964E+01 -0.23780716577E+01  0.11414855804E+02  0.51100000000E-03 0.  1.
        -12    1    3    3    0    0 -0.10417098837E+02  0.15663199511E+02  0.10123089787E+02  0.21361851838E+02  0.00000000000E+00 0.  1.
</event>
<event>
 7    1  0.2886681E-010  0.4778727E+02  0.7816164E-02  0.1312668E+00
        -11   -1    0    0    0    0  0.00000000000E+00  0.00000000000E+00  0.45593999997E+02  0.45594000000E+02  0.51100000000E-03 0. -1.
         11   -1    0    0    0    0 -0.00000000000E+00 -0.00000000000E+00 -0.45593999997E+02  0.45594000000E+02  0.51100000000E-03 0.  1.
    9900012    2    1    2    0    0  0.18193566034E+02  0.39164147722E+02  0.43344160607E+01  0.47787268734E+02  0.19999989467E+02 0.  0.
        -12    1    1    2    0    0 -0.18193566034E+02 -0.39164147722E+02 -0.43344160607E+01  0.43400731266E+02  0.00000000000E+00 0.  1.
         11    1    3    3    0    0  0.80886534264E+01  0.26211823244E+02  0.48821865322E+01  0.27862550810E+02  0.51100000000E-03 0. -1.
        -11    1    3    3    0    0  0.92285473089E+01  0.56680720661E+01 -0.43380756214E+01  0.11666705908E+02  0.51100000000E-03 0.  1.
        -12    1    3    3    0    0  0.87636529816E+00  0.72842524118E+01  0.37903051499E+01  0.82580120164E+01  0.00000000000E+00 0.  1.
</event>
<event>
 7    1  0.2886681E-010  0.4778727E+02  0.7816164E-02  0.1312668E+00
        -11   -1    0    0    0    0  0.00000000000E+00  0.00000000000E+00  0.45593999997E+02  0.45594000000E+02  0.51100000000E-03 0.  1.
         11   -1    0    0    0    0 -0.00000000000E+00 -0.00000000000E+00 -0.45593999997E+02  0.45594000000E+02  0.51100000000E-03 0. -1.
    9900012    2    1    2    0    0 -0.12180217503E+01  0.28388019568E+02 -0.32806403501E+02  0.47787270253E+02  0.19999996389E+02 0.  0.
        -12    1    1    2    0    0  0.12180217503E+01 -0.28388019568E+02  0.32806403501E+02  0.43400729747E+02  0.00000000000E+00 0.  1.
         11    1    3    3    0    0 -0.16000657881E+01  0.54925184801E+01 -0.75216851547E+01  0.94500644235E+01  0.51100000000E-03 0. -1.
        -11    1    3    3    0    0 -0.44766938450E+01  0.17574596132E+01 -0.11938142893E+02  0.12870458736E+02  0.51100000000E-03 0.  1.
        -12    1    3    3    0    0  0.48587378828E+01  0.21138041475E+02 -0.13346575453E+02  0.25466747093E+02  0.00000000000E+00 0.  1.
</event>
<event>
 7    1  0.2886681E-010  0.4778727E+02  0.7816164E-02  0.1312668E+00
        -11   -1    0    0    0    0  0.00000000000E+00  0.00000000000E+00  0.45593999997E+02  0.45594000000E+02  0.51100000000E-03 0.  1.
         11   -1    0    0    0    0 -0.00000000000E+00 -0.00000000000E+00 -0.45593999997E+02  0.45594000000E+02  0.51100000000E-03 0. -1.
    9900012    2    1    2    0    0  0.28699717129E+02  0.29402568918E+02  0.13979930347E+02  0.47787271035E+02  0.19999999955E+02 0.  0.
        -12    1    1    2    0    0 -0.28699717129E+02 -0.29402568918E+02 -0.13979930347E+02  0.43400728965E+02  0.00000000000E+00 0.  1.
         11    1    3    3    0    0  0.35994550849E+01  0.63797243741E+00  0.37222616372E+00  0.36744575542E+01  0.51100000000E-03 0. -1.
        -11    1    3    3    0    0  0.10385205364E+02  0.47436068931E+01 -0.24648294683E+01  0.11680311699E+02  0.51100000000E-03 0.  1.
        -12    1    3    3    0    0  0.14715056679E+02  0.24020989587E+02  0.16072533651E+02  0.32432501782E+02  0.00000000000E+00 0.  1.
</event>
<event>
 7    1  0.2886681E-010  0.4778728E+02  0.7816164E-02  0.1312668E+00
        -11   -1    0    0    0    0  0.00000000000E+00  0.00000000000E+00  0.45593999997E+02  0.45594000000E+02  0.51100000000E-03 0. -1.
         11   -1    0    0    0    0 -0.00000000000E+00 -0.00000000000E+00 -0.45593999997E+02  0.45594000000E+02  0.51100000000E-03 0.  1.
    9900012    2    1    2    0    0 -0.20961728201E+02  0.30790483966E+02  0.22274979202E+02  0.47787278227E+02  0.20000032747E+02 0.  0.
        -12    1    1    2    0    0  0.20961728201E+02 -0.30790483966E+02 -0.22274979202E+02  0.43400721773E+02  0.00000000000E+00 0.  1.
         11    1    3    3    0    0 -0.19860100634E+02  0.15410302617E+02  0.79567975017E+01  0.26366866532E+02  0.51100000000E-03 0.  1.
        -11    1    3    3    0    0 -0.25022838703E+01  0.11981943584E+02  0.10601485387E+02  0.16193205034E+02  0.51100000000E-03 0. -1.
        -12    1    3    3    0    0  0.14006563041E+01  0.33982377650E+01  0.37166963131E+01  0.52272066607E+01  0.00000000000E+00 0.  1.
</event>
<event>
 7    1  0.2886681E-010  0.4778727E+02  0.7816164E-02  0.1312668E+00
        -11   -1    0    0    0    0  0.00000000000E+00  0.00000000000E+00  0.45593999997E+02  0.45594000000E+02  0.51100000000E-03 0. -1.
         11   -1    0    0    0    0 -0.00000000000E+00 -0.00000000000E+00 -0.45593999997E+02  0.45594000000E+02  0.51100000000E-03 0.  1.
    9900012    2    1    2    0    0  0.87034190779E+01 -0.27367211220E+02  0.32540892029E+02  0.47787269503E+02  0.19999992971E+02 0.  0.
        -12    1    1    2    0    0 -0.87034190779E+01  0.27367211220E+02 -0.32540892029E+02  0.43400730497E+02  0.00000000000E+00 0.  1.
         11    1    3    3    0    0  0.12638736112E+01 -0.10936342395E+02  0.45027543494E+01  0.11894358263E+02  0.51100000000E-03 0. -1.
        -11    1    3    3    0    0  0.10783392221E+02 -0.13331085875E+02  0.25336266299E+02  0.30592904220E+02  0.51100000000E-03 0.  1.
        -12    1    3    3    0    0 -0.33438467540E+01 -0.30997829497E+01  0.27018713810E+01  0.53000070197E+01  0.00000000000E+00 0.  1.
</event>
<event>
 7    1  0.2886681E-010  0.4778726E+02  0.7816164E-02  0.1312668E+00
        -11   -1    0    0    0    0  0.00000000000E+00  0.00000000000E+00  0.45593999997E+02  0.45594000000E+02  0.51100000000E-03 0.  1.
         11   -1    0    0    0    0 -0.00000000000E+00 -0.00000000000E+00 -0.45593999997E+02  0.45594000000E+02  0.51100000000E-03 0. -1.
    9900012    2    1    2    0    0  0.41188656787E+02 -0.13551995954E+02  0.18607131144E+01  0.47787259274E+02  0.19999946335E+02 0.  0.
        -12    1    1    2    0    0 -0.41188656787E+02  0.13551995954E+02 -0.18607131144E+01  0.43400740726E+02  0.00000000000E+00 0.  1.
         11    1    3    3    0    0  0.30626187717E+02 -0.93633136163E+01  0.60671210132E+01  0.32595167948E+02  0.51100000000E-03 0. -1.
        -11    1    3    3    0    0  0.17969705631E+01  0.28215260102E+00 -0.49997197092E+01  0.53203299453E+01  0.51100000000E-03 0.  1.
        -12    1    3    3    0    0  0.87654985073E+01 -0.44708349386E+01  0.79331181039E+00  0.98717613807E+01  0.00000000000E+00 0.  1.
</event>
<event>
 7    1  0.2886681E-010  0.4778727E+02  0.7816164E-02  0.1312668E+00
        -11   -1    0    0    0    0  0.00000000000E+00  0.00000000000E+00  0.45593999997E+02  0.45594000000E+02  0.51100000000E-03 0.  1.
         11   -1    0    0    0    0 -0.00000000000E+00 -0.00000000000E+00 -0.45593999997E+02  0.45594000000E+02  0.51100000000E-03 0. -1.
    9900012    2    1    2    0    0 -0.16005859840E+02 -0.37577880234E+02  0.14674415140E+02  0.47787273142E+02  0.20000009563E+02 0.  0.
        -12    1    1    2    0    0  0.16005859840E+02  0.37577880234E+02 -0.14674415140E+02  0.43400726858E+02  0.00000000000E+00 0.  1.
         11    1    3    3    0    0 -0.50035434830E+01  0.88734438206E+00  0.25257607801E+01  0.56747066196E+01  0.51100000000E-03 0. -1.
        -11    1    3    3    0    0 -0.40648149769E+01 -0.20374057357E+02  0.82194936493E+01  0.22342448614E+02  0.51100000000E-03 0.  1.
         12    1    3    3    0    0 -0.69375013804E+01 -0.18091167259E+02  0.39291607110E+01  0.19770117908E+02  0.00000000000E+00 0. -1.
</event>
<event>
 7    1  0.2886681E-010  0.4778721E+02  0.7816164E-02  0.1312668E+00
        -11   -1    0    0    0    0  0.00000000000E+00  0.00000000000E+00  0.45593999997E+02  0.45594000000E+02  0.51100000000E-03 0. -1.
         11   -1    0    0    0    0 -0.00000000000E+00 -0.00000000000E+00 -0.45593999997E+02  0.45594000000E+02  0.51100000000E-03 0.  1.
    9900012    2    1    2    0    0  0.11638266340E+02  0.22978805698E+01  0.41748041244E+02  0.47787211457E+02  0.19999728313E+02 0.  0.
        -12    1    1    2    0    0 -0.11638266340E+02 -0.22978805698E+01 -0.41748041244E+02  0.43400788543E+02  0.00000000000E+00 0.  1.
         11    1    3    3    0    0  0.23458891930E+00  0.66084055238E+01  0.60054623844E+01  0.89326163155E+01  0.51100000000E-03 0. -1.
        -11    1    3    3    0    0  0.55645858072E+01 -0.43929523557E+01  0.88716764364E+01  0.11356464620E+02  0.51100000000E-03 0.  1.
         12    1    3    3    0    0  0.58390916131E+01  0.82427401655E-01  0.26870902423E+02  0.27498130521E+02  0.00000000000E+00 0. -1.
</event>
<event>
 7    1  0.2886681E-010  0.4778727E+02  0.7816164E-02  0.1312668E+00
        -11   -1    0    0    0    0  0.00000000000E+00  0.00000000000E+00  0.45593999997E+02  0.45594000000E+02  0.51100000000E-03 0. -1.
         11   -1    0    0    0    0 -0.00000000000E+00 -0.00000000000E+00 -0.45593999997E+02  0.45594000000E+02  0.51100000000E-03 0.  1.
    9900012    2    1    2    0    0 -0.39974392475E+02 -0.16170156163E+02  0.49190691015E+01  0.47787271378E+02  0.20000001522E+02 0.  0.
        -12    1    1    2    0    0  0.39974392475E+02  0.16170156163E+02 -0.49190691015E+01  0.43400728622E+02  0.00000000000E+00 0.  1.
         11    1    3    3    0    0 -0.34478994741E+02 -0.16450145826E+02  0.41614551967E+01  0.38428193890E+02  0.51100000000E-03 0. -1.
        -11    1    3    3    0    0  0.82970867841E+00  0.24921448500E+01  0.27308687115E+00  0.26407913861E+01  0.51100000000E-03 0.  1.
        -12    1    3    3    0    0 -0.63251064126E+01 -0.22121551861E+01  0.48452703370E+00  0.67182861017E+01  0.00000000000E+00 0.  1.
</event>
<event>
 7    1  0.2886681E-010  0.4778727E+02  0.7816164E-02  0.1312668E+00
        -11   -1    0    0    0    0  0.00000000000E+00  0.00000000000E+00  0.45593999997E+02  0.45594000000E+02  0.51100000000E-03 0. -1.
         11   -1    0    0    0    0 -0.00000000000E+00 -0.00000000000E+00 -0.45593999997E+02  0.45594000000E+02  0.51100000000E-03 0.  1.
    9900012    2    1    2    0    0  0.18416785314E+02 -0.31580164689E+02  0.23390991396E+02  0.47787271186E+02  0.20000000646E+02 0.  0.
        -12    1    1    2    0    0 -0.18416785314E+02  0.31580164689E+02 -0.23390991396E+02  0.43400728814E+02  0.00000000000E+00 0.  1.
         11    1    3    3    0    0  0.94853121631E+01 -0.93149465418E+01  0.17254735906E+02  0.21782224114E+02  0.51100000000E-03 0. -1.
        -11    1    3    3    0    0  0.36240473503E+00 -0.36839353211E+00 -0.12547401266E+01  0.13569908006E+01  0.51100000000E-03 0.  1.
         12    1    3    3    0    0  0.85690684161E+01 -0.21896824615E+02  0.73909956160E+01  0.24648056271E+02  0.00000000000E+00 0. -1.
</event>
<event>
 7    1  0.2886681E-010  0.4778727E+02  0.7816164E-02  0.1312668E+00
        -11   -1    0    0    0    0  0.00000000000E+00  0.00000000000E+00  0.45593999997E+02  0.45594000000E+02  0.51100000000E-03 0.  1.
         11   -1    0    0    0    0 -0.00000000000E+00 -0.00000000000E+00 -0.45593999997E+02  0.45594000000E+02  0.51100000000E-03 0. -1.
    9900012    2    1    2    0    0  0.28774890122E+02 -0.18182621390E+02 -0.26926215065E+02  0.47787273279E+02  0.20000010190E+02 0.  0.
        -12    1    1    2    0    0 -0.28774890122E+02  0.18182621390E+02  0.26926215065E+02  0.43400726721E+02  0.00000000000E+00 0.  1.
         11    1    3    3    0    0  0.19274065095E+02 -0.17734937716E+02 -0.10881128794E+02  0.28362238367E+02  0.51100000000E-03 0.  1.
        -11    1    3    3    0    0  0.73436546964E+01  0.18656160385E+01 -0.12924559699E+02  0.14981789986E+02  0.51100000000E-03 0. -1.
        -12    1    3    3    0    0  0.21571703301E+01 -0.23132997121E+01 -0.31205265718E+01  0.44432449265E+01  0.00000000000E+00 0.  1.
</event>
<event>
 7    1  0.2886681E-010  0.4778727E+02  0.7816164E-02  0.1312668E+00
        -11   -1    0    0    0    0  0.00000000000E+00  0.00000000000E+00  0.45593999997E+02  0.45594000000E+02  0.51100000000E-03 0.  1.
         11   -1    0    0    0    0 -0.00000000000E+00 -0.00000000000E+00 -0.45593999997E+02  0.45594000000E+02  0.51100000000E-03 0. -1.
    9900012    2    1    2    0    0  0.11625839953E+01  0.11804369733E+01 -0.43369091942E+02  0.47787272254E+02  0.20000005515E+02 0.  0.
        -12    1    1    2    0    0 -0.11625839953E+01 -0.11804369733E+01  0.43369091942E+02  0.43400727746E+02  0.00000000000E+00 0.  1.
         11    1    3    3    0    0  0.58638799793E+00  0.42886016900E+01 -0.35596369365E+02  0.35858575928E+02  0.51100000000E-03 0. -1.
        -11    1    3    3    0    0  0.38100549642E+01 -0.29454048554E+00 -0.63519149341E+01  0.74128332315E+01  0.51100000000E-03 0.  1.
         12    1    3    3    0    0 -0.32338589668E+01 -0.28136242312E+01 -0.14208076433E+01  0.45158630948E+01  0.00000000000E+00 0. -1.
</event>
<event>
 7    1  0.2886681E-010  0.4778727E+02  0.7816164E-02  0.1312668E+00
        -11   -1    0    0    0    0  0.00000000000E+00  0.00000000000E+00  0.45593999997E+02  0.45594000000E+02  0.51100000000E-03 0.  1.
         11   -1    0    0    0    0 -0.00000000000E+00 -0.00000000000E+00 -0.45593999997E+02  0.45594000000E+02  0.51100000000E-03 0. -1.
    9900012    2    1    2    0    0  0.29564121384E+02 -0.20242429757E+02 -0.24491424069E+02  0.47787273179E+02  0.20000009732E+02 0.  0.
        -12    1    1    2    0    0 -0.29564121384E+02  0.20242429757E+02  0.24491424069E+02  0.43400726821E+02  0.00000000000E+00 0.  1.
         11    1    3    3    0    0  0.22588175887E+02 -0.20504055556E+02 -0.19693849068E+02  0.36311013143E+02  0.51100000000E-03 0.  1.
        -11    1    3    3    0    0  0.36041115777E+01  0.30212444814E+01 -0.53052243352E+01  0.70896363792E+01  0.51100000000E-03 0. -1.
         12    1    3    3    0    0  0.33718339198E+01 -0.27596186827E+01  0.50764933466E+00  0.43866236565E+01  0.00000000000E+00 0. -1.
</event>
<event>
 7    1  0.2886681E-010  0.4778727E+02  0.7816164E-02  0.1312668E+00
        -11   -1    0    0    0    0  0.00000000000E+00  0.00000000000E+00  0.45593999997E+02  0.45594000000E+02  0.51100000000E-03 0.  1.
         11   -1    0    0    0    0 -0.00000000000E+00 -0.00000000000E+00 -0.45593999997E+02  0.45594000000E+02  0.51100000000E-03 0. -1.
    9900012    2    1    2    0    0 -0.41227133206E+02 -0.10877480339E+02  0.81010676664E+01  0.47787269727E+02  0.19999993993E+02 0.  0.
        -12    1    1    2    0    0  0.41227133206E+02  0.10877480339E+02 -0.81010676664E+01  0.43400730273E+02  0.00000000000E+00 0.  1.
         11    1    3    3    0    0 -0.27061114191E+02 -0.15114400955E+02  0.88715095254E+01  0.32240544335E+02  0.51100000000E-03 0. -1.
        -11    1    3    3    0    0 -0.46059397617E+01  0.24527938499E+01 -0.22988092876E+01  0.57022279120E+01  0.51100000000E-03 0.  1.
         12    1    3    3    0    0 -0.95600792534E+01  0.17841267656E+01  0.15283674285E+01  0.98444974805E+01  0.00000000000E+00 0. -1.
</event>
<event>
 7    1  0.2886681E-010  0.4778727E+02  0.7816164E-02  0.1312668E+00
        -11   -1    0    0    0    0  0.00000000000E+00  0.00000000000E+00  0.45593999997E+02  0.45594000000E+02  0.51100000000E-03 0. -1.
         11   -1    0    0    0    0 -0.00000000000E+00 -0.00000000000E+00 -0.45593999997E+02  0.45594000000E+02  0.51100000000E-03 0.  1.
    9900012    2    1    2    0    0  0.81618676119E+01 -0.13888987186E+02  0.40300162337E+02  0.47787272674E+02  0.20000007432E+02 0.  0.
        -12    1    1    2    0    0 -0.81618676119E+01  0.13888987186E+02 -0.40300162337E+02  0.43400727326E+02  0.00000000000E+00 0.  1.
         11    1    3    3    0    0  0.36610602291E+01 -0.16575056999E+02  0.25639386003E+02  0.30749211232E+02  0.51100000000E-03 0. -1.
        -11    1    3    3    0    0  0.54833308930E+01  0.22385422551E+01  0.14807923298E+02  0.15948435088E+02  0.51100000000E-03 0.  1.
         12    1    3    3    0    0 -0.98252351023E+00  0.44752755822E+00 -0.14714696270E+00  0.10896263544E+01  0.00000000000E+00 0. -1.
</event>
<event>
 7    1  0.2886681E-010  0.4778727E+02  0.7816164E-02  0.1312668E+00
        -11   -1    0    0    0    0  0.00000000000E+00  0.00000000000E+00  0.45593999997E+02  0.45594000000E+02  0.51100000000E-03 0. -1.
         11   -1    0    0    0    0 -0.00000000000E+00 -0.00000000000E+00 -0.45593999997E+02  0.45594000000E+02  0.51100000000E-03 0.  1.
    9900012    2    1    2    0    0 -0.37999436785E+02  0.79371273529E+00  0.20953182003E+02  0.47787274062E+02  0.20000013757E+02 0.  0.
        -12    1    1    2    0    0  0.37999436785E+02 -0.79371273529E+00 -0.20953182003E+02  0.43400725938E+02  0.00000000000E+00 0.  1.
         11    1    3    3    0    0  0.69851020400E+00  0.68749621634E+00  0.21600324249E+01  0.23719839566E+01  0.51100000000E-03 0. -1.
        -11    1    3    3    0    0 -0.20076225688E+02 -0.71577219178E+01  0.86733216973E+01  0.23011178381E+02  0.51100000000E-03 0.  1.
        -12    1    3    3    0    0 -0.18621721301E+02  0.72639384368E+01  0.10119827881E+02  0.22404111725E+02  0.00000000000E+00 0.  1.
</event>
<event>
 7    1  0.2886681E-010  0.4778726E+02  0.7816164E-02  0.1312668E+00
        -11   -1    0    0    0    0  0.00000000000E+00  0.00000000000E+00  0.45593999997E+02  0.45594000000E+02  0.51100000000E-03 0. -1.
         11   -1    0    0    0    0 -0.00000000000E+00 -0.00000000000E+00 -0.45593999997E+02  0.45594000000E+02  0.51100000000E-03 0.  1.
    9900012    2    1    2    0    0 -0.23011824674E+02  0.22845594545E+02  0.28847159631E+02  0.47787264019E+02  0.19999967970E+02 0.  0.
        -12    1    1    2    0    0  0.23011824674E+02 -0.22845594545E+02 -0.28847159631E+02  0.43400735981E+02  0.00000000000E+00 0.  1.
         11    1    3    3    0    0 -0.16783953053E+02  0.14324969916E+02  0.27094790972E+02  0.34943290361E+02  0.51100000000E-03 0. -1.
        -11    1    3    3    0    0 -0.18467646884E+01  0.49346010218E+01  0.41387387416E+01  0.66999989322E+01  0.51100000000E-03 0.  1.
         12    1    3    3    0    0 -0.43811069320E+01  0.35860236070E+01 -0.23863700832E+01  0.61439747260E+01  0.00000000000E+00 0. -1.
</event>
<event>
 7    1  0.2886681E-010  0.4778727E+02  0.7816164E-02  0.1312668E+00
        -11   -1    0    0    0    0  0.00000000000E+00  0.00000000000E+00  0.45593999997E+02  0.45594000000E+02  0.51100000000E-03 0.  1.
         11   -1    0    0    0    0 -0.00000000000E+00 -0.00000000000E+00 -0.45593999997E+02  0.45594000000E+02  0.51100000000E-03 0. -1.
    9900012    2    1    2    0    0 -0.89089249125E+01  0.41330349205E+02  0.98008553538E+01  0.47787268737E+02  0.19999989480E+02 0.  0.
        -12    1    1    2    0    0  0.89089249125E+01 -0.41330349205E+02 -0.98008553538E+01  0.43400731263E+02  0.00000000000E+00 0.  1.
         11    1    3    3    0    0 -0.79837187633E+01  0.14616733329E+02  0.10527805148E+02  0.19703383973E+02  0.51100000000E-03 0.  1.
        -11    1    3    3    0    0 -0.36491634633E+01  0.16671450847E+02 -0.32605079562E+01  0.17374826034E+02  0.51100000000E-03 0. -1.
         12    1    3    3    0    0  0.27239573141E+01  0.10042165029E+02  0.25335581622E+01  0.10709058730E+02  0.00000000000E+00 0. -1.
</event>
<event>
 7    1  0.2886681E-010  0.4778728E+02  0.7816164E-02  0.1312668E+00
        -11   -1    0    0    0    0  0.00000000000E+00  0.00000000000E+00  0.45593999997E+02  0.45594000000E+02  0.51100000000E-03 0.  1.
         11   -1    0    0    0    0 -0.00000000000E+00 -0.00000000000E+00 -0.45593999997E+02  0.45594000000E+02  0.51100000000E-03 0. -1.
    9900012    2    1    2    0    0 -0.22629580177E+02 -0.14255441445E+02 -0.34180503648E+02  0.47787281810E+02  0.20000049082E+02 0.  0.
        -12    1    1    2    0    0  0.22629580177E+02  0.14255441445E+02  0.34180503648E+02  0.43400718190E+02  0.00000000000E+00 0.  1.
         11    1    3    3    0    0 -0.27795348265E+01 -0.12599932704E+01 -0.10499904963E+02  0.10934413628E+02  0.51100000000E-03 0. -1.
        -11    1    3    3    0    0 -0.18101402822E+02 -0.15488121994E+02 -0.23969082197E+02  0.33794372440E+02  0.51100000000E-03 0.  1.
        -12    1    3    3    0    0 -0.17486425292E+01  0.24926738188E+01  0.28848351188E+00  0.30584957411E+01  0.00000000000E+00 0.  1.
</event>
<event>
 7    1  0.2886681E-010  0.4778727E+02  0.7816164E-02  0.1312668E+00
        -11   -1    0    0    0    0  0.00000000000E+00  0.00000000000E+00  0.45593999997E+02  0.45594000000E+02  0.51100000000E-03 0.  1.
         11   -1    0    0    0    0 -0.00000000000E+00 -0.00000000000E+00 -0.45593999997E+02  0.45594000000E+02  0.51100000000E-03 0. -1.
    9900012    2    1    2    0    0  0.24684742433E+01  0.33348812716E+02 -0.27665619907E+02  0.47787271901E+02  0.20000003907E+02 0.  0.
        -12    1    1    2    0    0 -0.24684742433E+01 -0.33348812716E+02  0.27665619907E+02  0.43400728099E+02  0.00000000000E+00 0.  1.
         11    1    3    3    0    0  0.15277520639E+01  0.26672010383E+01 -0.12067426357E+02  0.12452741341E+02  0.51100000000E-03 0. -1.
        -11    1    3    3    0    0  0.27624036718E+01  0.12993029391E+02 -0.32194308621E+01  0.13668007248E+02  0.51100000000E-03 0.  1.
        -12    1    3    3    0    0 -0.18216814924E+01  0.17688582287E+02 -0.12378762687E+02  0.21666523313E+02  0.00000000000E+00 0.  1.
</event>
<event>
 7    1  0.2886681E-010  0.4778728E+02  0.7816164E-02  0.1312668E+00
        -11   -1    0    0    0    0  0.00000000000E+00  0.00000000000E+00  0.45593999997E+02  0.45594000000E+02  0.51100000000E-03 0.  1.
         11   -1    0    0    0    0 -0.00000000000E+00 -0.00000000000E+00 -0.45593999997E+02  0.45594000000E+02  0.51100000000E-03 0. -1.
    9900012    2    1    2    0    0  0.18185492369E+02 -0.62688112549E+01 -0.38905175675E+02  0.47787276255E+02  0.20000023758E+02 0.  0.
        -12    1    1    2    0    0 -0.18185492369E+02  0.62688112549E+01  0.38905175675E+02  0.43400723745E+02  0.00000000000E+00 0.  1.
         11    1    3    3    0    0  0.12803860361E+02 -0.34507224122E+00 -0.34367785436E+02  0.36677003572E+02  0.51100000000E-03 0. -1.
        -11    1    3    3    0    0  0.23618743147E+01 -0.63809030178E+01 -0.42956560402E+01  0.80465542114E+01  0.51100000000E-03 0.  1.
        -12    1    3    3    0    0  0.30197576932E+01  0.45716400412E+00 -0.24173419930E+00  0.30637184719E+01  0.00000000000E+00 0.  1.
</event>
<event>
 7    1  0.2886681E-010  0.4778727E+02  0.7816164E-02  0.1312668E+00
        -11   -1    0    0    0    0  0.00000000000E+00  0.00000000000E+00  0.45593999997E+02  0.45594000000E+02  0.51100000000E-03 0.  1.
         11   -1    0    0    0    0 -0.00000000000E+00 -0.00000000000E+00 -0.45593999997E+02  0.45594000000E+02  0.51100000000E-03 0. -1.
    9900012    2    1    2    0    0  0.20224305773E+02 -0.23875789067E+02 -0.30075696518E+02  0.47787269953E+02  0.19999995023E+02 0.  0.
        -12    1    1    2    0    0 -0.20224305773E+02  0.23875789067E+02  0.30075696518E+02  0.43400730047E+02  0.00000000000E+00 0.  1.
         11    1    3    3    0    0  0.13724058973E+02 -0.19816029998E+02 -0.22044739610E+02  0.32664895290E+02  0.51100000000E-03 0.  1.
        -11    1    3    3    0    0  0.49863306262E+00  0.29831337394E+01 -0.40362549602E+01  0.50437165070E+01  0.51100000000E-03 0. -1.
        -12    1    3    3    0    0  0.60016137377E+01 -0.70428928082E+01 -0.39947019480E+01  0.10078658156E+02  0.00000000000E+00 0.  1.
</event>
<event>
 7    1  0.2886681E-010  0.4778727E+02  0.7816164E-02  0.1312668E+00
        -11   -1    0    0    0    0  0.00000000000E+00  0.00000000000E+00  0.45593999997E+02  0.45594000000E+02  0.51100000000E-03 0.  1.
         11   -1    0    0    0    0 -0.00000000000E+00 -0.00000000000E+00 -0.45593999997E+02  0.45594000000E+02  0.51100000000E-03 0. -1.
    9900012    2    1    2    0    0  0.17887081916E+02  0.37282844364E+02  0.13178206670E+02  0.47787270578E+02  0.19999997874E+02 0.  0.
        -12    1    1    2    0    0 -0.17887081916E+02 -0.37282844364E+02 -0.13178206670E+02  0.43400729422E+02  0.00000000000E+00 0.  1.
         11    1    3    3    0    0  0.31145784614E+01  0.17750889711E+02  0.36369194465E+01  0.18385371029E+02  0.51100000000E-03 0. -1.
        -11    1    3    3    0    0  0.11216468372E+02  0.67330934747E+01  0.61203117022E-01  0.13082333758E+02  0.51100000000E-03 0.  1.
        -12    1    3    3    0    0  0.35560350825E+01  0.12798861177E+02  0.94800841067E+01  0.16319565791E+02  0.00000000000E+00 0.  1.
</event>
<event>
 7    1  0.2886681E-010  0.4778727E+02  0.7816164E-02  0.1312668E+00
        -11   -1    0    0    0    0  0.00000000000E+00  0.00000000000E+00  0.45593999997E+02  0.45594000000E+02  0.51100000000E-03 0.  1.
         11   -1    0    0    0    0 -0.00000000000E+00 -0.00000000000E+00 -0.45593999997E+02  0.45594000000E+02  0.51100000000E-03 0. -1.
    9900012    2    1    2    0    0  0.22753954054E+02  0.11532223988E+02 -0.35112510986E+02  0.47787273705E+02  0.20000012131E+02 0.  0.
        -12    1    1    2    0    0 -0.22753954054E+02 -0.11532223988E+02  0.35112510986E+02  0.43400726295E+02  0.00000000000E+00 0.  1.
         11    1    3    3    0    0  0.14684354558E+02  0.34677636958E+01 -0.20000206312E+02  0.25053221482E+02  0.51100000000E-03 0. -1.
        -11    1    3    3    0    0  0.11185748983E-01 -0.11589870508E+01  0.16238039510E+01  0.19950227160E+01  0.51100000000E-03 0.  1.
        -12    1    3    3    0    0  0.80584137466E+01  0.92234473429E+01 -0.16736108624E+02  0.20739029507E+02  0.00000000000E+00 0.  1.
</event>
<event>
 7    1  0.2886681E-010  0.4778728E+02  0.7816164E-02  0.1312668E+00
        -11   -1    0    0    0    0  0.00000000000E+00  0.00000000000E+00  0.45593999997E+02  0.45594000000E+02  0.51100000000E-03 0.  1.
         11   -1    0    0    0    0 -0.00000000000E+00 -0.00000000000E+00 -0.45593999997E+02  0.45594000000E+02  0.51100000000E-03 0. -1.
    9900012    2    1    2    0    0  0.17745761218E+02  0.34784255340E+02 -0.18941122619E+02  0.47787278960E+02  0.20000036088E+02 0.  0.
        -12    1    1    2    0    0 -0.17745761218E+02 -0.34784255340E+02  0.18941122619E+02  0.43400721040E+02  0.00000000000E+00 0.  1.
         11    1    3    3    0    0  0.57766170816E+01  0.24783424719E+02 -0.87949196537E+01  0.26924673771E+02  0.51100000000E-03 0. -1.
        -11    1    3    3    0    0  0.97303599686E+01  0.62587346895E+01 -0.11483993057E+02  0.16301342332E+02  0.51100000000E-03 0.  1.
         12    1    3    3    0    0  0.22387841677E+01  0.37420959319E+01  0.13377900922E+01  0.45612628563E+01  0.00000000000E+00 0. -1.
</event>
<event>
 7    1  0.2886681E-010  0.4778724E+02  0.7816164E-02  0.1312668E+00
        -11   -1    0    0    0    0  0.00000000000E+00  0.00000000000E+00  0.45593999997E+02  0.45594000000E+02  0.51100000000E-03 0.  1.
         11   -1    0    0    0    0 -0.00000000000E+00 -0.00000000000E+00 -0.45593999997E+02  0.45594000000E+02  0.51100000000E-03 0. -1.
    9900012    2    1    2    0    0  0.10414166828E+02  0.83328536011E+01 -0.41300543317E+02  0.47787237356E+02  0.19999846400E+02 0.  0.
        -12    1    1    2    0    0 -0.10414166828E+02 -0.83328536011E+01  0.41300543317E+02  0.43400762644E+02  0.00000000000E+00 0.  1.
         11    1    3    3    0    0  0.78739633356E+01  0.90056974993E+01 -0.13586484852E+02  0.18102332915E+02  0.51100000000E-03 0. -1.
        -11    1    3    3    0    0  0.25356389053E+01  0.18941718928E+01 -0.17941192299E+01  0.36381610588E+01  0.51100000000E-03 0.  1.
         12    1    3    3    0    0  0.45645868936E-02 -0.25670157910E+01 -0.25919939234E+02  0.26046743382E+02  0.00000000000E+00 0. -1.
</event>
<event>
 7    1  0.2886681E-010  0.4778727E+02  0.7816164E-02  0.1312668E+00
        -11   -1    0    0    0    0  0.00000000000E+00  0.00000000000E+00  0.45593999997E+02  0.45594000000E+02  0.51100000000E-03 0. -1.
         11   -1    0    0    0    0 -0.00000000000E+00 -0.00000000000E+00 -0.45593999997E+02  0.45594000000E+02  0.51100000000E-03 0.  1.
    9900012    2    1    2    0    0 -0.15899462415E+02  0.39090289755E+02 -0.10138021626E+02  0.47787272578E+02  0.20000006993E+02 0.  0.
        -12    1    1    2    0    0  0.15899462415E+02 -0.39090289755E+02  0.10138021626E+02  0.43400727422E+02  0.00000000000E+00 0.  1.
         11    1    3    3    0    0 -0.25641601207E+01  0.23618978155E+02 -0.12594467648E+02  0.26889619963E+02  0.51100000000E-03 0. -1.
        -11    1    3    3    0    0 -0.54270440580E+01  0.70866256893E+01  0.28358474071E+01  0.93656340760E+01  0.51100000000E-03 0.  1.
         12    1    3    3    0    0 -0.79082582362E+01  0.83846859116E+01 -0.37940138585E+00  0.11532018539E+02  0.00000000000E+00 0. -1.
</event>
<event>
 7    1  0.2886681E-010  0.4778727E+02  0.7816164E-02  0.1312668E+00
        -11   -1    0    0    0    0  0.00000000000E+00  0.00000000000E+00  0.45593999997E+02  0.45594000000E+02  0.51100000000E-03 0.  1.
         11   -1    0    0    0    0 -0.00000000000E+00 -0.00000000000E+00 -0.45593999997E+02  0.45594000000E+02  0.51100000000E-03 0. -1.
    9900012    2    1    2    0    0  0.28190870047E+02 -0.69719547087E+01 -0.32253528757E+02  0.47787269318E+02  0.19999992130E+02 0.  0.
        -12    1    1    2    0    0 -0.28190870047E+02  0.69719547087E+01  0.32253528757E+02  0.43400730682E+02  0.00000000000E+00 0.  1.
         11    1    3    3    0    0  0.36481743522E+01  0.14436632290E+01 -0.77256087576E+01  0.86647775827E+01  0.51100000000E-03 0. -1.
        -11    1    3    3    0    0  0.79079719480E+01  0.24999584420E+01 -0.14822853245E+02  0.16985369915E+02  0.51100000000E-03 0.  1.
        -12    1    3    3    0    0  0.16634723747E+02 -0.10915576380E+02 -0.97050667536E+01  0.22137121821E+02  0.00000000000E+00 0.  1.
</event>
<event>
 7    1  0.2886681E-010  0.4778726E+02  0.7816164E-02  0.1312668E+00
        -11   -1    0    0    0    0  0.00000000000E+00  0.00000000000E+00  0.45593999997E+02  0.45594000000E+02  0.51100000000E-03 0.  1.
         11   -1    0    0    0    0 -0.00000000000E+00 -0.00000000000E+00 -0.45593999997E+02  0.45594000000E+02  0.51100000000E-03 0. -1.
    9900012    2    1    2    0    0  0.23445557132E+02 -0.33852357903E+02  0.13709404224E+02  0.47787262115E+02  0.19999959286E+02 0.  0.
        -12    1    1    2    0    0 -0.23445557132E+02  0.33852357903E+02 -0.13709404224E+02  0.43400737885E+02  0.00000000000E+00 0.  1.
         11    1    3    3    0    0  0.14095315672E+02 -0.86478975125E+01  0.51854216565E+01  0.17330685310E+02  0.51100000000E-03 0. -1.
        -11    1    3    3    0    0  0.57750512407E+01 -0.24663049434E+02  0.59544183411E+01  0.26020613410E+02  0.51100000000E-03 0.  1.
        -12    1    3    3    0    0  0.35751902186E+01 -0.54141095656E+00  0.25695642266E+01  0.44359633946E+01  0.00000000000E+00 0.  1.
</event>
<event>
 7    1  0.2886681E-010  0.4778727E+02  0.7816164E-02  0.1312668E+00
        -11   -1    0    0    0    0  0.00000000000E+00  0.00000000000E+00  0.45593999997E+02  0.45594000000E+02  0.51100000000E-03 0.  1.
         11   -1    0    0    0    0 -0.00000000000E+00 -0.00000000000E+00 -0.45593999997E+02  0.45594000000E+02  0.51100000000E-03 0. -1.
    9900012    2    1    2    0    0  0.79249726634E+01 -0.16364016570E+02 -0.39408592509E+02  0.47787269665E+02  0.19999993711E+02 0.  0.
        -12    1    1    2    0    0 -0.79249726634E+01  0.16364016570E+02  0.39408592509E+02  0.43400730335E+02  0.00000000000E+00 0.  1.
         11    1    3    3    0    0  0.79739062738E+01 -0.14899508106E+02 -0.39919337056E+02  0.43348956092E+02  0.51100000000E-03 0. -1.
        -11    1    3    3    0    0 -0.40888208384E+00 -0.23852207947E+01  0.16507263065E+01  0.29293959101E+01  0.51100000000E-03 0.  1.
         12    1    3    3    0    0  0.35994847341E+00  0.92071233077E+00 -0.11399817604E+01  0.15089176629E+01  0.00000000000E+00 0. -1.
</event>
<event>
 7    1  0.2886681E-010  0.4778727E+02  0.7816164E-02  0.1312668E+00
        -11   -1    0    0    0    0  0.00000000000E+00  0.00000000000E+00  0.45593999997E+02  0.45594000000E+02  0.51100000000E-03 0.  1.
         11   -1    0    0    0    0 -0.00000000000E+00 -0.00000000000E+00 -0.45593999997E+02  0.45594000000E+02  0.51100000000E-03 0. -1.
    9900012    2    1    2    0    0  0.18361251021E+02  0.92566489366E+01 -0.38220443824E+02  0.47787269422E+02  0.19999992602E+02 0.  0.
        -12    1    1    2    0    0 -0.18361251021E+02 -0.92566489366E+01  0.38220443824E+02  0.43400730578E+02  0.00000000000E+00 0.  1.
         11    1    3    3    0    0  0.11312424919E+02  0.11042534450E+02 -0.23719633082E+02  0.28504903410E+02  0.51100000000E-03 0. -1.
        -11    1    3    3    0    0  0.61894776598E+01 -0.38685796746E+01 -0.15251070779E+02  0.16907711335E+02  0.51100000000E-03 0.  1.
        -12    1    3    3    0    0  0.85934844261E+00  0.20826941608E+01  0.75026003682E+00  0.23746546772E+01  0.00000000000E+00 0.  1.
</event>
<event>
 7    1  0.2886681E-010  0.4778727E+02  0.7816164E-02  0.1312668E+00
        -11   -1    0    0    0    0  0.00000000000E+00  0.00000000000E+00  0.45593999997E+02  0.45594000000E+02  0.51100000000E-03 0.  1.
         11   -1    0    0    0    0 -0.00000000000E+00 -0.00000000000E+00 -0.45593999997E+02  0.45594000000E+02  0.51100000000E-03 0. -1.
    9900012    2    1    2    0    0 -0.41736464737E+02 -0.83311069933E+01 -0.85019627559E+01  0.47787271858E+02  0.20000003712E+02 0.  0.
        -12    1    1    2    0    0  0.41736464737E+02  0.83311069933E+01  0.85019627559E+01  0.43400728142E+02  0.00000000000E+00 0.  1.
         11    1    3    3    0    0 -0.29254458806E+02 -0.26174097626E+01 -0.10428123072E+02  0.31167610511E+02  0.51100000000E-03 0. -1.
        -11    1    3    3    0    0 -0.41603750258E+00 -0.43119343345E+01  0.93850613834E+00  0.44324551822E+01  0.51100000000E-03 0.  1.
         12    1    3    3    0    0 -0.12065968429E+02 -0.14017628961E+01  0.98765417778E+00  0.12187206165E+02  0.00000000000E+00 0. -1.
</event>
<event>
 7    1  0.2886681E-010  0.4778727E+02  0.7816164E-02  0.1312668E+00
        -11   -1    0    0    0    0  0.00000000000E+00  0.00000000000E+00  0.45593999997E+02  0.45594000000E+02  0.51100000000E-03 0.  1.
         11   -1    0    0    0    0 -0.00000000000E+00 -0.00000000000E+00 -0.45593999997E+02  0.45594000000E+02  0.51100000000E-03 0. -1.
    9900012    2    1    2    0    0 -0.48453949327E+01  0.33044659733E+02 -0.27716356310E+02  0.47787265029E+02  0.19999972573E+02 0.  0.
        -12    1    1    2    0    0  0.48453949327E+01 -0.33044659733E+02  0.27716356310E+02  0.43400734971E+02  0.00000000000E+00 0.  1.
         11    1    3    3    0    0 -0.76182346902E+00  0.13322894920E+02 -0.65113715328E+00  0.13360534567E+02  0.51100000000E-03 0. -1.
        -11    1    3    3    0    0  0.11106261932E+01  0.81867074703E+01 -0.13890424205E+02  0.16161669301E+02  0.51100000000E-03 0.  1.
         12    1    3    3    0    0 -0.51941976569E+01  0.11535057342E+02 -0.13174794952E+02  0.18265061161E+02  0.00000000000E+00 0. -1.
</event>
<event>
 7    1  0.2886681E-010  0.4778727E+02  0.7816164E-02  0.1312668E+00
        -11   -1    0    0    0    0  0.00000000000E+00  0.00000000000E+00  0.45593999997E+02  0.45594000000E+02  0.51100000000E-03 0.  1.
         11   -1    0    0    0    0 -0.00000000000E+00 -0.00000000000E+00 -0.45593999997E+02  0.45594000000E+02  0.51100000000E-03 0. -1.
    9900012    2    1    2    0    0  0.21323821030E+02 -0.24305902262E+02 -0.28950666198E+02  0.47787270727E+02  0.19999998555E+02 0.  0.
        -12    1    1    2    0    0 -0.21323821030E+02  0.24305902262E+02  0.28950666198E+02  0.43400729273E+02  0.00000000000E+00 0.  1.
         11    1    3    3    0    0  0.13089225676E+02 -0.10639065398E+01 -0.78289608736E+01  0.15288961853E+02  0.51100000000E-03 0. -1.
        -11    1    3    3    0    0  0.56787309300E+01 -0.15048565237E+02 -0.12985774206E+02  0.20672146300E+02  0.51100000000E-03 0.  1.
         12    1    3    3    0    0  0.25558644239E+01 -0.81934304847E+01 -0.81359311187E+01  0.11826162574E+02  0.00000000000E+00 0. -1.
</event>
<event>
 7    1  0.2886681E-010  0.4778727E+02  0.7816164E-02  0.1312668E+00
        -11   -1    0    0    0    0  0.00000000000E+00  0.00000000000E+00  0.45593999997E+02  0.45594000000E+02  0.51100000000E-03 0.  1.
         11   -1    0    0    0    0 -0.00000000000E+00 -0.00000000000E+00 -0.45593999997E+02  0.45594000000E+02  0.51100000000E-03 0. -1.
    9900012    2    1    2    0    0 -0.59814766481E+01  0.11991881817E+02 -0.41280022763E+02  0.47787267613E+02  0.19999984356E+02 0.  0.
        -12    1    1    2    0    0  0.59814766481E+01 -0.11991881817E+02  0.41280022763E+02  0.43400732387E+02  0.00000000000E+00 0.  1.
         11    1    3    3    0    0 -0.83920231886E+00  0.62425797344E+01 -0.30891860203E+01  0.70154923420E+01  0.51100000000E-03 0.  1.
        -11    1    3    3    0    0 -0.20859436216E+01 -0.17493715759E+01 -0.25965763769E+02  0.26108089744E+02  0.51100000000E-03 0. -1.
         12    1    3    3    0    0 -0.30563307076E+01  0.74986736586E+01 -0.12225072973E+02  0.14663685527E+02  0.00000000000E+00 0. -1.
</event>
<event>
 7    1  0.2886681E-010  0.4778727E+02  0.7816164E-02  0.1312668E+00
        -11   -1    0    0    0    0  0.00000000000E+00  0.00000000000E+00  0.45593999997E+02  0.45594000000E+02  0.51100000000E-03 0.  1.
         11   -1    0    0    0    0 -0.00000000000E+00 -0.00000000000E+00 -0.45593999997E+02  0.45594000000E+02  0.51100000000E-03 0. -1.
    9900012    2    1    2    0    0 -0.13023314482E+02 -0.15059085807E+02 -0.38564755480E+02  0.47787272464E+02  0.20000006470E+02 0.  0.
        -12    1    1    2    0    0  0.13023314482E+02  0.15059085807E+02  0.38564755480E+02  0.43400727536E+02  0.00000000000E+00 0.  1.
         11    1    3    3    0    0 -0.82706186935E+01 -0.80027102790E+01 -0.53111979860E+01  0.12674988351E+02  0.51100000000E-03 0. -1.
        -11    1    3    3    0    0  0.18593391931E+01 -0.21110894589E+01 -0.11644419035E+02  0.11979413002E+02  0.51100000000E-03 0.  1.
        -12    1    3    3    0    0 -0.66120349815E+01 -0.49452860696E+01 -0.21609138459E+02  0.23132871111E+02  0.00000000000E+00 0.  1.
</event>
<event>
 7    1  0.2886681E-010  0.4778728E+02  0.7816164E-02  0.1312668E+00
        -11   -1    0    0    0    0  0.00000000000E+00  0.00000000000E+00  0.45593999997E+02  0.45594000000E+02  0.51100000000E-03 0.  1.
         11   -1    0    0    0    0 -0.00000000000E+00 -0.00000000000E+00 -0.45593999997E+02  0.45594000000E+02  0.51100000000E-03 0. -1.
    9900012    2    1    2    0    0  0.13525081777E+02 -0.73009525439E+00 -0.41233018568E+02  0.47787277697E+02  0.20000030333E+02 0.  0.
        -12    1    1    2    0    0 -0.13525081777E+02  0.73009525439E+00  0.41233018568E+02  0.43400722303E+02  0.00000000000E+00 0.  1.
         11    1    3    3    0    0 -0.31894058686E+01 -0.49307607015E+01 -0.13899562346E+02  0.15089153209E+02  0.51100000000E-03 0. -1.
        -11    1    3    3    0    0  0.65776724917E+01  0.41930754791E+01 -0.12385087908E+02  0.14636873304E+02  0.51100000000E-03 0.  1.
         12    1    3    3    0    0  0.10136815154E+02  0.75899680091E-02 -0.14948368314E+02  0.18061251183E+02  0.00000000000E+00 0. -1.
</event>
<event>
 7    1  0.2886681E-010  0.4778728E+02  0.7816164E-02  0.1312668E+00
        -11   -1    0    0    0    0  0.00000000000E+00  0.00000000000E+00  0.45593999997E+02  0.45594000000E+02  0.51100000000E-03 0. -1.
         11   -1    0    0    0    0 -0.00000000000E+00 -0.00000000000E+00 -0.45593999997E+02  0.45594000000E+02  0.51100000000E-03 0.  1.
    9900012    2    1    2    0    0  0.28207789157E+02 -0.50145435192E+01  0.32600568633E+02  0.47787284672E+02  0.20000062132E+02 0.  0.
        -12    1    1    2    0    0 -0.28207789157E+02  0.50145435192E+01 -0.32600568633E+02  0.43400715328E+02  0.00000000000E+00 0.  1.
         11    1    3    3    0    0  0.69758270870E+01 -0.74823209933E+01  0.16093614306E+02  0.19069654236E+02  0.51100000000E-03 0. -1.
        -11    1    3    3    0    0  0.13358612029E+02  0.15132390630E+01  0.42153248575E+01  0.14089406365E+02  0.51100000000E-03 0.  1.
         12    1    3    3    0    0  0.78733500408E+01  0.95453841107E+00  0.12291629469E+02  0.14628224070E+02  0.00000000000E+00 0. -1.
</event>
<event>
 7    1  0.2886681E-010  0.4778727E+02  0.7816164E-02  0.1312668E+00
        -11   -1    0    0    0    0  0.00000000000E+00  0.00000000000E+00  0.45593999997E+02  0.45594000000E+02  0.51100000000E-03 0.  1.
         11   -1    0    0    0    0 -0.00000000000E+00 -0.00000000000E+00 -0.45593999997E+02  0.45594000000E+02  0.51100000000E-03 0. -1.
    9900012    2    1    2    0    0  0.23057295612E+02 -0.58749882356E+01 -0.36296956259E+02  0.47787269576E+02  0.19999993305E+02 0.  0.
        -12    1    1    2    0    0 -0.23057295612E+02  0.58749882356E+01  0.36296956259E+02  0.43400730424E+02  0.00000000000E+00 0.  1.
         11    1    3    3    0    0  0.16129627466E+02 -0.89838807019E+01 -0.18988358989E+02  0.26484576116E+02  0.51100000000E-03 0. -1.
        -11    1    3    3    0    0  0.46787835965E+01  0.64398374377E+01 -0.13966491087E+02  0.16075614940E+02  0.51100000000E-03 0.  1.
        -12    1    3    3    0    0  0.22488845493E+01 -0.33309449714E+01 -0.33421061823E+01  0.52270785198E+01  0.00000000000E+00 0.  1.
</event>
<event>
 7    1  0.2886681E-010  0.4778727E+02  0.7816164E-02  0.1312668E+00
        -11   -1    0    0    0    0  0.00000000000E+00  0.00000000000E+00  0.45593999997E+02  0.45594000000E+02  0.51100000000E-03 0.  1.
         11   -1    0    0    0    0 -0.00000000000E+00 -0.00000000000E+00 -0.45593999997E+02  0.45594000000E+02  0.51100000000E-03 0. -1.
    9900012    2    1    2    0    0  0.10651327839E+02 -0.21370975857E+02 -0.36241606324E+02  0.47787269329E+02  0.19999992180E+02 0.  0.
        -12    1    1    2    0    0 -0.10651327839E+02  0.21370975857E+02  0.36241606324E+02  0.43400730671E+02  0.00000000000E+00 0.  1.
         11    1    3    3    0    0 -0.40293677412E+01 -0.22470203082E+01 -0.33455441679E+01  0.56989096062E+01  0.51100000000E-03 0. -1.
        -11    1    3    3    0    0 -0.11605470469E+01 -0.27065276159E+01 -0.15756830441E+01  0.33399009717E+01  0.51100000000E-03 0.  1.
         12    1    3    3    0    0  0.15841242628E+02 -0.16417427933E+02 -0.31320379112E+02  0.38748458751E+02  0.00000000000E+00 0. -1.
</event>
<event>
 7    1  0.2886681E-010  0.4778727E+02  0.7816164E-02  0.1312668E+00
        -11   -1    0    0    0    0  0.00000000000E+00  0.00000000000E+00  0.45593999997E+02  0.45594000000E+02  0.51100000000E-03 0.  1.
         11   -1    0    0    0    0 -0.00000000000E+00 -0.00000000000E+00 -0.45593999997E+02  0.45594000000E+02  0.51100000000E-03 0. -1.
    9900012    2    1    2    0    0  0.10237828064E+02  0.29277669211E+02 -0.30358328151E+02  0.47787272748E+02  0.20000007769E+02 0.  0.
        -12    1    1    2    0    0 -0.10237828064E+02 -0.29277669211E+02  0.30358328151E+02  0.43400727252E+02  0.00000000000E+00 0.  1.
         11    1    3    3    0    0 -0.11568150166E+01  0.78203806704E+01 -0.10224039909E+02  0.12923914544E+02  0.51100000000E-03 0. -1.
        -11    1    3    3    0    0  0.13018374759E+02  0.13203348490E+02 -0.18691692968E+02  0.26328423405E+02  0.51100000000E-03 0.  1.
        -12    1    3    3    0    0 -0.16237316777E+01  0.82539400506E+01 -0.14425952736E+01  0.85349348002E+01  0.00000000000E+00 0.  1.
</event>
<event>
 7    1  0.2886681E-010  0.4778726E+02  0.7816164E-02  0.1312668E+00
        -11   -1    0    0    0    0  0.00000000000E+00  0.00000000000E+00  0.45593999997E+02  0.45594000000E+02  0.51100000000E-03 0.  1.
         11   -1    0    0    0    0 -0.00000000000E+00 -0.00000000000E+00 -0.45593999997E+02  0.45594000000E+02  0.51100000000E-03 0. -1.
    9900012    2    1    2    0    0  0.29725169962E+01  0.12845943736E+02 -0.41349366802E+02  0.47787259653E+02  0.19999948061E+02 0.  0.
        -12    1    1    2    0    0 -0.29725169962E+01 -0.12845943736E+02  0.41349366802E+02  0.43400740347E+02  0.00000000000E+00 0.  1.
         11    1    3    3    0    0  0.98403982896E+01  0.10777621660E+02 -0.28641745475E+02  0.32145608584E+02  0.51100000000E-03 0.  1.
        -11    1    3    3    0    0 -0.77009804479E+01  0.11275158999E+01 -0.10136554184E+02  0.12779910913E+02  0.51100000000E-03 0. -1.
         12    1    3    3    0    0  0.83309915454E+00  0.94080617613E+00 -0.25710671436E+01  0.28617401557E+01  0.00000000000E+00 0. -1.
</event>
<event>
 7    1  0.2886681E-010  0.4778727E+02  0.7816164E-02  0.1312668E+00
        -11   -1    0    0    0    0  0.00000000000E+00  0.00000000000E+00  0.45593999997E+02  0.45594000000E+02  0.51100000000E-03 0.  1.
         11   -1    0    0    0    0 -0.00000000000E+00 -0.00000000000E+00 -0.45593999997E+02  0.45594000000E+02  0.51100000000E-03 0. -1.
    9900012    2    1    2    0    0  0.24677276058E+02  0.97836690346E+01 -0.34335631566E+02  0.47787265807E+02  0.19999976122E+02 0.  0.
        -12    1    1    2    0    0 -0.24677276058E+02 -0.97836690346E+01  0.34335631566E+02  0.43400734193E+02  0.00000000000E+00 0.  1.
         11    1    3    3    0    0  0.98631988167E+01 -0.41034605070E+01 -0.12201962464E+02  0.16217551210E+02  0.51100000000E-03 0. -1.
        -11    1    3    3    0    0  0.15774739167E+02  0.13631010618E+02 -0.18737699136E+02  0.28031200749E+02  0.51100000000E-03 0.  1.
        -12    1    3    3    0    0 -0.96066192602E+00  0.25611892327E+00 -0.33959699662E+01  0.35385138477E+01  0.00000000000E+00 0.  1.
</event>
<event>
 7    1  0.2886681E-010  0.4778727E+02  0.7816164E-02  0.1312668E+00
        -11   -1    0    0    0    0  0.00000000000E+00  0.00000000000E+00  0.45593999997E+02  0.45594000000E+02  0.51100000000E-03 0. -1.
         11   -1    0    0    0    0 -0.00000000000E+00 -0.00000000000E+00 -0.45593999997E+02  0.45594000000E+02  0.51100000000E-03 0.  1.
    9900012    2    1    2    0    0  0.33170227168E+02  0.90174063236E+01  0.26496147519E+02  0.47787269355E+02  0.19999992295E+02 0.  0.
        -12    1    1    2    0    0 -0.33170227168E+02 -0.90174063236E+01 -0.26496147519E+02  0.43400730645E+02  0.00000000000E+00 0.  1.
         11    1    3    3    0    0  0.19776972850E+02  0.13541810980E+02  0.14268658147E+02  0.27894513893E+02  0.51100000000E-03 0. -1.
        -11    1    3    3    0    0  0.79512417283E+01 -0.59879337703E+01  0.66971689702E+01  0.11997069156E+02  0.51100000000E-03 0.  1.
        -12    1    3    3    0    0  0.54420125897E+01  0.14635291142E+01  0.55303204015E+01  0.78956863057E+01  0.00000000000E+00 0.  1.
</event>
<event>
 7    1  0.2886681E-010  0.4778727E+02  0.7816164E-02  0.1312668E+00
        -11   -1    0    0    0    0  0.00000000000E+00  0.00000000000E+00  0.45593999997E+02  0.45594000000E+02  0.51100000000E-03 0.  1.
         11   -1    0    0    0    0 -0.00000000000E+00 -0.00000000000E+00 -0.45593999997E+02  0.45594000000E+02  0.51100000000E-03 0. -1.
    9900012    2    1    2    0    0 -0.16998504602E+02 -0.30128818241E+02 -0.26209316870E+02  0.47787272609E+02  0.20000007131E+02 0.  0.
        -12    1    1    2    0    0  0.16998504602E+02  0.30128818241E+02  0.26209316870E+02  0.43400727391E+02  0.00000000000E+00 0.  1.
         11    1    3    3    0    0 -0.73067610163E+01 -0.11421926537E+02 -0.52051223145E+01  0.14523858335E+02  0.51100000000E-03 0. -1.
        -11    1    3    3    0    0  0.14141967455E+01 -0.10524881544E+02 -0.14603139431E+02  0.18056155888E+02  0.51100000000E-03 0.  1.
        -12    1    3    3    0    0 -0.11105940331E+02 -0.81820101603E+01 -0.64010551250E+01  0.15207258386E+02  0.00000000000E+00 0.  1.
</event>
<event>
 7    1  0.2886681E-010  0.4778727E+02  0.7816164E-02  0.1312668E+00
        -11   -1    0    0    0    0  0.00000000000E+00  0.00000000000E+00  0.45593999997E+02  0.45594000000E+02  0.51100000000E-03 0.  1.
         11   -1    0    0    0    0 -0.00000000000E+00 -0.00000000000E+00 -0.45593999997E+02  0.45594000000E+02  0.51100000000E-03 0. -1.
    9900012    2    1    2    0    0  0.77626631630E+01 -0.28627226564E+02 -0.31683530099E+02  0.47787272821E+02  0.20000008099E+02 0.  0.
        -12    1    1    2    0    0 -0.77626631630E+01  0.28627226564E+02  0.31683530099E+02  0.43400727179E+02  0.00000000000E+00 0.  1.
         11    1    3    3    0    0  0.21363097341E+01 -0.56957734175E+01 -0.66813485099E+01  0.90358216160E+01  0.51100000000E-03 0. -1.
        -11    1    3    3    0    0  0.83971832246E+01 -0.10631528239E+02 -0.37778323553E+01  0.14064639930E+02  0.51100000000E-03 0.  1.
        -12    1    3    3    0    0 -0.27708297957E+01 -0.12299924908E+02 -0.21224349234E+02  0.24686811274E+02  0.00000000000E+00 0.  1.
</event>
<event>
 7    1  0.2886681E-010  0.4778727E+02  0.7816164E-02  0.1312668E+00
        -11   -1    0    0    0    0  0.00000000000E+00  0.00000000000E+00  0.45593999997E+02  0.45594000000E+02  0.51100000000E-03 0.  1.
         11   -1    0    0    0    0 -0.00000000000E+00 -0.00000000000E+00 -0.45593999997E+02  0.45594000000E+02  0.51100000000E-03 0. -1.
    9900012    2    1    2    0    0  0.43385495833E+02  0.10450611802E+01 -0.47932683146E+00  0.47787272405E+02  0.20000006203E+02 0.  0.
        -12    1    1    2    0    0 -0.43385495833E+02 -0.10450611802E+01  0.47932683146E+00  0.43400727595E+02  0.00000000000E+00 0.  1.
         11    1    3    3    0    0  0.18632318576E+02  0.88373601568E+01 -0.14376203657E+01  0.20671937080E+02  0.51100000000E-03 0. -1.
        -11    1    3    3    0    0  0.25283292060E+02 -0.79685309650E+01  0.75240957682E+00  0.26519963491E+02  0.51100000000E-03 0.  1.
        -12    1    3    3    0    0 -0.53011480220E+00  0.17623198849E+00  0.20588395746E+00  0.59537183442E+00  0.00000000000E+00 0.  1.
</event>
<event>
 7    1  0.2886681E-010  0.4778727E+02  0.7816164E-02  0.1312668E+00
        -11   -1    0    0    0    0  0.00000000000E+00  0.00000000000E+00  0.45593999997E+02  0.45594000000E+02  0.51100000000E-03 0.  1.
         11   -1    0    0    0    0 -0.00000000000E+00 -0.00000000000E+00 -0.45593999997E+02  0.45594000000E+02  0.51100000000E-03 0. -1.
    9900012    2    1    2    0    0  0.13390841351E+02  0.39337827319E+02  0.12523736732E+02  0.47787271066E+02  0.20000000099E+02 0.  0.
        -12    1    1    2    0    0 -0.13390841351E+02 -0.39337827319E+02 -0.12523736732E+02  0.43400728934E+02  0.00000000000E+00 0.  1.
         11    1    3    3    0    0  0.69581645347E+01  0.14193875593E+02  0.62489884310E+01  0.16998000315E+02  0.51100000000E-03 0. -1.
        -11    1    3    3    0    0  0.85485794783E+01  0.20426229837E+02 -0.64361426902E+00  0.22152275640E+02  0.51100000000E-03 0.  1.
        -12    1    3    3    0    0 -0.21159026619E+01  0.47177218888E+01  0.69183625700E+01  0.86369951108E+01  0.00000000000E+00 0.  1.
</event>
<event>
 7    1  0.2886681E-010  0.4778728E+02  0.7816164E-02  0.1312668E+00
        -11   -1    0    0    0    0  0.00000000000E+00  0.00000000000E+00  0.45593999997E+02  0.45594000000E+02  0.51100000000E-03 0.  1.
         11   -1    0    0    0    0 -0.00000000000E+00 -0.00000000000E+00 -0.45593999997E+02  0.45594000000E+02  0.51100000000E-03 0. -1.
    9900012    2    1    2    0    0  0.40204111582E+02  0.16347589641E+02 -0.91915158761E-01  0.47787277384E+02  0.20000028905E+02 0.  0.
        -12    1    1    2    0    0 -0.40204111582E+02 -0.16347589641E+02  0.91915158761E-01  0.43400722616E+02  0.00000000000E+00 0.  1.
         11    1    3    3    0    0  0.32663192811E+02  0.19893139609E+02  0.47740761499E+00  0.38247210178E+02  0.51100000000E-03 0. -1.
        -11    1    3    3    0    0  0.28654085037E+01 -0.25349984477E+01  0.17697738071E+01  0.42153152448E+01  0.51100000000E-03 0.  1.
         12    1    3    3    0    0  0.46755102677E+01 -0.10105515199E+01 -0.23390965809E+01  0.53247519616E+01  0.00000000000E+00 0. -1.
</event>
<event>
 7    1  0.2886681E-010  0.4778727E+02  0.7816164E-02  0.1312668E+00
        -11   -1    0    0    0    0  0.00000000000E+00  0.00000000000E+00  0.45593999997E+02  0.45594000000E+02  0.51100000000E-03 0.  1.
         11   -1    0    0    0    0 -0.00000000000E+00 -0.00000000000E+00 -0.45593999997E+02  0.45594000000E+02  0.51100000000E-03 0. -1.
    9900012    2    1    2    0    0 -0.29290390084E+02  0.36544769117E+01 -0.31817307301E+02  0.47787271934E+02  0.20000004058E+02 0.  0.
        -12    1    1    2    0    0  0.29290390084E+02 -0.36544769117E+01  0.31817307301E+02  0.43400728066E+02  0.00000000000E+00 0.  1.
         11    1    3    3    0    0 -0.40622804084E+01 -0.21776279790E+01 -0.13281372661E+02  0.14058415478E+02  0.51100000000E-03 0.  1.
        -11    1    3    3    0    0 -0.16172001606E+02  0.90827231528E+01 -0.11795937983E+02  0.21981211272E+02  0.51100000000E-03 0. -1.
         12    1    3    3    0    0 -0.90561080694E+01 -0.32506182621E+01 -0.67399966561E+01  0.11747645184E+02  0.00000000000E+00 0. -1.
</event>
<event>
 7    1  0.2886681E-010  0.4778727E+02  0.7816164E-02  0.1312668E+00
        -11   -1    0    0    0    0  0.00000000000E+00  0.00000000000E+00  0.45593999997E+02  0.45594000000E+02  0.51100000000E-03 0.  1.
         11   -1    0    0    0    0 -0.00000000000E+00 -0.00000000000E+00 -0.45593999997E+02  0.45594000000E+02  0.51100000000E-03 0. -1.
    9900012    2    1    2    0    0  0.11637515004E+02 -0.90870205441E+01 -0.40811977640E+02  0.47787271703E+02  0.20000003000E+02 0.  0.
        -12    1    1    2    0    0 -0.11637515004E+02  0.90870205441E+01  0.40811977640E+02  0.43400728297E+02  0.00000000000E+00 0.  1.
         11    1    3    3    0    0  0.12217264046E+02  0.12855385772E+00 -0.15686972660E+02  0.19883640974E+02  0.51100000000E-03 0. -1.
        -11    1    3    3    0    0 -0.40526115120E+01 -0.54010206329E+01 -0.11515061669E+02  0.13348832512E+02  0.51100000000E-03 0.  1.
        -12    1    3    3    0    0  0.34728624706E+01 -0.38145537689E+01 -0.13609943311E+02  0.14554798217E+02  0.00000000000E+00 0.  1.
</event>
<event>
 7    1  0.2886681E-010  0.4778727E+02  0.7816164E-02  0.1312668E+00
        -11   -1    0    0    0    0  0.00000000000E+00  0.00000000000E+00  0.45593999997E+02  0.45594000000E+02  0.51100000000E-03 0.  1.
         11   -1    0    0    0    0 -0.00000000000E+00 -0.00000000000E+00 -0.45593999997E+02  0.45594000000E+02  0.51100000000E-03 0. -1.
    9900012    2    1    2    0    0 -0.30303471616E+02 -0.16089921140E+02  0.26578888660E+02  0.47787271013E+02  0.19999999855E+02 0.  0.
        -12    1    1    2    0    0  0.30303471616E+02  0.16089921140E+02 -0.26578888660E+02  0.43400728987E+02  0.00000000000E+00 0.  1.
         11    1    3    3    0    0 -0.18162070868E+02 -0.96312073380E+01  0.60070826497E+01  0.21417423170E+02  0.51100000000E-03 0. -1.
        -11    1    3    3    0    0 -0.23188386084E+01 -0.56240715937E+01  0.11316707463E+02  0.12848154025E+02  0.51100000000E-03 0.  1.
         12    1    3    3    0    0 -0.98225621394E+01 -0.83464220788E+00  0.92550985467E+01  0.13521693818E+02  0.00000000000E+00 0. -1.
</event>
<event>
 7    1  0.2886681E-010  0.4778726E+02  0.7816164E-02  0.1312668E+00
        -11   -1    0    0    0    0  0.00000000000E+00  0.00000000000E+00  0.45593999997E+02  0.45594000000E+02  0.51100000000E-03 0.  1.
         11   -1    0    0    0    0 -0.00000000000E+00 -0.00000000000E+00 -0.45593999997E+02  0.45594000000E+02  0.51100000000E-03 0. -1.
    9900012    2    1    2    0    0 -0.19410836252E+02 -0.30583420314E+02 -0.23906021118E+02  0.47787262590E+02  0.19999961451E+02 0.  0.
        -12    1    1    2    0    0  0.19410836252E+02  0.30583420314E+02  0.23906021118E+02  0.43400737410E+02  0.00000000000E+00 0.  1.
         11    1    3    3    0    0 -0.92072931001E+01 -0.13574290492E+02 -0.23428040206E+01  0.16568776042E+02  0.51100000000E-03 0. -1.
        -11    1    3    3    0    0 -0.10173069891E+02 -0.12766024541E+02 -0.21474461187E+02  0.26974343683E+02  0.51100000000E-03 0.  1.
        -12    1    3    3    0    0 -0.30473261045E-01 -0.42431052802E+01 -0.88755909733E-01  0.42441428640E+01  0.00000000000E+00 0.  1.
</event>
<event>
 7    1  0.2886681E-010  0.4778727E+02  0.7816164E-02  0.1312668E+00
        -11   -1    0    0    0    0  0.00000000000E+00  0.00000000000E+00  0.45593999997E+02  0.45594000000E+02  0.51100000000E-03 0.  1.
         11   -1    0    0    0    0 -0.00000000000E+00 -0.00000000000E+00 -0.45593999997E+02  0.45594000000E+02  0.51100000000E-03 0. -1.
    9900012    2    1    2    0    0  0.33870850407E+01  0.28438754804E+02 -0.32609633296E+02  0.47787270703E+02  0.19999998442E+02 0.  0.
        -12    1    1    2    0    0 -0.33870850407E+01 -0.28438754804E+02  0.32609633296E+02  0.43400729297E+02  0.00000000000E+00 0.  1.
         11    1    3    3    0    0 -0.16761514292E+01  0.13772980221E+01 -0.13804853287E+02  0.13974276653E+02  0.51100000000E-03 0. -1.
        -11    1    3    3    0    0  0.44980176035E+01  0.11801371413E+02 -0.65129402056E+01  0.14209958479E+02  0.51100000000E-03 0.  1.
         12    1    3    3    0    0  0.56521886629E+00  0.15260085369E+02 -0.12291839803E+02  0.19603035571E+02  0.00000000000E+00 0. -1.
</event>
<event>
 7    1  0.2886681E-010  0.4778727E+02  0.7816164E-02  0.1312668E+00
        -11   -1    0    0    0    0  0.00000000000E+00  0.00000000000E+00  0.45593999997E+02  0.45594000000E+02  0.51100000000E-03 0.  1.
         11   -1    0    0    0    0 -0.00000000000E+00 -0.00000000000E+00 -0.45593999997E+02  0.45594000000E+02  0.51100000000E-03 0. -1.
    9900012    2    1    2    0    0  0.21785685557E+02 -0.34107746411E+01 -0.37381462805E+02  0.47787271432E+02  0.20000001765E+02 0.  0.
        -12    1    1    2    0    0 -0.21785685557E+02  0.34107746411E+01  0.37381462805E+02  0.43400728568E+02  0.00000000000E+00 0.  1.
         11    1    3    3    0    0  0.64583428240E+01  0.70031411746E+01 -0.11051934413E+02  0.14591073740E+02  0.51100000000E-03 0. -1.
        -11    1    3    3    0    0  0.15494840943E+01 -0.51188221459E+01 -0.85914069657E+01  0.10120055090E+02  0.51100000000E-03 0.  1.
         12    1    3    3    0    0  0.13777858639E+02 -0.52950936698E+01 -0.17738121426E+02  0.23076142602E+02  0.00000000000E+00 0. -1.
</event>
<event>
 7    1  0.2886681E-010  0.4778727E+02  0.7816164E-02  0.1312668E+00
        -11   -1    0    0    0    0  0.00000000000E+00  0.00000000000E+00  0.45593999997E+02  0.45594000000E+02  0.51100000000E-03 0.  1.
         11   -1    0    0    0    0 -0.00000000000E+00 -0.00000000000E+00 -0.45593999997E+02  0.45594000000E+02  0.51100000000E-03 0. -1.
    9900012    2    1    2    0    0 -0.38663123888E+02  0.18669570198E+02 -0.63429706809E+01  0.47787271006E+02  0.19999999823E+02 0.  0.
        -12    1    1    2    0    0  0.38663123888E+02 -0.18669570198E+02  0.63429706809E+01  0.43400728994E+02  0.00000000000E+00 0.  1.
         11    1    3    3    0    0 -0.11519087937E+02 -0.38695761588E+00 -0.54611374077E+01  0.12753946258E+02  0.51100000000E-03 0. -1.
        -11    1    3    3    0    0 -0.19916186667E+02  0.18830949214E+02  0.14159894651E+01  0.27445658420E+02  0.51100000000E-03 0.  1.
        -12    1    3    3    0    0 -0.72278492837E+01  0.22557860032E+00 -0.22978227383E+01  0.75876663283E+01  0.00000000000E+00 0.  1.
</event>
<event>
 7    1  0.2886681E-010  0.4778727E+02  0.7816164E-02  0.1312668E+00
        -11   -1    0    0    0    0  0.00000000000E+00  0.00000000000E+00  0.45593999997E+02  0.45594000000E+02  0.51100000000E-03 0.  1.
         11   -1    0    0    0    0 -0.00000000000E+00 -0.00000000000E+00 -0.45593999997E+02  0.45594000000E+02  0.51100000000E-03 0. -1.
    9900012    2    1    2    0    0 -0.10620709325E+02 -0.38822932607E+02 -0.16235877899E+02  0.47787270813E+02  0.19999998946E+02 0.  0.
        -12    1    1    2    0    0  0.10620709325E+02  0.38822932607E+02  0.16235877899E+02  0.43400729187E+02  0.00000000000E+00 0.  1.
         11    1    3    3    0    0 -0.84009107107E+00 -0.18135257600E+02 -0.18045245580E+01  0.18244167024E+02  0.51100000000E-03 0. -1.
        -11    1    3    3    0    0 -0.78369624949E+01 -0.14006368769E+02 -0.15720733522E+02  0.22466370645E+02  0.51100000000E-03 0.  1.
        -12    1    3    3    0    0 -0.19436557593E+01 -0.66813062375E+01  0.12893801806E+01  0.70767331446E+01  0.00000000000E+00 0.  1.
</event>
<event>
 7    1  0.2886681E-010  0.4778727E+02  0.7816164E-02  0.1312668E+00
        -11   -1    0    0    0    0  0.00000000000E+00  0.00000000000E+00  0.45593999997E+02  0.45594000000E+02  0.51100000000E-03 0.  1.
         11   -1    0    0    0    0 -0.00000000000E+00 -0.00000000000E+00 -0.45593999997E+02  0.45594000000E+02  0.51100000000E-03 0. -1.
    9900012    2    1    2    0    0  0.19399677628E+02 -0.32294697986E+02 -0.21548280947E+02  0.47787269340E+02  0.19999992230E+02 0.  0.
        -12    1    1    2    0    0 -0.19399677628E+02  0.32294697986E+02  0.21548280947E+02  0.43400730660E+02  0.00000000000E+00 0.  1.
         11    1    3    3    0    0 -0.80968606314E+00  0.12927105097E+01 -0.18877887667E+01  0.24270225940E+01  0.51100000000E-03 0.  1.
        -11    1    3    3    0    0  0.16036507671E+02 -0.32123047570E+02 -0.19668552148E+02  0.40937900622E+02  0.51100000000E-03 0. -1.
         12    1    3    3    0    0  0.41728560194E+01 -0.14643609249E+01  0.80599679686E-02  0.44223461239E+01  0.00000000000E+00 0. -1.
</event>
<event>
 7    1  0.2886681E-010  0.4778728E+02  0.7816164E-02  0.1312668E+00
        -11   -1    0    0    0    0  0.00000000000E+00  0.00000000000E+00  0.45593999997E+02  0.45594000000E+02  0.51100000000E-03 0. -1.
         11   -1    0    0    0    0 -0.00000000000E+00 -0.00000000000E+00 -0.45593999997E+02  0.45594000000E+02  0.51100000000E-03 0.  1.
    9900012    2    1    2    0    0  0.14742587576E+02  0.40818354121E+02 -0.37457408011E+00  0.47787283101E+02  0.20000054971E+02 0.  0.
        -12    1    1    2    0    0 -0.14742587576E+02 -0.40818354121E+02  0.37457408011E+00  0.43400716899E+02  0.00000000000E+00 0.  1.
         11    1    3    3    0    0  0.12122043894E+02  0.20237012157E+02 -0.12417339600E+01  0.23622500137E+02  0.51100000000E-03 0. -1.
        -11    1    3    3    0    0  0.69007007740E+01  0.17437288906E+02  0.15169807700E+01  0.18814354798E+02  0.51100000000E-03 0.  1.
        -12    1    3    3    0    0 -0.42801570924E+01  0.31440530583E+01 -0.64982089012E+00  0.53504281659E+01  0.00000000000E+00 0.  1.
</event>
<event>
 7    1  0.2886681E-010  0.4778727E+02  0.7816164E-02  0.1312668E+00
        -11   -1    0    0    0    0  0.00000000000E+00  0.00000000000E+00  0.45593999997E+02  0.45594000000E+02  0.51100000000E-03 0.  1.
         11   -1    0    0    0    0 -0.00000000000E+00 -0.00000000000E+00 -0.45593999997E+02  0.45594000000E+02  0.51100000000E-03 0. -1.
    9900012    2    1    2    0    0 -0.10938085612E+01  0.20035080276E+02 -0.38484055863E+02  0.47787269424E+02  0.19999992611E+02 0.  0.
        -12    1    1    2    0    0  0.10938085612E+01 -0.20035080276E+02  0.38484055863E+02  0.43400730576E+02  0.00000000000E+00 0.  1.
         11    1    3    3    0    0 -0.32732661944E+01  0.21645810598E+02 -0.34339853411E+02  0.40724451139E+02  0.51100000000E-03 0. -1.
        -11    1    3    3    0    0 -0.69973137876E+00 -0.22014571365E+01 -0.32563627059E+01  0.39924849229E+01  0.51100000000E-03 0.  1.
         12    1    3    3    0    0  0.28791890120E+01  0.59072681472E+00 -0.88783974646E+00  0.30703333616E+01  0.00000000000E+00 0. -1.
</event>
<event>
 7    1  0.2886681E-010  0.4778727E+02  0.7816164E-02  0.1312668E+00
        -11   -1    0    0    0    0  0.00000000000E+00  0.00000000000E+00  0.45593999997E+02  0.45594000000E+02  0.51100000000E-03 0.  1.
         11   -1    0    0    0    0 -0.00000000000E+00 -0.00000000000E+00 -0.45593999997E+02  0.45594000000E+02  0.51100000000E-03 0. -1.
    9900012    2    1    2    0    0  0.84970468605E+01 -0.19767670114E+02 -0.37691678218E+02  0.47787271966E+02  0.20000004200E+02 0.  0.
        -12    1    1    2    0    0 -0.84970468605E+01  0.19767670114E+02  0.37691678218E+02  0.43400728034E+02  0.00000000000E+00 0.  1.
         11    1    3    3    0    0  0.16269076223E+01 -0.10396144863E+02 -0.23008861196E+02  0.25300876471E+02  0.51100000000E-03 0. -1.
        -11    1    3    3    0    0  0.76210894606E+01 -0.96800052588E+01 -0.58889863244E+01  0.13655169957E+02  0.51100000000E-03 0.  1.
        -12    1    3    3    0    0 -0.75095022244E+00  0.30848000783E+00 -0.87938306973E+01  0.88312255370E+01  0.00000000000E+00 0.  1.
</event>
<event>
 7    1  0.2886681E-010  0.4778726E+02  0.7816164E-02  0.1312668E+00
        -11   -1    0    0    0    0  0.00000000000E+00  0.00000000000E+00  0.45593999997E+02  0.45594000000E+02  0.51100000000E-03 0.  1.
         11   -1    0    0    0    0 -0.00000000000E+00 -0.00000000000E+00 -0.45593999997E+02  0.45594000000E+02  0.51100000000E-03 0. -1.
    9900012    2    1    2    0    0 -0.75717955195E+01 -0.10380937850E+02 -0.41455132920E+02  0.47787262640E+02  0.19999961679E+02 0.  0.
        -12    1    1    2    0    0  0.75717955195E+01  0.10380937850E+02  0.41455132920E+02  0.43400737360E+02  0.00000000000E+00 0.  1.
         11    1    3    3    0    0 -0.13520318539E+02 -0.93574448898E+01 -0.33861724316E+02  0.37642757101E+02  0.51100000000E-03 0. -1.
        -11    1    3    3    0    0  0.26656550127E+01 -0.39614554616E+00 -0.12419594393E+01  0.29673408046E+01  0.51100000000E-03 0.  1.
         12    1    3    3    0    0  0.32828680070E+01 -0.62734741405E+00 -0.63514491646E+01  0.71771647341E+01  0.00000000000E+00 0. -1.
</event>
<event>
 7    1  0.2886681E-010  0.4778727E+02  0.7816164E-02  0.1312668E+00
        -11   -1    0    0    0    0  0.00000000000E+00  0.00000000000E+00  0.45593999997E+02  0.45594000000E+02  0.51100000000E-03 0. -1.
         11   -1    0    0    0    0 -0.00000000000E+00 -0.00000000000E+00 -0.45593999997E+02  0.45594000000E+02  0.51100000000E-03 0.  1.
    9900012    2    1    2    0    0  0.28798834449E+02 -0.26329009127E+02  0.19000895686E+02  0.47787267009E+02  0.19999981603E+02 0.  0.
        -12    1    1    2    0    0 -0.28798834449E+02  0.26329009127E+02 -0.19000895686E+02  0.43400732991E+02  0.00000000000E+00 0.  1.
         11    1    3    3    0    0  0.75291697783E+01 -0.17210811560E+02  0.23854080502E+01  0.18936488691E+02  0.51100000000E-03 0. -1.
        -11    1    3    3    0    0  0.17215685986E+02 -0.78621030110E+01  0.11277556730E+02  0.22031245852E+02  0.51100000000E-03 0.  1.
         12    1    3    3    0    0  0.40539786846E+01 -0.12560945560E+01  0.53379309061E+01  0.68195324669E+01  0.00000000000E+00 0. -1.
</event>
<event>
 7    1  0.2886681E-010  0.4778727E+02  0.7816164E-02  0.1312668E+00
        -11   -1    0    0    0    0  0.00000000000E+00  0.00000000000E+00  0.45593999997E+02  0.45594000000E+02  0.51100000000E-03 0.  1.
         11   -1    0    0    0    0 -0.00000000000E+00 -0.00000000000E+00 -0.45593999997E+02  0.45594000000E+02  0.51100000000E-03 0. -1.
    9900012    2    1    2    0    0 -0.14024021634E+02 -0.64452675310E+01 -0.40563639698E+02  0.47787268187E+02  0.19999986974E+02 0.  0.
        -12    1    1    2    0    0  0.14024021634E+02  0.64452675310E+01  0.40563639698E+02  0.43400731813E+02  0.00000000000E+00 0.  1.
         11    1    3    3    0    0 -0.71875254052E+01 -0.54708671787E+01 -0.12732821901E+02  0.15611395292E+02  0.51100000000E-03 0. -1.
        -11    1    3    3    0    0 -0.38640317105E+01  0.59541597292E+01 -0.20360856983E+02  0.21562635658E+02  0.51100000000E-03 0.  1.
        -12    1    3    3    0    0 -0.29724645184E+01 -0.69285600815E+01 -0.74699608136E+01  0.10613237238E+02  0.00000000000E+00 0.  1.
</event>
<event>
 7    1  0.2886681E-010  0.4778727E+02  0.7816164E-02  0.1312668E+00
        -11   -1    0    0    0    0  0.00000000000E+00  0.00000000000E+00  0.45593999997E+02  0.45594000000E+02  0.51100000000E-03 0.  1.
         11   -1    0    0    0    0 -0.00000000000E+00 -0.00000000000E+00 -0.45593999997E+02  0.45594000000E+02  0.51100000000E-03 0. -1.
    9900012    2    1    2    0    0  0.86378846974E-01  0.39877452160E+02 -0.17129062217E+02  0.47787269310E+02  0.19999992090E+02 0.  0.
        -12    1    1    2    0    0 -0.86378846974E-01 -0.39877452160E+02  0.17129062217E+02  0.43400730690E+02  0.00000000000E+00 0.  1.
         11    1    3    3    0    0 -0.26847572173E+01  0.21262919288E+02 -0.93805169398E+01  0.23394737791E+02  0.51100000000E-03 0. -1.
        -11    1    3    3    0    0  0.65817404752E+01  0.87930983688E+01  0.52681719681E+00  0.10996154929E+02  0.51100000000E-03 0.  1.
        -12    1    3    3    0    0 -0.38106044109E+01  0.98214345027E+01 -0.82753624735E+01  0.13396376590E+02  0.00000000000E+00 0.  1.
</event>
<event>
 7    1  0.2886681E-010  0.4778727E+02  0.7816164E-02  0.1312668E+00
        -11   -1    0    0    0    0  0.00000000000E+00  0.00000000000E+00  0.45593999997E+02  0.45594000000E+02  0.51100000000E-03 0.  1.
         11   -1    0    0    0    0 -0.00000000000E+00 -0.00000000000E+00 -0.45593999997E+02  0.45594000000E+02  0.51100000000E-03 0. -1.
    9900012    2    1    2    0    0 -0.26279395883E+02  0.32877001206E+02 -0.10588641946E+02  0.47787271958E+02  0.20000004166E+02 0.  0.
        -12    1    1    2    0    0  0.26279395883E+02 -0.32877001206E+02  0.10588641946E+02  0.43400728042E+02  0.00000000000E+00 0.  1.
         11    1    3    3    0    0 -0.84479078699E+01  0.10517858229E+02 -0.31055312725E+01  0.13843294906E+02  0.51100000000E-03 0. -1.
        -11    1    3    3    0    0 -0.58655938855E+01  0.17628097953E+02  0.87756918107E+00  0.18599063337E+02  0.51100000000E-03 0.  1.
        -12    1    3    3    0    0 -0.11965894128E+02  0.47310450235E+01 -0.83606798548E+01  0.15344913715E+02  0.00000000000E+00 0.  1.
</event>
<event>
 7    1  0.2886681E-010  0.4778730E+02  0.7816164E-02  0.1312668E+00
        -11   -1    0    0    0    0  0.00000000000E+00  0.00000000000E+00  0.45593999997E+02  0.45594000000E+02  0.51100000000E-03 0.  1.
         11   -1    0    0    0    0 -0.00000000000E+00 -0.00000000000E+00 -0.45593999997E+02  0.45594000000E+02  0.51100000000E-03 0. -1.
    9900012    2    1    2    0    0 -0.52388357968E+01  0.34607073471E+01 -0.42944136881E+02  0.47787299680E+02  0.20000130560E+02 0.  0.
        -12    1    1    2    0    0  0.52388357968E+01 -0.34607073471E+01  0.42944136881E+02  0.43400700320E+02  0.00000000000E+00 0.  1.
         11    1    3    3    0    0 -0.23025346390E+00  0.71758633416E+00 -0.13952662444E+02  0.13973000263E+02  0.51100000000E-03 0. -1.
        -11    1    3    3    0    0 -0.29791969852E+01 -0.62288208378E+01 -0.19085547552E+02  0.20296106753E+02  0.51100000000E-03 0.  1.
        -12    1    3    3    0    0 -0.20293853477E+01  0.89719418508E+01 -0.99059268845E+01  0.13518192664E+02  0.00000000000E+00 0.  1.
</event>
<event>
 7    1  0.2886681E-010  0.4778727E+02  0.7816164E-02  0.1312668E+00
        -11   -1    0    0    0    0  0.00000000000E+00  0.00000000000E+00  0.45593999997E+02  0.45594000000E+02  0.51100000000E-03 0.  1.
         11   -1    0    0    0    0 -0.00000000000E+00 -0.00000000000E+00 -0.45593999997E+02  0.45594000000E+02  0.51100000000E-03 0. -1.
    9900012    2    1    2    0    0 -0.31720370140E+02 -0.25151470557E+02 -0.15647520722E+02  0.47787271230E+02  0.20000000845E+02 0.  0.
        -12    1    1    2    0    0  0.31720370140E+02  0.25151470557E+02  0.15647520722E+02  0.43400728770E+02  0.00000000000E+00 0.  1.
         11    1    3    3    0    0 -0.10108467211E+02  0.10005131163E+01 -0.62521685970E+01  0.11927772142E+02  0.51100000000E-03 0. -1.
        -11    1    3    3    0    0 -0.83688412072E+01 -0.14064657884E+02 -0.20925909320E+01  0.16499425494E+02  0.51100000000E-03 0.  1.
         12    1    3    3    0    0 -0.13243061722E+02 -0.12087325789E+02 -0.73027611932E+01  0.19360073594E+02  0.00000000000E+00 0. -1.
</event>
<event>
 7    1  0.2886681E-010  0.4778727E+02  0.7816164E-02  0.1312668E+00
        -11   -1    0    0    0    0  0.00000000000E+00  0.00000000000E+00  0.45593999997E+02  0.45594000000E+02  0.51100000000E-03 0. -1.
         11   -1    0    0    0    0 -0.00000000000E+00 -0.00000000000E+00 -0.45593999997E+02  0.45594000000E+02  0.51100000000E-03 0.  1.
    9900012    2    1    2    0    0 -0.37326500824E+02  0.39717332179E+01  0.21784883285E+02  0.47787268805E+02  0.19999989791E+02 0.  0.
        -12    1    1    2    0    0  0.37326500824E+02 -0.39717332179E+01 -0.21784883285E+02  0.43400731195E+02  0.00000000000E+00 0.  1.
         11    1    3    3    0    0 -0.59245181968E+00  0.13135903132E+01 -0.25291024094E+01  0.29108208341E+01  0.51100000000E-03 0.  1.
        -11    1    3    3    0    0 -0.36994975366E+02  0.21736255424E+01  0.24319767304E+02  0.44326108923E+02  0.51100000000E-03 0. -1.
         12    1    3    3    0    0  0.26092636198E+00  0.48451736228E+00 -0.57816092838E-02  0.55033904798E+00  0.00000000000E+00 0. -1.
</event>
<event>
 7    1  0.2886681E-010  0.4778727E+02  0.7816164E-02  0.1312668E+00
        -11   -1    0    0    0    0  0.00000000000E+00  0.00000000000E+00  0.45593999997E+02  0.45594000000E+02  0.51100000000E-03 0. -1.
         11   -1    0    0    0    0 -0.00000000000E+00 -0.00000000000E+00 -0.45593999997E+02  0.45594000000E+02  0.51100000000E-03 0.  1.
    9900012    2    1    2    0    0  0.42138229059E+02 -0.62421796309E+01 -0.83083043255E+01  0.47787273329E+02  0.20000010416E+02 0.  0.
        -12    1    1    2    0    0 -0.42138229059E+02  0.62421796309E+01  0.83083043255E+01  0.43400726671E+02  0.00000000000E+00 0.  1.
         11    1    3    3    0    0  0.13537602242E+02  0.11737779239E+01  0.52760580914E+01  0.14576735517E+02  0.51100000000E-03 0. -1.
        -11    1    3    3    0    0  0.74502218504E+01  0.76244612568E+00 -0.47811836506E+01  0.88852038287E+01  0.51100000000E-03 0.  1.
         12    1    3    3    0    0  0.21150404967E+02 -0.81784036805E+01 -0.88031787663E+01  0.24325333984E+02  0.00000000000E+00 0. -1.
</event>
<event>
 7    1  0.2886681E-010  0.4778727E+02  0.7816164E-02  0.1312668E+00
        -11   -1    0    0    0    0  0.00000000000E+00  0.00000000000E+00  0.45593999997E+02  0.45594000000E+02  0.51100000000E-03 0.  1.
         11   -1    0    0    0    0 -0.00000000000E+00 -0.00000000000E+00 -0.45593999997E+02  0.45594000000E+02  0.51100000000E-03 0. -1.
    9900012    2    1    2    0    0 -0.13100894070E+02  0.41344294579E+02 -0.16246454221E+01  0.47787267375E+02  0.19999983270E+02 0.  0.
        -12    1    1    2    0    0  0.13100894070E+02 -0.41344294579E+02  0.16246454221E+01  0.43400732625E+02  0.00000000000E+00 0.  1.
         11    1    3    3    0    0 -0.53802554156E+01  0.13131530314E+02 -0.57883940382E+01  0.15326113093E+02  0.51100000000E-03 0. -1.
        -11    1    3    3    0    0  0.24142119974E+01  0.45372277576E+01  0.43094476877E+01  0.67071748842E+01  0.51100000000E-03 0.  1.
        -12    1    3    3    0    0 -0.10134850652E+02  0.23675536506E+02 -0.14569907160E+00  0.25753979398E+02  0.00000000000E+00 0.  1.
</event>
<event>
 7    1  0.2886681E-010  0.4778727E+02  0.7816164E-02  0.1312668E+00
        -11   -1    0    0    0    0  0.00000000000E+00  0.00000000000E+00  0.45593999997E+02  0.45594000000E+02  0.51100000000E-03 0. -1.
         11   -1    0    0    0    0 -0.00000000000E+00 -0.00000000000E+00 -0.45593999997E+02  0.45594000000E+02  0.51100000000E-03 0.  1.
    9900012    2    1    2    0    0 -0.25553558431E+02 -0.22128135758E+02  0.27221028734E+02  0.47787272518E+02  0.20000006719E+02 0.  0.
        -12    1    1    2    0    0  0.25553558431E+02  0.22128135758E+02 -0.27221028734E+02  0.43400727482E+02  0.00000000000E+00 0.  1.
         11    1    3    3    0    0  0.88029689211E+00  0.70190819388E+00 -0.68773824353E+00  0.13193111398E+01  0.51100000000E-03 0.  1.
        -11    1    3    3    0    0 -0.27022886456E+02 -0.20601584235E+02  0.28182836992E+02  0.44146732230E+02  0.51100000000E-03 0. -1.
         12    1    3    3    0    0  0.58903113367E+00 -0.22284597166E+01 -0.27407001416E+00  0.23212291480E+01  0.00000000000E+00 0. -1.
</event>
<event>
 7    1  0.2886681E-010  0.4778727E+02  0.7816164E-02  0.1312668E+00
        -11   -1    0    0    0    0  0.00000000000E+00  0.00000000000E+00  0.45593999997E+02  0.45594000000E+02  0.51100000000E-03 0. -1.
         11   -1    0    0    0    0 -0.00000000000E+00 -0.00000000000E+00 -0.45593999997E+02  0.45594000000E+02  0.51100000000E-03 0.  1.
    9900012    2    1    2    0    0  0.76988671035E+01 -0.41252677433E+02 -0.11071002605E+02  0.47787273638E+02  0.20000011826E+02 0.  0.
        -12    1    1    2    0    0 -0.76988671035E+01  0.41252677433E+02  0.11071002605E+02  0.43400726362E+02  0.00000000000E+00 0.  1.
         11    1    3    3    0    0 -0.45870768704E+00 -0.11727187831E+02 -0.37008299777E+01  0.12305831543E+02  0.51100000000E-03 0. -1.
        -11    1    3    3    0    0 -0.30753129368E+01  0.23826300167E-01 -0.31588513894E+00  0.30915855210E+01  0.51100000000E-03 0.  1.
        -12    1    3    3    0    0  0.11232887727E+02 -0.29549315902E+02 -0.70542874885E+01  0.32389856575E+02  0.00000000000E+00 0.  1.
</event>
<event>
 7    1  0.2886681E-010  0.4778728E+02  0.7816164E-02  0.1312668E+00
        -11   -1    0    0    0    0  0.00000000000E+00  0.00000000000E+00  0.45593999997E+02  0.45594000000E+02  0.51100000000E-03 0.  1.
         11   -1    0    0    0    0 -0.00000000000E+00 -0.00000000000E+00 -0.45593999997E+02  0.45594000000E+02  0.51100000000E-03 0. -1.
    9900012    2    1    2    0    0  0.13822222548E+00  0.43390527313E+02  0.93050315688E+00  0.47787276481E+02  0.20000024786E+02 0.  0.
        -12    1    1    2    0    0 -0.13822222548E+00 -0.43390527313E+02 -0.93050315688E+00  0.43400723519E+02  0.00000000000E+00 0.  1.
         11    1    3    3    0    0 -0.61641474182E+01  0.26508749709E+02 -0.37008058511E+01  0.27466461161E+02  0.51100000000E-03 0. -1.
        -11    1    3    3    0    0 -0.20074845789E+01  0.31513057895E+01  0.82881033348E+00  0.38272247573E+01  0.51100000000E-03 0.  1.
         12    1    3    3    0    0  0.83098542226E+01  0.13730471815E+02  0.38024986745E+01  0.16493590562E+02  0.00000000000E+00 0. -1.
</event>
<event>
 7    1  0.2886681E-010  0.4778727E+02  0.7816164E-02  0.1312668E+00
        -11   -1    0    0    0    0  0.00000000000E+00  0.00000000000E+00  0.45593999997E+02  0.45594000000E+02  0.51100000000E-03 0. -1.
         11   -1    0    0    0    0 -0.00000000000E+00 -0.00000000000E+00 -0.45593999997E+02  0.45594000000E+02  0.51100000000E-03 0.  1.
    9900012    2    1    2    0    0  0.28911131868E+02 -0.32351374247E+02  0.10763530008E+01  0.47787268470E+02  0.19999988261E+02 0.  0.
        -12    1    1    2    0    0 -0.28911131868E+02  0.32351374247E+02 -0.10763530008E+01  0.43400731530E+02  0.00000000000E+00 0.  1.
         11    1    3    3    0    0  0.19999777587E+02 -0.14858555947E+02 -0.22362209809E+01  0.25015364737E+02  0.51100000000E-03 0. -1.
        -11    1    3    3    0    0  0.35907715726E+01 -0.15443882566E+02  0.53243673321E+01  0.16725909151E+02  0.51100000000E-03 0.  1.
        -12    1    3    3    0    0  0.53205827081E+01 -0.20489357342E+01 -0.20117933504E+01  0.60459945816E+01  0.00000000000E+00 0.  1.
</event>
<event>
 7    1  0.2886681E-010  0.4778729E+02  0.7816164E-02  0.1312668E+00
        -11   -1    0    0    0    0  0.00000000000E+00  0.00000000000E+00  0.45593999997E+02  0.45594000000E+02  0.51100000000E-03 0.  1.
         11   -1    0    0    0    0 -0.00000000000E+00 -0.00000000000E+00 -0.45593999997E+02  0.45594000000E+02  0.51100000000E-03 0. -1.
    9900012    2    1    2    0    0  0.67575514508E+01 -0.32657970564E+02 -0.27774335079E+02  0.47787294568E+02  0.20000107251E+02 0.  0.
        -12    1    1    2    0    0 -0.67575514508E+01  0.32657970564E+02  0.27774335079E+02  0.43400705432E+02  0.00000000000E+00 0.  1.
         11    1    3    3    0    0  0.75431504880E+01 -0.27999424947E+02 -0.21137864217E+02  0.35884205726E+02  0.51100000000E-03 0. -1.
        -11    1    3    3    0    0 -0.39521294052E+01 -0.32231511556E+00 -0.48052661627E+01  0.62300719919E+01  0.51100000000E-03 0.  1.
        -12    1    3    3    0    0  0.31665303679E+01 -0.43362305010E+01 -0.18312046997E+01  0.56730168500E+01  0.00000000000E+00 0.  1.
</event>
<event>
 7    1  0.2886681E-010  0.4778727E+02  0.7816164E-02  0.1312668E+00
        -11   -1    0    0    0    0  0.00000000000E+00  0.00000000000E+00  0.45593999997E+02  0.45594000000E+02  0.51100000000E-03 0.  1.
         11   -1    0    0    0    0 -0.00000000000E+00 -0.00000000000E+00 -0.45593999997E+02  0.45594000000E+02  0.51100000000E-03 0. -1.
    9900012    2    1    2    0    0 -0.51025926498E+01  0.83113296319E+01 -0.42290766798E+02  0.47787267191E+02  0.19999982432E+02 0.  0.
        -12    1    1    2    0    0  0.51025926498E+01 -0.83113296319E+01  0.42290766798E+02  0.43400732809E+02  0.00000000000E+00 0.  1.
         11    1    3    3    0    0  0.12119594606E+01  0.31162034791E+01 -0.12809144261E+02  0.13238343809E+02  0.51100000000E-03 0. -1.
        -11    1    3    3    0    0  0.33637938045E+01 -0.32117663832E+01 -0.45079884583E+01  0.64770759035E+01  0.51100000000E-03 0.  1.
        -12    1    3    3    0    0 -0.96783459148E+01  0.84068925360E+01 -0.24973634079E+02  0.28071847478E+02  0.00000000000E+00 0.  1.
</event>
<event>
 7    1  0.2886681E-010  0.4778727E+02  0.7816164E-02  0.1312668E+00
        -11   -1    0    0    0    0  0.00000000000E+00  0.00000000000E+00  0.45593999997E+02  0.45594000000E+02  0.51100000000E-03 0. -1.
         11   -1    0    0    0    0 -0.00000000000E+00 -0.00000000000E+00 -0.45593999997E+02  0.45594000000E+02  0.51100000000E-03 0.  1.
    9900012    2    1    2    0    0 -0.29023500430E+02  0.32254662098E+02  0.94673750042E+00  0.47787272861E+02  0.20000008284E+02 0.  0.
        -12    1    1    2    0    0  0.29023500430E+02 -0.32254662098E+02 -0.94673750042E+00  0.43400727139E+02  0.00000000000E+00 0.  1.
         11    1    3    3    0    0 -0.21541626787E+02  0.22687544749E+02 -0.57675673795E+00  0.31290558000E+02  0.51100000000E-03 0. -1.
        -11    1    3    3    0    0 -0.82701698245E+00  0.20111721290E+01 -0.43334079434E+01  0.48484219172E+01  0.51100000000E-03 0.  1.
        -12    1    3    3    0    0 -0.66548566605E+01  0.75559452208E+01  0.58569021818E+01  0.11648292944E+02  0.00000000000E+00 0.  1.
</event>
<event>
 7    1  0.2886681E-010  0.4778727E+02  0.7816164E-02  0.1312668E+00
        -11   -1    0    0    0    0  0.00000000000E+00  0.00000000000E+00  0.45593999997E+02  0.45594000000E+02  0.51100000000E-03 0.  1.
         11   -1    0    0    0    0 -0.00000000000E+00 -0.00000000000E+00 -0.45593999997E+02  0.45594000000E+02  0.51100000000E-03 0. -1.
    9900012    2    1    2    0    0  0.11008766514E+02 -0.28813219322E+02 -0.30532420554E+02  0.47787271288E+02  0.20000001109E+02 0.  0.
        -12    1    1    2    0    0 -0.11008766514E+02  0.28813219322E+02  0.30532420554E+02  0.43400728712E+02  0.00000000000E+00 0.  1.
         11    1    3    3    0    0 -0.33116225699E+01 -0.91039706413E+01 -0.47657938892E+01  0.10796384448E+02  0.51100000000E-03 0.  1.
        -11    1    3    3    0    0  0.18090999069E+01 -0.10402383573E+02 -0.13572361681E+02  0.17195680514E+02  0.51100000000E-03 0. -1.
        -12    1    3    3    0    0  0.12511289177E+02 -0.93068651071E+01 -0.12194264984E+02  0.19795206326E+02  0.00000000000E+00 0.  1.
</event>
<event>
 7    1  0.2886681E-010  0.4778727E+02  0.7816164E-02  0.1312668E+00
        -11   -1    0    0    0    0  0.00000000000E+00  0.00000000000E+00  0.45593999997E+02  0.45594000000E+02  0.51100000000E-03 0. -1.
         11   -1    0    0    0    0 -0.00000000000E+00 -0.00000000000E+00 -0.45593999997E+02  0.45594000000E+02  0.51100000000E-03 0.  1.
    9900012    2    1    2    0    0  0.16662367799E+01 -0.15116788567E+02  0.40648859668E+02  0.47787269201E+02  0.19999991594E+02 0.  0.
        -12    1    1    2    0    0 -0.16662367799E+01  0.15116788567E+02 -0.40648859668E+02  0.43400730799E+02  0.00000000000E+00 0.  1.
         11    1    3    3    0    0 -0.67437444595E+01 -0.97311880962E+01  0.19850507928E+02  0.23113129956E+02  0.51100000000E-03 0. -1.
        -11    1    3    3    0    0  0.78732426684E+01 -0.17113151396E+01  0.80241102438E+01  0.11371143086E+02  0.51100000000E-03 0.  1.
        -12    1    3    3    0    0  0.53673857100E+00 -0.36742853308E+01  0.12774241496E+02  0.13302996158E+02  0.00000000000E+00 0.  1.
</event>
<event>
 7    1  0.2886681E-010  0.4778727E+02  0.7816164E-02  0.1312668E+00
        -11   -1    0    0    0    0  0.00000000000E+00  0.00000000000E+00  0.45593999997E+02  0.45594000000E+02  0.51100000000E-03 0. -1.
         11   -1    0    0    0    0 -0.00000000000E+00 -0.00000000000E+00 -0.45593999997E+02  0.45594000000E+02  0.51100000000E-03 0.  1.
    9900012    2    1    2    0    0 -0.35663374198E+02  0.33166008669E+01  0.24510144348E+02  0.47787271015E+02  0.19999999866E+02 0.  0.
        -12    1    1    2    0    0  0.35663374198E+02 -0.33166008669E+01 -0.24510144348E+02  0.43400728985E+02  0.00000000000E+00 0.  1.
         11    1    3    3    0    0 -0.20434699811E+02 -0.14848975069E+00  0.12922359667E+02  0.24178221299E+02  0.51100000000E-03 0. -1.
        -11    1    3    3    0    0  0.10534469151E+01 -0.82322902736E+00  0.55705998787E+01  0.57287904225E+01  0.51100000000E-03 0.  1.
        -12    1    3    3    0    0 -0.16282121302E+02  0.42883196449E+01  0.60171848023E+01  0.17880259294E+02  0.00000000000E+00 0.  1.
</event>
<event>
 7    1  0.2886681E-010  0.4778727E+02  0.7816164E-02  0.1312668E+00
        -11   -1    0    0    0    0  0.00000000000E+00  0.00000000000E+00  0.45593999997E+02  0.45594000000E+02  0.51100000000E-03 0. -1.
         11   -1    0    0    0    0 -0.00000000000E+00 -0.00000000000E+00 -0.45593999997E+02  0.45594000000E+02  0.51100000000E-03 0.  1.
    9900012    2    1    2    0    0 -0.31301688502E+02 -0.49469165067E+01  0.29653938001E+02  0.47787265848E+02  0.19999976305E+02 0.  0.
        -12    1    1    2    0    0  0.31301688502E+02  0.49469165067E+01 -0.29653938001E+02  0.43400734152E+02  0.00000000000E+00 0.  1.
         11    1    3    3    0    0 -0.38373130989E+01  0.13633239579E+01  0.90232166010E+01  0.98995990890E+01  0.51100000000E-03 0. -1.
        -11    1    3    3    0    0 -0.27418424214E+02 -0.89481514629E+01  0.17276538051E+02  0.33620204763E+02  0.51100000000E-03 0.  1.
        -12    1    3    3    0    0 -0.45951188582E-01  0.26379109983E+01  0.33541833487E+01  0.42674619955E+01  0.00000000000E+00 0.  1.
</event>
<event>
 7    1  0.2886681E-010  0.4778724E+02  0.7816164E-02  0.1312668E+00
        -11   -1    0    0    0    0  0.00000000000E+00  0.00000000000E+00  0.45593999997E+02  0.45594000000E+02  0.51100000000E-03 0.  1.
         11   -1    0    0    0    0 -0.00000000000E+00 -0.00000000000E+00 -0.45593999997E+02  0.45594000000E+02  0.51100000000E-03 0. -1.
    9900012    2    1    2    0    0 -0.80215029408E+01 -0.16752209332E+02 -0.39225559400E+02  0.47787244970E+02  0.19999881117E+02 0.  0.
        -12    1    1    2    0    0  0.80215029408E+01  0.16752209332E+02  0.39225559400E+02  0.43400755030E+02  0.00000000000E+00 0.  1.
         11    1    3    3    0    0  0.14066158111E+01 -0.12678963966E+02 -0.20372330643E+02  0.24036774978E+02  0.51100000000E-03 0. -1.
        -11    1    3    3    0    0 -0.77420393588E+01  0.15672029248E+01 -0.14189356141E+02  0.16239862265E+02  0.51100000000E-03 0.  1.
        -12    1    3    3    0    0 -0.16860793931E+01 -0.56404482911E+01 -0.46638726159E+01  0.75106077265E+01  0.00000000000E+00 0.  1.
</event>
<event>
 7    1  0.2886681E-010  0.4778727E+02  0.7816164E-02  0.1312668E+00
        -11   -1    0    0    0    0  0.00000000000E+00  0.00000000000E+00  0.45593999997E+02  0.45594000000E+02  0.51100000000E-03 0. -1.
         11   -1    0    0    0    0 -0.00000000000E+00 -0.00000000000E+00 -0.45593999997E+02  0.45594000000E+02  0.51100000000E-03 0.  1.
    9900012    2    1    2    0    0  0.16217996262E+01 -0.42915302185E+02  0.62665866166E+01  0.47787268399E+02  0.19999987940E+02 0.  0.
        -12    1    1    2    0    0 -0.16217996262E+01  0.42915302185E+02 -0.62665866166E+01  0.43400731601E+02  0.00000000000E+00 0.  1.
         11    1    3    3    0    0  0.46011891153E+01 -0.17048709853E+02  0.81932724453E+01  0.19466873466E+02  0.51100000000E-03 0. -1.
        -11    1    3    3    0    0 -0.66893156601E+01 -0.21541465809E+02 -0.15923698832E+01  0.22612327065E+02  0.51100000000E-03 0.  1.
        -12    1    3    3    0    0  0.37099261710E+01 -0.43251265231E+01 -0.33431594544E+00  0.57080678680E+01  0.00000000000E+00 0.  1.
</event>
<event>
 7    1  0.2886681E-010  0.4778725E+02  0.7816164E-02  0.1312668E+00
        -11   -1    0    0    0    0  0.00000000000E+00  0.00000000000E+00  0.45593999997E+02  0.45594000000E+02  0.51100000000E-03 0.  1.
         11   -1    0    0    0    0 -0.00000000000E+00 -0.00000000000E+00 -0.45593999997E+02  0.45594000000E+02  0.51100000000E-03 0. -1.
    9900012    2    1    2    0    0 -0.56539380180E+01  0.22903355768E+02 -0.36429301664E+02  0.47787254151E+02  0.19999922977E+02 0.  0.
        -12    1    1    2    0    0  0.56539380180E+01 -0.22903355768E+02  0.36429301664E+02  0.43400745849E+02  0.00000000000E+00 0.  1.
         11    1    3    3    0    0 -0.10135471636E+02  0.76185426066E+01 -0.14501609216E+02  0.19263090273E+02  0.51100000000E-03 0. -1.
        -11    1    3    3    0    0  0.48051563216E+01  0.28557067560E+01 -0.48538596939E+01  0.74030090193E+01  0.51100000000E-03 0.  1.
         12    1    3    3    0    0 -0.32362270340E+00  0.12429106405E+02 -0.17073832754E+02  0.21121154859E+02  0.00000000000E+00 0. -1.
</event>
<event>
 7    1  0.2886681E-010  0.4778728E+02  0.7816164E-02  0.1312668E+00
        -11   -1    0    0    0    0  0.00000000000E+00  0.00000000000E+00  0.45593999997E+02  0.45594000000E+02  0.51100000000E-03 0.  1.
         11   -1    0    0    0    0 -0.00000000000E+00 -0.00000000000E+00 -0.45593999997E+02  0.45594000000E+02  0.51100000000E-03 0. -1.
    9900012    2    1    2    0    0 -0.10873288838E+02 -0.34751574521E+02 -0.23616137012E+02  0.47787282619E+02  0.20000052771E+02 0.  0.
        -12    1    1    2    0    0  0.10873288838E+02  0.34751574521E+02  0.23616137012E+02  0.43400717381E+02  0.00000000000E+00 0.  1.
         11    1    3    3    0    0 -0.24852300268E+01  0.16079352312E+01 -0.30468435746E+00  0.29756775384E+01  0.51100000000E-03 0. -1.
        -11    1    3    3    0    0 -0.10146892557E+01 -0.20195948079E+02 -0.96814892981E+01  0.22419570656E+02  0.51100000000E-03 0.  1.
         12    1    3    3    0    0 -0.73733695553E+01 -0.16163561674E+02 -0.13629963356E+02  0.22392034425E+02  0.00000000000E+00 0. -1.
</event>
<event>
 7    1  0.2886681E-010  0.4778727E+02  0.7816164E-02  0.1312668E+00
        -11   -1    0    0    0    0  0.00000000000E+00  0.00000000000E+00  0.45593999997E+02  0.45594000000E+02  0.51100000000E-03 0.  1.
         11   -1    0    0    0    0 -0.00000000000E+00 -0.00000000000E+00 -0.45593999997E+02  0.45594000000E+02  0.51100000000E-03 0. -1.
    9900012    2    1    2    0    0 -0.22724204643E+02  0.36744790177E+02 -0.41296507889E+01  0.47787273077E+02  0.20000009266E+02 0.  0.
        -12    1    1    2    0    0  0.22724204643E+02 -0.36744790177E+02  0.41296507889E+01  0.43400726923E+02  0.00000000000E+00 0.  1.
         11    1    3    3    0    0 -0.44146176167E+01  0.23905723665E+01 -0.25818068089E+01  0.56452999566E+01  0.51100000000E-03 0.  1.
        -11    1    3    3    0    0 -0.14341050593E+02  0.16973863814E+02 -0.73319281443E+01  0.23399464854E+02  0.51100000000E-03 0. -1.
        -12    1    3    3    0    0 -0.39685364335E+01  0.17380353996E+02  0.57840841642E+01  0.18742508266E+02  0.00000000000E+00 0.  1.
</event>
<event>
 7    1  0.2886681E-010  0.4778727E+02  0.7816164E-02  0.1312668E+00
        -11   -1    0    0    0    0  0.00000000000E+00  0.00000000000E+00  0.45593999997E+02  0.45594000000E+02  0.51100000000E-03 0.  1.
         11   -1    0    0    0    0 -0.00000000000E+00 -0.00000000000E+00 -0.45593999997E+02  0.45594000000E+02  0.51100000000E-03 0. -1.
    9900012    2    1    2    0    0  0.28655014505E+02 -0.23636110483E+02 -0.22446555140E+02  0.47787269445E+02  0.19999992709E+02 0.  0.
        -12    1    1    2    0    0 -0.28655014505E+02  0.23636110483E+02  0.22446555140E+02  0.43400730555E+02  0.00000000000E+00 0.  1.
         11    1    3    3    0    0  0.63197813461E+01 -0.29239360841E+01 -0.64252579523E+01  0.94748603420E+01  0.51100000000E-03 0. -1.
        -11    1    3    3    0    0  0.19449743124E+02 -0.13768325960E+02 -0.18740753383E+02  0.30316252158E+02  0.51100000000E-03 0.  1.
        -12    1    3    3    0    0  0.28854900353E+01 -0.69438484390E+01  0.27194561955E+01  0.79961569449E+01  0.00000000000E+00 0.  1.
</event>
<event>
 7    1  0.2886681E-010  0.4778727E+02  0.7816164E-02  0.1312668E+00
        -11   -1    0    0    0    0  0.00000000000E+00  0.00000000000E+00  0.45593999997E+02  0.45594000000E+02  0.51100000000E-03 0.  1.
         11   -1    0    0    0    0 -0.00000000000E+00 -0.00000000000E+00 -0.45593999997E+02  0.45594000000E+02  0.51100000000E-03 0. -1.
    9900012    2    1    2    0    0 -0.12466127364E+02 -0.39861898260E+01 -0.41380301682E+02  0.47787269498E+02  0.19999992949E+02 0.  0.
        -12    1    1    2    0    0  0.12466127364E+02  0.39861898260E+01  0.41380301682E+02  0.43400730502E+02  0.00000000000E+00 0.  1.
         11    1    3    3    0    0  0.22857871302E+01  0.20180455988E+01 -0.18669159242E+02  0.18916522881E+02  0.51100000000E-03 0. -1.
        -11    1    3    3    0    0 -0.39422317927E+01 -0.56969885899E+01 -0.75351456574E+01  0.10235980209E+02  0.51100000000E-03 0.  1.
         12    1    3    3    0    0 -0.10809682701E+02 -0.30724683492E+00 -0.15175996783E+02  0.18634766408E+02  0.00000000000E+00 0. -1.
</event>
<event>
 7    1  0.2886681E-010  0.4778727E+02  0.7816164E-02  0.1312668E+00
        -11   -1    0    0    0    0  0.00000000000E+00  0.00000000000E+00  0.45593999997E+02  0.45594000000E+02  0.51100000000E-03 0.  1.
         11   -1    0    0    0    0 -0.00000000000E+00 -0.00000000000E+00 -0.45593999997E+02  0.45594000000E+02  0.51100000000E-03 0. -1.
    9900012    2    1    2    0    0  0.33179692781E+01 -0.24230744273E+02 -0.35853665203E+02  0.47787271934E+02  0.20000004054E+02 0.  0.
        -12    1    1    2    0    0 -0.33179692781E+01  0.24230744273E+02  0.35853665203E+02  0.43400728066E+02  0.00000000000E+00 0.  1.
         11    1    3    3    0    0  0.25973124654E+01 -0.14286791268E+02 -0.26801760774E+02  0.30482664215E+02  0.51100000000E-03 0. -1.
        -11    1    3    3    0    0 -0.85403048408E+00 -0.49756001621E+00  0.22698504785E+01  0.24757131282E+01  0.51100000000E-03 0.  1.
        -12    1    3    3    0    0  0.15746872968E+01 -0.94463929892E+01 -0.11321754908E+02  0.14828894591E+02  0.00000000000E+00 0.  1.
</event>
<event>
 7    1  0.2886681E-010  0.4778727E+02  0.7816164E-02  0.1312668E+00
        -11   -1    0    0    0    0  0.00000000000E+00  0.00000000000E+00  0.45593999997E+02  0.45594000000E+02  0.51100000000E-03 0.  1.
         11   -1    0    0    0    0 -0.00000000000E+00 -0.00000000000E+00 -0.45593999997E+02  0.45594000000E+02  0.51100000000E-03 0. -1.
    9900012    2    1    2    0    0  0.20513667023E+02 -0.40851980445E+01 -0.38027942049E+02  0.47787265510E+02  0.19999974765E+02 0.  0.
        -12    1    1    2    0    0 -0.20513667023E+02  0.40851980445E+01  0.38027942049E+02  0.43400734490E+02  0.00000000000E+00 0.  1.
         11    1    3    3    0    0  0.27368316414E+01  0.33974138950E+01 -0.18947781133E+02  0.19443535654E+02  0.51100000000E-03 0. -1.
        -11    1    3    3    0    0  0.87724955629E+01 -0.63012468342E+01 -0.58126538460E+01  0.12265779024E+02  0.51100000000E-03 0.  1.
        -12    1    3    3    0    0  0.90043398191E+01 -0.11813651052E+01 -0.13267507070E+02  0.16077950832E+02  0.00000000000E+00 0.  1.
</event>
<event>
 7    1  0.2886681E-010  0.4778727E+02  0.7816164E-02  0.1312668E+00
        -11   -1    0    0    0    0  0.00000000000E+00  0.00000000000E+00  0.45593999997E+02  0.45594000000E+02  0.51100000000E-03 0. -1.
         11   -1    0    0    0    0 -0.00000000000E+00 -0.00000000000E+00 -0.45593999997E+02  0.45594000000E+02  0.51100000000E-03 0.  1.
    9900012    2    1    2    0    0 -0.15572560835E+01 -0.18955151604E+02  0.39011542744E+02  0.47787270904E+02  0.19999999359E+02 0.  0.
        -12    1    1    2    0    0  0.15572560835E+01  0.18955151604E+02 -0.39011542744E+02  0.43400729096E+02  0.00000000000E+00 0.  1.
         11    1    3    3    0    0  0.69111200969E+01 -0.10889737084E+02  0.20842175443E+02  0.24510125096E+02  0.51100000000E-03 0. -1.
        -11    1    3    3    0    0 -0.41614102835E+01  0.47567563096E+00  0.23833474071E+01  0.48191231544E+01  0.51100000000E-03 0.  1.
         12    1    3    3    0    0 -0.43069658969E+01 -0.85410901508E+01  0.15786019893E+02  0.18458022653E+02  0.00000000000E+00 0. -1.
</event>
<event>
 7    1  0.2886681E-010  0.4778728E+02  0.7816164E-02  0.1312668E+00
        -11   -1    0    0    0    0  0.00000000000E+00  0.00000000000E+00  0.45593999997E+02  0.45594000000E+02  0.51100000000E-03 0.  1.
         11   -1    0    0    0    0 -0.00000000000E+00 -0.00000000000E+00 -0.45593999997E+02  0.45594000000E+02  0.51100000000E-03 0. -1.
    9900012    2    1    2    0    0  0.37472128470E+02  0.13482896389E+02 -0.17253230784E+02  0.47787275587E+02  0.20000020709E+02 0.  0.
        -12    1    1    2    0    0 -0.37472128470E+02 -0.13482896389E+02  0.17253230784E+02  0.43400724413E+02  0.00000000000E+00 0.  1.
         11    1    3    3    0    0  0.13634060998E+02  0.21898345294E+00 -0.26632953455E+01  0.13893477441E+02  0.51100000000E-03 0. -1.
        -11    1    3    3    0    0  0.24948399887E+02  0.13629662675E+02 -0.15529716980E+02  0.32393864717E+02  0.51100000000E-03 0.  1.
        -12    1    3    3    0    0 -0.11103324152E+01 -0.36574973857E+00  0.93978154160E+00  0.14999334283E+01  0.00000000000E+00 0.  1.
</event>
<event>
 7    1  0.2886681E-010  0.4778727E+02  0.7816164E-02  0.1312668E+00
        -11   -1    0    0    0    0  0.00000000000E+00  0.00000000000E+00  0.45593999997E+02  0.45594000000E+02  0.51100000000E-03 0. -1.
         11   -1    0    0    0    0 -0.00000000000E+00 -0.00000000000E+00 -0.45593999997E+02  0.45594000000E+02  0.51100000000E-03 0.  1.
    9900012    2    1    2    0    0  0.16610809897E+01  0.19708953979E+02  0.38631868139E+02  0.47787270825E+02  0.19999999001E+02 0.  0.
        -12    1    1    2    0    0 -0.16610809897E+01 -0.19708953979E+02 -0.38631868139E+02  0.43400729175E+02  0.00000000000E+00 0.  1.
         11    1    3    3    0    0 -0.18742143891E+01  0.17804883630E+02  0.30170394236E+02  0.35082463558E+02  0.51100000000E-03 0. -1.
        -11    1    3    3    0    0  0.15402897202E+01 -0.34330941415E+01  0.30018982279E+01  0.48135248040E+01  0.51100000000E-03 0.  1.
        -12    1    3    3    0    0  0.19950056586E+01  0.53371644898E+01  0.54595756753E+01  0.78912824638E+01  0.00000000000E+00 0.  1.
</event>
<event>
 7    1  0.2886681E-010  0.4778727E+02  0.7816164E-02  0.1312668E+00
        -11   -1    0    0    0    0  0.00000000000E+00  0.00000000000E+00  0.45593999997E+02  0.45594000000E+02  0.51100000000E-03 0.  1.
         11   -1    0    0    0    0 -0.00000000000E+00 -0.00000000000E+00 -0.45593999997E+02  0.45594000000E+02  0.51100000000E-03 0. -1.
    9900012    2    1    2    0    0 -0.12448204349E+02  0.31772460115E+02 -0.26817459907E+02  0.47787272251E+02  0.20000005500E+02 0.  0.
        -12    1    1    2    0    0  0.12448204349E+02 -0.31772460115E+02  0.26817459907E+02  0.43400727749E+02  0.00000000000E+00 0.  1.
         11    1    3    3    0    0 -0.63288799868E+01  0.26762526727E+02 -0.15686691162E+02  0.31660066939E+02  0.51100000000E-03 0. -1.
        -11    1    3    3    0    0 -0.49455645189E+01  0.93808450967E+00 -0.10752825492E+02  0.11872736301E+02  0.51100000000E-03 0.  1.
         12    1    3    3    0    0 -0.11737598429E+01  0.40718488787E+01 -0.37794325312E+00  0.42544690107E+01  0.00000000000E+00 0. -1.
</event>
<event>
 7    1  0.2886681E-010  0.4778727E+02  0.7816164E-02  0.1312668E+00
        -11   -1    0    0    0    0  0.00000000000E+00  0.00000000000E+00  0.45593999997E+02  0.45594000000E+02  0.51100000000E-03 0. -1.
         11   -1    0    0    0    0 -0.00000000000E+00 -0.00000000000E+00 -0.45593999997E+02  0.45594000000E+02  0.51100000000E-03 0.  1.
    9900012    2    1    2    0    0  0.18946205973E+02 -0.37000400920E+02 -0.12475377292E+02  0.47787269274E+02  0.19999991927E+02 0.  0.
        -12    1    1    2    0    0 -0.18946205973E+02  0.37000400920E+02  0.12475377292E+02  0.43400730726E+02  0.00000000000E+00 0.  1.
         11    1    3    3    0    0  0.77714137740E+00 -0.12542303640E+02 -0.55166045450E+01  0.13723930024E+02  0.51100000000E-03 0. -1.
        -11    1    3    3    0    0  0.19502462129E+02 -0.23815480464E+02 -0.43826975623E+01  0.31092300928E+02  0.51100000000E-03 0.  1.
        -12    1    3    3    0    0 -0.13333975331E+01 -0.64261681514E+00 -0.25760751850E+01  0.29710383221E+01  0.00000000000E+00 0.  1.
</event>
<event>
 7    1  0.2886681E-010  0.4778727E+02  0.7816164E-02  0.1312668E+00
        -11   -1    0    0    0    0  0.00000000000E+00  0.00000000000E+00  0.45593999997E+02  0.45594000000E+02  0.51100000000E-03 0.  1.
         11   -1    0    0    0    0 -0.00000000000E+00 -0.00000000000E+00 -0.45593999997E+02  0.45594000000E+02  0.51100000000E-03 0. -1.
    9900012    2    1    2    0    0 -0.87522542120E+01  0.19341078225E+02 -0.37854247088E+02  0.47787270936E+02  0.19999999503E+02 0.  0.
        -12    1    1    2    0    0  0.87522542120E+01 -0.19341078225E+02  0.37854247088E+02  0.43400729064E+02  0.00000000000E+00 0.  1.
         11    1    3    3    0    0 -0.15154361944E+01  0.60874557066E+01 -0.23511740786E+02  0.24334247860E+02  0.51100000000E-03 0.  1.
        -11    1    3    3    0    0 -0.37093366744E+01  0.82600410954E+01 -0.14308872814E+01  0.91670549325E+01  0.51100000000E-03 0. -1.
         12    1    3    3    0    0 -0.35274813431E+01  0.49935814228E+01 -0.12911619021E+02  0.14285968143E+02  0.00000000000E+00 0. -1.
</event>
<event>
 7    1  0.2886681E-010  0.4778727E+02  0.7816164E-02  0.1312668E+00
        -11   -1    0    0    0    0  0.00000000000E+00  0.00000000000E+00  0.45593999997E+02  0.45594000000E+02  0.51100000000E-03 0.  1.
         11   -1    0    0    0    0 -0.00000000000E+00 -0.00000000000E+00 -0.45593999997E+02  0.45594000000E+02  0.51100000000E-03 0. -1.
    9900012    2    1    2    0    0  0.36780383242E+02 -0.26649664562E+01 -0.22885031343E+02  0.47787270776E+02  0.19999998775E+02 0.  0.
        -12    1    1    2    0    0 -0.36780383242E+02  0.26649664562E+01  0.22885031343E+02  0.43400729224E+02  0.00000000000E+00 0.  1.
         11    1    3    3    0    0  0.18097589297E+02 -0.29597816750E+01 -0.80010475763E+01  0.20007493809E+02  0.51100000000E-03 0. -1.
        -11    1    3    3    0    0  0.35641370337E+01 -0.21751076955E+01 -0.11300399001E+02  0.12047123479E+02  0.51100000000E-03 0.  1.
        -12    1    3    3    0    0  0.15118656911E+02  0.24699229142E+01 -0.35835847654E+01  0.15732653488E+02  0.00000000000E+00 0.  1.
</event>
<event>
 7    1  0.2886681E-010  0.4778727E+02  0.7816164E-02  0.1312668E+00
        -11   -1    0    0    0    0  0.00000000000E+00  0.00000000000E+00  0.45593999997E+02  0.45594000000E+02  0.51100000000E-03 0.  1.
         11   -1    0    0    0    0 -0.00000000000E+00 -0.00000000000E+00 -0.45593999997E+02  0.45594000000E+02  0.51100000000E-03 0. -1.
    9900012    2    1    2    0    0  0.25383853190E+02 -0.20922581334E+02 -0.28311280108E+02  0.47787274271E+02  0.20000014710E+02 0.  0.
        -12    1    1    2    0    0 -0.25383853190E+02  0.20922581334E+02  0.28311280108E+02  0.43400725729E+02  0.00000000000E+00 0.  1.
         11    1    3    3    0    0  0.13168928022E+02 -0.87883997361E+01 -0.23738570781E+02  0.28533776094E+02  0.51100000000E-03 0. -1.
        -11    1    3    3    0    0  0.19627781200E+01 -0.43132003901E+01  0.15407020293E+01  0.49829668429E+01  0.51100000000E-03 0.  1.
        -12    1    3    3    0    0  0.10252147048E+02 -0.78209812079E+01 -0.61134113567E+01  0.14270531334E+02  0.00000000000E+00 0.  1.
</event>
<event>
 7    1  0.2886681E-010  0.4778727E+02  0.7816164E-02  0.1312668E+00
        -11   -1    0    0    0    0  0.00000000000E+00  0.00000000000E+00  0.45593999997E+02  0.45594000000E+02  0.51100000000E-03 0.  1.
         11   -1    0    0    0    0 -0.00000000000E+00 -0.00000000000E+00 -0.45593999997E+02  0.45594000000E+02  0.51100000000E-03 0. -1.
    9900012    2    1    2    0    0 -0.90891533236E+01 -0.13516463805E+02 -0.40228296091E+02  0.47787270647E+02  0.19999998190E+02 0.  0.
        -12    1    1    2    0    0  0.90891533236E+01  0.13516463805E+02  0.40228296091E+02  0.43400729353E+02  0.00000000000E+00 0.  1.
         11    1    3    3    0    0 -0.73972236454E+01 -0.35683878841E+01 -0.76272062375E+01  0.11208326592E+02  0.51100000000E-03 0. -1.
        -11    1    3    3    0    0  0.15958738669E+01  0.54957608649E+00 -0.19051408983E+02  0.19126030214E+02  0.51100000000E-03 0.  1.
        -12    1    3    3    0    0 -0.32878035451E+01 -0.10497652007E+02 -0.13549680871E+02  0.17452913841E+02  0.00000000000E+00 0.  1.
</event>
<event>
 7    1  0.2886681E-010  0.4778728E+02  0.7816164E-02  0.1312668E+00
        -11   -1    0    0    0    0  0.00000000000E+00  0.00000000000E+00  0.45593999997E+02  0.45594000000E+02  0.51100000000E-03 0.  1.
         11   -1    0    0    0    0 -0.00000000000E+00 -0.00000000000E+00 -0.45593999997E+02  0.45594000000E+02  0.51100000000E-03 0. -1.
    9900012    2    1    2    0    0  0.14017293202E+02  0.38407341391E+02  0.14560702663E+02  0.47787280611E+02  0.20000043620E+02 0.  0.
        -12    1    1    2    0    0 -0.14017293202E+02 -0.38407341391E+02 -0.14560702663E+02  0.43400719389E+02  0.00000000000E+00 0.  1.
         11    1    3    3    0    0  0.14071820547E+02  0.27867801870E+02  0.10832243003E+02  0.33044939148E+02  0.51100000000E-03 0. -1.
        -11    1    3    3    0    0 -0.24891016787E+01  0.49022022614E+01 -0.24610179155E+01  0.60236055333E+01  0.51100000000E-03 0.  1.
        -12    1    3    3    0    0  0.24345743340E+01  0.56373372588E+01  0.61894775755E+01  0.87187359299E+01  0.00000000000E+00 0.  1.
</event>
<event>
 7    1  0.2886681E-010  0.4778727E+02  0.7816164E-02  0.1312668E+00
        -11   -1    0    0    0    0  0.00000000000E+00  0.00000000000E+00  0.45593999997E+02  0.45594000000E+02  0.51100000000E-03 0.  1.
         11   -1    0    0    0    0 -0.00000000000E+00 -0.00000000000E+00 -0.45593999997E+02  0.45594000000E+02  0.51100000000E-03 0. -1.
    9900012    2    1    2    0    0  0.14541473901E+02  0.56283766602E+01 -0.40502965500E+02  0.47787270728E+02  0.19999998558E+02 0.  0.
        -12    1    1    2    0    0 -0.14541473901E+02 -0.56283766602E+01  0.40502965500E+02  0.43400729272E+02  0.00000000000E+00 0.  1.
         11    1    3    3    0    0  0.11994893862E+02  0.48145180826E+01 -0.14224324924E+02  0.19219481860E+02  0.51100000000E-03 0. -1.
        -11    1    3    3    0    0  0.38074593564E+01 -0.41613994807E+01 -0.17636047046E+02  0.18516051092E+02  0.51100000000E-03 0.  1.
        -12    1    3    3    0    0 -0.12608793182E+01  0.49752580583E+01 -0.86425935296E+01  0.10051737776E+02  0.00000000000E+00 0.  1.
</event>
<event>
 7    1  0.2886681E-010  0.4778727E+02  0.7816164E-02  0.1312668E+00
        -11   -1    0    0    0    0  0.00000000000E+00  0.00000000000E+00  0.45593999997E+02  0.45594000000E+02  0.51100000000E-03 0. -1.
         11   -1    0    0    0    0 -0.00000000000E+00 -0.00000000000E+00 -0.45593999997E+02  0.45594000000E+02  0.51100000000E-03 0.  1.
    9900012    2    1    2    0    0 -0.41098851208E+02 -0.77072365464E+00  0.13925289998E+02  0.47787270892E+02  0.19999999305E+02 0.  0.
        -12    1    1    2    0    0  0.41098851208E+02  0.77072365464E+00 -0.13925289998E+02  0.43400729108E+02  0.00000000000E+00 0.  1.
         11    1    3    3    0    0 -0.17046089025E+02  0.26517488806E+01  0.11981922606E+00  0.17251529790E+02  0.51100000000E-03 0. -1.
        -11    1    3    3    0    0 -0.21199474301E+02 -0.72886209099E+01  0.11740962642E+02  0.25305965886E+02  0.51100000000E-03 0.  1.
        -12    1    3    3    0    0 -0.28532878814E+01  0.38661483747E+01  0.20645081299E+01  0.52297752158E+01  0.00000000000E+00 0.  1.
</event>
<event>
 7    1  0.2886681E-010  0.4778728E+02  0.7816164E-02  0.1312668E+00
        -11   -1    0    0    0    0  0.00000000000E+00  0.00000000000E+00  0.45593999997E+02  0.45594000000E+02  0.51100000000E-03 0. -1.
         11   -1    0    0    0    0 -0.00000000000E+00 -0.00000000000E+00 -0.45593999997E+02  0.45594000000E+02  0.51100000000E-03 0.  1.
    9900012    2    1    2    0    0 -0.79835992955E+01  0.37299485457E+01  0.42496733536E+02  0.47787277251E+02  0.20000028298E+02 0.  0.
        -12    1    1    2    0    0  0.79835992955E+01 -0.37299485457E+01 -0.42496733536E+02  0.43400722749E+02  0.00000000000E+00 0.  1.
         11    1    3    3    0    0  0.32964618696E+01 -0.49810297333E+01  0.56737815642E+01  0.82382713940E+01  0.51100000000E-03 0.  1.
        -11    1    3    3    0    0 -0.72848330142E+01  0.69060774584E+01  0.26183725172E+02  0.28041935775E+02  0.51100000000E-03 0. -1.
        -12    1    3    3    0    0 -0.39952281509E+01  0.18049008207E+01  0.10639226801E+02  0.11507070082E+02  0.00000000000E+00 0.  1.
</event>
<event>
 7    1  0.2886681E-010  0.4778727E+02  0.7816164E-02  0.1312668E+00
        -11   -1    0    0    0    0  0.00000000000E+00  0.00000000000E+00  0.45593999997E+02  0.45594000000E+02  0.51100000000E-03 0.  1.
         11   -1    0    0    0    0 -0.00000000000E+00 -0.00000000000E+00 -0.45593999997E+02  0.45594000000E+02  0.51100000000E-03 0. -1.
    9900012    2    1    2    0    0 -0.35444914165E+02 -0.22974408583E+02 -0.99728572092E+01  0.47787271080E+02  0.20000000163E+02 0.  0.
        -12    1    1    2    0    0  0.35444914165E+02  0.22974408583E+02  0.99728572092E+01  0.43400728920E+02  0.00000000000E+00 0.  1.
         11    1    3    3    0    0 -0.16776869585E+02 -0.17731095941E+01 -0.13192229760E+01  0.16921809011E+02  0.51100000000E-03 0. -1.
        -11    1    3    3    0    0 -0.34733819741E+00 -0.48172531048E+01 -0.65899629968E-01  0.48302085173E+01  0.51100000000E-03 0.  1.
         12    1    3    3    0    0 -0.18320706383E+02 -0.16384045884E+02 -0.85877346033E+01  0.26035253552E+02  0.00000000000E+00 0. -1.
</event>
<event>
 7    1  0.2886681E-010  0.4778729E+02  0.7816164E-02  0.1312668E+00
        -11   -1    0    0    0    0  0.00000000000E+00  0.00000000000E+00  0.45593999997E+02  0.45594000000E+02  0.51100000000E-03 0.  1.
         11   -1    0    0    0    0 -0.00000000000E+00 -0.00000000000E+00 -0.45593999997E+02  0.45594000000E+02  0.51100000000E-03 0. -1.
    9900012    2    1    2    0    0  0.47107418110E+01 -0.37701040967E+01 -0.42979264224E+02  0.47787286566E+02  0.20000070769E+02 0.  0.
        -12    1    1    2    0    0 -0.47107418110E+01  0.37701040967E+01  0.42979264224E+02  0.43400713434E+02  0.00000000000E+00 0.  1.
         11    1    3    3    0    0 -0.33176485096E+01 -0.46618671056E+01 -0.65410348171E+01  0.86905082293E+01  0.51100000000E-03 0. -1.
        -11    1    3    3    0    0  0.63141345371E+01 -0.23417494792E+01 -0.34089041005E+02  0.34747874791E+02  0.51100000000E-03 0.  1.
        -12    1    3    3    0    0  0.17142557836E+01  0.32335124882E+01 -0.23491884023E+01  0.43489035460E+01  0.00000000000E+00 0.  1.
</event>
<event>
 7    1  0.2886681E-010  0.4778727E+02  0.7816164E-02  0.1312668E+00
        -11   -1    0    0    0    0  0.00000000000E+00  0.00000000000E+00  0.45593999997E+02  0.45594000000E+02  0.51100000000E-03 0.  1.
         11   -1    0    0    0    0 -0.00000000000E+00 -0.00000000000E+00 -0.45593999997E+02  0.45594000000E+02  0.51100000000E-03 0. -1.
    9900012    2    1    2    0    0  0.34699562942E+01  0.10590478543E+02 -0.41945495276E+02  0.47787269518E+02  0.19999993041E+02 0.  0.
        -12    1    1    2    0    0 -0.34699562942E+01 -0.10590478543E+02  0.41945495276E+02  0.43400730482E+02  0.00000000000E+00 0.  1.
         11    1    3    3    0    0 -0.82008093742E+00  0.67595084775E+01 -0.33758695890E+02  0.34438539981E+02  0.51100000000E-03 0. -1.
        -11    1    3    3    0    0  0.38754468316E+01  0.48547465054E+01 -0.12650436413E+01  0.63393996128E+01  0.51100000000E-03 0.  1.
        -12    1    3    3    0    0  0.41459040001E+00 -0.10237764403E+01 -0.69217557444E+01  0.70093299241E+01  0.00000000000E+00 0.  1.
</event>
<event>
 7    1  0.2886681E-010  0.4778727E+02  0.7816164E-02  0.1312668E+00
        -11   -1    0    0    0    0  0.00000000000E+00  0.00000000000E+00  0.45593999997E+02  0.45594000000E+02  0.51100000000E-03 0.  1.
         11   -1    0    0    0    0 -0.00000000000E+00 -0.00000000000E+00 -0.45593999997E+02  0.45594000000E+02  0.51100000000E-03 0. -1.
    9900012    2    1    2    0    0  0.35886579492E+01  0.71455187328E+01 -0.42657781490E+02  0.47787271602E+02  0.20000002542E+02 0.  0.
        -12    1    1    2    0    0 -0.35886579492E+01 -0.71455187328E+01  0.42657781490E+02  0.43400728398E+02  0.00000000000E+00 0.  1.
         11    1    3    3    0    0 -0.57918994545E-01  0.45171849649E+01 -0.96369159933E+01  0.10643235633E+02  0.51100000000E-03 0. -1.
        -11    1    3    3    0    0 -0.46433599720E+01  0.35346449081E+00 -0.24854774149E+02  0.25287260176E+02  0.51100000000E-03 0.  1.
        -12    1    3    3    0    0  0.82899369157E+01  0.22748692771E+01 -0.81660913476E+01  0.11856775792E+02  0.00000000000E+00 0.  1.
</event>
<event>
 7    1  0.2886681E-010  0.4778727E+02  0.7816164E-02  0.1312668E+00
        -11   -1    0    0    0    0  0.00000000000E+00  0.00000000000E+00  0.45593999997E+02  0.45594000000E+02  0.51100000000E-03 0.  1.
         11   -1    0    0    0    0 -0.00000000000E+00 -0.00000000000E+00 -0.45593999997E+02  0.45594000000E+02  0.51100000000E-03 0. -1.
    9900012    2    1    2    0    0 -0.29664894045E+02  0.26363546344E+02 -0.17566462452E+02  0.47787272845E+02  0.20000008209E+02 0.  0.
        -12    1    1    2    0    0  0.29664894045E+02 -0.26363546344E+02  0.17566462452E+02  0.43400727155E+02  0.00000000000E+00 0.  1.
         11    1    3    3    0    0 -0.18466361467E+02  0.14110952982E+02 -0.26670524078E+01  0.23393132939E+02  0.51100000000E-03 0. -1.
        -11    1    3    3    0    0 -0.10355529550E+01  0.23464703744E+01  0.12848338214E+01  0.28686392855E+01  0.51100000000E-03 0.  1.
         12    1    3    3    0    0 -0.10162979623E+02  0.99061229875E+01 -0.16184243866E+02  0.21525500621E+02  0.00000000000E+00 0. -1.
</event>
<event>
 7    1  0.2886681E-010  0.4778727E+02  0.7816164E-02  0.1312668E+00
        -11   -1    0    0    0    0  0.00000000000E+00  0.00000000000E+00  0.45593999997E+02  0.45594000000E+02  0.51100000000E-03 0.  1.
         11   -1    0    0    0    0 -0.00000000000E+00 -0.00000000000E+00 -0.45593999997E+02  0.45594000000E+02  0.51100000000E-03 0. -1.
    9900012    2    1    2    0    0 -0.37220246157E+02 -0.10976464349E+02 -0.19436916877E+02  0.47787271536E+02  0.20000002240E+02 0.  0.
        -12    1    1    2    0    0  0.37220246157E+02  0.10976464349E+02  0.19436916877E+02  0.43400728464E+02  0.00000000000E+00 0.  1.
         11    1    3    3    0    0 -0.14995211555E+01 -0.14492738387E+01 -0.42685010768E+01  0.47506904823E+01  0.51100000000E-03 0. -1.
        -11    1    3    3    0    0 -0.27961421022E+02 -0.12719437416E+02 -0.15945325402E+02  0.34610382202E+02  0.51100000000E-03 0.  1.
        -12    1    3    3    0    0 -0.77593039795E+01  0.31922469064E+01  0.77690960122E+00  0.84261988515E+01  0.00000000000E+00 0.  1.
</event>
<event>
 7    1  0.2886681E-010  0.4778726E+02  0.7816164E-02  0.1312668E+00
        -11   -1    0    0    0    0  0.00000000000E+00  0.00000000000E+00  0.45593999997E+02  0.45594000000E+02  0.51100000000E-03 0.  1.
         11   -1    0    0    0    0 -0.00000000000E+00 -0.00000000000E+00 -0.45593999997E+02  0.45594000000E+02  0.51100000000E-03 0. -1.
    9900012    2    1    2    0    0 -0.21370630567E+02  0.15697496092E+01 -0.37741964061E+02  0.47787264801E+02  0.19999971533E+02 0.  0.
        -12    1    1    2    0    0  0.21370630567E+02 -0.15697496092E+01  0.37741964061E+02  0.43400735199E+02  0.00000000000E+00 0.  1.
         11    1    3    3    0    0 -0.13292521841E+02  0.48343652209E+01 -0.20765900727E+02  0.25125382728E+02  0.51100000000E-03 0. -1.
        -11    1    3    3    0    0 -0.17281579266E+01 -0.14070692410E+01  0.17293970263E+01  0.28208488091E+01  0.51100000000E-03 0.  1.
         12    1    3    3    0    0 -0.63499507997E+01 -0.18575463706E+01 -0.18705460360E+02  0.19841033264E+02  0.00000000000E+00 0. -1.
</event>
<event>
 7    1  0.2886681E-010  0.4778727E+02  0.7816164E-02  0.1312668E+00
        -11   -1    0    0    0    0  0.00000000000E+00  0.00000000000E+00  0.45593999997E+02  0.45594000000E+02  0.51100000000E-03 0. -1.
         11   -1    0    0    0    0 -0.00000000000E+00 -0.00000000000E+00 -0.45593999997E+02  0.45594000000E+02  0.51100000000E-03 0.  1.
    9900012    2    1    2    0    0  0.24640366984E+02  0.34599094830E+02  0.89094642196E+01  0.47787267278E+02  0.19999982826E+02 0.  0.
        -12    1    1    2    0    0 -0.24640366984E+02 -0.34599094830E+02 -0.89094642196E+01  0.43400732722E+02  0.00000000000E+00 0.  1.
         11    1    3    3    0    0  0.13804367779E+02  0.74392807625E+01  0.94374420461E+00  0.15709682410E+02  0.51100000000E-03 0. -1.
        -11    1    3    3    0    0  0.12085376715E+02  0.25748277301E+02  0.91168809429E+01  0.29868840499E+02  0.51100000000E-03 0.  1.
        -12    1    3    3    0    0 -0.12493775106E+01  0.14115367662E+01 -0.11511609279E+01  0.22087443692E+01  0.00000000000E+00 0.  1.
</event>
<event>
 7    1  0.2886681E-010  0.4778727E+02  0.7816164E-02  0.1312668E+00
        -11   -1    0    0    0    0  0.00000000000E+00  0.00000000000E+00  0.45593999997E+02  0.45594000000E+02  0.51100000000E-03 0.  1.
         11   -1    0    0    0    0 -0.00000000000E+00 -0.00000000000E+00 -0.45593999997E+02  0.45594000000E+02  0.51100000000E-03 0. -1.
    9900012    2    1    2    0    0 -0.30281485025E+02 -0.22994796077E+02 -0.20925928950E+02  0.47787268619E+02  0.19999988943E+02 0.  0.
        -12    1    1    2    0    0  0.30281485025E+02  0.22994796077E+02  0.20925928950E+02  0.43400731381E+02  0.00000000000E+00 0.  1.
         11    1    3    3    0    0 -0.46184807273E+01 -0.30252621352E+01 -0.60704797426E+01  0.82056870390E+01  0.51100000000E-03 0. -1.
        -11    1    3    3    0    0 -0.96667399221E+01 -0.40932813008E+01 -0.13365132555E+02  0.16994928096E+02  0.51100000000E-03 0.  1.
        -12    1    3    3    0    0 -0.15996264375E+02 -0.15876252641E+02 -0.14903166532E+01  0.22586653484E+02  0.00000000000E+00 0.  1.
</event>
<event>
 7    1  0.2886681E-010  0.4778727E+02  0.7816164E-02  0.1312668E+00
        -11   -1    0    0    0    0  0.00000000000E+00  0.00000000000E+00  0.45593999997E+02  0.45594000000E+02  0.51100000000E-03 0.  1.
         11   -1    0    0    0    0 -0.00000000000E+00 -0.00000000000E+00 -0.45593999997E+02  0.45594000000E+02  0.51100000000E-03 0. -1.
    9900012    2    1    2    0    0  0.25570805517E+02  0.35031868402E+02  0.15891518815E+01  0.47787270718E+02  0.19999998510E+02 0.  0.
        -12    1    1    2    0    0 -0.25570805517E+02 -0.35031868402E+02 -0.15891518815E+01  0.43400729282E+02  0.00000000000E+00 0.  1.
         11    1    3    3    0    0  0.24713373508E+02  0.34769656149E+02  0.56814752729E+01  0.43034392995E+02  0.51100000000E-03 0. -1.
        -11    1    3    3    0    0 -0.50778462960E+00  0.80157197143E+00 -0.15645348573E+01  0.18297902712E+01  0.51100000000E-03 0.  1.
         12    1    3    3    0    0  0.13652166389E+01 -0.53935971869E+00 -0.25277885341E+01  0.29230874517E+01  0.00000000000E+00 0. -1.
</event>
<event>
 7    1  0.2886681E-010  0.4778727E+02  0.7816164E-02  0.1312668E+00
        -11   -1    0    0    0    0  0.00000000000E+00  0.00000000000E+00  0.45593999997E+02  0.45594000000E+02  0.51100000000E-03 0.  1.
         11   -1    0    0    0    0 -0.00000000000E+00 -0.00000000000E+00 -0.45593999997E+02  0.45594000000E+02  0.51100000000E-03 0. -1.
    9900012    2    1    2    0    0  0.20756689745E+02 -0.17625542176E+02 -0.33795312403E+02  0.47787273663E+02  0.20000011937E+02 0.  0.
        -12    1    1    2    0    0 -0.20756689745E+02  0.17625542176E+02  0.33795312403E+02  0.43400726337E+02  0.00000000000E+00 0.  1.
         11    1    3    3    0    0  0.27747952468E+01 -0.12447886862E+02 -0.15311498186E+02  0.19927151150E+02  0.51100000000E-03 0. -1.
        -11    1    3    3    0    0  0.21068805124E+01  0.19866577438E+01 -0.72315940188E+00  0.29847469350E+01  0.51100000000E-03 0.  1.
         12    1    3    3    0    0  0.15875013986E+02 -0.71643130573E+01 -0.17760654816E+02  0.24875375578E+02  0.00000000000E+00 0. -1.
</event>
<event>
 7    1  0.2886681E-010  0.4778727E+02  0.7816164E-02  0.1312668E+00
        -11   -1    0    0    0    0  0.00000000000E+00  0.00000000000E+00  0.45593999997E+02  0.45594000000E+02  0.51100000000E-03 0.  1.
         11   -1    0    0    0    0 -0.00000000000E+00 -0.00000000000E+00 -0.45593999997E+02  0.45594000000E+02  0.51100000000E-03 0. -1.
    9900012    2    1    2    0    0 -0.16407413506E+02 -0.18302347917E+02 -0.35769318976E+02  0.47787270314E+02  0.19999996670E+02 0.  0.
        -12    1    1    2    0    0  0.16407413506E+02  0.18302347917E+02  0.35769318976E+02  0.43400729686E+02  0.00000000000E+00 0.  1.
         11    1    3    3    0    0  0.32605889991E+01 -0.55553574253E+01 -0.67405071348E+01  0.93235118619E+01  0.51100000000E-03 0. -1.
        -11    1    3    3    0    0 -0.41149319393E+01 -0.27504963552E+01 -0.12673769622E+01  0.51092210453E+01  0.51100000000E-03 0.  1.
         12    1    3    3    0    0 -0.15553070566E+02 -0.99964941370E+01 -0.27761434879E+02  0.33354537407E+02  0.00000000000E+00 0. -1.
</event>
<event>
 7    1  0.2886681E-010  0.4778727E+02  0.7816164E-02  0.1312668E+00
        -11   -1    0    0    0    0  0.00000000000E+00  0.00000000000E+00  0.45593999997E+02  0.45594000000E+02  0.51100000000E-03 0. -1.
         11   -1    0    0    0    0 -0.00000000000E+00 -0.00000000000E+00 -0.45593999997E+02  0.45594000000E+02  0.51100000000E-03 0.  1.
    9900012    2    1    2    0    0 -0.36532816941E+01  0.34608117198E+02  0.25933666005E+02  0.47787271025E+02  0.19999999909E+02 0.  0.
        -12    1    1    2    0    0  0.36532816941E+01 -0.34608117198E+02 -0.25933666005E+02  0.43400728975E+02  0.00000000000E+00 0.  1.
         11    1    3    3    0    0  0.16837978534E+01  0.86705028824E+01  0.17161144962E+02  0.19300717399E+02  0.51100000000E-03 0. -1.
        -11    1    3    3    0    0 -0.10324297947E+01  0.18328503008E+02  0.57707165353E+01  0.19243209280E+02  0.51100000000E-03 0.  1.
        -12    1    3    3    0    0 -0.43046497528E+01  0.76091113072E+01  0.30018045077E+01  0.92433443451E+01  0.00000000000E+00 0.  1.
</event>
<event>
 7    1  0.2886681E-010  0.4778727E+02  0.7816164E-02  0.1312668E+00
        -11   -1    0    0    0    0  0.00000000000E+00  0.00000000000E+00  0.45593999997E+02  0.45594000000E+02  0.51100000000E-03 0. -1.
         11   -1    0    0    0    0 -0.00000000000E+00 -0.00000000000E+00 -0.45593999997E+02  0.45594000000E+02  0.51100000000E-03 0.  1.
    9900012    2    1    2    0    0  0.27838923554E+02 -0.29991875409E+02  0.14460462844E+02  0.47787271425E+02  0.20000001735E+02 0.  0.
        -12    1    1    2    0    0 -0.27838923554E+02  0.29991875409E+02 -0.14460462844E+02  0.43400728575E+02  0.00000000000E+00 0.  1.
         11    1    3    3    0    0  0.24133976562E+02 -0.18980295810E+02  0.27076735289E+01  0.30822588307E+02  0.51100000000E-03 0. -1.
        -11    1    3    3    0    0  0.28427232797E+01 -0.99035904378E+01  0.82778407279E+01  0.13216838751E+02  0.51100000000E-03 0.  1.
         12    1    3    3    0    0  0.86222371179E+00 -0.11079891610E+01  0.34749485875E+01  0.37478443666E+01  0.00000000000E+00 0. -1.
</event>
<event>
 7    1  0.2886681E-010  0.4778727E+02  0.7816164E-02  0.1312668E+00
        -11   -1    0    0    0    0  0.00000000000E+00  0.00000000000E+00  0.45593999997E+02  0.45594000000E+02  0.51100000000E-03 0.  1.
         11   -1    0    0    0    0 -0.00000000000E+00 -0.00000000000E+00 -0.45593999997E+02  0.45594000000E+02  0.51100000000E-03 0. -1.
    9900012    2    1    2    0    0  0.32293058724E+02 -0.49343311172E+01 -0.28573310187E+02  0.47787270509E+02  0.19999997558E+02 0.  0.
        -12    1    1    2    0    0 -0.32293058724E+02  0.49343311172E+01  0.28573310187E+02  0.43400729491E+02  0.00000000000E+00 0.  1.
         11    1    3    3    0    0  0.10681733334E+02 -0.12860014806E+01 -0.14425289727E+02  0.17995616433E+02  0.51100000000E-03 0. -1.
        -11    1    3    3    0    0 -0.18011824851E+01  0.51345428339E+00  0.39968666368E+00  0.19151092230E+01  0.51100000000E-03 0.  1.
        -12    1    3    3    0    0  0.23412507875E+02 -0.41617839200E+01 -0.14547707123E+02  0.27876544853E+02  0.00000000000E+00 0.  1.
</event>
<event>
 7    1  0.2886681E-010  0.4778727E+02  0.7816164E-02  0.1312668E+00
        -11   -1    0    0    0    0  0.00000000000E+00  0.00000000000E+00  0.45593999997E+02  0.45594000000E+02  0.51100000000E-03 0.  1.
         11   -1    0    0    0    0 -0.00000000000E+00 -0.00000000000E+00 -0.45593999997E+02  0.45594000000E+02  0.51100000000E-03 0. -1.
    9900012    2    1    2    0    0 -0.31166892965E+02 -0.23291291203E+02 -0.19229239426E+02  0.47787272910E+02  0.20000008507E+02 0.  0.
        -12    1    1    2    0    0  0.31166892965E+02  0.23291291203E+02  0.19229239426E+02  0.43400727090E+02  0.00000000000E+00 0.  1.
         11    1    3    3    0    0 -0.13616859165E+02 -0.30916142072E+01 -0.11261991509E+02  0.17939046377E+02  0.51100000000E-03 0. -1.
        -11    1    3    3    0    0 -0.80626287438E+01 -0.31862730110E+01 -0.53652627232E+01  0.10195310800E+02  0.51100000000E-03 0.  1.
         12    1    3    3    0    0 -0.94874050568E+01 -0.17013403985E+02 -0.26019851943E+01  0.19652915733E+02  0.00000000000E+00 0. -1.
</event>
<event>
 7    1  0.2886681E-010  0.4778728E+02  0.7816164E-02  0.1312668E+00
        -11   -1    0    0    0    0  0.00000000000E+00  0.00000000000E+00  0.45593999997E+02  0.45594000000E+02  0.51100000000E-03 0.  1.
         11   -1    0    0    0    0 -0.00000000000E+00 -0.00000000000E+00 -0.45593999997E+02  0.45594000000E+02  0.51100000000E-03 0. -1.
    9900012    2    1    2    0    0 -0.74346722436E+01  0.41450540317E+02 -0.10497668342E+02  0.47787277834E+02  0.20000030956E+02 0.  0.
        -12    1    1    2    0    0  0.74346722436E+01 -0.41450540317E+02  0.10497668342E+02  0.43400722166E+02  0.00000000000E+00 0.  1.
         11    1    3    3    0    0 -0.47278322150E+01  0.72242273346E+01 -0.93386592537E+01  0.12718192283E+02  0.51100000000E-03 0. -1.
        -11    1    3    3    0    0 -0.30812338424E+01  0.20935089881E+02  0.24220852412E+01  0.21298790752E+02  0.51100000000E-03 0.  1.
        -12    1    3    3    0    0  0.37439381386E+00  0.13291223101E+02 -0.35810943295E+01  0.13770294799E+02  0.00000000000E+00 0.  1.
</event>
<event>
 7    1  0.2886681E-010  0.4778727E+02  0.7816164E-02  0.1312668E+00
        -11   -1    0    0    0    0  0.00000000000E+00  0.00000000000E+00  0.45593999997E+02  0.45594000000E+02  0.51100000000E-03 0.  1.
         11   -1    0    0    0    0 -0.00000000000E+00 -0.00000000000E+00 -0.45593999997E+02  0.45594000000E+02  0.51100000000E-03 0. -1.
    9900012    2    1    2    0    0  0.14543278855E+02  0.70516287051E+01 -0.40278910703E+02  0.47787273339E+02  0.20000010463E+02 0.  0.
        -12    1    1    2    0    0 -0.14543278855E+02 -0.70516287051E+01  0.40278910703E+02  0.43400726661E+02  0.00000000000E+00 0.  1.
         11    1    3    3    0    0  0.27371416973E+01 -0.76547228046E+00 -0.14462097539E+02  0.14738729863E+02  0.51100000000E-03 0. -1.
        -11    1    3    3    0    0  0.13781027459E+02  0.35729038608E+01 -0.24235155462E+02  0.28107385513E+02  0.51100000000E-03 0.  1.
        -12    1    3    3    0    0 -0.19748903015E+01  0.42441971247E+01 -0.15816577020E+01  0.49411579637E+01  0.00000000000E+00 0.  1.
</event>
<event>
 7    1  0.2886681E-010  0.4778727E+02  0.7816164E-02  0.1312668E+00
        -11   -1    0    0    0    0  0.00000000000E+00  0.00000000000E+00  0.45593999997E+02  0.45594000000E+02  0.51100000000E-03 0.  1.
         11   -1    0    0    0    0 -0.00000000000E+00 -0.00000000000E+00 -0.45593999997E+02  0.45594000000E+02  0.51100000000E-03 0. -1.
    9900012    2    1    2    0    0  0.21211623228E+01  0.59107367978E+01 -0.42943998676E+02  0.47787272341E+02  0.20000005910E+02 0.  0.
        -12    1    1    2    0    0 -0.21211623228E+01 -0.59107367978E+01  0.42943998676E+02  0.43400727659E+02  0.00000000000E+00 0.  1.
         11    1    3    3    0    0 -0.69369809598E+01  0.38501186469E+00 -0.58401600982E+01  0.90762001524E+01  0.51100000000E-03 0. -1.
        -11    1    3    3    0    0  0.57665019919E+01  0.29950753504E+01 -0.17380590410E+02  0.18555536770E+02  0.51100000000E-03 0.  1.
        -12    1    3    3    0    0  0.32916412906E+01  0.25306495827E+01 -0.19723248168E+02  0.20155535418E+02  0.00000000000E+00 0.  1.
</event>
<event>
 7    1  0.2886681E-010  0.4778727E+02  0.7816164E-02  0.1312668E+00
        -11   -1    0    0    0    0  0.00000000000E+00  0.00000000000E+00  0.45593999997E+02  0.45594000000E+02  0.51100000000E-03 0.  1.
         11   -1    0    0    0    0 -0.00000000000E+00 -0.00000000000E+00 -0.45593999997E+02  0.45594000000E+02  0.51100000000E-03 0. -1.
    9900012    2    1    2    0    0  0.31609457265E+01  0.31272843241E+02 -0.29927259602E+02  0.47787272247E+02  0.20000005481E+02 0.  0.
        -12    1    1    2    0    0 -0.31609457265E+01 -0.31272843241E+02  0.29927259602E+02  0.43400727753E+02  0.00000000000E+00 0.  1.
         11    1    3    3    0    0 -0.37239550705E+01  0.20379027701E+01 -0.12868401056E+01  0.44358591936E+01  0.51100000000E-03 0. -1.
        -11    1    3    3    0    0  0.23103121650E+01 -0.49605415533E+00 -0.30483343729E+01  0.38569359257E+01  0.51100000000E-03 0.  1.
         12    1    3    3    0    0  0.45745886320E+01  0.29730994626E+02 -0.25592085124E+02  0.39494477127E+02  0.00000000000E+00 0. -1.
</event>
<event>
 7    1  0.2886681E-010  0.4778727E+02  0.7816164E-02  0.1312668E+00
        -11   -1    0    0    0    0  0.00000000000E+00  0.00000000000E+00  0.45593999997E+02  0.45594000000E+02  0.51100000000E-03 0. -1.
         11   -1    0    0    0    0 -0.00000000000E+00 -0.00000000000E+00 -0.45593999997E+02  0.45594000000E+02  0.51100000000E-03 0.  1.
    9900012    2    1    2    0    0  0.25933639380E+02 -0.11455879327E+02  0.32860802834E+02  0.47787272062E+02  0.20000004639E+02 0.  0.
        -12    1    1    2    0    0 -0.25933639380E+02  0.11455879327E+02 -0.32860802834E+02  0.43400727938E+02  0.00000000000E+00 0.  1.
         11    1    3    3    0    0  0.98094934905E+01 -0.10449811094E+02  0.20826710237E+02  0.25281941658E+02  0.51100000000E-03 0. -1.
        -11    1    3    3    0    0  0.98898415541E+01  0.43363230198E+01  0.64988143212E+01  0.12603461871E+02  0.51100000000E-03 0.  1.
         12    1    3    3    0    0  0.62343043355E+01 -0.53423912528E+01  0.55352782756E+01  0.99018685325E+01  0.00000000000E+00 0. -1.
</event>
<event>
 7    1  0.2886681E-010  0.4778727E+02  0.7816164E-02  0.1312668E+00
        -11   -1    0    0    0    0  0.00000000000E+00  0.00000000000E+00  0.45593999997E+02  0.45594000000E+02  0.51100000000E-03 0.  1.
         11   -1    0    0    0    0 -0.00000000000E+00 -0.00000000000E+00 -0.45593999997E+02  0.45594000000E+02  0.51100000000E-03 0. -1.
    9900012    2    1    2    0    0 -0.12973136384E+02 -0.12348822838E+02 -0.39532613871E+02  0.47787271289E+02  0.20000001115E+02 0.  0.
        -12    1    1    2    0    0  0.12973136384E+02  0.12348822838E+02  0.39532613871E+02  0.43400728711E+02  0.00000000000E+00 0.  1.
         11    1    3    3    0    0 -0.82552628341E+01 -0.24012674595E+01 -0.12541482852E+02  0.15205401746E+02  0.51100000000E-03 0. -1.
        -11    1    3    3    0    0  0.50888901308E+01 -0.43814894898E+01 -0.75255679721E+01  0.10086051084E+02  0.51100000000E-03 0.  1.
        -12    1    3    3    0    0 -0.98067636812E+01 -0.55660658889E+01 -0.19465563047E+02  0.22495818459E+02  0.00000000000E+00 0.  1.
</event>
<event>
 7    1  0.2886681E-010  0.4778729E+02  0.7816164E-02  0.1312668E+00
        -11   -1    0    0    0    0  0.00000000000E+00  0.00000000000E+00  0.45593999997E+02  0.45594000000E+02  0.51100000000E-03 0. -1.
         11   -1    0    0    0    0 -0.00000000000E+00 -0.00000000000E+00 -0.45593999997E+02  0.45594000000E+02  0.51100000000E-03 0.  1.
    9900012    2    1    2    0    0  0.28519701604E+02 -0.13691242117E+02  0.29711924163E+02  0.47787286553E+02  0.20000070709E+02 0.  0.
        -12    1    1    2    0    0 -0.28519701604E+02  0.13691242117E+02 -0.29711924163E+02  0.43400713447E+02  0.00000000000E+00 0.  1.
         11    1    3    3    0    0  0.24943402099E+02 -0.14201673259E+02  0.28068572015E+02  0.40146052943E+02  0.51100000000E-03 0. -1.
        -11    1    3    3    0    0  0.17189139049E+01 -0.22913381291E+01 -0.13256338882E+01  0.31562954394E+01  0.51100000000E-03 0.  1.
         12    1    3    3    0    0  0.18573856001E+01  0.28017692714E+01  0.29689860355E+01  0.44849381709E+01  0.00000000000E+00 0. -1.
</event>
<event>
 7    1  0.2886681E-010  0.4778727E+02  0.7816164E-02  0.1312668E+00
        -11   -1    0    0    0    0  0.00000000000E+00  0.00000000000E+00  0.45593999997E+02  0.45594000000E+02  0.51100000000E-03 0.  1.
         11   -1    0    0    0    0 -0.00000000000E+00 -0.00000000000E+00 -0.45593999997E+02  0.45594000000E+02  0.51100000000E-03 0. -1.
    9900012    2    1    2    0    0  0.27072747077E+02  0.84830415571E+01 -0.32843989341E+02  0.47787271156E+02  0.20000000509E+02 0.  0.
        -12    1    1    2    0    0 -0.27072747077E+02 -0.84830415571E+01  0.32843989341E+02  0.43400728844E+02  0.00000000000E+00 0.  1.
         11    1    3    3    0    0  0.17036963195E+02  0.10665862346E+02 -0.29364313877E+02  0.35584851612E+02  0.51100000000E-03 0. -1.
        -11    1    3    3    0    0  0.88416125051E+01  0.23719858874E+00 -0.18071068813E+01  0.90275140765E+01  0.51100000000E-03 0.  1.
         12    1    3    3    0    0  0.11941713764E+01 -0.24200193777E+01 -0.16725685824E+01  0.31749054675E+01  0.00000000000E+00 0. -1.
</event>
<event>
 7    1  0.2886681E-010  0.4778727E+02  0.7816164E-02  0.1312668E+00
        -11   -1    0    0    0    0  0.00000000000E+00  0.00000000000E+00  0.45593999997E+02  0.45594000000E+02  0.51100000000E-03 0.  1.
         11   -1    0    0    0    0 -0.00000000000E+00 -0.00000000000E+00 -0.45593999997E+02  0.45594000000E+02  0.51100000000E-03 0. -1.
    9900012    2    1    2    0    0  0.45100713189E+01 -0.40790723991E+01 -0.42972593294E+02  0.47787270175E+02  0.19999996034E+02 0.  0.
        -12    1    1    2    0    0 -0.45100713189E+01  0.40790723991E+01  0.42972593294E+02  0.43400729825E+02  0.00000000000E+00 0.  1.
         11    1    3    3    0    0  0.19649763670E+01 -0.94315176522E+01 -0.12326999467E+02  0.15645113406E+02  0.51100000000E-03 0. -1.
        -11    1    3    3    0    0  0.37085789936E+01  0.50273547430E+01 -0.30223639696E+02  0.30862537980E+02  0.51100000000E-03 0.  1.
        -12    1    3    3    0    0 -0.11634840418E+01  0.32509051007E+00 -0.42195413096E+00  0.12796187885E+01  0.00000000000E+00 0.  1.
</event>
<event>
 7    1  0.2886681E-010  0.4778727E+02  0.7816164E-02  0.1312668E+00
        -11   -1    0    0    0    0  0.00000000000E+00  0.00000000000E+00  0.45593999997E+02  0.45594000000E+02  0.51100000000E-03 0.  1.
         11   -1    0    0    0    0 -0.00000000000E+00 -0.00000000000E+00 -0.45593999997E+02  0.45594000000E+02  0.51100000000E-03 0. -1.
    9900012    2    1    2    0    0  0.37704949654E+02  0.19869501591E+02  0.81953133954E+01  0.47787268629E+02  0.19999988988E+02 0.  0.
        -12    1    1    2    0    0 -0.37704949654E+02 -0.19869501591E+02 -0.81953133954E+01  0.43400731371E+02  0.00000000000E+00 0.  1.
         11    1    3    3    0    0  0.24314268719E+02  0.64798953198E+01  0.10559274646E+02  0.27288660429E+02  0.51100000000E-03 0. -1.
        -11    1    3    3    0    0  0.56591574790E+01  0.58646174168E+01 -0.47720437103E+01  0.94441623372E+01  0.51100000000E-03 0.  1.
         12    1    3    3    0    0  0.77315234559E+01  0.75249888545E+01  0.24080824599E+01  0.11054445863E+02  0.00000000000E+00 0. -1.
</event>
<event>
 7    1  0.2886681E-010  0.4778728E+02  0.7816164E-02  0.1312668E+00
        -11   -1    0    0    0    0  0.00000000000E+00  0.00000000000E+00  0.45593999997E+02  0.45594000000E+02  0.51100000000E-03 0.  1.
         11   -1    0    0    0    0 -0.00000000000E+00 -0.00000000000E+00 -0.45593999997E+02  0.45594000000E+02  0.51100000000E-03 0. -1.
    9900012    2    1    2    0    0  0.38365579991E+02 -0.14476699860E+02 -0.14217253371E+02  0.47787275809E+02  0.20000021722E+02 0.  0.
        -12    1    1    2    0    0 -0.38365579991E+02  0.14476699860E+02  0.14217253371E+02  0.43400724191E+02  0.00000000000E+00 0.  1.
         11    1    3    3    0    0  0.85830094550E+01 -0.33157718275E+01 -0.93850998529E+01  0.13143153869E+02  0.51100000000E-03 0. -1.
        -11    1    3    3    0    0  0.26644091205E+02 -0.13945179483E+02 -0.47656786408E+01  0.30448108646E+02  0.51100000000E-03 0.  1.
        -12    1    3    3    0    0  0.31384793310E+01  0.27842514500E+01 -0.66474877408E-01  0.41960132932E+01  0.00000000000E+00 0.  1.
</event>
<event>
 7    1  0.2886681E-010  0.4778727E+02  0.7816164E-02  0.1312668E+00
        -11   -1    0    0    0    0  0.00000000000E+00  0.00000000000E+00  0.45593999997E+02  0.45594000000E+02  0.51100000000E-03 0.  1.
         11   -1    0    0    0    0 -0.00000000000E+00 -0.00000000000E+00 -0.45593999997E+02  0.45594000000E+02  0.51100000000E-03 0. -1.
    9900012    2    1    2    0    0  0.36868894773E+02 -0.10712581094E+01 -0.22872699002E+02  0.47787270106E+02  0.19999995720E+02 0.  0.
        -12    1    1    2    0    0 -0.36868894773E+02  0.10712581094E+01  0.22872699002E+02  0.43400729894E+02  0.00000000000E+00 0.  1.
         11    1    3    3    0    0  0.16794564003E+02 -0.17190913716E+01 -0.78592935284E+01  0.18622060848E+02  0.51100000000E-03 0. -1.
        -11    1    3    3    0    0  0.14603871321E+01 -0.45920088798E+01 -0.22983519481E+00  0.48241165622E+01  0.51100000000E-03 0.  1.
        -12    1    3    3    0    0  0.18613943638E+02  0.52398421420E+01 -0.14783570279E+02  0.24341092695E+02  0.00000000000E+00 0.  1.
</event>
<event>
 7    1  0.2886681E-010  0.4778727E+02  0.7816164E-02  0.1312668E+00
        -11   -1    0    0    0    0  0.00000000000E+00  0.00000000000E+00  0.45593999997E+02  0.45594000000E+02  0.51100000000E-03 0. -1.
         11   -1    0    0    0    0 -0.00000000000E+00 -0.00000000000E+00 -0.45593999997E+02  0.45594000000E+02  0.51100000000E-03 0.  1.
    9900012    2    1    2    0    0 -0.34832519247E+02  0.24993779386E+02  0.67550138728E+01  0.47787267085E+02  0.19999981948E+02 0.  0.
        -12    1    1    2    0    0  0.34832519247E+02 -0.24993779386E+02 -0.67550138728E+01  0.43400732915E+02  0.00000000000E+00 0.  1.
         11    1    3    3    0    0 -0.13638561324E+02  0.14647377344E+02  0.95803418518E+01  0.22188712633E+02  0.51100000000E-03 0. -1.
        -11    1    3    3    0    0 -0.10830086628E+02  0.53950184708E+01 -0.62427588278E+01  0.13615029883E+02  0.51100000000E-03 0.  1.
        -12    1    3    3    0    0 -0.10363871295E+02  0.49513835714E+01  0.34174308488E+01  0.11983524569E+02  0.00000000000E+00 0.  1.
</event>
<event>
 7    1  0.2886681E-010  0.4778727E+02  0.7816164E-02  0.1312668E+00
        -11   -1    0    0    0    0  0.00000000000E+00  0.00000000000E+00  0.45593999997E+02  0.45594000000E+02  0.51100000000E-03 0.  1.
         11   -1    0    0    0    0 -0.00000000000E+00 -0.00000000000E+00 -0.45593999997E+02  0.45594000000E+02  0.51100000000E-03 0. -1.
    9900012    2    1    2    0    0  0.31603058981E+01 -0.32112338938E+02 -0.29024704860E+02  0.47787270310E+02  0.19999996653E+02 0.  0.
        -12    1    1    2    0    0 -0.31603058981E+01  0.32112338938E+02  0.29024704860E+02  0.43400729690E+02  0.00000000000E+00 0.  1.
         11    1    3    3    0    0  0.78687391878E+01 -0.21290834757E+02 -0.91235918936E+01  0.24463373242E+02  0.51100000000E-03 0. -1.
        -11    1    3    3    0    0 -0.42579605089E+01 -0.66641126868E+01 -0.11762361707E+02  0.14173700250E+02  0.51100000000E-03 0.  1.
         12    1    3    3    0    0 -0.45047278073E+00 -0.41573914938E+01 -0.81387512590E+01  0.91501968183E+01  0.00000000000E+00 0. -1.
</event>
<event>
 7    1  0.2886681E-010  0.4778727E+02  0.7816164E-02  0.1312668E+00
        -11   -1    0    0    0    0  0.00000000000E+00  0.00000000000E+00  0.45593999997E+02  0.45594000000E+02  0.51100000000E-03 0.  1.
         11   -1    0    0    0    0 -0.00000000000E+00 -0.00000000000E+00 -0.45593999997E+02  0.45594000000E+02  0.51100000000E-03 0. -1.
    9900012    2    1    2    0    0 -0.37862096719E+02 -0.18579405787E+02 -0.10241612578E+02  0.47787270564E+02  0.19999997811E+02 0.  0.
        -12    1    1    2    0    0  0.37862096719E+02  0.18579405787E+02  0.10241612578E+02  0.43400729436E+02  0.00000000000E+00 0.  1.
         11    1    3    3    0    0  0.11163269449E+01  0.10182637421E+01 -0.20530505661E+01  0.25491300054E+01  0.51100000000E-03 0. -1.
        -11    1    3    3    0    0 -0.14838839716E+01 -0.26581872598E+01  0.74897813618E+00  0.31350980302E+01  0.51100000000E-03 0.  1.
         12    1    3    3    0    0 -0.37494539692E+02 -0.16939482270E+02 -0.89375401480E+01  0.42103042529E+02  0.00000000000E+00 0. -1.
</event>
<event>
 7    1  0.2886681E-010  0.4778724E+02  0.7816164E-02  0.1312668E+00
        -11   -1    0    0    0    0  0.00000000000E+00  0.00000000000E+00  0.45593999997E+02  0.45594000000E+02  0.51100000000E-03 0. -1.
         11   -1    0    0    0    0 -0.00000000000E+00 -0.00000000000E+00 -0.45593999997E+02  0.45594000000E+02  0.51100000000E-03 0.  1.
    9900012    2    1    2    0    0 -0.44014747151E+01 -0.42313475305E+02  0.85920210804E+01  0.47787239658E+02  0.19999856895E+02 0.  0.
        -12    1    1    2    0    0  0.44014747151E+01  0.42313475305E+02 -0.85920210804E+01  0.43400760342E+02  0.00000000000E+00 0.  1.
         11    1    3    3    0    0 -0.22184507779E+01 -0.36145958217E+02  0.20166447686E+01  0.36270079621E+02  0.51100000000E-03 0. -1.
        -11    1    3    3    0    0  0.21116845354E+01 -0.31081317693E+01  0.44695632923E+01  0.58392371897E+01  0.51100000000E-03 0.  1.
         12    1    3    3    0    0 -0.42947084726E+01 -0.30593853182E+01  0.21058130195E+01  0.56779228476E+01  0.00000000000E+00 0. -1.
</event>
<event>
 7    1  0.2886681E-010  0.4778727E+02  0.7816164E-02  0.1312668E+00
        -11   -1    0    0    0    0  0.00000000000E+00  0.00000000000E+00  0.45593999997E+02  0.45594000000E+02  0.51100000000E-03 0.  1.
         11   -1    0    0    0    0 -0.00000000000E+00 -0.00000000000E+00 -0.45593999997E+02  0.45594000000E+02  0.51100000000E-03 0. -1.
    9900012    2    1    2    0    0 -0.17318291226E+02  0.10524500932E+01 -0.39781811507E+02  0.47787269718E+02  0.19999993953E+02 0.  0.
        -12    1    1    2    0    0  0.17318291226E+02 -0.10524500932E+01  0.39781811507E+02  0.43400730282E+02  0.00000000000E+00 0.  1.
         11    1    3    3    0    0 -0.13213691321E+01 -0.52068862997E+01 -0.14114467373E+02  0.15102180995E+02  0.51100000000E-03 0. -1.
        -11    1    3    3    0    0 -0.98728367867E+01  0.76708722318E+01 -0.22273540885E+02  0.25542627329E+02  0.51100000000E-03 0.  1.
        -12    1    3    3    0    0 -0.61240853076E+01 -0.14115358390E+01 -0.33938032486E+01  0.71424613944E+01  0.00000000000E+00 0.  1.
</event>
<event>
 7    1  0.2886681E-010  0.4778729E+02  0.7816164E-02  0.1312668E+00
        -11   -1    0    0    0    0  0.00000000000E+00  0.00000000000E+00  0.45593999997E+02  0.45594000000E+02  0.51100000000E-03 0.  1.
         11   -1    0    0    0    0 -0.00000000000E+00 -0.00000000000E+00 -0.45593999997E+02  0.45594000000E+02  0.51100000000E-03 0. -1.
    9900012    2    1    2    0    0 -0.13821386286E+02 -0.34290163638E+02 -0.22732704226E+02  0.47787287072E+02  0.20000073077E+02 0.  0.
        -12    1    1    2    0    0  0.13821386286E+02  0.34290163638E+02  0.22732704226E+02  0.43400712928E+02  0.00000000000E+00 0.  1.
         11    1    3    3    0    0 -0.10175247282E+02 -0.16521067654E+02 -0.17841248385E+02  0.26358897509E+02  0.51100000000E-03 0. -1.
        -11    1    3    3    0    0  0.14657247317E+01  0.65659993843E+00  0.25522005968E+00  0.16262256941E+01  0.51100000000E-03 0.  1.
         12    1    3    3    0    0 -0.51118637355E+01 -0.18425695923E+02 -0.51466759006E+01  0.19802163869E+02  0.00000000000E+00 0. -1.
</event>
<event>
 7    1  0.2886681E-010  0.4778727E+02  0.7816164E-02  0.1312668E+00
        -11   -1    0    0    0    0  0.00000000000E+00  0.00000000000E+00  0.45593999997E+02  0.45594000000E+02  0.51100000000E-03 0.  1.
         11   -1    0    0    0    0 -0.00000000000E+00 -0.00000000000E+00 -0.45593999997E+02  0.45594000000E+02  0.51100000000E-03 0. -1.
    9900012    2    1    2    0    0  0.38355957251E+02  0.86120111756E+01 -0.18392304692E+02  0.47787273450E+02  0.20000010969E+02 0.  0.
        -12    1    1    2    0    0 -0.38355957251E+02 -0.86120111756E+01  0.18392304692E+02  0.43400726550E+02  0.00000000000E+00 0.  1.
         11    1    3    3    0    0 -0.46166489495E+00 -0.16402400361E+01 -0.67848382110E+00  0.18340835335E+01  0.51100000000E-03 0. -1.
        -11    1    3    3    0    0  0.27247084054E+02  0.81847454890E+01 -0.18875635903E+02  0.34142104200E+02  0.51100000000E-03 0.  1.
        -12    1    3    3    0    0  0.11570538092E+02  0.20675057226E+01  0.11618150317E+01  0.11811085717E+02  0.00000000000E+00 0.  1.
</event>
<event>
 7    1  0.2886681E-010  0.4778727E+02  0.7816164E-02  0.1312668E+00
        -11   -1    0    0    0    0  0.00000000000E+00  0.00000000000E+00  0.45593999997E+02  0.45594000000E+02  0.51100000000E-03 0. -1.
         11   -1    0    0    0    0 -0.00000000000E+00 -0.00000000000E+00 -0.45593999997E+02  0.45594000000E+02  0.51100000000E-03 0.  1.
    9900012    2    1    2    0    0 -0.18848169540E+02  0.39088919345E+02 -0.65272213082E+00  0.47787272393E+02  0.20000006151E+02 0.  0.
        -12    1    1    2    0    0  0.18848169540E+02 -0.39088919345E+02  0.65272213082E+00  0.43400727607E+02  0.00000000000E+00 0.  1.
         11    1    3    3    0    0 -0.11174708441E+02  0.20998918888E+02  0.41837296072E+01  0.24152273121E+02  0.51100000000E-03 0. -1.
        -11    1    3    3    0    0  0.27200099639E+01  0.63466950040E+00 -0.21985005202E+00  0.28017126700E+01  0.51100000000E-03 0.  1.
        -12    1    3    3    0    0 -0.10393471063E+02  0.17455330957E+02 -0.46166016860E+01  0.20833286603E+02  0.00000000000E+00 0.  1.
</event>
<event>
 7    1  0.2886681E-010  0.4778727E+02  0.7816164E-02  0.1312668E+00
        -11   -1    0    0    0    0  0.00000000000E+00  0.00000000000E+00  0.45593999997E+02  0.45594000000E+02  0.51100000000E-03 0.  1.
         11   -1    0    0    0    0 -0.00000000000E+00 -0.00000000000E+00 -0.45593999997E+02  0.45594000000E+02  0.51100000000E-03 0. -1.
    9900012    2    1    2    0    0 -0.33588630946E+02  0.22763209262E+02 -0.15403355354E+02  0.47787272116E+02  0.20000004884E+02 0.  0.
        -12    1    1    2    0    0  0.33588630946E+02 -0.22763209262E+02  0.15403355354E+02  0.43400727884E+02  0.00000000000E+00 0.  1.
         11    1    3    3    0    0 -0.58437635108E+01 -0.82027930038E+00  0.95277916429E+00  0.59774759304E+01  0.51100000000E-03 0.  1.
        -11    1    3    3    0    0 -0.24319350299E+02  0.22417995154E+02 -0.10101214942E+02  0.34583693401E+02  0.51100000000E-03 0. -1.
        -12    1    3    3    0    0 -0.34255171357E+01  0.11654934084E+01 -0.62549195767E+01  0.72261027839E+01  0.00000000000E+00 0.  1.
</event>
<event>
 7    1  0.2886681E-010  0.4778725E+02  0.7816164E-02  0.1312668E+00
        -11   -1    0    0    0    0  0.00000000000E+00  0.00000000000E+00  0.45593999997E+02  0.45594000000E+02  0.51100000000E-03 0.  1.
         11   -1    0    0    0    0 -0.00000000000E+00 -0.00000000000E+00 -0.45593999997E+02  0.45594000000E+02  0.51100000000E-03 0. -1.
    9900012    2    1    2    0    0 -0.37088934473E+02 -0.21681578518E+02 -0.61599394135E+01  0.47787253913E+02  0.19999921890E+02 0.  0.
        -12    1    1    2    0    0  0.37088934473E+02  0.21681578518E+02  0.61599394135E+01  0.43400746087E+02  0.00000000000E+00 0.  1.
         11    1    3    3    0    0  0.14210263832E+01  0.73238274084E+00 -0.43666716971E-01  0.15992521703E+01  0.51100000000E-03 0. -1.
        -11    1    3    3    0    0 -0.38809514241E+01 -0.56705700747E+01 -0.32939989656E+01  0.76202085519E+01  0.51100000000E-03 0.  1.
         12    1    3    3    0    0 -0.34629009432E+02 -0.16743391184E+02 -0.28222737309E+01  0.38567793191E+02  0.00000000000E+00 0. -1.
</event>
<event>
 7    1  0.2886681E-010  0.4778727E+02  0.7816164E-02  0.1312668E+00
        -11   -1    0    0    0    0  0.00000000000E+00  0.00000000000E+00  0.45593999997E+02  0.45594000000E+02  0.51100000000E-03 0. -1.
         11   -1    0    0    0    0 -0.00000000000E+00 -0.00000000000E+00 -0.45593999997E+02  0.45594000000E+02  0.51100000000E-03 0.  1.
    9900012    2    1    2    0    0 -0.21469423094E+02 -0.37517363834E+02  0.38902954548E+01  0.47787272866E+02  0.20000008305E+02 0.  0.
        -12    1    1    2    0    0  0.21469423094E+02  0.37517363834E+02 -0.38902954548E+01  0.43400727134E+02  0.00000000000E+00 0.  1.
         11    1    3    3    0    0 -0.74211992368E+00 -0.75211654086E+01  0.13699222011E+01  0.76808435853E+01  0.51100000000E-03 0.  1.
        -11    1    3    3    0    0 -0.97894086420E+01 -0.21195210551E+02  0.85014483948E+01  0.24846410142E+02  0.51100000000E-03 0. -1.
        -12    1    3    3    0    0 -0.10937894528E+02 -0.88009878750E+01 -0.59810751412E+01  0.15260019139E+02  0.00000000000E+00 0.  1.
</event>
<event>
 7    1  0.2886681E-010  0.4778727E+02  0.7816164E-02  0.1312668E+00
        -11   -1    0    0    0    0  0.00000000000E+00  0.00000000000E+00  0.45593999997E+02  0.45594000000E+02  0.51100000000E-03 0.  1.
         11   -1    0    0    0    0 -0.00000000000E+00 -0.00000000000E+00 -0.45593999997E+02  0.45594000000E+02  0.51100000000E-03 0. -1.
    9900012    2    1    2    0    0 -0.66236946692E+01  0.40919069570E+02  0.12860006898E+02  0.47787270018E+02  0.19999995321E+02 0.  0.
        -12    1    1    2    0    0  0.66236946692E+01 -0.40919069570E+02 -0.12860006898E+02  0.43400729982E+02  0.00000000000E+00 0.  1.
         11    1    3    3    0    0 -0.18888658703E+01  0.14734149733E+01  0.15535373438E+01  0.28552135645E+01  0.51100000000E-03 0.  1.
        -11    1    3    3    0    0 -0.99084689635E+01  0.12662549648E+02  0.25273243567E+01  0.16275911325E+02  0.51100000000E-03 0. -1.
        -12    1    3    3    0    0  0.51736401645E+01  0.26783104949E+02  0.87791451972E+01  0.28656145129E+02  0.00000000000E+00 0.  1.
</event>
<event>
 7    1  0.2886681E-010  0.4778728E+02  0.7816164E-02  0.1312668E+00
        -11   -1    0    0    0    0  0.00000000000E+00  0.00000000000E+00  0.45593999997E+02  0.45594000000E+02  0.51100000000E-03 0.  1.
         11   -1    0    0    0    0 -0.00000000000E+00 -0.00000000000E+00 -0.45593999997E+02  0.45594000000E+02  0.51100000000E-03 0. -1.
    9900012    2    1    2    0    0  0.14340693564E+02 -0.34918343143E+02 -0.21416736664E+02  0.47787276630E+02  0.20000025467E+02 0.  0.
        -12    1    1    2    0    0 -0.14340693564E+02  0.34918343143E+02  0.21416736664E+02  0.43400723370E+02  0.00000000000E+00 0.  1.
         11    1    3    3    0    0  0.12345253393E+02 -0.12836263876E+02 -0.13494296078E+02  0.22344372413E+02  0.51100000000E-03 0. -1.
        -11    1    3    3    0    0  0.86176345025E+00 -0.22691164134E+02 -0.81696441793E+01  0.24132439833E+02  0.51100000000E-03 0.  1.
        -12    1    3    3    0    0  0.11336767209E+01  0.60908486810E+00  0.24720359403E+00  0.13104643837E+01  0.00000000000E+00 0.  1.
</event>
<event>
 7    1  0.2886681E-010  0.4778726E+02  0.7816164E-02  0.1312668E+00
        -11   -1    0    0    0    0  0.00000000000E+00  0.00000000000E+00  0.45593999997E+02  0.45594000000E+02  0.51100000000E-03 0. -1.
         11   -1    0    0    0    0 -0.00000000000E+00 -0.00000000000E+00 -0.45593999997E+02  0.45594000000E+02  0.51100000000E-03 0.  1.
    9900012    2    1    2    0    0 -0.76300167608E+01  0.32756437366E+02  0.27430321347E+02  0.47787264132E+02  0.19999968483E+02 0.  0.
        -12    1    1    2    0    0  0.76300167608E+01 -0.32756437366E+02 -0.27430321347E+02  0.43400735868E+02  0.00000000000E+00 0.  1.
         11    1    3    3    0    0 -0.10253131288E+02  0.12295576010E+02  0.87291764549E+01  0.18234758361E+02  0.51100000000E-03 0. -1.
        -11    1    3    3    0    0  0.80925287349E+00  0.98961778487E+01  0.15423710334E+02  0.18343393006E+02  0.51100000000E-03 0.  1.
         12    1    3    3    0    0  0.18138616539E+01  0.10564683507E+02  0.32774345583E+01  0.11209112766E+02  0.00000000000E+00 0. -1.
</event>
<event>
 7    1  0.2886681E-010  0.4778727E+02  0.7816164E-02  0.1312668E+00
        -11   -1    0    0    0    0  0.00000000000E+00  0.00000000000E+00  0.45593999997E+02  0.45594000000E+02  0.51100000000E-03 0.  1.
         11   -1    0    0    0    0 -0.00000000000E+00 -0.00000000000E+00 -0.45593999997E+02  0.45594000000E+02  0.51100000000E-03 0. -1.
    9900012    2    1    2    0    0 -0.33468123476E+02  0.12623506476E+02 -0.24579563506E+02  0.47787272507E+02  0.20000006669E+02 0.  0.
        -12    1    1    2    0    0  0.33468123476E+02 -0.12623506476E+02  0.24579563506E+02  0.43400727493E+02  0.00000000000E+00 0.  1.
         11    1    3    3    0    0 -0.18244850628E+02  0.69878148332E+00 -0.20361853747E+02  0.27349002875E+02  0.51100000000E-03 0. -1.
        -11    1    3    3    0    0 -0.68530990628E+01  0.68714269484E+01  0.20572605879E+00  0.97068943821E+01  0.51100000000E-03 0.  1.
         12    1    3    3    0    0 -0.83701737850E+01  0.50532980438E+01 -0.44234358184E+01  0.10731375250E+02  0.00000000000E+00 0. -1.
</event>
<event>
 7    1  0.2886681E-010  0.4778727E+02  0.7816164E-02  0.1312668E+00
        -11   -1    0    0    0    0  0.00000000000E+00  0.00000000000E+00  0.45593999997E+02  0.45594000000E+02  0.51100000000E-03 0.  1.
         11   -1    0    0    0    0 -0.00000000000E+00 -0.00000000000E+00 -0.45593999997E+02  0.45594000000E+02  0.51100000000E-03 0. -1.
    9900012    2    1    2    0    0  0.25072907408E+02 -0.33324931547E+02 -0.12017567765E+02  0.47787266326E+02  0.19999978486E+02 0.  0.
        -12    1    1    2    0    0 -0.25072907408E+02  0.33324931547E+02  0.12017567765E+02  0.43400733674E+02  0.00000000000E+00 0.  1.
         11    1    3    3    0    0 -0.14390825065E+01 -0.56258621384E+01 -0.31690390681E+01  0.66154434573E+01  0.51100000000E-03 0.  1.
        -11    1    3    3    0    0  0.15507012447E+02 -0.78348200859E+01 -0.22195633820E+01  0.17515087858E+02  0.51100000000E-03 0. -1.
         12    1    3    3    0    0  0.11004977467E+02 -0.19864249323E+02 -0.66289653144E+01  0.23656735010E+02  0.00000000000E+00 0. -1.
</event>
<event>
 7    1  0.2886681E-010  0.4778727E+02  0.7816164E-02  0.1312668E+00
        -11   -1    0    0    0    0  0.00000000000E+00  0.00000000000E+00  0.45593999997E+02  0.45594000000E+02  0.51100000000E-03 0. -1.
         11   -1    0    0    0    0 -0.00000000000E+00 -0.00000000000E+00 -0.45593999997E+02  0.45594000000E+02  0.51100000000E-03 0.  1.
    9900012    2    1    2    0    0  0.38557861613E+02  0.84781279252E+01  0.18028745622E+02  0.47787274038E+02  0.20000013651E+02 0.  0.
        -12    1    1    2    0    0 -0.38557861613E+02 -0.84781279252E+01 -0.18028745622E+02  0.43400725962E+02  0.00000000000E+00 0.  1.
         11    1    3    3    0    0  0.50744372828E+00 -0.11325302575E+01  0.56301357427E+01  0.57652886020E+01  0.51100000000E-03 0. -1.
        -11    1    3    3    0    0  0.10647355059E+02  0.65750168135E+01  0.27564027391E+01  0.12813850794E+02  0.51100000000E-03 0.  1.
         12    1    3    3    0    0  0.27403062826E+02  0.30356413692E+01  0.96422071400E+01  0.29208134643E+02  0.00000000000E+00 0. -1.
</event>
<event>
 7    1  0.2886681E-010  0.4778727E+02  0.7816164E-02  0.1312668E+00
        -11   -1    0    0    0    0  0.00000000000E+00  0.00000000000E+00  0.45593999997E+02  0.45594000000E+02  0.51100000000E-03 0. -1.
         11   -1    0    0    0    0 -0.00000000000E+00 -0.00000000000E+00 -0.45593999997E+02  0.45594000000E+02  0.51100000000E-03 0.  1.
    9900012    2    1    2    0    0  0.32361560933E+02  0.24109312525E+02  0.15971655293E+02  0.47787270177E+02  0.19999996043E+02 0.  0.
        -12    1    1    2    0    0 -0.32361560933E+02 -0.24109312525E+02 -0.15971655293E+02  0.43400729823E+02  0.00000000000E+00 0.  1.
         11    1    3    3    0    0  0.18911815157E+02  0.13691861328E+02  0.14827991492E+02  0.27658509560E+02  0.51100000000E-03 0. -1.
        -11    1    3    3    0    0  0.14427291902E+02  0.11317333678E+02 -0.58966969444E-01  0.18336637384E+02  0.51100000000E-03 0.  1.
        -12    1    3    3    0    0 -0.97754612577E+00 -0.89988248153E+00  0.12026307701E+01  0.17921232318E+01  0.00000000000E+00 0.  1.
</event>
<event>
 7    1  0.2886681E-010  0.4778727E+02  0.7816164E-02  0.1312668E+00
        -11   -1    0    0    0    0  0.00000000000E+00  0.00000000000E+00  0.45593999997E+02  0.45594000000E+02  0.51100000000E-03 0.  1.
         11   -1    0    0    0    0 -0.00000000000E+00 -0.00000000000E+00 -0.45593999997E+02  0.45594000000E+02  0.51100000000E-03 0. -1.
    9900012    2    1    2    0    0 -0.37150452085E+02  0.43112967148E+01 -0.22019989233E+02  0.47787270798E+02  0.19999998875E+02 0.  0.
        -12    1    1    2    0    0  0.37150452085E+02 -0.43112967148E+01  0.22019989233E+02  0.43400729202E+02  0.00000000000E+00 0.  1.
         11    1    3    3    0    0 -0.21905813426E+02  0.13709638081E+01 -0.19956706129E+02  0.29665035368E+02  0.51100000000E-03 0.  1.
        -11    1    3    3    0    0 -0.11622379749E+02  0.11031408210E+01 -0.54026955355E+01  0.12864126477E+02  0.51100000000E-03 0. -1.
         12    1    3    3    0    0 -0.36222589098E+01  0.18371920857E+01  0.33394124313E+01  0.52581089525E+01  0.00000000000E+00 0. -1.
</event>
<event>
 7    1  0.2886681E-010  0.4778726E+02  0.7816164E-02  0.1312668E+00
        -11   -1    0    0    0    0  0.00000000000E+00  0.00000000000E+00  0.45593999997E+02  0.45594000000E+02  0.51100000000E-03 0. -1.
         11   -1    0    0    0    0 -0.00000000000E+00 -0.00000000000E+00 -0.45593999997E+02  0.45594000000E+02  0.51100000000E-03 0.  1.
    9900012    2    1    2    0    0  0.28987309915E+02 -0.30149575115E+02  0.11591511971E+02  0.47787260772E+02  0.19999953165E+02 0.  0.
        -12    1    1    2    0    0 -0.28987309915E+02  0.30149575115E+02 -0.11591511971E+02  0.43400739228E+02  0.00000000000E+00 0.  1.
         11    1    3    3    0    0  0.16796939204E+02 -0.28994391479E+02  0.78173863116E+01  0.34408188457E+02  0.51100000000E-03 0. -1.
        -11    1    3    3    0    0  0.86653921881E+01 -0.11607184525E+01  0.44181645963E+01  0.97957372240E+01  0.51100000000E-03 0.  1.
        -12    1    3    3    0    0  0.35249785236E+01  0.55348169675E-02 -0.64403893718E+00  0.35833350916E+01  0.00000000000E+00 0.  1.
</event>
<event>
 7    1  0.2886681E-010  0.4778728E+02  0.7816164E-02  0.1312668E+00
        -11   -1    0    0    0    0  0.00000000000E+00  0.00000000000E+00  0.45593999997E+02  0.45594000000E+02  0.51100000000E-03 0.  1.
         11   -1    0    0    0    0 -0.00000000000E+00 -0.00000000000E+00 -0.45593999997E+02  0.45594000000E+02  0.51100000000E-03 0. -1.
    9900012    2    1    2    0    0  0.22153794159E+02 -0.17185220683E+02 -0.33128544901E+02  0.47787275435E+02  0.20000020017E+02 0.  0.
        -12    1    1    2    0    0 -0.22153794159E+02  0.17185220683E+02  0.33128544901E+02  0.43400724565E+02  0.00000000000E+00 0.  1.
         11    1    3    3    0    0  0.24861974324E+01  0.26706191377E+01 -0.89396398309E+01  0.96555965543E+01  0.51100000000E-03 0. -1.
        -11    1    3    3    0    0 -0.63966295131E+00 -0.15102113103E+00  0.28839587601E+00  0.71773847306E+00  0.51100000000E-03 0.  1.
         12    1    3    3    0    0  0.20307259678E+02 -0.19704818689E+02 -0.24477300946E+02  0.37413940407E+02  0.00000000000E+00 0. -1.
</event>
<event>
 7    1  0.2886681E-010  0.4778727E+02  0.7816164E-02  0.1312668E+00
        -11   -1    0    0    0    0  0.00000000000E+00  0.00000000000E+00  0.45593999997E+02  0.45594000000E+02  0.51100000000E-03 0.  1.
         11   -1    0    0    0    0 -0.00000000000E+00 -0.00000000000E+00 -0.45593999997E+02  0.45594000000E+02  0.51100000000E-03 0. -1.
    9900012    2    1    2    0    0 -0.15152800760E+02  0.32460409820E+02 -0.24501792974E+02  0.47787269182E+02  0.19999991508E+02 0.  0.
        -12    1    1    2    0    0  0.15152800760E+02 -0.32460409820E+02  0.24501792974E+02  0.43400730818E+02  0.00000000000E+00 0.  1.
         11    1    3    3    0    0 -0.90970502296E+01  0.21228062278E+02 -0.17301380574E+02  0.28856970059E+02  0.51100000000E-03 0. -1.
        -11    1    3    3    0    0  0.21272863530E+01  0.37806413745E+01  0.17687220630E+01  0.46847598047E+01  0.51100000000E-03 0.  1.
         12    1    3    3    0    0 -0.81830368836E+01  0.74517061677E+01 -0.89691344628E+01  0.14245539318E+02  0.00000000000E+00 0. -1.
</event>
<event>
 7    1  0.2886681E-010  0.4778725E+02  0.7816164E-02  0.1312668E+00
        -11   -1    0    0    0    0  0.00000000000E+00  0.00000000000E+00  0.45593999997E+02  0.45594000000E+02  0.51100000000E-03 0. -1.
         11   -1    0    0    0    0 -0.00000000000E+00 -0.00000000000E+00 -0.45593999997E+02  0.45594000000E+02  0.51100000000E-03 0.  1.
    9900012    2    1    2    0    0  0.29061181023E+02 -0.51830080531E+01  0.31815237378E+02  0.47787249495E+02  0.19999901749E+02 0.  0.
        -12    1    1    2    0    0 -0.29061181023E+02  0.51830080531E+01 -0.31815237378E+02  0.43400750505E+02  0.00000000000E+00 0.  1.
         11    1    3    3    0    0  0.13935803431E+02 -0.47428740439E+00  0.14523604021E+02  0.20133718976E+02  0.51100000000E-03 0. -1.
        -11    1    3    3    0    0 -0.20109788540E-01  0.39393693365E+01  0.47537869967E+01  0.61739392809E+01  0.51100000000E-03 0.  1.
        -12    1    3    3    0    0  0.15145487381E+02 -0.86480899853E+01  0.12537846361E+02  0.21479591238E+02  0.00000000000E+00 0.  1.
</event>
<event>
 7    1  0.2886681E-010  0.4778726E+02  0.7816164E-02  0.1312668E+00
        -11   -1    0    0    0    0  0.00000000000E+00  0.00000000000E+00  0.45593999997E+02  0.45594000000E+02  0.51100000000E-03 0.  1.
         11   -1    0    0    0    0 -0.00000000000E+00 -0.00000000000E+00 -0.45593999997E+02  0.45594000000E+02  0.51100000000E-03 0. -1.
    9900012    2    1    2    0    0  0.82921399189E+01 -0.95465389109E+01 -0.41517801511E+02  0.47787264616E+02  0.19999970688E+02 0.  0.
        -12    1    1    2    0    0 -0.82921399189E+01  0.95465389109E+01  0.41517801511E+02  0.43400735384E+02  0.00000000000E+00 0.  1.
         11    1    3    3    0    0  0.80098451501E+01 -0.12431496183E+01 -0.32189805204E+02  0.33194677279E+02  0.51100000000E-03 0. -1.
        -11    1    3    3    0    0  0.13950485581E+01 -0.74886070083E+01 -0.31173124904E+01  0.82306155802E+01  0.51100000000E-03 0.  1.
        -12    1    3    3    0    0 -0.11127537893E+01 -0.81478228429E+00 -0.62106838161E+01  0.63619717565E+01  0.00000000000E+00 0.  1.
</event>
<event>
 7    1  0.2886681E-010  0.4778727E+02  0.7816164E-02  0.1312668E+00
        -11   -1    0    0    0    0  0.00000000000E+00  0.00000000000E+00  0.45593999997E+02  0.45594000000E+02  0.51100000000E-03 0.  1.
         11   -1    0    0    0    0 -0.00000000000E+00 -0.00000000000E+00 -0.45593999997E+02  0.45594000000E+02  0.51100000000E-03 0. -1.
    9900012    2    1    2    0    0  0.73969942749E+01  0.33630242023E+02 -0.26418071506E+02  0.47787271838E+02  0.20000003620E+02 0.  0.
        -12    1    1    2    0    0 -0.73969942749E+01 -0.33630242023E+02  0.26418071506E+02  0.43400728162E+02  0.00000000000E+00 0.  1.
         11    1    3    3    0    0  0.53406258594E+00  0.23496841499E+02 -0.12348321350E+02  0.26549346955E+02  0.51100000000E-03 0. -1.
        -11    1    3    3    0    0  0.50631794579E+01  0.19081976980E+01 -0.72529287991E+00  0.54592174074E+01  0.51100000000E-03 0.  1.
         12    1    3    3    0    0  0.17997522310E+01  0.82252028259E+01 -0.13344457277E+02  0.15778707476E+02  0.00000000000E+00 0. -1.
</event>
<event>
 7    1  0.2886681E-010  0.4778723E+02  0.7816164E-02  0.1312668E+00
        -11   -1    0    0    0    0  0.00000000000E+00  0.00000000000E+00  0.45593999997E+02  0.45594000000E+02  0.51100000000E-03 0.  1.
         11   -1    0    0    0    0 -0.00000000000E+00 -0.00000000000E+00 -0.45593999997E+02  0.45594000000E+02  0.51100000000E-03 0. -1.
    9900012    2    1    2    0    0 -0.10974933670E+02  0.89916787739E+01 -0.41016180488E+02  0.47787233669E+02  0.19999829592E+02 0.  0.
        -12    1    1    2    0    0  0.10974933670E+02 -0.89916787739E+01  0.41016180488E+02  0.43400766331E+02  0.00000000000E+00 0.  1.
         11    1    3    3    0    0  0.60160469709E+00 -0.25540759200E+01 -0.68311628099E+01  0.73177877540E+01  0.51100000000E-03 0. -1.
        -11    1    3    3    0    0 -0.11410901345E+02  0.14187000734E+02 -0.25107107241E+02  0.31013650117E+02  0.51100000000E-03 0.  1.
        -12    1    3    3    0    0 -0.16563702208E+00 -0.26412460401E+01 -0.90779104372E+01  0.94557957980E+01  0.00000000000E+00 0.  1.
</event>
<event>
 7    1  0.2886681E-010  0.4778727E+02  0.7816164E-02  0.1312668E+00
        -11   -1    0    0    0    0  0.00000000000E+00  0.00000000000E+00  0.45593999997E+02  0.45594000000E+02  0.51100000000E-03 0.  1.
         11   -1    0    0    0    0 -0.00000000000E+00 -0.00000000000E+00 -0.45593999997E+02  0.45594000000E+02  0.51100000000E-03 0. -1.
    9900012    2    1    2    0    0 -0.20228756689E+02  0.22151858780E+02 -0.31364247940E+02  0.47787268515E+02  0.19999988469E+02 0.  0.
        -12    1    1    2    0    0  0.20228756689E+02 -0.22151858780E+02  0.31364247940E+02  0.43400731485E+02  0.00000000000E+00 0.  1.
         11    1    3    3    0    0 -0.53839398257E+01  0.15872718820E+02 -0.73029560223E+01  0.18282865687E+02  0.51100000000E-03 0. -1.
        -11    1    3    3    0    0 -0.12673576338E+02  0.71392119782E+01 -0.22085469781E+02  0.26445337218E+02  0.51100000000E-03 0.  1.
        -12    1    3    3    0    0 -0.21712405249E+01 -0.86007201878E+00 -0.19758221360E+01  0.30590656102E+01  0.00000000000E+00 0.  1.
</event>
<event>
 7    1  0.2886681E-010  0.4778727E+02  0.7816164E-02  0.1312668E+00
        -11   -1    0    0    0    0  0.00000000000E+00  0.00000000000E+00  0.45593999997E+02  0.45594000000E+02  0.51100000000E-03 0.  1.
         11   -1    0    0    0    0 -0.00000000000E+00 -0.00000000000E+00 -0.45593999997E+02  0.45594000000E+02  0.51100000000E-03 0. -1.
    9900012    2    1    2    0    0 -0.23626701993E+02 -0.66083515364E+01 -0.35801282088E+02  0.47787272400E+02  0.20000006180E+02 0.  0.
        -12    1    1    2    0    0  0.23626701993E+02  0.66083515364E+01  0.35801282088E+02  0.43400727600E+02  0.00000000000E+00 0.  1.
         11    1    3    3    0    0 -0.10469589686E+02 -0.92673176739E+01 -0.19773016321E+02  0.24217094371E+02  0.51100000000E-03 0. -1.
        -11    1    3    3    0    0 -0.13359039862E+02  0.45860505115E+01 -0.10183554673E+02  0.17412656069E+02  0.51100000000E-03 0.  1.
        -12    1    3    3    0    0  0.20192755550E+00 -0.19270843741E+01 -0.58447110934E+01  0.61575219600E+01  0.00000000000E+00 0.  1.
</event>
<event>
 7    1  0.2886681E-010  0.4778726E+02  0.7816164E-02  0.1312668E+00
        -11   -1    0    0    0    0  0.00000000000E+00  0.00000000000E+00  0.45593999997E+02  0.45594000000E+02  0.51100000000E-03 0.  1.
         11   -1    0    0    0    0 -0.00000000000E+00 -0.00000000000E+00 -0.45593999997E+02  0.45594000000E+02  0.51100000000E-03 0. -1.
    9900012    2    1    2    0    0 -0.27598617571E+02 -0.32116642119E+02 -0.95111238910E+01  0.47787264171E+02  0.19999968662E+02 0.  0.
        -12    1    1    2    0    0  0.27598617571E+02  0.32116642119E+02  0.95111238910E+01  0.43400735829E+02  0.00000000000E+00 0.  1.
         11    1    3    3    0    0 -0.16702607133E+02 -0.96013578155E+01 -0.91780391446E+01  0.21340092778E+02  0.51100000000E-03 0. -1.
        -11    1    3    3    0    0 -0.34901265484E+01 -0.16594439268E+02 -0.48014651201E+00  0.16964284213E+02  0.51100000000E-03 0.  1.
        -12    1    3    3    0    0 -0.74058838890E+01 -0.59208450355E+01  0.14706176553E+00  0.94828871803E+01  0.00000000000E+00 0.  1.
</event>
<event>
 7    1  0.2886681E-010  0.4778727E+02  0.7816164E-02  0.1312668E+00
        -11   -1    0    0    0    0  0.00000000000E+00  0.00000000000E+00  0.45593999997E+02  0.45594000000E+02  0.51100000000E-03 0.  1.
         11   -1    0    0    0    0 -0.00000000000E+00 -0.00000000000E+00 -0.45593999997E+02  0.45594000000E+02  0.51100000000E-03 0. -1.
    9900012    2    1    2    0    0  0.37157083260E+02  0.11360975282E+02  0.19336559184E+02  0.47787272854E+02  0.20000008251E+02 0.  0.
        -12    1    1    2    0    0 -0.37157083260E+02 -0.11360975282E+02 -0.19336559184E+02  0.43400727146E+02  0.00000000000E+00 0.  1.
         11    1    3    3    0    0  0.66375367871E+01  0.85200303082E+01  0.32261249991E+01  0.11271898413E+02  0.51100000000E-03 0. -1.
        -11    1    3    3    0    0  0.25156636625E+02  0.28032095788E+01  0.17740374170E+02  0.30910115273E+02  0.51100000000E-03 0.  1.
        -12    1    3    3    0    0  0.53629098477E+01  0.37735395391E-01 -0.16299399852E+01  0.56052591689E+01  0.00000000000E+00 0.  1.
</event>
<event>
 7    1  0.2886681E-010  0.4778728E+02  0.7816164E-02  0.1312668E+00
        -11   -1    0    0    0    0  0.00000000000E+00  0.00000000000E+00  0.45593999997E+02  0.45594000000E+02  0.51100000000E-03 0.  1.
         11   -1    0    0    0    0 -0.00000000000E+00 -0.00000000000E+00 -0.45593999997E+02  0.45594000000E+02  0.51100000000E-03 0. -1.
    9900012    2    1    2    0    0  0.23143277718E+01 -0.26505627578E+02 -0.34288746673E+02  0.47787279329E+02  0.20000037773E+02 0.  0.
        -12    1    1    2    0    0 -0.23143277718E+01  0.26505627578E+02  0.34288746673E+02  0.43400720671E+02  0.00000000000E+00 0.  1.
         11    1    3    3    0    0 -0.57580931580E+01 -0.11449907416E+02 -0.13693674071E+02  0.18755605201E+02  0.51100000000E-03 0. -1.
        -11    1    3    3    0    0  0.53712531799E+01 -0.78113328177E+01 -0.32161875237E+01  0.10010551611E+02  0.51100000000E-03 0.  1.
        -12    1    3    3    0    0  0.27011677498E+01 -0.72443873446E+01 -0.17378885079E+02  0.19021122517E+02  0.00000000000E+00 0.  1.
</event>
<event>
 7    1  0.2886681E-010  0.4778727E+02  0.7816164E-02  0.1312668E+00
        -11   -1    0    0    0    0  0.00000000000E+00  0.00000000000E+00  0.45593999997E+02  0.45594000000E+02  0.51100000000E-03 0. -1.
         11   -1    0    0    0    0 -0.00000000000E+00 -0.00000000000E+00 -0.45593999997E+02  0.45594000000E+02  0.51100000000E-03 0.  1.
    9900012    2    1    2    0    0  0.23276626616E+02  0.84244062418E+01  0.35649002070E+02  0.47787270562E+02  0.19999997800E+02 0.  0.
        -12    1    1    2    0    0 -0.23276626616E+02 -0.84244062418E+01 -0.35649002070E+02  0.43400729438E+02  0.00000000000E+00 0.  1.
         11    1    3    3    0    0  0.54202227072E+01  0.42314483314E+01  0.29499892128E+00  0.68826589195E+01  0.51100000000E-03 0. -1.
        -11    1    3    3    0    0  0.40139973499E+01 -0.25824273797E+01  0.53201501617E+01  0.71473844098E+01  0.51100000000E-03 0.  1.
         12    1    3    3    0    0  0.13842406559E+02  0.67753852901E+01  0.30033852987E+02  0.33757227233E+02  0.00000000000E+00 0. -1.
</event>
<event>
 7    1  0.2886681E-010  0.4778729E+02  0.7816164E-02  0.1312668E+00
        -11   -1    0    0    0    0  0.00000000000E+00  0.00000000000E+00  0.45593999997E+02  0.45594000000E+02  0.51100000000E-03 0. -1.
         11   -1    0    0    0    0 -0.00000000000E+00 -0.00000000000E+00 -0.45593999997E+02  0.45594000000E+02  0.51100000000E-03 0.  1.
    9900012    2    1    2    0    0  0.38590463131E+02  0.85883759971E+01 -0.17906360621E+02  0.47787288051E+02  0.20000077541E+02 0.  0.
        -12    1    1    2    0    0 -0.38590463131E+02 -0.85883759971E+01  0.17906360621E+02  0.43400711949E+02  0.00000000000E+00 0.  1.
         11    1    3    3    0    0  0.24265659621E+02  0.50831545184E+00 -0.24710441368E+01  0.24396448119E+02  0.51100000000E-03 0. -1.
        -11    1    3    3    0    0  0.12143918194E+02  0.90815130234E+01 -0.13032655850E+02  0.19994968034E+02  0.51100000000E-03 0.  1.
        -12    1    3    3    0    0  0.21808853165E+01 -0.10014524781E+01 -0.24026606340E+01  0.33958718986E+01  0.00000000000E+00 0.  1.
</event>
<event>
 7    1  0.2886681E-010  0.4778726E+02  0.7816164E-02  0.1312668E+00
        -11   -1    0    0    0    0  0.00000000000E+00  0.00000000000E+00  0.45593999997E+02  0.45594000000E+02  0.51100000000E-03 0.  1.
         11   -1    0    0    0    0 -0.00000000000E+00 -0.00000000000E+00 -0.45593999997E+02  0.45594000000E+02  0.51100000000E-03 0. -1.
    9900012    2    1    2    0    0 -0.13063475623E+02  0.37763680723E+02 -0.16937352813E+02  0.47787263861E+02  0.19999967248E+02 0.  0.
        -12    1    1    2    0    0  0.13063475623E+02 -0.37763680723E+02  0.16937352813E+02  0.43400736139E+02  0.00000000000E+00 0.  1.
         11    1    3    3    0    0 -0.23504209889E+01  0.12887776025E+02 -0.11566441921E+02  0.17475749731E+02  0.51100000000E-03 0. -1.
        -11    1    3    3    0    0 -0.17466569433E+01  0.18903640347E+01  0.32773999903E+01  0.41672098122E+01  0.51100000000E-03 0.  1.
        -12    1    3    3    0    0 -0.89663976907E+01  0.22985540663E+02 -0.86483108821E+01  0.26144304317E+02  0.00000000000E+00 0.  1.
</event>
<event>
 7    1  0.2886681E-010  0.4778727E+02  0.7816164E-02  0.1312668E+00
        -11   -1    0    0    0    0  0.00000000000E+00  0.00000000000E+00  0.45593999997E+02  0.45594000000E+02  0.51100000000E-03 0.  1.
         11   -1    0    0    0    0 -0.00000000000E+00 -0.00000000000E+00 -0.45593999997E+02  0.45594000000E+02  0.51100000000E-03 0. -1.
    9900012    2    1    2    0    0 -0.30220234715E+02  0.24921934832E+02 -0.18688442716E+02  0.47787270592E+02  0.19999997936E+02 0.  0.
        -12    1    1    2    0    0  0.30220234715E+02 -0.24921934832E+02  0.18688442716E+02  0.43400729408E+02  0.00000000000E+00 0.  1.
         11    1    3    3    0    0 -0.16871681279E+02  0.19780248842E+02 -0.20739077686E+02  0.33256897284E+02  0.51100000000E-03 0. -1.
        -11    1    3    3    0    0 -0.10131174850E+02  0.31923981792E+01  0.15850968952E+01  0.10739862308E+02  0.51100000000E-03 0.  1.
         12    1    3    3    0    0 -0.32173785866E+01  0.19492878102E+01  0.46553807486E+00  0.37905109993E+01  0.00000000000E+00 0. -1.
</event>
<event>
 7    1  0.2886681E-010  0.4778727E+02  0.7816164E-02  0.1312668E+00
        -11   -1    0    0    0    0  0.00000000000E+00  0.00000000000E+00  0.45593999997E+02  0.45594000000E+02  0.51100000000E-03 0.  1.
         11   -1    0    0    0    0 -0.00000000000E+00 -0.00000000000E+00 -0.45593999997E+02  0.45594000000E+02  0.51100000000E-03 0. -1.
    9900012    2    1    2    0    0 -0.20066292088E+02  0.84741718396E+01 -0.37538717140E+02  0.47787274763E+02  0.20000016955E+02 0.  0.
        -12    1    1    2    0    0  0.20066292088E+02 -0.84741718396E+01  0.37538717140E+02  0.43400725237E+02  0.00000000000E+00 0.  1.
         11    1    3    3    0    0 -0.19224884136E+02  0.83913541997E+01 -0.19286358347E+02  0.28495168255E+02  0.51100000000E-03 0.  1.
        -11    1    3    3    0    0  0.77451691718E+00 -0.27375553871E+01 -0.64350674076E+01  0.70359206046E+01  0.51100000000E-03 0. -1.
         12    1    3    3    0    0 -0.16159248696E+01  0.28203730271E+01 -0.11817291386E+02  0.12256185903E+02  0.00000000000E+00 0. -1.
</event>
<event>
 7    1  0.2886681E-010  0.4778727E+02  0.7816164E-02  0.1312668E+00
        -11   -1    0    0    0    0  0.00000000000E+00  0.00000000000E+00  0.45593999997E+02  0.45594000000E+02  0.51100000000E-03 0.  1.
         11   -1    0    0    0    0 -0.00000000000E+00 -0.00000000000E+00 -0.45593999997E+02  0.45594000000E+02  0.51100000000E-03 0. -1.
    9900012    2    1    2    0    0 -0.57881287211E+01 -0.24483002157E+01 -0.42943296437E+02  0.47787270548E+02  0.19999997738E+02 0.  0.
        -12    1    1    2    0    0  0.57881287211E+01  0.24483002157E+01  0.42943296437E+02  0.43400729452E+02  0.00000000000E+00 0.  1.
         11    1    3    3    0    0  0.12940840065E+01 -0.15622204141E+01 -0.23025610584E+02  0.23114798919E+02  0.51100000000E-03 0. -1.
        -11    1    3    3    0    0 -0.22742080862E+01  0.38178692702E+01 -0.94572798393E+00  0.45434072968E+01  0.51100000000E-03 0.  1.
        -12    1    3    3    0    0 -0.48080046414E+01 -0.47039490719E+01 -0.18971957869E+02  0.20129064332E+02  0.00000000000E+00 0.  1.
</event>
<event>
 7    1  0.2886681E-010  0.4778727E+02  0.7816164E-02  0.1312668E+00
        -11   -1    0    0    0    0  0.00000000000E+00  0.00000000000E+00  0.45593999997E+02  0.45594000000E+02  0.51100000000E-03 0. -1.
         11   -1    0    0    0    0 -0.00000000000E+00 -0.00000000000E+00 -0.45593999997E+02  0.45594000000E+02  0.51100000000E-03 0.  1.
    9900012    2    1    2    0    0 -0.31086895135E+02 -0.28912640490E+02  0.90159496957E+01  0.47787272147E+02  0.20000005029E+02 0.  0.
        -12    1    1    2    0    0  0.31086895135E+02  0.28912640490E+02 -0.90159496957E+01  0.43400727853E+02  0.00000000000E+00 0.  1.
         11    1    3    3    0    0 -0.17821057655E+02 -0.12723843193E+02  0.46562030763E+01  0.22386748511E+02  0.51100000000E-03 0. -1.
        -11    1    3    3    0    0  0.19341735250E+01 -0.63510970340E+01 -0.48787734896E+00  0.66569877068E+01  0.51100000000E-03 0.  1.
        -12    1    3    3    0    0 -0.15200011005E+02 -0.98377002628E+01  0.48476239683E+01  0.18743535930E+02  0.00000000000E+00 0.  1.
</event>
<event>
 7    1  0.2886681E-010  0.4778727E+02  0.7816164E-02  0.1312668E+00
        -11   -1    0    0    0    0  0.00000000000E+00  0.00000000000E+00  0.45593999997E+02  0.45594000000E+02  0.51100000000E-03 0. -1.
         11   -1    0    0    0    0 -0.00000000000E+00 -0.00000000000E+00 -0.45593999997E+02  0.45594000000E+02  0.51100000000E-03 0.  1.
    9900012    2    1    2    0    0  0.90447271312E+01 -0.40512910072E+02 -0.12669657734E+02  0.47787271913E+02  0.20000003962E+02 0.  0.
        -12    1    1    2    0    0 -0.90447271312E+01  0.40512910072E+02  0.12669657734E+02  0.43400728087E+02  0.00000000000E+00 0.  1.
         11    1    3    3    0    0 -0.10334107352E+00 -0.34672040998E+01  0.35803888581E+01  0.49851146711E+01  0.51100000000E-03 0. -1.
        -11    1    3    3    0    0  0.94010206182E+01 -0.21334548103E+02 -0.13213957045E+02  0.26798335628E+02  0.51100000000E-03 0.  1.
        -12    1    3    3    0    0 -0.25295241346E+00 -0.15711157869E+02 -0.30360895471E+01  0.16003821614E+02  0.00000000000E+00 0.  1.
</event>
<event>
 7    1  0.2886681E-010  0.4778727E+02  0.7816164E-02  0.1312668E+00
        -11   -1    0    0    0    0  0.00000000000E+00  0.00000000000E+00  0.45593999997E+02  0.45594000000E+02  0.51100000000E-03 0.  1.
         11   -1    0    0    0    0 -0.00000000000E+00 -0.00000000000E+00 -0.45593999997E+02  0.45594000000E+02  0.51100000000E-03 0. -1.
    9900012    2    1    2    0    0 -0.99894859100E+01  0.13791884660E+02 -0.39920143632E+02  0.47787265227E+02  0.19999973475E+02 0.  0.
        -12    1    1    2    0    0  0.99894859100E+01 -0.13791884660E+02  0.39920143632E+02  0.43400734773E+02  0.00000000000E+00 0.  1.
         11    1    3    3    0    0 -0.35229251064E+01  0.49568537646E+01 -0.11593431538E+02  0.13091564293E+02  0.51100000000E-03 0. -1.
        -11    1    3    3    0    0 -0.53640006326E+01  0.74549787637E+01 -0.35347921510E+01  0.98409332366E+01  0.51100000000E-03 0.  1.
        -12    1    3    3    0    0 -0.11025601710E+01  0.13800521318E+01 -0.24791919943E+02  0.24854767697E+02  0.00000000000E+00 0.  1.
</event>
<event>
 7    1  0.2886681E-010  0.4778727E+02  0.7816164E-02  0.1312668E+00
        -11   -1    0    0    0    0  0.00000000000E+00  0.00000000000E+00  0.45593999997E+02  0.45594000000E+02  0.51100000000E-03 0.  1.
         11   -1    0    0    0    0 -0.00000000000E+00 -0.00000000000E+00 -0.45593999997E+02  0.45594000000E+02  0.51100000000E-03 0. -1.
    9900012    2    1    2    0    0  0.22638312119E+02  0.33327128216E+02  0.16137933534E+02  0.47787267870E+02  0.19999985525E+02 0.  0.
        -12    1    1    2    0    0 -0.22638312119E+02 -0.33327128216E+02 -0.16137933534E+02  0.43400732130E+02  0.00000000000E+00 0.  1.
         11    1    3    3    0    0  0.34574529014E+01  0.46000847047E+01  0.14219815059E+01  0.59276295026E+01  0.51100000000E-03 0. -1.
        -11    1    3    3    0    0  0.17904984041E+02  0.31401941311E+02  0.12883056308E+02  0.38375037611E+02  0.51100000000E-03 0.  1.
        -12    1    3    3    0    0  0.12758751766E+01 -0.26748977996E+01  0.18328957202E+01  0.34846007555E+01  0.00000000000E+00 0.  1.
</event>
<event>
 7    1  0.2886681E-010  0.4778727E+02  0.7816164E-02  0.1312668E+00
        -11   -1    0    0    0    0  0.00000000000E+00  0.00000000000E+00  0.45593999997E+02  0.45594000000E+02  0.51100000000E-03 0.  1.
         11   -1    0    0    0    0 -0.00000000000E+00 -0.00000000000E+00 -0.45593999997E+02  0.45594000000E+02  0.51100000000E-03 0. -1.
    9900012    2    1    2    0    0 -0.20344694529E+02  0.34407812248E+02 -0.16906183274E+02  0.47787272217E+02  0.20000005348E+02 0.  0.
        -12    1    1    2    0    0  0.20344694529E+02 -0.34407812248E+02  0.16906183274E+02  0.43400727783E+02  0.00000000000E+00 0.  1.
         11    1    3    3    0    0 -0.13969787347E+02  0.21183782637E+02 -0.13738292902E+02  0.28855645851E+02  0.51100000000E-03 0. -1.
        -11    1    3    3    0    0  0.24585857364E+01 -0.19561396020E+00 -0.12085942816E+01  0.27465631329E+01  0.51100000000E-03 0.  1.
        -12    1    3    3    0    0 -0.88334929186E+01  0.13419643571E+02 -0.19592960909E+01  0.16185063234E+02  0.00000000000E+00 0.  1.
</event>
<event>
 7    1  0.2886681E-010  0.4778727E+02  0.7816164E-02  0.1312668E+00
        -11   -1    0    0    0    0  0.00000000000E+00  0.00000000000E+00  0.45593999997E+02  0.45594000000E+02  0.51100000000E-03 0.  1.
         11   -1    0    0    0    0 -0.00000000000E+00 -0.00000000000E+00 -0.45593999997E+02  0.45594000000E+02  0.51100000000E-03 0. -1.
    9900012    2    1    2    0    0 -0.41377012749E+02 -0.12917859109E+02  0.21667840055E+01  0.47787271655E+02  0.20000002782E+02 0.  0.
        -12    1    1    2    0    0  0.41377012749E+02  0.12917859109E+02 -0.21667840055E+01  0.43400728345E+02  0.00000000000E+00 0.  1.
         11    1    3    3    0    0 -0.37184016161E+02 -0.93669789504E+01  0.74019281451E+00  0.38352825687E+02  0.51100000000E-03 0. -1.
        -11    1    3    3    0    0  0.15397697515E+01  0.55672692704E-01 -0.14128163129E+01  0.20904641904E+01  0.51100000000E-03 0.  1.
        -12    1    3    3    0    0 -0.57327663393E+01 -0.36065528511E+01  0.28394075039E+01  0.73439817771E+01  0.00000000000E+00 0.  1.
</event>
<event>
 7    1  0.2886681E-010  0.4778727E+02  0.7816164E-02  0.1312668E+00
        -11   -1    0    0    0    0  0.00000000000E+00  0.00000000000E+00  0.45593999997E+02  0.45594000000E+02  0.51100000000E-03 0.  1.
         11   -1    0    0    0    0 -0.00000000000E+00 -0.00000000000E+00 -0.45593999997E+02  0.45594000000E+02  0.51100000000E-03 0. -1.
    9900012    2    1    2    0    0  0.20847899824E+01  0.40414224416E+02 -0.15683341584E+02  0.47787273190E+02  0.20000009782E+02 0.  0.
        -12    1    1    2    0    0 -0.20847899824E+01 -0.40414224416E+02  0.15683341584E+02  0.43400726810E+02  0.00000000000E+00 0.  1.
         11    1    3    3    0    0  0.24130383553E+01  0.11800274416E+02 -0.52795222945E+01  0.13150763716E+02  0.51100000000E-03 0. -1.
        -11    1    3    3    0    0  0.75933807092E+01  0.90331037535E+01 -0.23610999087E+01  0.12034582961E+02  0.51100000000E-03 0.  1.
        -12    1    3    3    0    0 -0.79216290821E+01  0.19580846246E+02 -0.80427193813E+01  0.22601926512E+02  0.00000000000E+00 0.  1.
</event>
<event>
 7    1  0.2886681E-010  0.4778727E+02  0.7816164E-02  0.1312668E+00
        -11   -1    0    0    0    0  0.00000000000E+00  0.00000000000E+00  0.45593999997E+02  0.45594000000E+02  0.51100000000E-03 0.  1.
         11   -1    0    0    0    0 -0.00000000000E+00 -0.00000000000E+00 -0.45593999997E+02  0.45594000000E+02  0.51100000000E-03 0. -1.
    9900012    2    1    2    0    0  0.29531242716E+02 -0.15317717441E+02 -0.27872867822E+02  0.47787268156E+02  0.19999986831E+02 0.  0.
        -12    1    1    2    0    0 -0.29531242716E+02  0.15317717441E+02  0.27872867822E+02  0.43400731844E+02  0.00000000000E+00 0.  1.
         11    1    3    3    0    0  0.20322057565E+02 -0.65089226230E+01 -0.22395254357E+02  0.30933792450E+02  0.51100000000E-03 0. -1.
        -11    1    3    3    0    0  0.89810905282E+01 -0.59273692957E+01 -0.11485068175E+00  0.10761360731E+02  0.51100000000E-03 0.  1.
        -12    1    3    3    0    0  0.22809462351E+00 -0.28814255224E+01 -0.53627627830E+01  0.60921149747E+01  0.00000000000E+00 0.  1.
</event>
<event>
 7    1  0.2886681E-010  0.4778728E+02  0.7816164E-02  0.1312668E+00
        -11   -1    0    0    0    0  0.00000000000E+00  0.00000000000E+00  0.45593999997E+02  0.45594000000E+02  0.51100000000E-03 0.  1.
         11   -1    0    0    0    0 -0.00000000000E+00 -0.00000000000E+00 -0.45593999997E+02  0.45594000000E+02  0.51100000000E-03 0. -1.
    9900012    2    1    2    0    0  0.14214692661E+02  0.25421518938E+02 -0.32176260448E+02  0.47787275939E+02  0.20000022318E+02 0.  0.
        -12    1    1    2    0    0 -0.14214692661E+02 -0.25421518938E+02  0.32176260448E+02  0.43400724061E+02  0.00000000000E+00 0.  1.
         11    1    3    3    0    0  0.13957392766E+02  0.69083907445E+01 -0.18852471975E+02  0.24453023849E+02  0.51100000000E-03 0. -1.
        -11    1    3    3    0    0 -0.22388946287E+01  0.83347316096E+01 -0.68251597908E+01  0.11002872652E+02  0.51100000000E-03 0.  1.
         12    1    3    3    0    0  0.24961945237E+01  0.10178396583E+02 -0.64986286824E+01  0.12331379439E+02  0.00000000000E+00 0. -1.
</event>
<event>
 7    1  0.2886681E-010  0.4778727E+02  0.7816164E-02  0.1312668E+00
        -11   -1    0    0    0    0  0.00000000000E+00  0.00000000000E+00  0.45593999997E+02  0.45594000000E+02  0.51100000000E-03 0.  1.
         11   -1    0    0    0    0 -0.00000000000E+00 -0.00000000000E+00 -0.45593999997E+02  0.45594000000E+02  0.51100000000E-03 0. -1.
    9900012    2    1    2    0    0 -0.39971547769E+02  0.46379774655E+01  0.16259999945E+02  0.47787273460E+02  0.20000011011E+02 0.  0.
        -12    1    1    2    0    0  0.39971547769E+02 -0.46379774655E+01 -0.16259999945E+02  0.43400726540E+02  0.00000000000E+00 0.  1.
         11    1    3    3    0    0 -0.77027843410E+00  0.62769451772E+00 -0.17526564145E+01  0.20147292726E+01  0.51100000000E-03 0. -1.
        -11    1    3    3    0    0 -0.39450964323E+02  0.14307580731E+01  0.16648843703E+02  0.42844015353E+02  0.51100000000E-03 0.  1.
        -12    1    3    3    0    0  0.24969498818E+00  0.25795248747E+01  0.13638126573E+01  0.29285288339E+01  0.00000000000E+00 0.  1.
</event>
<event>
 7    1  0.2886681E-010  0.4778727E+02  0.7816164E-02  0.1312668E+00
        -11   -1    0    0    0    0  0.00000000000E+00  0.00000000000E+00  0.45593999997E+02  0.45594000000E+02  0.51100000000E-03 0.  1.
         11   -1    0    0    0    0 -0.00000000000E+00 -0.00000000000E+00 -0.45593999997E+02  0.45594000000E+02  0.51100000000E-03 0. -1.
    9900012    2    1    2    0    0 -0.29130330043E+02 -0.27309774796E+02 -0.17006564803E+02  0.47787272193E+02  0.20000005236E+02 0.  0.
        -12    1    1    2    0    0  0.29130330043E+02  0.27309774796E+02  0.17006564803E+02  0.43400727807E+02  0.00000000000E+00 0.  1.
         11    1    3    3    0    0 -0.68337554397E+01 -0.20695626498E+01 -0.78437072409E+00  0.71832124196E+01  0.51100000000E-03 0. -1.
        -11    1    3    3    0    0 -0.23368179466E+02 -0.19288684833E+02 -0.16591306742E+02  0.34545573288E+02  0.51100000000E-03 0.  1.
        -12    1    3    3    0    0  0.10716048625E+01 -0.59515273123E+01  0.36911266360E+00  0.60584864850E+01  0.00000000000E+00 0.  1.
</event>
<event>
 7    1  0.2886681E-010  0.4778727E+02  0.7816164E-02  0.1312668E+00
        -11   -1    0    0    0    0  0.00000000000E+00  0.00000000000E+00  0.45593999997E+02  0.45594000000E+02  0.51100000000E-03 0. -1.
         11   -1    0    0    0    0 -0.00000000000E+00 -0.00000000000E+00 -0.45593999997E+02  0.45594000000E+02  0.51100000000E-03 0.  1.
    9900012    2    1    2    0    0  0.30291015785E+02 -0.18072175802E+02 -0.25287819643E+02  0.47787274225E+02  0.20000014500E+02 0.  0.
        -12    1    1    2    0    0 -0.30291015785E+02  0.18072175802E+02  0.25287819643E+02  0.43400725775E+02  0.00000000000E+00 0.  1.
         11    1    3    3    0    0  0.12452218488E+02 -0.13932190562E+02 -0.17653065520E+02  0.25705921529E+02  0.51100000000E-03 0. -1.
        -11    1    3    3    0    0  0.18001701192E+02 -0.53269817422E+01 -0.53816058915E+01  0.19529456278E+02  0.51100000000E-03 0.  1.
        -12    1    3    3    0    0 -0.16290389449E+00  0.11869965020E+01 -0.22531482319E+01  0.25518964183E+01  0.00000000000E+00 0.  1.
</event>
<event>
 7    1  0.2886681E-010  0.4778727E+02  0.7816164E-02  0.1312668E+00
        -11   -1    0    0    0    0  0.00000000000E+00  0.00000000000E+00  0.45593999997E+02  0.45594000000E+02  0.51100000000E-03 0.  1.
         11   -1    0    0    0    0 -0.00000000000E+00 -0.00000000000E+00 -0.45593999997E+02  0.45594000000E+02  0.51100000000E-03 0. -1.
    9900012    2    1    2    0    0  0.34012556572E+02  0.11707859963E+00 -0.26958404848E+02  0.47787270699E+02  0.19999998423E+02 0.  0.
        -12    1    1    2    0    0 -0.34012556572E+02 -0.11707859963E+00  0.26958404848E+02  0.43400729301E+02  0.00000000000E+00 0.  1.
         11    1    3    3    0    0 -0.51389534032E+00  0.18792009247E+01  0.41374867172E+00  0.19916507628E+01  0.51100000000E-03 0. -1.
        -11    1    3    3    0    0  0.10343304688E+02  0.45678549131E+01 -0.54723508566E+01  0.12561682790E+02  0.51100000000E-03 0.  1.
         12    1    3    3    0    0  0.24183147225E+02 -0.63299772382E+01 -0.21899802663E+02  0.33233937146E+02  0.00000000000E+00 0. -1.
</event>
<event>
 7    1  0.2886681E-010  0.4778725E+02  0.7816164E-02  0.1312668E+00
        -11   -1    0    0    0    0  0.00000000000E+00  0.00000000000E+00  0.45593999997E+02  0.45594000000E+02  0.51100000000E-03 0.  1.
         11   -1    0    0    0    0 -0.00000000000E+00 -0.00000000000E+00 -0.45593999997E+02  0.45594000000E+02  0.51100000000E-03 0. -1.
    9900012    2    1    2    0    0 -0.13001871621E+02 -0.10535875124E+02 -0.40044625033E+02  0.47787247423E+02  0.19999892299E+02 0.  0.
        -12    1    1    2    0    0  0.13001871621E+02  0.10535875124E+02  0.40044625033E+02  0.43400752577E+02  0.00000000000E+00 0.  1.
         11    1    3    3    0    0 -0.11739633384E+02 -0.12684384840E+02 -0.26041366623E+02  0.31254845810E+02  0.51100000000E-03 0. -1.
        -11    1    3    3    0    0  0.22951128449E+01  0.22692567099E+01 -0.12044896373E+02  0.12469827500E+02  0.51100000000E-03 0.  1.
        -12    1    3    3    0    0 -0.35573510819E+01 -0.12074699401E+00 -0.19583620373E+01  0.40625741133E+01  0.00000000000E+00 0.  1.
</event>
<event>
 7    1  0.2886681E-010  0.4778727E+02  0.7816164E-02  0.1312668E+00
        -11   -1    0    0    0    0  0.00000000000E+00  0.00000000000E+00  0.45593999997E+02  0.45594000000E+02  0.51100000000E-03 0.  1.
         11   -1    0    0    0    0 -0.00000000000E+00 -0.00000000000E+00 -0.45593999997E+02  0.45594000000E+02  0.51100000000E-03 0. -1.
    9900012    2    1    2    0    0  0.61518750929E+01  0.45360324977E+01 -0.42722384347E+02  0.47787270948E+02  0.19999999560E+02 0.  0.
        -12    1    1    2    0    0 -0.61518750929E+01 -0.45360324977E+01  0.42722384347E+02  0.43400729052E+02  0.00000000000E+00 0.  1.
         11    1    3    3    0    0  0.41700962456E+00  0.53658806732E+01 -0.87414498340E+01  0.10265452639E+02  0.51100000000E-03 0.  1.
        -11    1    3    3    0    0  0.22853447042E+01  0.42203270971E+01 -0.29630091819E+02  0.30016267301E+02  0.51100000000E-03 0. -1.
        -12    1    3    3    0    0  0.34495207642E+01 -0.50501752725E+01 -0.43508426937E+01  0.75055510078E+01  0.00000000000E+00 0.  1.
</event>
<event>
 7    1  0.2886681E-010  0.4778725E+02  0.7816164E-02  0.1312668E+00
        -11   -1    0    0    0    0  0.00000000000E+00  0.00000000000E+00  0.45593999997E+02  0.45594000000E+02  0.51100000000E-03 0.  1.
         11   -1    0    0    0    0 -0.00000000000E+00 -0.00000000000E+00 -0.45593999997E+02  0.45594000000E+02  0.51100000000E-03 0. -1.
    9900012    2    1    2    0    0  0.38574654805E+02 -0.14092804550E+02 -0.14036180680E+02  0.47787245381E+02  0.19999882990E+02 0.  0.
        -12    1    1    2    0    0 -0.38574654805E+02  0.14092804550E+02  0.14036180680E+02  0.43400754619E+02  0.00000000000E+00 0.  1.
         11    1    3    3    0    0  0.26844959054E+02 -0.18369861629E+01 -0.64232111591E+01  0.27663766675E+02  0.51100000000E-03 0. -1.
        -11    1    3    3    0    0  0.10386018416E+01 -0.62645088146E+01 -0.21331682867E+01  0.66987440371E+01  0.51100000000E-03 0.  1.
         12    1    3    3    0    0  0.10691093910E+02 -0.59913095723E+01 -0.54798012338E+01  0.13424734669E+02  0.00000000000E+00 0. -1.
</event>
<event>
 7    1  0.2886681E-010  0.4778727E+02  0.7816164E-02  0.1312668E+00
        -11   -1    0    0    0    0  0.00000000000E+00  0.00000000000E+00  0.45593999997E+02  0.45594000000E+02  0.51100000000E-03 0.  1.
         11   -1    0    0    0    0 -0.00000000000E+00 -0.00000000000E+00 -0.45593999997E+02  0.45594000000E+02  0.51100000000E-03 0. -1.
    9900012    2    1    2    0    0 -0.30471568132E+02  0.21916175437E+02 -0.21789632356E+02  0.47787270877E+02  0.19999999235E+02 0.  0.
        -12    1    1    2    0    0  0.30471568132E+02 -0.21916175437E+02  0.21789632356E+02  0.43400729123E+02  0.00000000000E+00 0.  1.
         11    1    3    3    0    0 -0.29573866407E+02  0.17355985955E+02 -0.18676221417E+02  0.39046703695E+02  0.51100000000E-03 0. -1.
        -11    1    3    3    0    0  0.10611306554E+01  0.33649380129E+01 -0.47536189894E+01  0.59199408659E+01  0.51100000000E-03 0.  1.
         12    1    3    3    0    0 -0.19588323800E+01  0.11952514694E+01  0.16402080500E+01  0.28206263162E+01  0.00000000000E+00 0. -1.
</event>
<event>
 7    1  0.2886681E-010  0.4778727E+02  0.7816164E-02  0.1312668E+00
        -11   -1    0    0    0    0  0.00000000000E+00  0.00000000000E+00  0.45593999997E+02  0.45594000000E+02  0.51100000000E-03 0.  1.
         11   -1    0    0    0    0 -0.00000000000E+00 -0.00000000000E+00 -0.45593999997E+02  0.45594000000E+02  0.51100000000E-03 0. -1.
    9900012    2    1    2    0    0 -0.20939357115E+02 -0.12720269226E+02 -0.35824031169E+02  0.47787272647E+02  0.20000007306E+02 0.  0.
        -12    1    1    2    0    0  0.20939357115E+02  0.12720269226E+02  0.35824031169E+02  0.43400727353E+02  0.00000000000E+00 0.  1.
         11    1    3    3    0    0 -0.60592532212E+01 -0.79424758415E+01 -0.67785387197E+01  0.12072533269E+02  0.51100000000E-03 0. -1.
        -11    1    3    3    0    0 -0.28708305053E+01 -0.18800657795E+01  0.70311507323E+00  0.35029539239E+01  0.51100000000E-03 0.  1.
         12    1    3    3    0    0 -0.12009273388E+02 -0.28977276054E+01 -0.29748607523E+02  0.32211785454E+02  0.00000000000E+00 0. -1.
</event>
<event>
 7    1  0.2886681E-010  0.4778729E+02  0.7816164E-02  0.1312668E+00
        -11   -1    0    0    0    0  0.00000000000E+00  0.00000000000E+00  0.45593999997E+02  0.45594000000E+02  0.51100000000E-03 0.  1.
         11   -1    0    0    0    0 -0.00000000000E+00 -0.00000000000E+00 -0.45593999997E+02  0.45594000000E+02  0.51100000000E-03 0. -1.
    9900012    2    1    2    0    0  0.22908594693E+02  0.30904108305E+02 -0.20093621941E+02  0.47787294204E+02  0.20000105592E+02 0.  0.
        -12    1    1    2    0    0 -0.22908594693E+02 -0.30904108305E+02  0.20093621941E+02  0.43400705796E+02  0.00000000000E+00 0.  1.
         11    1    3    3    0    0  0.19628863221E+02  0.23071225009E+02 -0.22703543185E+02  0.37855310964E+02  0.51100000000E-03 0. -1.
        -11    1    3    3    0    0  0.22629515619E+01  0.81952040408E+01  0.22576952467E+01  0.87965622336E+01  0.51100000000E-03 0.  1.
         12    1    3    3    0    0  0.10167799106E+01 -0.36232074501E+00  0.35222599707E+00  0.11354210064E+01  0.00000000000E+00 0. -1.
</event>
<event>
 7    1  0.2886681E-010  0.4778728E+02  0.7816164E-02  0.1312668E+00
        -11   -1    0    0    0    0  0.00000000000E+00  0.00000000000E+00  0.45593999997E+02  0.45594000000E+02  0.51100000000E-03 0. -1.
         11   -1    0    0    0    0 -0.00000000000E+00 -0.00000000000E+00 -0.45593999997E+02  0.45594000000E+02  0.51100000000E-03 0.  1.
    9900012    2    1    2    0    0 -0.28316303640E+02  0.32838681834E+02 -0.18522130026E+01  0.47787276856E+02  0.20000026496E+02 0.  0.
        -12    1    1    2    0    0  0.28316303640E+02 -0.32838681834E+02  0.18522130026E+01  0.43400723144E+02  0.00000000000E+00 0.  1.
         11    1    3    3    0    0 -0.85422783829E+01  0.11451548328E+02 -0.41346366727E+01  0.14872918334E+02  0.51100000000E-03 0. -1.
        -11    1    3    3    0    0 -0.14568814901E+02  0.85668030957E+01  0.70033063199E+01  0.18294446769E+02  0.51100000000E-03 0.  1.
        -12    1    3    3    0    0 -0.52052103562E+01  0.12820330410E+02 -0.47208826499E+01  0.14619911753E+02  0.00000000000E+00 0.  1.
</event>
<event>
 7    1  0.2886681E-010  0.4778727E+02  0.7816164E-02  0.1312668E+00
        -11   -1    0    0    0    0  0.00000000000E+00  0.00000000000E+00  0.45593999997E+02  0.45594000000E+02  0.51100000000E-03 0.  1.
         11   -1    0    0    0    0 -0.00000000000E+00 -0.00000000000E+00 -0.45593999997E+02  0.45594000000E+02  0.51100000000E-03 0. -1.
    9900012    2    1    2    0    0  0.10544855393E+02  0.41996786663E+02  0.29494749821E+01  0.47787268809E+02  0.19999989807E+02 0.  0.
        -12    1    1    2    0    0 -0.10544855393E+02 -0.41996786663E+02 -0.29494749821E+01  0.43400731191E+02  0.00000000000E+00 0.  1.
         11    1    3    3    0    0  0.93842307678E+01  0.33818695361E+02 -0.33504188560E+01  0.35256109397E+02  0.51100000000E-03 0. -1.
        -11    1    3    3    0    0 -0.29540441445E+01  0.33820465357E+01  0.30188465254E+01  0.54109195320E+01  0.51100000000E-03 0.  1.
        -12    1    3    3    0    0  0.41146687699E+01  0.47960447660E+01  0.32810473128E+01  0.71202398802E+01  0.00000000000E+00 0.  1.
</event>
<event>
 7    1  0.2886681E-010  0.4778727E+02  0.7816164E-02  0.1312668E+00
        -11   -1    0    0    0    0  0.00000000000E+00  0.00000000000E+00  0.45593999997E+02  0.45594000000E+02  0.51100000000E-03 0.  1.
         11   -1    0    0    0    0 -0.00000000000E+00 -0.00000000000E+00 -0.45593999997E+02  0.45594000000E+02  0.51100000000E-03 0. -1.
    9900012    2    1    2    0    0  0.51950130639E+01  0.36925052075E+02 -0.22207555987E+02  0.47787272190E+02  0.20000005225E+02 0.  0.
        -12    1    1    2    0    0 -0.51950130639E+01 -0.36925052075E+02  0.22207555987E+02  0.43400727810E+02  0.00000000000E+00 0.  1.
         11    1    3    3    0    0 -0.18124674080E+01  0.65313312932E+01 -0.21088968926E+01  0.70986458519E+01  0.51100000000E-03 0. -1.
        -11    1    3    3    0    0  0.73527609590E+01  0.31932381035E+02 -0.20953806231E+02  0.38894756049E+02  0.51100000000E-03 0.  1.
        -12    1    3    3    0    0 -0.34528048717E+00 -0.15386602530E+01  0.85514713672E+00  0.17938702892E+01  0.00000000000E+00 0.  1.
</event>
<event>
 7    1  0.2886681E-010  0.4778727E+02  0.7816164E-02  0.1312668E+00
        -11   -1    0    0    0    0  0.00000000000E+00  0.00000000000E+00  0.45593999997E+02  0.45594000000E+02  0.51100000000E-03 0.  1.
         11   -1    0    0    0    0 -0.00000000000E+00 -0.00000000000E+00 -0.45593999997E+02  0.45594000000E+02  0.51100000000E-03 0. -1.
    9900012    2    1    2    0    0  0.42163125543E+02  0.84321901590E+01 -0.58985073922E+01  0.47787269869E+02  0.19999994642E+02 0.  0.
        -12    1    1    2    0    0 -0.42163125543E+02 -0.84321901590E+01  0.58985073922E+01  0.43400730131E+02  0.00000000000E+00 0.  1.
         11    1    3    3    0    0  0.11757857166E+02 -0.11109459848E+01 -0.91095173078E+01  0.14915250986E+02  0.51100000000E-03 0. -1.
        -11    1    3    3    0    0  0.23442388238E+02  0.10259192247E+02  0.13273781584E+01  0.25623397996E+02  0.51100000000E-03 0.  1.
         12    1    3    3    0    0  0.69628801388E+01 -0.71605610311E+00  0.18836317571E+01  0.72486208872E+01  0.00000000000E+00 0. -1.
</event>
<event>
 7    1  0.2886681E-010  0.4778727E+02  0.7816164E-02  0.1312668E+00
        -11   -1    0    0    0    0  0.00000000000E+00  0.00000000000E+00  0.45593999997E+02  0.45594000000E+02  0.51100000000E-03 0.  1.
         11   -1    0    0    0    0 -0.00000000000E+00 -0.00000000000E+00 -0.45593999997E+02  0.45594000000E+02  0.51100000000E-03 0. -1.
    9900012    2    1    2    0    0 -0.29531211145E+02 -0.25321216464E+02 -0.19244915489E+02  0.47787271814E+02  0.20000003508E+02 0.  0.
        -12    1    1    2    0    0  0.29531211145E+02  0.25321216464E+02  0.19244915489E+02  0.43400728186E+02  0.00000000000E+00 0.  1.
         11    1    3    3    0    0 -0.11835088421E+02 -0.25206309306E+01 -0.11862071819E+02  0.16944959319E+02  0.51100000000E-03 0. -1.
        -11    1    3    3    0    0 -0.15107191816E+02 -0.13406251924E+02 -0.47680849193E+01  0.20753059275E+02  0.51100000000E-03 0.  1.
         12    1    3    3    0    0 -0.25889309081E+01 -0.93943336090E+01 -0.26147587513E+01  0.10089253220E+02  0.00000000000E+00 0. -1.
</event>
<event>
 7    1  0.2886681E-010  0.4778727E+02  0.7816164E-02  0.1312668E+00
        -11   -1    0    0    0    0  0.00000000000E+00  0.00000000000E+00  0.45593999997E+02  0.45594000000E+02  0.51100000000E-03 0.  1.
         11   -1    0    0    0    0 -0.00000000000E+00 -0.00000000000E+00 -0.45593999997E+02  0.45594000000E+02  0.51100000000E-03 0. -1.
    9900012    2    1    2    0    0 -0.11404232954E+02 -0.41711570919E+02 -0.37029272214E+01  0.47787270193E+02  0.19999996116E+02 0.  0.
        -12    1    1    2    0    0  0.11404232954E+02  0.41711570919E+02  0.37029272214E+01  0.43400729807E+02  0.00000000000E+00 0.  1.
         11    1    3    3    0    0 -0.10259111921E+02 -0.28170498694E+02 -0.36012551923E+01  0.30195950280E+02  0.51100000000E-03 0. -1.
        -11    1    3    3    0    0 -0.39575789494E+01 -0.17985844157E+01  0.28027661174E+01  0.51723142993E+01  0.51100000000E-03 0.  1.
         12    1    3    3    0    0  0.28124579161E+01 -0.11742487809E+02 -0.29044381464E+01  0.12419005613E+02  0.00000000000E+00 0. -1.
</event>
<event>
 7    1  0.2886681E-010  0.4778728E+02  0.7816164E-02  0.1312668E+00
        -11   -1    0    0    0    0  0.00000000000E+00  0.00000000000E+00  0.45593999997E+02  0.45594000000E+02  0.51100000000E-03 0. -1.
         11   -1    0    0    0    0 -0.00000000000E+00 -0.00000000000E+00 -0.45593999997E+02  0.45594000000E+02  0.51100000000E-03 0.  1.
    9900012    2    1    2    0    0 -0.21106343719E+02  0.37419020273E+02 -0.61613376115E+01  0.47787275300E+02  0.20000019401E+02 0.  0.
        -12    1    1    2    0    0  0.21106343719E+02 -0.37419020273E+02  0.61613376115E+01  0.43400724700E+02  0.00000000000E+00 0.  1.
         11    1    3    3    0    0 -0.14434968484E+02  0.26279341889E+02  0.39301540662E+01  0.30239349141E+02  0.51100000000E-03 0. -1.
        -11    1    3    3    0    0 -0.23501358142E+01  0.79846332900E+00 -0.23585198237E-01  0.24821842308E+01  0.51100000000E-03 0.  1.
         12    1    3    3    0    0 -0.43212394211E+01  0.10341215055E+02 -0.10067906479E+02  0.15065741927E+02  0.00000000000E+00 0. -1.
</event>
<event>
 7    1  0.2886681E-010  0.4778727E+02  0.7816164E-02  0.1312668E+00
        -11   -1    0    0    0    0  0.00000000000E+00  0.00000000000E+00  0.45593999997E+02  0.45594000000E+02  0.51100000000E-03 0.  1.
         11   -1    0    0    0    0 -0.00000000000E+00 -0.00000000000E+00 -0.45593999997E+02  0.45594000000E+02  0.51100000000E-03 0. -1.
    9900012    2    1    2    0    0  0.34229495347E+02 -0.15857679056E+02 -0.21459248007E+02  0.47787266575E+02  0.19999979623E+02 0.  0.
        -12    1    1    2    0    0 -0.34229495347E+02  0.15857679056E+02  0.21459248007E+02  0.43400733425E+02  0.00000000000E+00 0.  1.
         11    1    3    3    0    0  0.24948828138E+02 -0.10496215615E+02 -0.12521881006E+02  0.29823012455E+02  0.51100000000E-03 0. -1.
        -11    1    3    3    0    0  0.16517508763E+01 -0.29059101636E+01 -0.93598252507E+01  0.99387586660E+01  0.51100000000E-03 0.  1.
        -12    1    3    3    0    0  0.76289163334E+01 -0.24555532768E+01  0.42245824903E+00  0.80254954544E+01  0.00000000000E+00 0.  1.
</event>
<event>
 7    1  0.2886681E-010  0.4778727E+02  0.7816164E-02  0.1312668E+00
        -11   -1    0    0    0    0  0.00000000000E+00  0.00000000000E+00  0.45593999997E+02  0.45594000000E+02  0.51100000000E-03 0.  1.
         11   -1    0    0    0    0 -0.00000000000E+00 -0.00000000000E+00 -0.45593999997E+02  0.45594000000E+02  0.51100000000E-03 0. -1.
    9900012    2    1    2    0    0  0.28269962123E+02 -0.22719721422E+02 -0.23837927580E+02  0.47787270844E+02  0.19999999087E+02 0.  0.
        -12    1    1    2    0    0 -0.28269962123E+02  0.22719721422E+02  0.23837927580E+02  0.43400729156E+02  0.00000000000E+00 0.  1.
         11    1    3    3    0    0  0.26208169522E+02 -0.15499861521E+02 -0.12836616514E+02  0.33043797915E+02  0.51100000000E-03 0. -1.
        -11    1    3    3    0    0  0.19404803344E+00 -0.76216794564E+01 -0.10034378083E+02  0.12602237744E+02  0.51100000000E-03 0.  1.
        -12    1    3    3    0    0  0.18677445678E+01  0.40181955538E+00 -0.96693298326E+00  0.21412351855E+01  0.00000000000E+00 0.  1.
</event>
<event>
 7    1  0.2886681E-010  0.4778727E+02  0.7816164E-02  0.1312668E+00
        -11   -1    0    0    0    0  0.00000000000E+00  0.00000000000E+00  0.45593999997E+02  0.45594000000E+02  0.51100000000E-03 0.  1.
         11   -1    0    0    0    0 -0.00000000000E+00 -0.00000000000E+00 -0.45593999997E+02  0.45594000000E+02  0.51100000000E-03 0. -1.
    9900012    2    1    2    0    0  0.39384736632E+02  0.10537613182E+02 -0.14880340101E+02  0.47787270828E+02  0.19999999014E+02 0.  0.
        -12    1    1    2    0    0 -0.39384736632E+02 -0.10537613182E+02  0.14880340101E+02  0.43400729172E+02  0.00000000000E+00 0.  1.
         11    1    3    3    0    0  0.93977636135E+01  0.59005419121E+01 -0.75346023455E+01  0.13412851619E+02  0.51100000000E-03 0. -1.
        -11    1    3    3    0    0  0.96343007257E+01  0.24596948821E+01  0.42902277541E+01  0.10829399975E+02  0.51100000000E-03 0.  1.
         12    1    3    3    0    0  0.20352672292E+02  0.21773763883E+01 -0.11635965509E+02  0.23545019234E+02  0.00000000000E+00 0. -1.
</event>
<event>
 7    1  0.2886681E-010  0.4778727E+02  0.7816164E-02  0.1312668E+00
        -11   -1    0    0    0    0  0.00000000000E+00  0.00000000000E+00  0.45593999997E+02  0.45594000000E+02  0.51100000000E-03 0.  1.
         11   -1    0    0    0    0 -0.00000000000E+00 -0.00000000000E+00 -0.45593999997E+02  0.45594000000E+02  0.51100000000E-03 0. -1.
    9900012    2    1    2    0    0  0.36923136354E+02 -0.48140054907E+01 -0.22296418905E+02  0.47787274856E+02  0.20000017378E+02 0.  0.
        -12    1    1    2    0    0 -0.36923136354E+02  0.48140054907E+01  0.22296418905E+02  0.43400725144E+02  0.00000000000E+00 0.  1.
         11    1    3    3    0    0  0.23408902139E+02 -0.23177173564E+01 -0.69200524778E+01  0.24520106845E+02  0.51100000000E-03 0. -1.
        -11    1    3    3    0    0  0.36367625868E+00 -0.81595077724E+00 -0.80902832564E+01  0.81394544978E+01  0.51100000000E-03 0.  1.
        -12    1    3    3    0    0  0.13150557956E+02 -0.16803373571E+01 -0.72860831708E+01  0.15127713514E+02  0.00000000000E+00 0.  1.
</event>
<event>
 7    1  0.2886681E-010  0.4778727E+02  0.7816164E-02  0.1312668E+00
        -11   -1    0    0    0    0  0.00000000000E+00  0.00000000000E+00  0.45593999997E+02  0.45594000000E+02  0.51100000000E-03 0. -1.
         11   -1    0    0    0    0 -0.00000000000E+00 -0.00000000000E+00 -0.45593999997E+02  0.45594000000E+02  0.51100000000E-03 0.  1.
    9900012    2    1    2    0    0 -0.38621656033E+02  0.10516645660E+02  0.16774715797E+02  0.47787271426E+02  0.20000001740E+02 0.  0.
        -12    1    1    2    0    0  0.38621656033E+02 -0.10516645660E+02 -0.16774715797E+02  0.43400728574E+02  0.00000000000E+00 0.  1.
         11    1    3    3    0    0 -0.19997109367E+02 -0.30420303473E+00  0.10228177115E+02  0.22463137134E+02  0.51100000000E-03 0. -1.
        -11    1    3    3    0    0 -0.13672800481E+02  0.12174881377E+02  0.80140652141E+01  0.19984955618E+02  0.51100000000E-03 0.  1.
        -12    1    3    3    0    0 -0.49517461849E+01 -0.13540326828E+01 -0.14675265326E+01  0.53391786737E+01  0.00000000000E+00 0.  1.
</event>
<event>
 7    1  0.2886681E-010  0.4778727E+02  0.7816164E-02  0.1312668E+00
        -11   -1    0    0    0    0  0.00000000000E+00  0.00000000000E+00  0.45593999997E+02  0.45594000000E+02  0.51100000000E-03 0. -1.
         11   -1    0    0    0    0 -0.00000000000E+00 -0.00000000000E+00 -0.45593999997E+02  0.45594000000E+02  0.51100000000E-03 0.  1.
    9900012    2    1    2    0    0 -0.59797740278E+01 -0.39247512897E+02 -0.17535635757E+02  0.47787268584E+02  0.19999988782E+02 0.  0.
        -12    1    1    2    0    0  0.59797740278E+01  0.39247512897E+02  0.17535635757E+02  0.43400731416E+02  0.00000000000E+00 0.  1.
         11    1    3    3    0    0 -0.11609723527E+02 -0.25718906907E+02 -0.15465575000E+02  0.32178127093E+02  0.51100000000E-03 0. -1.
        -11    1    3    3    0    0  0.51885593288E+01 -0.11939153401E+02 -0.34401859299E+01  0.13464746984E+02  0.51100000000E-03 0.  1.
        -12    1    3    3    0    0  0.44139017042E+00 -0.15894525890E+01  0.13701251727E+01  0.21443945075E+01  0.00000000000E+00 0.  1.
</event>
<event>
 7    1  0.2886681E-010  0.4778727E+02  0.7816164E-02  0.1312668E+00
        -11   -1    0    0    0    0  0.00000000000E+00  0.00000000000E+00  0.45593999997E+02  0.45594000000E+02  0.51100000000E-03 0.  1.
         11   -1    0    0    0    0 -0.00000000000E+00 -0.00000000000E+00 -0.45593999997E+02  0.45594000000E+02  0.51100000000E-03 0. -1.
    9900012    2    1    2    0    0 -0.15789644573E+02 -0.26907278601E+02 -0.30171325724E+02  0.47787269437E+02  0.19999992671E+02 0.  0.
        -12    1    1    2    0    0  0.15789644573E+02  0.26907278601E+02  0.30171325724E+02  0.43400730563E+02  0.00000000000E+00 0.  1.
         11    1    3    3    0    0 -0.83023276436E+01 -0.42068828912E+01 -0.53387024565E+01  0.10729783415E+02  0.51100000000E-03 0. -1.
        -11    1    3    3    0    0 -0.12854795116E+01 -0.20908338036E+02 -0.20294875612E+02  0.29166642477E+02  0.51100000000E-03 0.  1.
        -12    1    3    3    0    0 -0.62018374179E+01 -0.17920576743E+01 -0.45377476551E+01  0.78908435447E+01  0.00000000000E+00 0.  1.
</event>
<event>
 7    1  0.2886681E-010  0.4778727E+02  0.7816164E-02  0.1312668E+00
        -11   -1    0    0    0    0  0.00000000000E+00  0.00000000000E+00  0.45593999997E+02  0.45594000000E+02  0.51100000000E-03 0. -1.
         11   -1    0    0    0    0 -0.00000000000E+00 -0.00000000000E+00 -0.45593999997E+02  0.45594000000E+02  0.51100000000E-03 0.  1.
    9900012    2    1    2    0    0 -0.18164058711E+02  0.23444317940E+02  0.31686816574E+02  0.47787269394E+02  0.19999992475E+02 0.  0.
        -12    1    1    2    0    0  0.18164058711E+02 -0.23444317940E+02 -0.31686816574E+02  0.43400730606E+02  0.00000000000E+00 0.  1.
         11    1    3    3    0    0 -0.43897811221E+01  0.14035211211E+01  0.14641767585E+02  0.15349964434E+02  0.51100000000E-03 0. -1.
        -11    1    3    3    0    0 -0.32016323397E+00  0.57610630957E+01  0.87007160163E+00  0.58351844308E+01  0.51100000000E-03 0.  1.
         12    1    3    3    0    0 -0.13454114355E+02  0.16279733723E+02  0.16174977387E+02  0.26602120529E+02  0.00000000000E+00 0. -1.
</event>
<event>
 7    1  0.2886681E-010  0.4778727E+02  0.7816164E-02  0.1312668E+00
        -11   -1    0    0    0    0  0.00000000000E+00  0.00000000000E+00  0.45593999997E+02  0.45594000000E+02  0.51100000000E-03 0. -1.
         11   -1    0    0    0    0 -0.00000000000E+00 -0.00000000000E+00 -0.45593999997E+02  0.45594000000E+02  0.51100000000E-03 0.  1.
    9900012    2    1    2    0    0  0.19275938093E+02  0.38133517191E+02 -0.76089546817E+01  0.47787272886E+02  0.20000008394E+02 0.  0.
        -12    1    1    2    0    0 -0.19275938093E+02 -0.38133517191E+02  0.76089546817E+01  0.43400727114E+02  0.00000000000E+00 0.  1.
         11    1    3    3    0    0  0.18833611568E+02  0.15644126447E+02 -0.33557059843E+01  0.24712433711E+02  0.51100000000E-03 0. -1.
        -11    1    3    3    0    0  0.88295236844E+00  0.13600173960E+02 -0.38649868786E+01  0.14166243696E+02  0.51100000000E-03 0.  1.
         12    1    3    3    0    0 -0.44062584349E+00  0.88892167842E+01 -0.38826181884E+00  0.89085954792E+01  0.00000000000E+00 0. -1.
</event>
<event>
 7    1  0.2886681E-010  0.4778727E+02  0.7816164E-02  0.1312668E+00
        -11   -1    0    0    0    0  0.00000000000E+00  0.00000000000E+00  0.45593999997E+02  0.45594000000E+02  0.51100000000E-03 0. -1.
         11   -1    0    0    0    0 -0.00000000000E+00 -0.00000000000E+00 -0.45593999997E+02  0.45594000000E+02  0.51100000000E-03 0.  1.
    9900012    2    1    2    0    0 -0.61593869344E+01 -0.42642413377E+02 -0.52258736333E+01  0.47787271650E+02  0.20000002763E+02 0.  0.
        -12    1    1    2    0    0  0.61593869344E+01  0.42642413377E+02  0.52258736333E+01  0.43400728350E+02  0.00000000000E+00 0.  1.
         11    1    3    3    0    0 -0.33239145480E+01 -0.84609085534E+01  0.48773098815E+01  0.10316178237E+02  0.51100000000E-03 0. -1.
        -11    1    3    3    0    0  0.17834080944E+01 -0.26948524180E+02 -0.10252017963E+02  0.28887841257E+02  0.51100000000E-03 0.  1.
        -12    1    3    3    0    0 -0.46188804808E+01 -0.72329806442E+01  0.14883444843E+00  0.85832521569E+01  0.00000000000E+00 0.  1.
</event>
<event>
 7    1  0.2886681E-010  0.4778728E+02  0.7816164E-02  0.1312668E+00
        -11   -1    0    0    0    0  0.00000000000E+00  0.00000000000E+00  0.45593999997E+02  0.45594000000E+02  0.51100000000E-03 0.  1.
         11   -1    0    0    0    0 -0.00000000000E+00 -0.00000000000E+00 -0.45593999997E+02  0.45594000000E+02  0.51100000000E-03 0. -1.
    9900012    2    1    2    0    0  0.20442551773E+02 -0.47348715894E+01 -0.37990866493E+02  0.47787275711E+02  0.20000021276E+02 0.  0.
        -12    1    1    2    0    0 -0.20442551773E+02  0.47348715894E+01  0.37990866493E+02  0.43400724289E+02  0.00000000000E+00 0.  1.
         11    1    3    3    0    0  0.12160765133E+02  0.22946420641E+01 -0.96540357285E+01  0.15695540670E+02  0.51100000000E-03 0. -1.
        -11    1    3    3    0    0  0.56397836498E+01 -0.21689946926E+01 -0.24800229621E+02  0.25525733821E+02  0.51100000000E-03 0.  1.
        -12    1    3    3    0    0  0.26420029895E+01 -0.48605189609E+01 -0.35366011434E+01  0.65660012194E+01  0.00000000000E+00 0.  1.
</event>
<event>
 7    1  0.2886681E-010  0.4778727E+02  0.7816164E-02  0.1312668E+00
        -11   -1    0    0    0    0  0.00000000000E+00  0.00000000000E+00  0.45593999997E+02  0.45594000000E+02  0.51100000000E-03 0.  1.
         11   -1    0    0    0    0 -0.00000000000E+00 -0.00000000000E+00 -0.45593999997E+02  0.45594000000E+02  0.51100000000E-03 0. -1.
    9900012    2    1    2    0    0  0.27748068481E+02  0.12655067791E+02 -0.30879070459E+02  0.47787273765E+02  0.20000012406E+02 0.  0.
        -12    1    1    2    0    0 -0.27748068481E+02 -0.12655067791E+02  0.30879070459E+02  0.43400726235E+02  0.00000000000E+00 0.  1.
         11    1    3    3    0    0 -0.18644973859E+01  0.17399588171E+00 -0.56624400141E+01  0.59640466332E+01  0.51100000000E-03 0. -1.
        -11    1    3    3    0    0  0.93051604662E+01  0.78031187977E+01 -0.63098782237E+01  0.13685365824E+02  0.51100000000E-03 0.  1.
         12    1    3    3    0    0  0.20307405401E+02  0.46779531116E+01 -0.18906752222E+02  0.28137861308E+02  0.00000000000E+00 0. -1.
</event>
<event>
 7    1  0.2886681E-010  0.4778727E+02  0.7816164E-02  0.1312668E+00
        -11   -1    0    0    0    0  0.00000000000E+00  0.00000000000E+00  0.45593999997E+02  0.45594000000E+02  0.51100000000E-03 0. -1.
         11   -1    0    0    0    0 -0.00000000000E+00 -0.00000000000E+00 -0.45593999997E+02  0.45594000000E+02  0.51100000000E-03 0.  1.
    9900012    2    1    2    0    0  0.55873519389E+01  0.34738243647E+02 -0.25409827930E+02  0.47787269260E+02  0.19999991862E+02 0.  0.
        -12    1    1    2    0    0 -0.55873519389E+01 -0.34738243647E+02  0.25409827930E+02  0.43400730740E+02  0.00000000000E+00 0.  1.
         11    1    3    3    0    0  0.11531253288E+02  0.28158191617E+02 -0.20670018712E+02  0.36784551531E+02  0.51100000000E-03 0. -1.
        -11    1    3    3    0    0 -0.34547115717E+01  0.63495158197E+01 -0.44443010950E+01  0.84854696789E+01  0.51100000000E-03 0.  1.
         12    1    3    3    0    0 -0.24891897770E+01  0.23053620977E+00 -0.29550812308E+00  0.25172480492E+01  0.00000000000E+00 0. -1.
</event>
<event>
 7    1  0.2886681E-010  0.4778727E+02  0.7816164E-02  0.1312668E+00
        -11   -1    0    0    0    0  0.00000000000E+00  0.00000000000E+00  0.45593999997E+02  0.45594000000E+02  0.51100000000E-03 0.  1.
         11   -1    0    0    0    0 -0.00000000000E+00 -0.00000000000E+00 -0.45593999997E+02  0.45594000000E+02  0.51100000000E-03 0. -1.
    9900012    2    1    2    0    0  0.16555300689E+02 -0.23381711487E+02 -0.32601243884E+02  0.47787268258E+02  0.19999987295E+02 0.  0.
        -12    1    1    2    0    0 -0.16555300689E+02  0.23381711487E+02  0.32601243884E+02  0.43400731742E+02  0.00000000000E+00 0.  1.
         11    1    3    3    0    0  0.86647598948E+01 -0.19947615756E+02 -0.18914202257E+02  0.28822430253E+02  0.51100000000E-03 0. -1.
        -11    1    3    3    0    0  0.52775682403E+01  0.15310728095E+00 -0.80630981848E+00  0.53410021676E+01  0.51100000000E-03 0.  1.
        -12    1    3    3    0    0  0.26129725539E+01 -0.35872030128E+01 -0.12880731808E+02  0.13623835838E+02  0.00000000000E+00 0.  1.
</event>
<event>
 7    1  0.2886681E-010  0.4778727E+02  0.7816164E-02  0.1312668E+00
        -11   -1    0    0    0    0  0.00000000000E+00  0.00000000000E+00  0.45593999997E+02  0.45594000000E+02  0.51100000000E-03 0.  1.
         11   -1    0    0    0    0 -0.00000000000E+00 -0.00000000000E+00 -0.45593999997E+02  0.45594000000E+02  0.51100000000E-03 0. -1.
    9900012    2    1    2    0    0 -0.24802977902E+02  0.35586312462E+02  0.14317441600E+01  0.47787271449E+02  0.20000001843E+02 0.  0.
        -12    1    1    2    0    0  0.24802977902E+02 -0.35586312462E+02 -0.14317441600E+01  0.43400728551E+02  0.00000000000E+00 0.  1.
         11    1    3    3    0    0 -0.14403047337E+02  0.55654432473E+01 -0.19947081645E+01  0.15569225801E+02  0.51100000000E-03 0. -1.
        -11    1    3    3    0    0 -0.67807165665E+01  0.14068214283E+02  0.26605358582E+01  0.15842071252E+02  0.51100000000E-03 0.  1.
         12    1    3    3    0    0 -0.36192139990E+01  0.15952654932E+02  0.76591646629E+00  0.16375974395E+02  0.00000000000E+00 0. -1.
</event>
<event>
 7    1  0.2886681E-010  0.4778727E+02  0.7816164E-02  0.1312668E+00
        -11   -1    0    0    0    0  0.00000000000E+00  0.00000000000E+00  0.45593999997E+02  0.45594000000E+02  0.51100000000E-03 0.  1.
         11   -1    0    0    0    0 -0.00000000000E+00 -0.00000000000E+00 -0.45593999997E+02  0.45594000000E+02  0.51100000000E-03 0. -1.
    9900012    2    1    2    0    0  0.25858827524E+02 -0.34835457560E+02 -0.11979373169E+01  0.47787272838E+02  0.20000008179E+02 0.  0.
        -12    1    1    2    0    0 -0.25858827524E+02  0.34835457560E+02  0.11979373169E+01  0.43400727162E+02  0.00000000000E+00 0.  1.
         11    1    3    3    0    0  0.18061285118E+02 -0.12701938470E+02 -0.57339040384E+01  0.22812867351E+02  0.51100000000E-03 0. -1.
        -11    1    3    3    0    0  0.70191137850E+01 -0.22395642996E+02  0.36255217102E+01  0.23748203963E+02  0.51100000000E-03 0.  1.
         12    1    3    3    0    0  0.77842862061E+00  0.26212390498E+00  0.91044501135E+00  0.12262015241E+01  0.00000000000E+00 0. -1.
</event>
<event>
 7    1  0.2886681E-010  0.4778727E+02  0.7816164E-02  0.1312668E+00
        -11   -1    0    0    0    0  0.00000000000E+00  0.00000000000E+00  0.45593999997E+02  0.45594000000E+02  0.51100000000E-03 0. -1.
         11   -1    0    0    0    0 -0.00000000000E+00 -0.00000000000E+00 -0.45593999997E+02  0.45594000000E+02  0.51100000000E-03 0.  1.
    9900012    2    1    2    0    0  0.41411198805E+02  0.46883057288E+01  0.12114285079E+02  0.47787268439E+02  0.19999988119E+02 0.  0.
        -12    1    1    2    0    0 -0.41411198805E+02 -0.46883057288E+01 -0.12114285079E+02  0.43400731561E+02  0.00000000000E+00 0.  1.
         11    1    3    3    0    0  0.33403245329E+02  0.12174279136E+01  0.11862770814E+02  0.35468073826E+02  0.51100000000E-03 0. -1.
        -11    1    3    3    0    0 -0.14701063651E+01 -0.16603160564E+00  0.14807286104E+01  0.20931642787E+01  0.51100000000E-03 0.  1.
         12    1    3    3    0    0  0.94780598412E+01  0.36369094208E+01 -0.12292143458E+01  0.10226030334E+02  0.00000000000E+00 0. -1.
</event>
<event>
 7    1  0.2886681E-010  0.4778727E+02  0.7816164E-02  0.1312668E+00
        -11   -1    0    0    0    0  0.00000000000E+00  0.00000000000E+00  0.45593999997E+02  0.45594000000E+02  0.51100000000E-03 0.  1.
         11   -1    0    0    0    0 -0.00000000000E+00 -0.00000000000E+00 -0.45593999997E+02  0.45594000000E+02  0.51100000000E-03 0. -1.
    9900012    2    1    2    0    0 -0.29743783719E+02 -0.18558695185E+02  0.25583302648E+02  0.47787271766E+02  0.20000003289E+02 0.  0.
        -12    1    1    2    0    0  0.29743783719E+02  0.18558695185E+02 -0.25583302648E+02  0.43400728234E+02  0.00000000000E+00 0.  1.
         11    1    3    3    0    0 -0.18676722245E+02 -0.17829187798E+02  0.10055769613E+02  0.27709536159E+02  0.51100000000E-03 0. -1.
        -11    1    3    3    0    0 -0.77830987344E+00  0.19287644806E+01  0.21236492747E+01  0.29725048670E+01  0.51100000000E-03 0.  1.
         12    1    3    3    0    0 -0.10288751601E+02 -0.26582718670E+01  0.13403883760E+02  0.17105230740E+02  0.00000000000E+00 0. -1.
</event>
<event>
 7    1  0.2886681E-010  0.4778727E+02  0.7816164E-02  0.1312668E+00
        -11   -1    0    0    0    0  0.00000000000E+00  0.00000000000E+00  0.45593999997E+02  0.45594000000E+02  0.51100000000E-03 0. -1.
         11   -1    0    0    0    0 -0.00000000000E+00 -0.00000000000E+00 -0.45593999997E+02  0.45594000000E+02  0.51100000000E-03 0.  1.
    9900012    2    1    2    0    0  0.24253806034E+01  0.22668853749E+02  0.36930532915E+02  0.47787266564E+02  0.19999979573E+02 0.  0.
        -12    1    1    2    0    0 -0.24253806034E+01 -0.22668853749E+02 -0.36930532915E+02  0.43400733436E+02  0.00000000000E+00 0.  1.
         11    1    3    3    0    0 -0.43296738257E+01  0.75091805243E+01  0.98439551727E+01  0.13116299832E+02  0.51100000000E-03 0. -1.
        -11    1    3    3    0    0  0.10354514884E+02  0.12699334247E+02  0.16650885799E+02  0.23361101578E+02  0.51100000000E-03 0.  1.
        -12    1    3    3    0    0 -0.35994604552E+01  0.24603389772E+01  0.10435691944E+02  0.11309865154E+02  0.00000000000E+00 0.  1.
</event>
<event>
 7    1  0.2886681E-010  0.4778726E+02  0.7816164E-02  0.1312668E+00
        -11   -1    0    0    0    0  0.00000000000E+00  0.00000000000E+00  0.45593999997E+02  0.45594000000E+02  0.51100000000E-03 0.  1.
         11   -1    0    0    0    0 -0.00000000000E+00 -0.00000000000E+00 -0.45593999997E+02  0.45594000000E+02  0.51100000000E-03 0. -1.
    9900012    2    1    2    0    0  0.20348299015E+02 -0.25809274693E+02 -0.28345227128E+02  0.47787264593E+02  0.19999970584E+02 0.  0.
        -12    1    1    2    0    0 -0.20348299015E+02  0.25809274693E+02  0.28345227128E+02  0.43400735407E+02  0.00000000000E+00 0.  1.
         11    1    3    3    0    0  0.84457941551E+01 -0.51746849907E+01 -0.13067936198E+02  0.16397553489E+02  0.51100000000E-03 0. -1.
        -11    1    3    3    0    0 -0.20340260757E+01 -0.74006055755E+01 -0.17065190380E+01  0.78624698695E+01  0.51100000000E-03 0.  1.
        -12    1    3    3    0    0  0.13936530936E+02 -0.13233984126E+02 -0.13570771891E+02  0.23527241235E+02  0.00000000000E+00 0.  1.
</event>
<event>
 7    1  0.2886681E-010  0.4778727E+02  0.7816164E-02  0.1312668E+00
        -11   -1    0    0    0    0  0.00000000000E+00  0.00000000000E+00  0.45593999997E+02  0.45594000000E+02  0.51100000000E-03 0. -1.
         11   -1    0    0    0    0 -0.00000000000E+00 -0.00000000000E+00 -0.45593999997E+02  0.45594000000E+02  0.51100000000E-03 0.  1.
    9900012    2    1    2    0    0 -0.20948948390E+02 -0.69592690342E+01  0.37367547457E+02  0.47787268819E+02  0.19999989853E+02 0.  0.
        -12    1    1    2    0    0  0.20948948390E+02  0.69592690342E+01 -0.37367547457E+02  0.43400731181E+02  0.00000000000E+00 0.  1.
         11    1    3    3    0    0 -0.10779813528E+02 -0.13149932240E+02  0.19567173610E+02  0.25922950854E+02  0.51100000000E-03 0. -1.
        -11    1    3    3    0    0 -0.82631330432E+00  0.68761570648E+00  0.65027785602E-01  0.10769577107E+01  0.51100000000E-03 0.  1.
         12    1    3    3    0    0 -0.93428215578E+01  0.55030474995E+01  0.17735346061E+02  0.20787360255E+02  0.00000000000E+00 0. -1.
</event>
<event>
 7    1  0.2886681E-010  0.4778727E+02  0.7816164E-02  0.1312668E+00
        -11   -1    0    0    0    0  0.00000000000E+00  0.00000000000E+00  0.45593999997E+02  0.45594000000E+02  0.51100000000E-03 0.  1.
         11   -1    0    0    0    0 -0.00000000000E+00 -0.00000000000E+00 -0.45593999997E+02  0.45594000000E+02  0.51100000000E-03 0. -1.
    9900012    2    1    2    0    0  0.52537411232E+01 -0.29301386783E+01 -0.42981805395E+02  0.47787273007E+02  0.20000008949E+02 0.  0.
        -12    1    1    2    0    0 -0.52537411232E+01  0.29301386783E+01  0.42981805395E+02  0.43400726993E+02  0.00000000000E+00 0.  1.
         11    1    3    3    0    0  0.45695551658E+01  0.72699332924E+01 -0.22492645793E+02  0.24075960615E+02  0.51100000000E-03 0. -1.
        -11    1    3    3    0    0 -0.79031470226E+00 -0.30315301743E+01 -0.17382938750E+01  0.35827975638E+01  0.51100000000E-03 0.  1.
         12    1    3    3    0    0  0.14745006597E+01 -0.71685417964E+01 -0.18750865727E+02  0.20128514829E+02  0.00000000000E+00 0. -1.
</event>
<event>
 7    1  0.2886681E-010  0.4778726E+02  0.7816164E-02  0.1312668E+00
        -11   -1    0    0    0    0  0.00000000000E+00  0.00000000000E+00  0.45593999997E+02  0.45594000000E+02  0.51100000000E-03 0. -1.
         11   -1    0    0    0    0 -0.00000000000E+00 -0.00000000000E+00 -0.45593999997E+02  0.45594000000E+02  0.51100000000E-03 0.  1.
    9900012    2    1    2    0    0 -0.16419902211E+02  0.38724977768E+02  0.10695176295E+02  0.47787263972E+02  0.19999967756E+02 0.  0.
        -12    1    1    2    0    0  0.16419902211E+02 -0.38724977768E+02 -0.10695176295E+02  0.43400736028E+02  0.00000000000E+00 0.  1.
         11    1    3    3    0    0  0.16121857654E+01  0.32362888517E+01  0.39489977203E+01  0.53541845065E+01  0.51100000000E-03 0. -1.
        -11    1    3    3    0    0 -0.14721567176E+02  0.31375419437E+02  0.10195746673E+02  0.36126094938E+02  0.51100000000E-03 0.  1.
        -12    1    3    3    0    0 -0.33105208007E+01  0.41132694792E+01 -0.34495680977E+01  0.63069845284E+01  0.00000000000E+00 0.  1.
</event>
<event>
 7    1  0.2886681E-010  0.4778727E+02  0.7816164E-02  0.1312668E+00
        -11   -1    0    0    0    0  0.00000000000E+00  0.00000000000E+00  0.45593999997E+02  0.45594000000E+02  0.51100000000E-03 0.  1.
         11   -1    0    0    0    0 -0.00000000000E+00 -0.00000000000E+00 -0.45593999997E+02  0.45594000000E+02  0.51100000000E-03 0. -1.
    9900012    2    1    2    0    0  0.13947729567E+02 -0.34763288451E+02 -0.21922543309E+02  0.47787270869E+02  0.19999999199E+02 0.  0.
        -12    1    1    2    0    0 -0.13947729567E+02  0.34763288451E+02  0.21922543309E+02  0.43400729131E+02  0.00000000000E+00 0.  1.
         11    1    3    3    0    0 -0.41338458617E+01 -0.81835683430E+01 -0.16148081574E+01  0.93095154588E+01  0.51100000000E-03 0. -1.
        -11    1    3    3    0    0  0.12615395326E+02 -0.17218225418E+02 -0.16531835494E+02  0.26998464231E+02  0.51100000000E-03 0.  1.
        -12    1    3    3    0    0  0.54661801028E+01 -0.93614946898E+01 -0.37758996571E+01  0.11479291179E+02  0.00000000000E+00 0.  1.
</event>
<event>
 7    1  0.2886681E-010  0.4778727E+02  0.7816164E-02  0.1312668E+00
        -11   -1    0    0    0    0  0.00000000000E+00  0.00000000000E+00  0.45593999997E+02  0.45594000000E+02  0.51100000000E-03 0.  1.
         11   -1    0    0    0    0 -0.00000000000E+00 -0.00000000000E+00 -0.45593999997E+02  0.45594000000E+02  0.51100000000E-03 0. -1.
    9900012    2    1    2    0    0 -0.46158374177E+01 -0.43040381829E+02  0.31373420786E+01  0.47787270302E+02  0.19999996613E+02 0.  0.
        -12    1    1    2    0    0  0.46158374177E+01  0.43040381829E+02 -0.31373420786E+01  0.43400729698E+02  0.00000000000E+00 0.  1.
         11    1    3    3    0    0 -0.57815652754E+01 -0.39194509853E+02  0.85831137564E+00  0.39627929524E+02  0.51100000000E-03 0. -1.
        -11    1    3    3    0    0  0.16802467955E+01  0.13043469225E+01  0.20869560850E+01  0.29799221718E+01  0.51100000000E-03 0.  1.
        -12    1    3    3    0    0 -0.51451893791E+00 -0.51502188981E+01  0.19207461797E+00  0.51794186059E+01  0.00000000000E+00 0.  1.
</event>
<event>
 7    1  0.2886681E-010  0.4778727E+02  0.7816164E-02  0.1312668E+00
        -11   -1    0    0    0    0  0.00000000000E+00  0.00000000000E+00  0.45593999997E+02  0.45594000000E+02  0.51100000000E-03 0. -1.
         11   -1    0    0    0    0 -0.00000000000E+00 -0.00000000000E+00 -0.45593999997E+02  0.45594000000E+02  0.51100000000E-03 0.  1.
    9900012    2    1    2    0    0  0.30889963738E+02 -0.15623475988E+02  0.26179003069E+02  0.47787273470E+02  0.20000011057E+02 0.  0.
        -12    1    1    2    0    0 -0.30889963738E+02  0.15623475988E+02 -0.26179003069E+02  0.43400726530E+02  0.00000000000E+00 0.  1.
         11    1    3    3    0    0  0.20157523669E+02 -0.19620995103E+02  0.16769764430E+02  0.32749568067E+02  0.51100000000E-03 0. -1.
        -11    1    3    3    0    0  0.90678596745E+01  0.29913872753E+01  0.65482557075E+01  0.11578174726E+02  0.51100000000E-03 0.  1.
         12    1    3    3    0    0  0.16645803949E+01  0.10061318397E+01  0.28609829312E+01  0.34595306766E+01  0.00000000000E+00 0. -1.
</event>
<event>
 7    1  0.2886681E-010  0.4778724E+02  0.7816164E-02  0.1312668E+00
        -11   -1    0    0    0    0  0.00000000000E+00  0.00000000000E+00  0.45593999997E+02  0.45594000000E+02  0.51100000000E-03 0.  1.
         11   -1    0    0    0    0 -0.00000000000E+00 -0.00000000000E+00 -0.45593999997E+02  0.45594000000E+02  0.51100000000E-03 0. -1.
    9900012    2    1    2    0    0 -0.10386215240E+02 -0.42134275611E+02  0.67501419668E+00  0.47787236269E+02  0.19999841444E+02 0.  0.
        -12    1    1    2    0    0  0.10386215240E+02  0.42134275611E+02 -0.67501419668E+00  0.43400763731E+02  0.00000000000E+00 0.  1.
         11    1    3    3    0    0 -0.24163096329E+01 -0.24051904022E+02 -0.22828589035E+01  0.24280528914E+02  0.51100000000E-03 0. -1.
        -11    1    3    3    0    0  0.77826865865E+00 -0.37081110909E+01  0.53025104030E+01  0.65170857599E+01  0.51100000000E-03 0.  1.
        -12    1    3    3    0    0 -0.87481742654E+01 -0.14374260498E+02 -0.23446373028E+01  0.16989621595E+02  0.00000000000E+00 0.  1.
</event>
<event>
 7    1  0.2886681E-010  0.4778727E+02  0.7816164E-02  0.1312668E+00
        -11   -1    0    0    0    0  0.00000000000E+00  0.00000000000E+00  0.45593999997E+02  0.45594000000E+02  0.51100000000E-03 0. -1.
         11   -1    0    0    0    0 -0.00000000000E+00 -0.00000000000E+00 -0.45593999997E+02  0.45594000000E+02  0.51100000000E-03 0.  1.
    9900012    2    1    2    0    0  0.12493545987E+02 -0.35498271133E+02 -0.21619608351E+02  0.47787269476E+02  0.19999992850E+02 0.  0.
        -12    1    1    2    0    0 -0.12493545987E+02  0.35498271133E+02  0.21619608351E+02  0.43400730524E+02  0.00000000000E+00 0.  1.
         11    1    3    3    0    0  0.14817445348E+02 -0.24282454897E+02 -0.14020417957E+02  0.31713820685E+02  0.51100000000E-03 0. -1.
        -11    1    3    3    0    0  0.14915956170E+01 -0.87245102742E+00  0.10840071203E+01  0.20398774419E+01  0.51100000000E-03 0.  1.
         12    1    3    3    0    0 -0.38154949782E+01 -0.10343365208E+02 -0.86831975135E+01  0.14033571349E+02  0.00000000000E+00 0. -1.
</event>
<event>
 7    1  0.2886681E-010  0.4778729E+02  0.7816164E-02  0.1312668E+00
        -11   -1    0    0    0    0  0.00000000000E+00  0.00000000000E+00  0.45593999997E+02  0.45594000000E+02  0.51100000000E-03 0.  1.
         11   -1    0    0    0    0 -0.00000000000E+00 -0.00000000000E+00 -0.45593999997E+02  0.45594000000E+02  0.51100000000E-03 0. -1.
    9900012    2    1    2    0    0  0.24697666230E+02  0.12979568029E+02 -0.33244212553E+02  0.47787290654E+02  0.20000089410E+02 0.  0.
        -12    1    1    2    0    0 -0.24697666230E+02 -0.12979568029E+02  0.33244212553E+02  0.43400709346E+02  0.00000000000E+00 0.  1.
         11    1    3    3    0    0  0.13609084038E+02  0.10370135157E+02 -0.29990238968E+02  0.34527688963E+02  0.51100000000E-03 0. -1.
        -11    1    3    3    0    0  0.80758922934E+01  0.44678672871E+01 -0.16600573977E+01  0.93775084780E+01  0.51100000000E-03 0.  1.
         12    1    3    3    0    0  0.30126898985E+01 -0.18584344159E+01 -0.15939161878E+01  0.38820932133E+01  0.00000000000E+00 0. -1.
</event>
<event>
 7    1  0.2886681E-010  0.4778727E+02  0.7816164E-02  0.1312668E+00
        -11   -1    0    0    0    0  0.00000000000E+00  0.00000000000E+00  0.45593999997E+02  0.45594000000E+02  0.51100000000E-03 0.  1.
         11   -1    0    0    0    0 -0.00000000000E+00 -0.00000000000E+00 -0.45593999997E+02  0.45594000000E+02  0.51100000000E-03 0. -1.
    9900012    2    1    2    0    0  0.61889418446E+01  0.41289640817E+02  0.11852672610E+02  0.47787270882E+02  0.19999999261E+02 0.  0.
        -12    1    1    2    0    0 -0.61889418446E+01 -0.41289640817E+02 -0.11852672610E+02  0.43400729118E+02  0.00000000000E+00 0.  1.
         11    1    3    3    0    0  0.93584223026E+00  0.30042201647E+02  0.22950904619E+01  0.30144271777E+02  0.51100000000E-03 0. -1.
        -11    1    3    3    0    0  0.73102743486E+01  0.99091698910E+01  0.73411814456E+01  0.14336132821E+02  0.51100000000E-03 0.  1.
         12    1    3    3    0    0 -0.20571747342E+01  0.13382692793E+01  0.22164007024E+01  0.33068662847E+01  0.00000000000E+00 0. -1.
</event>
<event>
 7    1  0.2886681E-010  0.4778727E+02  0.7816164E-02  0.1312668E+00
        -11   -1    0    0    0    0  0.00000000000E+00  0.00000000000E+00  0.45593999997E+02  0.45594000000E+02  0.51100000000E-03 0. -1.
         11   -1    0    0    0    0 -0.00000000000E+00 -0.00000000000E+00 -0.45593999997E+02  0.45594000000E+02  0.51100000000E-03 0.  1.
    9900012    2    1    2    0    0  0.40927265228E+02  0.14279866522E+02 -0.21604667139E+01  0.47787271396E+02  0.20000001605E+02 0.  0.
        -12    1    1    2    0    0 -0.40927265228E+02 -0.14279866522E+02  0.21604667139E+01  0.43400728604E+02  0.00000000000E+00 0.  1.
         11    1    3    3    0    0  0.28086135741E+02  0.17727047312E+02  0.46935601394E+00  0.33215952833E+02  0.51100000000E-03 0. -1.
        -11    1    3    3    0    0  0.91679246245E+01 -0.21443350326E+01 -0.42755756788E+01  0.10340675137E+02  0.51100000000E-03 0.  1.
         12    1    3    3    0    0  0.36732048622E+01 -0.13028457568E+01  0.16457529510E+01  0.42306434264E+01  0.00000000000E+00 0. -1.
</event>
<event>
 7    1  0.2886681E-010  0.4778727E+02  0.7816164E-02  0.1312668E+00
        -11   -1    0    0    0    0  0.00000000000E+00  0.00000000000E+00  0.45593999997E+02  0.45594000000E+02  0.51100000000E-03 0.  1.
         11   -1    0    0    0    0 -0.00000000000E+00 -0.00000000000E+00 -0.45593999997E+02  0.45594000000E+02  0.51100000000E-03 0. -1.
    9900012    2    1    2    0    0  0.28091089347E+02  0.28016620414E+02 -0.17594978615E+02  0.47787267373E+02  0.19999983260E+02 0.  0.
        -12    1    1    2    0    0 -0.28091089347E+02 -0.28016620414E+02  0.17594978615E+02  0.43400732627E+02  0.00000000000E+00 0.  1.
         11    1    3    3    0    0  0.20769388874E+02  0.14368483651E+02 -0.34020286367E+01  0.25483222633E+02  0.51100000000E-03 0. -1.
        -11    1    3    3    0    0  0.65507464770E+00  0.68503076669E+01 -0.27317752388E+01  0.74039472001E+01  0.51100000000E-03 0.  1.
         12    1    3    3    0    0  0.66666258251E+01  0.67978290958E+01 -0.11461174739E+02  0.14900097540E+02  0.00000000000E+00 0. -1.
</event>
<event>
 7    1  0.2886681E-010  0.4778727E+02  0.7816164E-02  0.1312668E+00
        -11   -1    0    0    0    0  0.00000000000E+00  0.00000000000E+00  0.45593999997E+02  0.45594000000E+02  0.51100000000E-03 0.  1.
         11   -1    0    0    0    0 -0.00000000000E+00 -0.00000000000E+00 -0.45593999997E+02  0.45594000000E+02  0.51100000000E-03 0. -1.
    9900012    2    1    2    0    0  0.40534164260E+02 -0.59442271781E+01 -0.14327278168E+02  0.47787271796E+02  0.20000003425E+02 0.  0.
        -12    1    1    2    0    0 -0.40534164260E+02  0.59442271781E+01  0.14327278168E+02  0.43400728204E+02  0.00000000000E+00 0.  1.
         11    1    3    3    0    0  0.11775292843E+02 -0.83179747740E+00  0.14360239009E+01  0.11891659829E+02  0.51100000000E-03 0. -1.
        -11    1    3    3    0    0  0.97672136824E+01  0.10298935285E+01 -0.12129704190E+02  0.15607333782E+02  0.51100000000E-03 0.  1.
        -12    1    3    3    0    0  0.18991657734E+02 -0.61423232292E+01 -0.36335978790E+01  0.20288278184E+02  0.00000000000E+00 0.  1.
</event>
<event>
 7    1  0.2886681E-010  0.4778727E+02  0.7816164E-02  0.1312668E+00
        -11   -1    0    0    0    0  0.00000000000E+00  0.00000000000E+00  0.45593999997E+02  0.45594000000E+02  0.51100000000E-03 0.  1.
         11   -1    0    0    0    0 -0.00000000000E+00 -0.00000000000E+00 -0.45593999997E+02  0.45594000000E+02  0.51100000000E-03 0. -1.
    9900012    2    1    2    0    0 -0.38160029498E+02  0.78005382136E+01 -0.19146457742E+02  0.47787273142E+02  0.20000009562E+02 0.  0.
        -12    1    1    2    0    0  0.38160029498E+02 -0.78005382136E+01  0.19146457742E+02  0.43400726858E+02  0.00000000000E+00 0.  1.
         11    1    3    3    0    0 -0.12177168847E+02 -0.18256470428E+01 -0.93409304406E+01  0.15455400675E+02  0.51100000000E-03 0. -1.
        -11    1    3    3    0    0 -0.11315923993E+02  0.10673453119E+02 -0.80738597900E+01  0.17525979273E+02  0.51100000000E-03 0.  1.
        -12    1    3    3    0    0 -0.14666936658E+02 -0.10472678627E+01 -0.17316675118E+01  0.14805893194E+02  0.00000000000E+00 0.  1.
</event>
<event>
 7    1  0.2886681E-010  0.4778727E+02  0.7816164E-02  0.1312668E+00
        -11   -1    0    0    0    0  0.00000000000E+00  0.00000000000E+00  0.45593999997E+02  0.45594000000E+02  0.51100000000E-03 0.  1.
         11   -1    0    0    0    0 -0.00000000000E+00 -0.00000000000E+00 -0.45593999997E+02  0.45594000000E+02  0.51100000000E-03 0. -1.
    9900012    2    1    2    0    0 -0.63470465882E+00 -0.42439168557E+02 -0.90629591956E+01  0.47787272964E+02  0.20000008754E+02 0.  0.
        -12    1    1    2    0    0  0.63470465882E+00  0.42439168557E+02  0.90629591956E+01  0.43400727036E+02  0.00000000000E+00 0.  1.
         11    1    3    3    0    0 -0.50249843774E+01 -0.30792080551E+02 -0.47288542596E+01  0.31555740453E+02  0.51100000000E-03 0. -1.
        -11    1    3    3    0    0  0.42379515590E+00 -0.60041927594E+00 -0.44334109830E+01  0.44939113082E+01  0.51100000000E-03 0.  1.
        -12    1    3    3    0    0  0.39664845626E+01 -0.11046668730E+02  0.99306047014E-01  0.11737621203E+02  0.00000000000E+00 0.  1.
</event>
<event>
 7    1  0.2886681E-010  0.4778727E+02  0.7816164E-02  0.1312668E+00
        -11   -1    0    0    0    0  0.00000000000E+00  0.00000000000E+00  0.45593999997E+02  0.45594000000E+02  0.51100000000E-03 0.  1.
         11   -1    0    0    0    0 -0.00000000000E+00 -0.00000000000E+00 -0.45593999997E+02  0.45594000000E+02  0.51100000000E-03 0. -1.
    9900012    2    1    2    0    0  0.37122422775E+02 -0.10412139806E+02 -0.19928282550E+02  0.47787269898E+02  0.19999994774E+02 0.  0.
        -12    1    1    2    0    0 -0.37122422775E+02  0.10412139806E+02  0.19928282550E+02  0.43400730102E+02  0.00000000000E+00 0.  1.
         11    1    3    3    0    0  0.37396766549E+02 -0.11305358188E+02 -0.16669052877E+02  0.42475717724E+02  0.51100000000E-03 0. -1.
        -11    1    3    3    0    0  0.83655481146E+00 -0.12442200224E+01 -0.22410248070E+01  0.26963122711E+01  0.51100000000E-03 0.  1.
         12    1    3    3    0    0 -0.11108985856E+01  0.21374384053E+01 -0.10182048660E+01  0.26152399035E+01  0.00000000000E+00 0. -1.
</event>
<event>
 7    1  0.2886681E-010  0.4778728E+02  0.7816164E-02  0.1312668E+00
        -11   -1    0    0    0    0  0.00000000000E+00  0.00000000000E+00  0.45593999997E+02  0.45594000000E+02  0.51100000000E-03 0.  1.
         11   -1    0    0    0    0 -0.00000000000E+00 -0.00000000000E+00 -0.45593999997E+02  0.45594000000E+02  0.51100000000E-03 0. -1.
    9900012    2    1    2    0    0  0.32473264184E+00 -0.26570857370E+02 -0.34314821846E+02  0.47787275225E+02  0.20000019063E+02 0.  0.
        -12    1    1    2    0    0 -0.32473264184E+00  0.26570857370E+02  0.34314821846E+02  0.43400724775E+02  0.00000000000E+00 0.  1.
         11    1    3    3    0    0  0.72713900812E+00 -0.51205483488E+01 -0.50487031628E+01  0.72275964481E+01  0.51100000000E-03 0. -1.
        -11    1    3    3    0    0 -0.56764132063E+01 -0.21328449095E+02 -0.26850921979E+02  0.34757681439E+02  0.51100000000E-03 0.  1.
        -12    1    3    3    0    0  0.52740068400E+01 -0.12185992648E+00 -0.24151967041E+01  0.58019973379E+01  0.00000000000E+00 0.  1.
</event>
<event>
 7    1  0.2886681E-010  0.4778727E+02  0.7816164E-02  0.1312668E+00
        -11   -1    0    0    0    0  0.00000000000E+00  0.00000000000E+00  0.45593999997E+02  0.45594000000E+02  0.51100000000E-03 0. -1.
         11   -1    0    0    0    0 -0.00000000000E+00 -0.00000000000E+00 -0.45593999997E+02  0.45594000000E+02  0.51100000000E-03 0.  1.
    9900012    2    1    2    0    0  0.28249706748E+02 -0.32453804440E+02 -0.56857577579E+01  0.47787271950E+02  0.20000004128E+02 0.  0.
        -12    1    1    2    0    0 -0.28249706748E+02  0.32453804440E+02  0.56857577579E+01  0.43400728050E+02  0.00000000000E+00 0.  1.
         11    1    3    3    0    0  0.20833746522E+01 -0.51924966112E+01 -0.69758115431E+01  0.89422825914E+01  0.51100000000E-03 0.  1.
        -11    1    3    3    0    0  0.68761381943E+01 -0.61548850885E+01  0.41305819116E+01  0.10110667342E+02  0.51100000000E-03 0. -1.
         12    1    3    3    0    0  0.19290193902E+02 -0.21106422741E+02 -0.28405281264E+01  0.28734322016E+02  0.00000000000E+00 0. -1.
</event>
<event>
 7    1  0.2886681E-010  0.4778727E+02  0.7816164E-02  0.1312668E+00
        -11   -1    0    0    0    0  0.00000000000E+00  0.00000000000E+00  0.45593999997E+02  0.45594000000E+02  0.51100000000E-03 0. -1.
         11   -1    0    0    0    0 -0.00000000000E+00 -0.00000000000E+00 -0.45593999997E+02  0.45594000000E+02  0.51100000000E-03 0.  1.
    9900012    2    1    2    0    0  0.23385528318E+02 -0.21036516757E+02 -0.29903269312E+02  0.47787268583E+02  0.19999988776E+02 0.  0.
        -12    1    1    2    0    0 -0.23385528318E+02  0.21036516757E+02  0.29903269312E+02  0.43400731417E+02  0.00000000000E+00 0.  1.
         11    1    3    3    0    0  0.36492566610E+01 -0.40121882395E+01 -0.58600868835E+01  0.79846945584E+01  0.51100000000E-03 0. -1.
        -11    1    3    3    0    0  0.22023368723E+02 -0.13333682365E+02 -0.24367762308E+02  0.35448606396E+02  0.51100000000E-03 0.  1.
        -12    1    3    3    0    0 -0.22870970652E+01 -0.36906461523E+01  0.32457987877E+00  0.43539676279E+01  0.00000000000E+00 0.  1.
</event>
<event>
 7    1  0.2886681E-010  0.4778729E+02  0.7816164E-02  0.1312668E+00
        -11   -1    0    0    0    0  0.00000000000E+00  0.00000000000E+00  0.45593999997E+02  0.45594000000E+02  0.51100000000E-03 0.  1.
         11   -1    0    0    0    0 -0.00000000000E+00 -0.00000000000E+00 -0.45593999997E+02  0.45594000000E+02  0.51100000000E-03 0. -1.
    9900012    2    1    2    0    0  0.30826991932E+01 -0.21689627899E+02 -0.37465703963E+02  0.47787286110E+02  0.20000068690E+02 0.  0.
        -12    1    1    2    0    0 -0.30826991932E+01  0.21689627899E+02  0.37465703963E+02  0.43400713890E+02  0.00000000000E+00 0.  1.
         11    1    3    3    0    0  0.64451995832E+01 -0.16063327346E+02 -0.25802674610E+02  0.31070067596E+02  0.51100000000E-03 0. -1.
        -11    1    3    3    0    0 -0.65131168215E+01 -0.53069088304E+01 -0.10239947253E+02  0.13245395127E+02  0.51100000000E-03 0.  1.
        -12    1    3    3    0    0  0.31506164315E+01 -0.31939172286E+00 -0.14230821002E+01  0.34718233877E+01  0.00000000000E+00 0.  1.
</event>
<event>
 7    1  0.2886681E-010  0.4778727E+02  0.7816164E-02  0.1312668E+00
        -11   -1    0    0    0    0  0.00000000000E+00  0.00000000000E+00  0.45593999997E+02  0.45594000000E+02  0.51100000000E-03 0.  1.
         11   -1    0    0    0    0 -0.00000000000E+00 -0.00000000000E+00 -0.45593999997E+02  0.45594000000E+02  0.51100000000E-03 0. -1.
    9900012    2    1    2    0    0 -0.35460105159E+02  0.16994247933E+02 -0.18368445597E+02  0.47787270578E+02  0.19999997872E+02 0.  0.
        -12    1    1    2    0    0  0.35460105159E+02 -0.16994247933E+02  0.18368445597E+02  0.43400729422E+02  0.00000000000E+00 0.  1.
         11    1    3    3    0    0 -0.73231558773E+01 -0.25078314631E+01  0.12679245942E+01  0.78438169082E+01  0.51100000000E-03 0. -1.
        -11    1    3    3    0    0 -0.19361636700E+01  0.25459816658E+01 -0.37340347220E+01  0.49166826180E+01  0.51100000000E-03 0.  1.
         12    1    3    3    0    0 -0.26200785612E+02  0.16956097730E+02 -0.15902335469E+02  0.35026771052E+02  0.00000000000E+00 0. -1.
</event>
<event>
 7    1  0.2886681E-010  0.4778727E+02  0.7816164E-02  0.1312668E+00
        -11   -1    0    0    0    0  0.00000000000E+00  0.00000000000E+00  0.45593999997E+02  0.45594000000E+02  0.51100000000E-03 0.  1.
         11   -1    0    0    0    0 -0.00000000000E+00 -0.00000000000E+00 -0.45593999997E+02  0.45594000000E+02  0.51100000000E-03 0. -1.
    9900012    2    1    2    0    0  0.11251198591E+02 -0.30843782385E+02 -0.28384770232E+02  0.47787267717E+02  0.19999984829E+02 0.  0.
        -12    1    1    2    0    0 -0.11251198591E+02  0.30843782385E+02  0.28384770232E+02  0.43400732283E+02  0.00000000000E+00 0.  1.
         11    1    3    3    0    0 -0.38098248061E+01 -0.98517903962E+00 -0.16395145477E+01  0.42630213472E+01  0.51100000000E-03 0. -1.
        -11    1    3    3    0    0  0.10078086410E+02 -0.14601764020E+02 -0.17879568192E+02  0.25188455633E+02  0.51100000000E-03 0.  1.
         12    1    3    3    0    0  0.49829369876E+01 -0.15256839326E+02 -0.88656874921E+01  0.18335790737E+02  0.00000000000E+00 0. -1.
</event>
<event>
 7    1  0.2886681E-010  0.4778728E+02  0.7816164E-02  0.1312668E+00
        -11   -1    0    0    0    0  0.00000000000E+00  0.00000000000E+00  0.45593999997E+02  0.45594000000E+02  0.51100000000E-03 0. -1.
         11   -1    0    0    0    0 -0.00000000000E+00 -0.00000000000E+00 -0.45593999997E+02  0.45594000000E+02  0.51100000000E-03 0.  1.
    9900012    2    1    2    0    0  0.15272744970E+02 -0.37131345457E+02  0.16481178243E+02  0.47787276611E+02  0.20000025382E+02 0.  0.
        -12    1    1    2    0    0 -0.15272744970E+02  0.37131345457E+02 -0.16481178243E+02  0.43400723389E+02  0.00000000000E+00 0.  1.
         11    1    3    3    0    0  0.11861199608E+02 -0.12701014605E+02  0.98218763107E+01  0.19961790568E+02  0.51100000000E-03 0. -1.
        -11    1    3    3    0    0 -0.17527526384E+00 -0.23067428745E+02  0.48020865549E+01  0.23562619249E+02  0.51100000000E-03 0.  1.
        -12    1    3    3    0    0  0.35868206256E+01 -0.13629021072E+01  0.18572153774E+01  0.42628667950E+01  0.00000000000E+00 0.  1.
</event>
<event>
 7    1  0.2886681E-010  0.4778727E+02  0.7816164E-02  0.1312668E+00
        -11   -1    0    0    0    0  0.00000000000E+00  0.00000000000E+00  0.45593999997E+02  0.45594000000E+02  0.51100000000E-03 0. -1.
         11   -1    0    0    0    0 -0.00000000000E+00 -0.00000000000E+00 -0.45593999997E+02  0.45594000000E+02  0.51100000000E-03 0.  1.
    9900012    2    1    2    0    0 -0.18414473856E+02 -0.18867502999E+02  0.34475325541E+02  0.47787267426E+02  0.19999983502E+02 0.  0.
        -12    1    1    2    0    0  0.18414473856E+02  0.18867502999E+02 -0.34475325541E+02  0.43400732574E+02  0.00000000000E+00 0.  1.
         11    1    3    3    0    0 -0.75092551295E+01 -0.16012427922E+02  0.15283841149E+02  0.23374827510E+02  0.51100000000E-03 0. -1.
        -11    1    3    3    0    0  0.98625442173E+00  0.15751022619E+01  0.52065165504E+01  0.55282420145E+01  0.51100000000E-03 0.  1.
        -12    1    3    3    0    0 -0.11891473148E+02 -0.44301773388E+01  0.13984967841E+02  0.18884197902E+02  0.00000000000E+00 0.  1.
</event>
<event>
 7    1  0.2886681E-010  0.4778727E+02  0.7816164E-02  0.1312668E+00
        -11   -1    0    0    0    0  0.00000000000E+00  0.00000000000E+00  0.45593999997E+02  0.45594000000E+02  0.51100000000E-03 0. -1.
         11   -1    0    0    0    0 -0.00000000000E+00 -0.00000000000E+00 -0.45593999997E+02  0.45594000000E+02  0.51100000000E-03 0.  1.
    9900012    2    1    2    0    0  0.12276178684E+02 -0.25372457835E+02  0.33002384940E+02  0.47787267386E+02  0.19999983319E+02 0.  0.
        -12    1    1    2    0    0 -0.12276178684E+02  0.25372457835E+02 -0.33002384940E+02  0.43400732614E+02  0.00000000000E+00 0.  1.
         11    1    3    3    0    0  0.80036193018E+01 -0.82435672483E+01  0.11466219435E+02  0.16232329201E+02  0.51100000000E-03 0. -1.
        -11    1    3    3    0    0  0.32557346921E+01 -0.89739968677E+00 -0.12146821244E+01  0.35889535394E+01  0.51100000000E-03 0.  1.
        -12    1    3    3    0    0  0.10168246902E+01 -0.16231490900E+02  0.22750847630E+02  0.27965984645E+02  0.00000000000E+00 0.  1.
</event>
<event>
 7    1  0.2886681E-010  0.4778727E+02  0.7816164E-02  0.1312668E+00
        -11   -1    0    0    0    0  0.00000000000E+00  0.00000000000E+00  0.45593999997E+02  0.45594000000E+02  0.51100000000E-03 0.  1.
         11   -1    0    0    0    0 -0.00000000000E+00 -0.00000000000E+00 -0.45593999997E+02  0.45594000000E+02  0.51100000000E-03 0. -1.
    9900012    2    1    2    0    0  0.21598666321E+02  0.59320359964E+01 -0.37174344273E+02  0.47787270628E+02  0.19999998101E+02 0.  0.
        -12    1    1    2    0    0 -0.21598666321E+02 -0.59320359964E+01  0.37174344273E+02  0.43400729372E+02  0.00000000000E+00 0.  1.
         11    1    3    3    0    0  0.76284551399E+01  0.98860354608E+01 -0.19795493785E+02  0.23404884093E+02  0.51100000000E-03 0. -1.
        -11    1    3    3    0    0  0.10350564631E+02 -0.11276356829E+01 -0.57824829295E+01  0.11909779994E+02  0.51100000000E-03 0.  1.
         12    1    3    3    0    0  0.36196465496E+01 -0.28263637814E+01 -0.11596367559E+02  0.12472606541E+02  0.00000000000E+00 0. -1.
</event>
<event>
 7    1  0.2886681E-010  0.4778727E+02  0.7816164E-02  0.1312668E+00
        -11   -1    0    0    0    0  0.00000000000E+00  0.00000000000E+00  0.45593999997E+02  0.45594000000E+02  0.51100000000E-03 0.  1.
         11   -1    0    0    0    0 -0.00000000000E+00 -0.00000000000E+00 -0.45593999997E+02  0.45594000000E+02  0.51100000000E-03 0. -1.
    9900012    2    1    2    0    0 -0.39533096636E+02  0.11000839175E+02 -0.14132906721E+02  0.47787271382E+02  0.20000001540E+02 0.  0.
        -12    1    1    2    0    0  0.39533096636E+02 -0.11000839175E+02  0.14132906721E+02  0.43400728618E+02  0.00000000000E+00 0.  1.
         11    1    3    3    0    0 -0.92831773579E+01  0.83164272959E+01 -0.94340142283E+01  0.15631409711E+02  0.51100000000E-03 0.  1.
        -11    1    3    3    0    0 -0.18056315919E+02 -0.27881114817E+01 -0.10455499123E+01  0.18300199045E+02  0.51100000000E-03 0. -1.
        -12    1    3    3    0    0 -0.12193603359E+02  0.54725233607E+01 -0.36533425801E+01  0.13855662627E+02  0.00000000000E+00 0.  1.
</event>
<event>
 7    1  0.2886681E-010  0.4778727E+02  0.7816164E-02  0.1312668E+00
        -11   -1    0    0    0    0  0.00000000000E+00  0.00000000000E+00  0.45593999997E+02  0.45594000000E+02  0.51100000000E-03 0. -1.
         11   -1    0    0    0    0 -0.00000000000E+00 -0.00000000000E+00 -0.45593999997E+02  0.45594000000E+02  0.51100000000E-03 0.  1.
    9900012    2    1    2    0    0  0.49014211909E+01  0.40570146943E+02 -0.14617201630E+02  0.47787270327E+02  0.19999996729E+02 0.  0.
        -12    1    1    2    0    0 -0.49014211909E+01 -0.40570146943E+02  0.14617201630E+02  0.43400729673E+02  0.00000000000E+00 0.  1.
         11    1    3    3    0    0 -0.11575001121E+01  0.15106952709E+02 -0.13983664334E+02  0.20618018701E+02  0.51100000000E-03 0. -1.
        -11    1    3    3    0    0  0.50291696773E+01  0.67416236951E+01 -0.79779855168E-01  0.84112069749E+01  0.51100000000E-03 0.  1.
         12    1    3    3    0    0  0.10297516257E+01  0.18721570539E+02 -0.55375744029E+00  0.18758044652E+02  0.00000000000E+00 0. -1.
</event>
<event>
 7    1  0.2886681E-010  0.4778727E+02  0.7816164E-02  0.1312668E+00
        -11   -1    0    0    0    0  0.00000000000E+00  0.00000000000E+00  0.45593999997E+02  0.45594000000E+02  0.51100000000E-03 0.  1.
         11   -1    0    0    0    0 -0.00000000000E+00 -0.00000000000E+00 -0.45593999997E+02  0.45594000000E+02  0.51100000000E-03 0. -1.
    9900012    2    1    2    0    0  0.33885792408E+02  0.17405131610E+02 -0.20795136974E+02  0.47787271259E+02  0.20000000980E+02 0.  0.
        -12    1    1    2    0    0 -0.33885792408E+02 -0.17405131610E+02  0.20795136974E+02  0.43400728741E+02  0.00000000000E+00 0.  1.
         11    1    3    3    0    0  0.77656984610E+01  0.48986143887E+01 -0.28161028900E+01  0.96037977522E+01  0.51100000000E-03 0. -1.
        -11    1    3    3    0    0  0.10701758063E+02  0.12908926029E+02 -0.14950831249E+02  0.22465425706E+02  0.51100000000E-03 0.  1.
        -12    1    3    3    0    0  0.15418335884E+02 -0.40240880736E+00 -0.30282028345E+01  0.15718047801E+02  0.00000000000E+00 0.  1.
</event>
<event>
 7    1  0.2886681E-010  0.4778727E+02  0.7816164E-02  0.1312668E+00
        -11   -1    0    0    0    0  0.00000000000E+00  0.00000000000E+00  0.45593999997E+02  0.45594000000E+02  0.51100000000E-03 0.  1.
         11   -1    0    0    0    0 -0.00000000000E+00 -0.00000000000E+00 -0.45593999997E+02  0.45594000000E+02  0.51100000000E-03 0. -1.
    9900012    2    1    2    0    0 -0.23374339210E+02 -0.71695752850E+01 -0.35858899279E+02  0.47787271887E+02  0.20000003842E+02 0.  0.
        -12    1    1    2    0    0  0.23374339210E+02  0.71695752850E+01  0.35858899279E+02  0.43400728113E+02  0.00000000000E+00 0.  1.
         11    1    3    3    0    0 -0.53885914450E+01 -0.22092393664E+00 -0.14096345176E+02  0.15092802017E+02  0.51100000000E-03 0. -1.
        -11    1    3    3    0    0 -0.14915552690E+02 -0.63879674734E+01 -0.71136090481E+01  0.17716751238E+02  0.51100000000E-03 0.  1.
        -12    1    3    3    0    0 -0.30701950753E+01 -0.56068387491E+00 -0.14648945055E+02  0.14977718632E+02  0.00000000000E+00 0.  1.
</event>
<event>
 7    1  0.2886681E-010  0.4778727E+02  0.7816164E-02  0.1312668E+00
        -11   -1    0    0    0    0  0.00000000000E+00  0.00000000000E+00  0.45593999997E+02  0.45594000000E+02  0.51100000000E-03 0. -1.
         11   -1    0    0    0    0 -0.00000000000E+00 -0.00000000000E+00 -0.45593999997E+02  0.45594000000E+02  0.51100000000E-03 0.  1.
    9900012    2    1    2    0    0 -0.24444104874E+02  0.27825460918E+02  0.22624162923E+02  0.47787270901E+02  0.19999999344E+02 0.  0.
        -12    1    1    2    0    0  0.24444104874E+02 -0.27825460918E+02 -0.22624162923E+02  0.43400729099E+02  0.00000000000E+00 0.  1.
         11    1    3    3    0    0 -0.47163801245E+01 -0.49558843752E+00  0.73588620167E+01  0.87545816473E+01  0.51100000000E-03 0.  1.
        -11    1    3    3    0    0 -0.18907813063E+02  0.24222722804E+02  0.16218240498E+02  0.34745892131E+02  0.51100000000E-03 0. -1.
         12    1    3    3    0    0 -0.81991168664E+00  0.40983265522E+01 -0.95293959214E+00  0.42867971224E+01  0.00000000000E+00 0. -1.
</event>
<event>
 7    1  0.2886681E-010  0.4778727E+02  0.7816164E-02  0.1312668E+00
        -11   -1    0    0    0    0  0.00000000000E+00  0.00000000000E+00  0.45593999997E+02  0.45594000000E+02  0.51100000000E-03 0. -1.
         11   -1    0    0    0    0 -0.00000000000E+00 -0.00000000000E+00 -0.45593999997E+02  0.45594000000E+02  0.51100000000E-03 0.  1.
    9900012    2    1    2    0    0 -0.26146347571E+02  0.25349512902E+02  0.23609192204E+02  0.47787271294E+02  0.20000001138E+02 0.  0.
        -12    1    1    2    0    0  0.26146347571E+02 -0.25349512902E+02 -0.23609192204E+02  0.43400728706E+02  0.00000000000E+00 0.  1.
         11    1    3    3    0    0  0.13765732572E+01  0.14767445990E+01  0.59019119120E+01  0.62376512423E+01  0.51100000000E-03 0. -1.
        -11    1    3    3    0    0 -0.46502031764E+01  0.94839459442E+01  0.52001653452E+01  0.11773331735E+02  0.51100000000E-03 0.  1.
         12    1    3    3    0    0 -0.22872717652E+02  0.14388822359E+02  0.12507114947E+02  0.29776288317E+02  0.00000000000E+00 0. -1.
</event>
<event>
 7    1  0.2886681E-010  0.4778727E+02  0.7816164E-02  0.1312668E+00
        -11   -1    0    0    0    0  0.00000000000E+00  0.00000000000E+00  0.45593999997E+02  0.45594000000E+02  0.51100000000E-03 0.  1.
         11   -1    0    0    0    0 -0.00000000000E+00 -0.00000000000E+00 -0.45593999997E+02  0.45594000000E+02  0.51100000000E-03 0. -1.
    9900012    2    1    2    0    0  0.21958540963E+02  0.37424282378E+02 -0.93230906322E+00  0.47787266908E+02  0.19999981138E+02 0.  0.
        -12    1    1    2    0    0 -0.21958540963E+02 -0.37424282378E+02  0.93230906322E+00  0.43400733092E+02  0.00000000000E+00 0.  1.
         11    1    3    3    0    0  0.16024980657E+02  0.36458125170E+02  0.17414971882E+01  0.39862610410E+02  0.51100000000E-03 0. -1.
        -11    1    3    3    0    0  0.45533754258E+01 -0.11466165946E+01 -0.75822756312E+00  0.47563501429E+01  0.51100000000E-03 0.  1.
         12    1    3    3    0    0  0.13801848802E+01  0.21127738028E+01 -0.19155786883E+01  0.31683063546E+01  0.00000000000E+00 0. -1.
</event>
<event>
 7    1  0.2886681E-010  0.4778727E+02  0.7816164E-02  0.1312668E+00
        -11   -1    0    0    0    0  0.00000000000E+00  0.00000000000E+00  0.45593999997E+02  0.45594000000E+02  0.51100000000E-03 0.  1.
         11   -1    0    0    0    0 -0.00000000000E+00 -0.00000000000E+00 -0.45593999997E+02  0.45594000000E+02  0.51100000000E-03 0. -1.
    9900012    2    1    2    0    0 -0.19555642876E+02 -0.20595646697E+02 -0.32817975132E+02  0.47787270479E+02  0.19999997424E+02 0.  0.
        -12    1    1    2    0    0  0.19555642876E+02  0.20595646697E+02  0.32817975132E+02  0.43400729521E+02  0.00000000000E+00 0.  1.
         11    1    3    3    0    0 -0.16479687573E+02 -0.95237190784E+01 -0.23586436455E+02  0.30308436326E+02  0.51100000000E-03 0. -1.
        -11    1    3    3    0    0  0.33996934573E+01 -0.39831111641E+01 -0.30627605104E+01  0.60665964390E+01  0.51100000000E-03 0.  1.
        -12    1    3    3    0    0 -0.64756487608E+01 -0.70888164544E+01 -0.61687781661E+01  0.11412237715E+02  0.00000000000E+00 0.  1.
</event>
<event>
 7    1  0.2886681E-010  0.4778727E+02  0.7816164E-02  0.1312668E+00
        -11   -1    0    0    0    0  0.00000000000E+00  0.00000000000E+00  0.45593999997E+02  0.45594000000E+02  0.51100000000E-03 0. -1.
         11   -1    0    0    0    0 -0.00000000000E+00 -0.00000000000E+00 -0.45593999997E+02  0.45594000000E+02  0.51100000000E-03 0.  1.
    9900012    2    1    2    0    0  0.10533980337E+02 -0.35067994553E+02 -0.23300095438E+02  0.47787269233E+02  0.19999991739E+02 0.  0.
        -12    1    1    2    0    0 -0.10533980337E+02  0.35067994553E+02  0.23300095438E+02  0.43400730767E+02  0.00000000000E+00 0.  1.
         11    1    3    3    0    0 -0.49191023971E+01 -0.14039254107E+02 -0.51275947341E+01  0.15735007222E+02  0.51100000000E-03 0. -1.
        -11    1    3    3    0    0  0.74863775971E+01 -0.80163597814E+01 -0.57930265183E+01  0.12404314982E+02  0.51100000000E-03 0.  1.
         12    1    3    3    0    0  0.79667051368E+01 -0.13012380665E+02 -0.12379474186E+02  0.19647947028E+02  0.00000000000E+00 0. -1.
</event>
<event>
 7    1  0.2886681E-010  0.4778727E+02  0.7816164E-02  0.1312668E+00
        -11   -1    0    0    0    0  0.00000000000E+00  0.00000000000E+00  0.45593999997E+02  0.45594000000E+02  0.51100000000E-03 0.  1.
         11   -1    0    0    0    0 -0.00000000000E+00 -0.00000000000E+00 -0.45593999997E+02  0.45594000000E+02  0.51100000000E-03 0. -1.
    9900012    2    1    2    0    0 -0.67356979801E+01  0.67292352016E+01 -0.42343487945E+02  0.47787271837E+02  0.20000003615E+02 0.  0.
        -12    1    1    2    0    0  0.67356979801E+01 -0.67292352016E+01  0.42343487945E+02  0.43400728163E+02  0.00000000000E+00 0.  1.
         11    1    3    3    0    0  0.32337325655E+01 -0.19110510862E+00 -0.20180762778E+02  0.20439098171E+02  0.51100000000E-03 0. -1.
        -11    1    3    3    0    0 -0.91054627285E+01  0.62259565791E+00 -0.94669777562E+01  0.13149933268E+02  0.51100000000E-03 0.  1.
         12    1    3    3    0    0 -0.86396781708E+00  0.62977446523E+01 -0.12695747411E+02  0.14198240398E+02  0.00000000000E+00 0. -1.
</event>
<event>
 7    1  0.2886681E-010  0.4778727E+02  0.7816164E-02  0.1312668E+00
        -11   -1    0    0    0    0  0.00000000000E+00  0.00000000000E+00  0.45593999997E+02  0.45594000000E+02  0.51100000000E-03 0.  1.
         11   -1    0    0    0    0 -0.00000000000E+00 -0.00000000000E+00 -0.45593999997E+02  0.45594000000E+02  0.51100000000E-03 0. -1.
    9900012    2    1    2    0    0  0.11756163952E+02 -0.98948469514E-01 -0.41778060647E+02  0.47787268058E+02  0.19999986386E+02 0.  0.
        -12    1    1    2    0    0 -0.11756163952E+02  0.98948469514E-01  0.41778060647E+02  0.43400731942E+02  0.00000000000E+00 0.  1.
         11    1    3    3    0    0  0.10125640634E+01  0.42266068473E+01 -0.14625840985E+01  0.45856999390E+01  0.51100000000E-03 0.  1.
        -11    1    3    3    0    0  0.45662984011E+01 -0.41868999113E+01 -0.33220437983E+02  0.33793175525E+02  0.51100000000E-03 0. -1.
         12    1    3    3    0    0  0.61773014871E+01 -0.13865540556E+00 -0.70950385648E+01  0.94083925949E+01  0.00000000000E+00 0. -1.
</event>
<event>
 7    1  0.2886681E-010  0.4778727E+02  0.7816164E-02  0.1312668E+00
        -11   -1    0    0    0    0  0.00000000000E+00  0.00000000000E+00  0.45593999997E+02  0.45594000000E+02  0.51100000000E-03 0. -1.
         11   -1    0    0    0    0 -0.00000000000E+00 -0.00000000000E+00 -0.45593999997E+02  0.45594000000E+02  0.51100000000E-03 0.  1.
    9900012    2    1    2    0    0 -0.29601228468E+02 -0.12237004224E+02  0.29285600887E+02  0.47787269379E+02  0.19999992406E+02 0.  0.
        -12    1    1    2    0    0  0.29601228468E+02  0.12237004224E+02 -0.29285600887E+02  0.43400730621E+02  0.00000000000E+00 0.  1.
         11    1    3    3    0    0 -0.22258132648E+01 -0.37991707106E+01  0.88536006340E+01  0.98880830916E+01  0.51100000000E-03 0. -1.
        -11    1    3    3    0    0 -0.77184656670E+01  0.25454946301E+01  0.10611831934E+01  0.81963629248E+01  0.51100000000E-03 0.  1.
        -12    1    3    3    0    0 -0.19656949536E+02 -0.10983328143E+02  0.19370817059E+02  0.29702823362E+02  0.00000000000E+00 0.  1.
</event>
<event>
 7    1  0.2886681E-010  0.4778727E+02  0.7816164E-02  0.1312668E+00
        -11   -1    0    0    0    0  0.00000000000E+00  0.00000000000E+00  0.45593999997E+02  0.45594000000E+02  0.51100000000E-03 0. -1.
         11   -1    0    0    0    0 -0.00000000000E+00 -0.00000000000E+00 -0.45593999997E+02  0.45594000000E+02  0.51100000000E-03 0.  1.
    9900012    2    1    2    0    0  0.30290290068E+02 -0.12080601578E+02  0.28638795757E+02  0.47787271558E+02  0.20000002342E+02 0.  0.
        -12    1    1    2    0    0 -0.30290290068E+02  0.12080601578E+02 -0.28638795757E+02  0.43400728442E+02  0.00000000000E+00 0.  1.
         11    1    3    3    0    0  0.18677842975E+02 -0.14883351618E+02  0.18448423951E+02  0.30178143086E+02  0.51100000000E-03 0. -1.
        -11    1    3    3    0    0  0.66237558829E+01  0.42925670351E+01  0.24198759302E+01  0.82556691749E+01  0.51100000000E-03 0.  1.
        -12    1    3    3    0    0  0.49886912097E+01 -0.14898169954E+01  0.77704958760E+01  0.93534592972E+01  0.00000000000E+00 0.  1.
</event>
<event>
 7    1  0.2886681E-010  0.4778727E+02  0.7816164E-02  0.1312668E+00
        -11   -1    0    0    0    0  0.00000000000E+00  0.00000000000E+00  0.45593999997E+02  0.45594000000E+02  0.51100000000E-03 0.  1.
         11   -1    0    0    0    0 -0.00000000000E+00 -0.00000000000E+00 -0.45593999997E+02  0.45594000000E+02  0.51100000000E-03 0. -1.
    9900012    2    1    2    0    0  0.28618103316E+02  0.22184314723E+02 -0.23926624162E+02  0.47787274189E+02  0.20000014336E+02 0.  0.
        -12    1    1    2    0    0 -0.28618103316E+02 -0.22184314723E+02  0.23926624162E+02  0.43400725811E+02  0.00000000000E+00 0.  1.
         11    1    3    3    0    0  0.17014203981E+02  0.72082468913E+01 -0.27623200088E+01  0.18683478596E+02  0.51100000000E-03 0. -1.
        -11    1    3    3    0    0  0.17507357703E+01  0.49014933996E+01 -0.94085721853E+01  0.10752252978E+02  0.51100000000E-03 0.  1.
         12    1    3    3    0    0  0.98531635647E+01  0.10074574432E+02 -0.11755731968E+02  0.18351542614E+02  0.00000000000E+00 0. -1.
</event>
<event>
 7    1  0.2886681E-010  0.4778727E+02  0.7816164E-02  0.1312668E+00
        -11   -1    0    0    0    0  0.00000000000E+00  0.00000000000E+00  0.45593999997E+02  0.45594000000E+02  0.51100000000E-03 0. -1.
         11   -1    0    0    0    0 -0.00000000000E+00 -0.00000000000E+00 -0.45593999997E+02  0.45594000000E+02  0.51100000000E-03 0.  1.
    9900012    2    1    2    0    0 -0.41509098874E+02  0.11555898198E+02 -0.52037581606E+01  0.47787272224E+02  0.20000005379E+02 0.  0.
        -12    1    1    2    0    0  0.41509098874E+02 -0.11555898198E+02  0.52037581606E+01  0.43400727776E+02  0.00000000000E+00 0.  1.
         11    1    3    3    0    0 -0.18609579417E+01  0.13384486885E+01  0.40830594667E+01  0.46825190039E+01  0.51100000000E-03 0. -1.
        -11    1    3    3    0    0 -0.12926165170E-01  0.92697641912E+00 -0.13359286524E+01  0.16260867113E+01  0.51100000000E-03 0.  1.
         12    1    3    3    0    0 -0.39635214767E+02  0.92904730901E+01 -0.79508889749E+01  0.41478666509E+02  0.00000000000E+00 0. -1.
</event>
<event>
 7    1  0.2886681E-010  0.4778727E+02  0.7816164E-02  0.1312668E+00
        -11   -1    0    0    0    0  0.00000000000E+00  0.00000000000E+00  0.45593999997E+02  0.45594000000E+02  0.51100000000E-03 0.  1.
         11   -1    0    0    0    0 -0.00000000000E+00 -0.00000000000E+00 -0.45593999997E+02  0.45594000000E+02  0.51100000000E-03 0. -1.
    9900012    2    1    2    0    0  0.26750912442E+02  0.53465661646E+01 -0.33755383765E+02  0.47787273977E+02  0.20000013372E+02 0.  0.
        -12    1    1    2    0    0 -0.26750912442E+02 -0.53465661646E+01  0.33755383765E+02  0.43400726023E+02  0.00000000000E+00 0.  1.
         11    1    3    3    0    0  0.14021679455E+01  0.52016276924E+01 -0.14230637335E+02  0.15216242796E+02  0.51100000000E-03 0. -1.
        -11    1    3    3    0    0  0.85857994459E+01 -0.21340944939E+01 -0.44101772238E+01  0.98853414125E+01  0.51100000000E-03 0.  1.
         12    1    3    3    0    0  0.16762945050E+02  0.22790329660E+01 -0.15114569205E+02  0.22685689769E+02  0.00000000000E+00 0. -1.
</event>
<event>
 7    1  0.2886681E-010  0.4778727E+02  0.7816164E-02  0.1312668E+00
        -11   -1    0    0    0    0  0.00000000000E+00  0.00000000000E+00  0.45593999997E+02  0.45594000000E+02  0.51100000000E-03 0.  1.
         11   -1    0    0    0    0 -0.00000000000E+00 -0.00000000000E+00 -0.45593999997E+02  0.45594000000E+02  0.51100000000E-03 0. -1.
    9900012    2    1    2    0    0 -0.24594338814E+02  0.21574707934E+02 -0.28517960272E+02  0.47787267492E+02  0.19999983804E+02 0.  0.
        -12    1    1    2    0    0  0.24594338814E+02 -0.21574707934E+02  0.28517960272E+02  0.43400732508E+02  0.00000000000E+00 0.  1.
         11    1    3    3    0    0 -0.17578307242E+02  0.20294117523E+02 -0.26534431881E+02  0.37748167731E+02  0.51100000000E-03 0. -1.
        -11    1    3    3    0    0 -0.66666394985E+01 -0.16451373760E+01 -0.17330868706E+01  0.70819594429E+01  0.51100000000E-03 0.  1.
         12    1    3    3    0    0 -0.34939207308E+00  0.29257277874E+01 -0.25044152028E+00  0.29571403183E+01  0.00000000000E+00 0. -1.
</event>
<event>
 7    1  0.2886681E-010  0.4778727E+02  0.7816164E-02  0.1312668E+00
        -11   -1    0    0    0    0  0.00000000000E+00  0.00000000000E+00  0.45593999997E+02  0.45594000000E+02  0.51100000000E-03 0. -1.
         11   -1    0    0    0    0 -0.00000000000E+00 -0.00000000000E+00 -0.45593999997E+02  0.45594000000E+02  0.51100000000E-03 0.  1.
    9900012    2    1    2    0    0 -0.39017284057E+02  0.19750571110E+01  0.18904337354E+02  0.47787271014E+02  0.19999999859E+02 0.  0.
        -12    1    1    2    0    0  0.39017284057E+02 -0.19750571110E+01 -0.18904337354E+02  0.43400728986E+02  0.00000000000E+00 0.  1.
         11    1    3    3    0    0 -0.13923359406E+02 -0.16977094546E+01  0.40087867807E+01  0.14588095361E+02  0.51100000000E-03 0. -1.
        -11    1    3    3    0    0 -0.46652899981E+01  0.18397970072E+01 -0.31146489101E+01  0.59034584684E+01  0.51100000000E-03 0.  1.
        -12    1    3    3    0    0 -0.20428634653E+02  0.18329695585E+01  0.18010199483E+02  0.27295717184E+02  0.00000000000E+00 0.  1.
</event>
<event>
 7    1  0.2886681E-010  0.4778727E+02  0.7816164E-02  0.1312668E+00
        -11   -1    0    0    0    0  0.00000000000E+00  0.00000000000E+00  0.45593999997E+02  0.45594000000E+02  0.51100000000E-03 0. -1.
         11   -1    0    0    0    0 -0.00000000000E+00 -0.00000000000E+00 -0.45593999997E+02  0.45594000000E+02  0.51100000000E-03 0.  1.
    9900012    2    1    2    0    0 -0.25286920278E+02  0.35108957727E+02 -0.33994008849E+01  0.47787272169E+02  0.20000005129E+02 0.  0.
        -12    1    1    2    0    0  0.25286920278E+02 -0.35108957727E+02  0.33994008849E+01  0.43400727831E+02  0.00000000000E+00 0.  1.
         11    1    3    3    0    0 -0.86271818344E+01  0.10890463003E+02  0.70522598824E+01  0.15580912057E+02  0.51100000000E-03 0. -1.
        -11    1    3    3    0    0 -0.13534266059E+02  0.14841553083E+02 -0.42283855391E+01  0.20526258797E+02  0.51100000000E-03 0.  1.
         12    1    3    3    0    0 -0.31254723855E+01  0.93769416413E+01 -0.62232752281E+01  0.11680101316E+02  0.00000000000E+00 0. -1.
</event>
<event>
 7    1  0.2886681E-010  0.4778728E+02  0.7816164E-02  0.1312668E+00
        -11   -1    0    0    0    0  0.00000000000E+00  0.00000000000E+00  0.45593999997E+02  0.45594000000E+02  0.51100000000E-03 0.  1.
         11   -1    0    0    0    0 -0.00000000000E+00 -0.00000000000E+00 -0.45593999997E+02  0.45594000000E+02  0.51100000000E-03 0. -1.
    9900012    2    1    2    0    0  0.29909875153E+02 -0.75330105678E+00 -0.31439693685E+02  0.47787280729E+02  0.20000044157E+02 0.  0.
        -12    1    1    2    0    0 -0.29909875153E+02  0.75330105678E+00  0.31439693685E+02  0.43400719271E+02  0.00000000000E+00 0.  1.
         11    1    3    3    0    0 -0.20404219536E+01  0.17143774000E+01 -0.32241340066E+01  0.41829955740E+01  0.51100000000E-03 0. -1.
        -11    1    3    3    0    0  0.92010055855E+01 -0.36806332312E+01 -0.50842311593E+01  0.11137996746E+02  0.51100000000E-03 0.  1.
         12    1    3    3    0    0  0.22749291522E+02  0.12129547744E+01 -0.23131328520E+02  0.32466288410E+02  0.00000000000E+00 0. -1.
</event>
<event>
 7    1  0.2886681E-010  0.4778727E+02  0.7816164E-02  0.1312668E+00
        -11   -1    0    0    0    0  0.00000000000E+00  0.00000000000E+00  0.45593999997E+02  0.45594000000E+02  0.51100000000E-03 0.  1.
         11   -1    0    0    0    0 -0.00000000000E+00 -0.00000000000E+00 -0.45593999997E+02  0.45594000000E+02  0.51100000000E-03 0. -1.
    9900012    2    1    2    0    0  0.21074090462E+02  0.11772945637E+01 -0.37922551982E+02  0.47787271203E+02  0.20000000725E+02 0.  0.
        -12    1    1    2    0    0 -0.21074090462E+02 -0.11772945637E+01  0.37922551982E+02  0.43400728797E+02  0.00000000000E+00 0.  1.
         11    1    3    3    0    0 -0.16871812555E+01 -0.78906736508E+00  0.66092534719E+00  0.19763680000E+01  0.51100000000E-03 0. -1.
        -11    1    3    3    0    0  0.10508219544E+02 -0.23664273166E+01 -0.11420061552E+02  0.15698422288E+02  0.51100000000E-03 0.  1.
         12    1    3    3    0    0  0.12253052173E+02  0.43327892454E+01 -0.27163415777E+02  0.30112480915E+02  0.00000000000E+00 0. -1.
</event>
<event>
 7    1  0.2886681E-010  0.4778728E+02  0.7816164E-02  0.1312668E+00
        -11   -1    0    0    0    0  0.00000000000E+00  0.00000000000E+00  0.45593999997E+02  0.45594000000E+02  0.51100000000E-03 0.  1.
         11   -1    0    0    0    0 -0.00000000000E+00 -0.00000000000E+00 -0.45593999997E+02  0.45594000000E+02  0.51100000000E-03 0. -1.
    9900012    2    1    2    0    0  0.21642531675E+02  0.79087770842E+01 -0.36778728743E+02  0.47787276270E+02  0.20000023828E+02 0.  0.
        -12    1    1    2    0    0 -0.21642531675E+02 -0.79087770842E+01  0.36778728743E+02  0.43400723730E+02  0.00000000000E+00 0.  1.
         11    1    3    3    0    0  0.35351950002E+01 -0.14403817749E+01 -0.11059576918E+02  0.11699852358E+02  0.51100000000E-03 0. -1.
        -11    1    3    3    0    0  0.41004234287E+01  0.97095431705E+01 -0.67936201001E+01  0.12539616230E+02  0.51100000000E-03 0.  1.
        -12    1    3    3    0    0  0.14006913246E+02 -0.36038431128E+00 -0.18925531725E+02  0.23547807682E+02  0.00000000000E+00 0.  1.
</event>
<event>
 7    1  0.2886681E-010  0.4778728E+02  0.7816164E-02  0.1312668E+00
        -11   -1    0    0    0    0  0.00000000000E+00  0.00000000000E+00  0.45593999997E+02  0.45594000000E+02  0.51100000000E-03 0.  1.
         11   -1    0    0    0    0 -0.00000000000E+00 -0.00000000000E+00 -0.45593999997E+02  0.45594000000E+02  0.51100000000E-03 0. -1.
    9900012    2    1    2    0    0  0.25892121349E+02  0.50118771484E+00 -0.34827709547E+02  0.47787280082E+02  0.20000041206E+02 0.  0.
        -12    1    1    2    0    0 -0.25892121349E+02 -0.50118771484E+00  0.34827709547E+02  0.43400719918E+02  0.00000000000E+00 0.  1.
         11    1    3    3    0    0 -0.70464305601E+00 -0.11865762033E+01  0.17255306285E+01  0.22095115147E+01  0.51100000000E-03 0.  1.
        -11    1    3    3    0    0  0.23943623660E+02  0.29403597123E+01 -0.30829746041E+02  0.39146086272E+02  0.51100000000E-03 0. -1.
        -12    1    3    3    0    0  0.26531407456E+01 -0.12525957942E+01 -0.57234941347E+01  0.64316822955E+01  0.00000000000E+00 0.  1.
</event>
<event>
 7    1  0.2886681E-010  0.4778727E+02  0.7816164E-02  0.1312668E+00
        -11   -1    0    0    0    0  0.00000000000E+00  0.00000000000E+00  0.45593999997E+02  0.45594000000E+02  0.51100000000E-03 0. -1.
         11   -1    0    0    0    0 -0.00000000000E+00 -0.00000000000E+00 -0.45593999997E+02  0.45594000000E+02  0.51100000000E-03 0.  1.
    9900012    2    1    2    0    0 -0.70731490924E+01  0.29960610187E+02  0.30593389076E+02  0.47787273554E+02  0.20000011443E+02 0.  0.
        -12    1    1    2    0    0  0.70731490924E+01 -0.29960610187E+02 -0.30593389076E+02  0.43400726446E+02  0.00000000000E+00 0.  1.
         11    1    3    3    0    0 -0.11709153828E+02  0.13947700039E+02  0.11570763027E+02  0.21576032468E+02  0.51100000000E-03 0. -1.
        -11    1    3    3    0    0  0.44560849091E+01  0.57451246618E+01  0.10972126672E+02  0.13162473706E+02  0.51100000000E-03 0.  1.
        -12    1    3    3    0    0  0.17991982663E+00  0.10267785486E+02  0.80504993772E+01  0.13048767380E+02  0.00000000000E+00 0.  1.
</event>
<event>
 7    1  0.2886681E-010  0.4778728E+02  0.7816164E-02  0.1312668E+00
        -11   -1    0    0    0    0  0.00000000000E+00  0.00000000000E+00  0.45593999997E+02  0.45594000000E+02  0.51100000000E-03 0.  1.
         11   -1    0    0    0    0 -0.00000000000E+00 -0.00000000000E+00 -0.45593999997E+02  0.45594000000E+02  0.51100000000E-03 0. -1.
    9900012    2    1    2    0    0 -0.26258767958E+02  0.36470418270E+01 -0.34362749884E+02  0.47787281246E+02  0.20000046512E+02 0.  0.
        -12    1    1    2    0    0  0.26258767958E+02 -0.36470418270E+01  0.34362749884E+02  0.43400718754E+02  0.00000000000E+00 0.  1.
         11    1    3    3    0    0 -0.19161071344E+02 -0.54078859760E+01 -0.22604563342E+02  0.30122386524E+02  0.51100000000E-03 0. -1.
        -11    1    3    3    0    0 -0.55878752503E+01  0.80285800138E+01 -0.56642529518E+01  0.11303371560E+02  0.51100000000E-03 0.  1.
         12    1    3    3    0    0 -0.15098213641E+01  0.10263477891E+01 -0.60939335904E+01  0.63615231619E+01  0.00000000000E+00 0. -1.
</event>
<event>
 7    1  0.2886681E-010  0.4778727E+02  0.7816164E-02  0.1312668E+00
        -11   -1    0    0    0    0  0.00000000000E+00  0.00000000000E+00  0.45593999997E+02  0.45594000000E+02  0.51100000000E-03 0.  1.
         11   -1    0    0    0    0 -0.00000000000E+00 -0.00000000000E+00 -0.45593999997E+02  0.45594000000E+02  0.51100000000E-03 0. -1.
    9900012    2    1    2    0    0 -0.30641206037E+02 -0.30667300448E+02 -0.20631928850E+01  0.47787267413E+02  0.19999983443E+02 0.  0.
        -12    1    1    2    0    0  0.30641206037E+02  0.30667300448E+02  0.20631928850E+01  0.43400732587E+02  0.00000000000E+00 0.  1.
         11    1    3    3    0    0 -0.48669548656E+01 -0.18210799120E+02 -0.24295820077E+01  0.19005876019E+02  0.51100000000E-03 0. -1.
        -11    1    3    3    0    0 -0.16646816547E+02 -0.69151459737E+01  0.12351997157E+01  0.18068244618E+02  0.51100000000E-03 0.  1.
        -12    1    3    3    0    0 -0.91274346248E+01 -0.55413553545E+01 -0.86881059302E+00  0.10713146776E+02  0.00000000000E+00 0.  1.
</event>
<event>
 7    1  0.2886681E-010  0.4778733E+02  0.7816164E-02  0.1312667E+00
        -11   -1    0    0    0    0  0.00000000000E+00  0.00000000000E+00  0.45593999997E+02  0.45594000000E+02  0.51100000000E-03 0. -1.
         11   -1    0    0    0    0 -0.00000000000E+00 -0.00000000000E+00 -0.45593999997E+02  0.45594000000E+02  0.51100000000E-03 0.  1.
    9900012    2    1    2    0    0  0.54738289661E+01 -0.42871858906E+02 -0.39571337655E+01  0.47787331834E+02  0.20000277161E+02 0.  0.
        -12    1    1    2    0    0 -0.54738289661E+01  0.42871858906E+02  0.39571337655E+01  0.43400668166E+02  0.00000000000E+00 0.  1.
         11    1    3    3    0    0  0.10318350088E+02 -0.19720215717E+02 -0.36109535360E+01  0.22547599476E+02  0.51100000000E-03 0. -1.
        -11    1    3    3    0    0 -0.31335360487E+01 -0.24415956113E+01 -0.18953697582E+01  0.44014615845E+01  0.51100000000E-03 0.  1.
         12    1    3    3    0    0 -0.17109850729E+01 -0.20710047578E+02  0.15491895288E+01  0.20838270773E+02  0.00000000000E+00 0. -1.
</event>
<event>
 7    1  0.2886681E-010  0.4778727E+02  0.7816164E-02  0.1312668E+00
        -11   -1    0    0    0    0  0.00000000000E+00  0.00000000000E+00  0.45593999997E+02  0.45594000000E+02  0.51100000000E-03 0.  1.
         11   -1    0    0    0    0 -0.00000000000E+00 -0.00000000000E+00 -0.45593999997E+02  0.45594000000E+02  0.51100000000E-03 0. -1.
    9900012    2    1    2    0    0 -0.75252891836E+01  0.36065680701E+01 -0.42590912001E+02  0.47787273098E+02  0.20000009363E+02 0.  0.
        -12    1    1    2    0    0  0.75252891836E+01 -0.36065680701E+01  0.42590912001E+02  0.43400726902E+02  0.00000000000E+00 0.  1.
         11    1    3    3    0    0  0.10367156669E+01 -0.46367401912E+01 -0.49432223470E+01  0.68563537254E+01  0.51100000000E-03 0. -1.
        -11    1    3    3    0    0 -0.10932899112E+02  0.50030558715E+01 -0.29161224525E+02  0.31542604000E+02  0.51100000000E-03 0.  1.
         12    1    3    3    0    0  0.23708942617E+01  0.32402523898E+01 -0.84864651287E+01  0.93883153723E+01  0.00000000000E+00 0. -1.
</event>
<event>
 7    1  0.2886681E-010  0.4778727E+02  0.7816164E-02  0.1312668E+00
        -11   -1    0    0    0    0  0.00000000000E+00  0.00000000000E+00  0.45593999997E+02  0.45594000000E+02  0.51100000000E-03 0. -1.
         11   -1    0    0    0    0 -0.00000000000E+00 -0.00000000000E+00 -0.45593999997E+02  0.45594000000E+02  0.51100000000E-03 0.  1.
    9900012    2    1    2    0    0  0.18683502005E+02 -0.39165325263E+02  0.79219267243E+00  0.47787268216E+02  0.19999987103E+02 0.  0.
        -12    1    1    2    0    0 -0.18683502005E+02  0.39165325263E+02 -0.79219267243E+00  0.43400731784E+02  0.00000000000E+00 0.  1.
         11    1    3    3    0    0  0.20866610755E+02 -0.26389191948E+02  0.26074598615E+01  0.33743202920E+02  0.51100000000E-03 0. -1.
        -11    1    3    3    0    0 -0.19586529405E+01 -0.11795861271E+01 -0.70338636643E+00  0.23921742023E+01  0.51100000000E-03 0.  1.
         12    1    3    3    0    0 -0.22445580938E+00 -0.11596547188E+02 -0.11118808227E+01  0.11651891094E+02  0.00000000000E+00 0. -1.
</event>
<event>
 7    1  0.2886681E-010  0.4778727E+02  0.7816164E-02  0.1312668E+00
        -11   -1    0    0    0    0  0.00000000000E+00  0.00000000000E+00  0.45593999997E+02  0.45594000000E+02  0.51100000000E-03 0.  1.
         11   -1    0    0    0    0 -0.00000000000E+00 -0.00000000000E+00 -0.45593999997E+02  0.45594000000E+02  0.51100000000E-03 0. -1.
    9900012    2    1    2    0    0  0.98512747118E+01 -0.39090761219E+01 -0.42086756250E+02  0.47787267965E+02  0.19999985959E+02 0.  0.
        -12    1    1    2    0    0 -0.98512747118E+01  0.39090761219E+01  0.42086756250E+02  0.43400732035E+02  0.00000000000E+00 0.  1.
         11    1    3    3    0    0 -0.30109191103E+01 -0.60847644100E+01 -0.96880057370E+01  0.11829938598E+02  0.51100000000E-03 0. -1.
        -11    1    3    3    0    0  0.37154481502E+01  0.37291776468E+01 -0.18592495745E+02  0.19323359418E+02  0.51100000000E-03 0.  1.
         12    1    3    3    0    0  0.91467456720E+01 -0.15534893588E+01 -0.13806254767E+02  0.16633969949E+02  0.00000000000E+00 0. -1.
</event>
<event>
 7    1  0.2886681E-010  0.4778728E+02  0.7816164E-02  0.1312668E+00
        -11   -1    0    0    0    0  0.00000000000E+00  0.00000000000E+00  0.45593999997E+02  0.45594000000E+02  0.51100000000E-03 0. -1.
         11   -1    0    0    0    0 -0.00000000000E+00 -0.00000000000E+00 -0.45593999997E+02  0.45594000000E+02  0.51100000000E-03 0.  1.
    9900012    2    1    2    0    0  0.32180969140E+02  0.24832356706E+02  0.15210582729E+02  0.47787279484E+02  0.20000038479E+02 0.  0.
        -12    1    1    2    0    0 -0.32180969140E+02 -0.24832356706E+02 -0.15210582729E+02  0.43400720516E+02  0.00000000000E+00 0.  1.
         11    1    3    3    0    0  0.59411309440E+01  0.62250500992E+01  0.33668821985E+00  0.86117155578E+01  0.51100000000E-03 0. -1.
        -11    1    3    3    0    0  0.12840602581E+01  0.87243494610E+01  0.76383388793E+00  0.88513573385E+01  0.51100000000E-03 0.  1.
        -12    1    3    3    0    0  0.24955777938E+02  0.98829571455E+01  0.14110060621E+02  0.30324206588E+02  0.00000000000E+00 0.  1.
</event>
<event>
 7    1  0.2886681E-010  0.4778728E+02  0.7816164E-02  0.1312668E+00
        -11   -1    0    0    0    0  0.00000000000E+00  0.00000000000E+00  0.45593999997E+02  0.45594000000E+02  0.51100000000E-03 0.  1.
         11   -1    0    0    0    0 -0.00000000000E+00 -0.00000000000E+00 -0.45593999997E+02  0.45594000000E+02  0.51100000000E-03 0. -1.
    9900012    2    1    2    0    0 -0.67902930472E+01 -0.16410043558E+02 -0.39600819302E+02  0.47787279976E+02  0.20000040721E+02 0.  0.
        -12    1    1    2    0    0  0.67902930472E+01  0.16410043558E+02  0.39600819302E+02  0.43400720024E+02  0.00000000000E+00 0.  1.
         11    1    3    3    0    0 -0.66876770400E+01 -0.50480390974E+01 -0.74226012414E+01  0.11193870303E+02  0.51100000000E-03 0. -1.
        -11    1    3    3    0    0  0.31291774322E+01 -0.28379681730E+01 -0.23928804420E+02  0.24298837338E+02  0.51100000000E-03 0.  1.
        -12    1    3    3    0    0 -0.32317934395E+01 -0.85240362878E+01 -0.82494136411E+01  0.12294572335E+02  0.00000000000E+00 0.  1.
</event>
<event>
 7    1  0.2886681E-010  0.4778728E+02  0.7816164E-02  0.1312668E+00
        -11   -1    0    0    0    0  0.00000000000E+00  0.00000000000E+00  0.45593999997E+02  0.45594000000E+02  0.51100000000E-03 0. -1.
         11   -1    0    0    0    0 -0.00000000000E+00 -0.00000000000E+00 -0.45593999997E+02  0.45594000000E+02  0.51100000000E-03 0.  1.
    9900012    2    1    2    0    0 -0.34686919757E+02  0.24134933238E+02  0.98967390396E+01  0.47787275948E+02  0.20000022357E+02 0.  0.
        -12    1    1    2    0    0  0.34686919757E+02 -0.24134933238E+02 -0.98967390396E+01  0.43400724052E+02  0.00000000000E+00 0.  1.
         11    1    3    3    0    0 -0.22555974466E+01  0.15062380610E+01  0.53592162051E+01  0.60064691401E+01  0.51100000000E-03 0. -1.
        -11    1    3    3    0    0 -0.31763008165E+02  0.19976108235E+02  0.13035560354E+01  0.37545077527E+02  0.51100000000E-03 0.  1.
        -12    1    3    3    0    0 -0.66831414522E+00  0.26525869425E+01  0.32339667991E+01  0.42357292810E+01  0.00000000000E+00 0.  1.
</event>
<event>
 7    1  0.2886681E-010  0.4778727E+02  0.7816164E-02  0.1312668E+00
        -11   -1    0    0    0    0  0.00000000000E+00  0.00000000000E+00  0.45593999997E+02  0.45594000000E+02  0.51100000000E-03 0.  1.
         11   -1    0    0    0    0 -0.00000000000E+00 -0.00000000000E+00 -0.45593999997E+02  0.45594000000E+02  0.51100000000E-03 0. -1.
    9900012    2    1    2    0    0  0.40419883475E+02 -0.10047501792E+02 -0.12202624597E+02  0.47787270520E+02  0.19999997608E+02 0.  0.
        -12    1    1    2    0    0 -0.40419883475E+02  0.10047501792E+02  0.12202624597E+02  0.43400729480E+02  0.00000000000E+00 0.  1.
         11    1    3    3    0    0  0.14599164283E+02 -0.71584567501E+01  0.22414273248E+00  0.16261283499E+02  0.51100000000E-03 0. -1.
        -11    1    3    3    0    0  0.83264983970E+01 -0.13503051743E+00 -0.10947178652E+02  0.13754618479E+02  0.51100000000E-03 0.  1.
        -12    1    3    3    0    0  0.17494220794E+02 -0.27540145243E+01 -0.14795886782E+01  0.17771368542E+02  0.00000000000E+00 0.  1.
</event>
<event>
 7    1  0.2886681E-010  0.4778727E+02  0.7816164E-02  0.1312668E+00
        -11   -1    0    0    0    0  0.00000000000E+00  0.00000000000E+00  0.45593999997E+02  0.45594000000E+02  0.51100000000E-03 0.  1.
         11   -1    0    0    0    0 -0.00000000000E+00 -0.00000000000E+00 -0.45593999997E+02  0.45594000000E+02  0.51100000000E-03 0. -1.
    9900012    2    1    2    0    0  0.30831464212E+01  0.41673135276E+02 -0.11724648412E+02  0.47787269868E+02  0.19999994638E+02 0.  0.
        -12    1    1    2    0    0 -0.30831464212E+01 -0.41673135276E+02  0.11724648412E+02  0.43400730132E+02  0.00000000000E+00 0.  1.
         11    1    3    3    0    0  0.22426348433E+01  0.24715140019E+02 -0.33953488467E+00  0.24819001620E+02  0.51100000000E-03 0. -1.
        -11    1    3    3    0    0  0.39020119275E+01  0.32176874350E+01 -0.61182189983E+01  0.79379980779E+01  0.51100000000E-03 0.  1.
         12    1    3    3    0    0 -0.30615003496E+01  0.13740307821E+02 -0.52668945292E+01  0.15030270171E+02  0.00000000000E+00 0. -1.
</event>
<event>
 7    1  0.2886681E-010  0.4778727E+02  0.7816164E-02  0.1312668E+00
        -11   -1    0    0    0    0  0.00000000000E+00  0.00000000000E+00  0.45593999997E+02  0.45594000000E+02  0.51100000000E-03 0.  1.
         11   -1    0    0    0    0 -0.00000000000E+00 -0.00000000000E+00 -0.45593999997E+02  0.45594000000E+02  0.51100000000E-03 0. -1.
    9900012    2    1    2    0    0  0.74246663738E+01  0.22034915560E+02 -0.36646419888E+02  0.47787271145E+02  0.20000000459E+02 0.  0.
        -12    1    1    2    0    0 -0.74246663738E+01 -0.22034915560E+02  0.36646419888E+02  0.43400728855E+02  0.00000000000E+00 0.  1.
         11    1    3    3    0    0 -0.35167629708E+01  0.15198603304E+02 -0.21537624108E+02  0.26593879308E+02  0.51100000000E-03 0. -1.
        -11    1    3    3    0    0  0.93910846737E+01  0.23288430145E+01 -0.12340048539E+02  0.15680968699E+02  0.51100000000E-03 0.  1.
        -12    1    3    3    0    0  0.15503446709E+01  0.45074692416E+01 -0.27687472406E+01  0.55124231373E+01  0.00000000000E+00 0.  1.
</event>
<event>
 7    1  0.2886681E-010  0.4778727E+02  0.7816164E-02  0.1312668E+00
        -11   -1    0    0    0    0  0.00000000000E+00  0.00000000000E+00  0.45593999997E+02  0.45594000000E+02  0.51100000000E-03 0.  1.
         11   -1    0    0    0    0 -0.00000000000E+00 -0.00000000000E+00 -0.45593999997E+02  0.45594000000E+02  0.51100000000E-03 0. -1.
    9900012    2    1    2    0    0  0.14692533491E+02  0.37134123495E+02  0.16994399984E+02  0.47787270755E+02  0.19999998683E+02 0.  0.
        -12    1    1    2    0    0 -0.14692533491E+02 -0.37134123495E+02 -0.16994399984E+02  0.43400729245E+02  0.00000000000E+00 0.  1.
         11    1    3    3    0    0  0.43108274070E+01  0.97323573287E+01  0.24315714449E+01  0.10918541664E+02  0.51100000000E-03 0.  1.
        -11    1    3    3    0    0  0.13870359116E+02  0.25508398747E+02  0.15317644292E+02  0.32828272808E+02  0.51100000000E-03 0. -1.
        -12    1    3    3    0    0 -0.34886530320E+01  0.18933674193E+01 -0.75481575243E+00  0.40404562839E+01  0.00000000000E+00 0.  1.
</event>
<event>
 7    1  0.2886681E-010  0.4778728E+02  0.7816164E-02  0.1312668E+00
        -11   -1    0    0    0    0  0.00000000000E+00  0.00000000000E+00  0.45593999997E+02  0.45594000000E+02  0.51100000000E-03 0. -1.
         11   -1    0    0    0    0 -0.00000000000E+00 -0.00000000000E+00 -0.45593999997E+02  0.45594000000E+02  0.51100000000E-03 0.  1.
    9900012    2    1    2    0    0  0.25320554233E+02 -0.22215053529E+02 -0.27367569078E+02  0.47787275269E+02  0.20000019260E+02 0.  0.
        -12    1    1    2    0    0 -0.25320554233E+02  0.22215053529E+02  0.27367569078E+02  0.43400724731E+02  0.00000000000E+00 0.  1.
         11    1    3    3    0    0  0.15472942830E+02 -0.56565967060E+01 -0.67828130984E+01  0.17816161200E+02  0.51100000000E-03 0. -1.
        -11    1    3    3    0    0  0.68724685791E+01 -0.14342368408E+02 -0.20882885200E+02  0.26249366668E+02  0.51100000000E-03 0.  1.
        -12    1    3    3    0    0  0.29751428238E+01 -0.22160884153E+01  0.29812922005E+00  0.37217474012E+01  0.00000000000E+00 0.  1.
</event>
<event>
 7    1  0.2886681E-010  0.4778727E+02  0.7816164E-02  0.1312668E+00
        -11   -1    0    0    0    0  0.00000000000E+00  0.00000000000E+00  0.45593999997E+02  0.45594000000E+02  0.51100000000E-03 0. -1.
         11   -1    0    0    0    0 -0.00000000000E+00 -0.00000000000E+00 -0.45593999997E+02  0.45594000000E+02  0.51100000000E-03 0.  1.
    9900012    2    1    2    0    0 -0.24143738867E+02  0.23689567421E+02  0.27193887972E+02  0.47787271042E+02  0.19999999989E+02 0.  0.
        -12    1    1    2    0    0  0.24143738867E+02 -0.23689567421E+02 -0.27193887972E+02  0.43400728958E+02  0.00000000000E+00 0.  1.
         11    1    3    3    0    0  0.22132913167E+01 -0.23443095500E+00  0.29627387330E+01  0.37055954159E+01  0.51100000000E-03 0. -1.
        -11    1    3    3    0    0 -0.17231653962E+02  0.21083696014E+02  0.17049016818E+02  0.32126641757E+02  0.51100000000E-03 0.  1.
         12    1    3    3    0    0 -0.91253762213E+01  0.28403023620E+01  0.71821324212E+01  0.11955033869E+02  0.00000000000E+00 0. -1.
</event>
<event>
 7    1  0.2886681E-010  0.4778727E+02  0.7816164E-02  0.1312668E+00
        -11   -1    0    0    0    0  0.00000000000E+00  0.00000000000E+00  0.45593999997E+02  0.45594000000E+02  0.51100000000E-03 0. -1.
         11   -1    0    0    0    0 -0.00000000000E+00 -0.00000000000E+00 -0.45593999997E+02  0.45594000000E+02  0.51100000000E-03 0.  1.
    9900012    2    1    2    0    0  0.34038534548E+02  0.30288177400E+01  0.26754959867E+02  0.47787269032E+02  0.19999990824E+02 0.  0.
        -12    1    1    2    0    0 -0.34038534548E+02 -0.30288177400E+01 -0.26754959867E+02  0.43400730968E+02  0.00000000000E+00 0.  1.
         11    1    3    3    0    0  0.30465203299E+02 -0.98501341656E+00  0.18682936938E+02  0.35751237690E+02  0.51100000000E-03 0. -1.
        -11    1    3    3    0    0 -0.31019420140E+00  0.49242534754E+01  0.46659579795E+01  0.67908509673E+01  0.51100000000E-03 0.  1.
        -12    1    3    3    0    0  0.38835254506E+01 -0.91042231884E+00  0.34060649491E+01  0.52451803746E+01  0.00000000000E+00 0.  1.
</event>
<event>
 7    1  0.2886681E-010  0.4778729E+02  0.7816164E-02  0.1312668E+00
        -11   -1    0    0    0    0  0.00000000000E+00  0.00000000000E+00  0.45593999997E+02  0.45594000000E+02  0.51100000000E-03 0.  1.
         11   -1    0    0    0    0 -0.00000000000E+00 -0.00000000000E+00 -0.45593999997E+02  0.45594000000E+02  0.51100000000E-03 0. -1.
    9900012    2    1    2    0    0  0.63023769437E+01 -0.14417246310E+02 -0.40448044439E+02  0.47787294416E+02  0.20000106559E+02 0.  0.
        -12    1    1    2    0    0 -0.63023769437E+01  0.14417246310E+02  0.40448044439E+02  0.43400705584E+02  0.00000000000E+00 0.  1.
         11    1    3    3    0    0  0.78176867057E+01 -0.13834737540E+02 -0.20262703311E+02  0.25750598711E+02  0.51100000000E-03 0. -1.
        -11    1    3    3    0    0 -0.47056121217E+01 -0.22394341934E+01 -0.10967236614E+02  0.12142410393E+02  0.51100000000E-03 0.  1.
         12    1    3    3    0    0  0.31903023597E+01  0.16569254240E+01 -0.92181045135E+01  0.98942853117E+01  0.00000000000E+00 0. -1.
</event>
<event>
 7    1  0.2886681E-010  0.4778727E+02  0.7816164E-02  0.1312668E+00
        -11   -1    0    0    0    0  0.00000000000E+00  0.00000000000E+00  0.45593999997E+02  0.45594000000E+02  0.51100000000E-03 0.  1.
         11   -1    0    0    0    0 -0.00000000000E+00 -0.00000000000E+00 -0.45593999997E+02  0.45594000000E+02  0.51100000000E-03 0. -1.
    9900012    2    1    2    0    0 -0.11697302298E+02 -0.12440423763E+02 -0.39900277948E+02  0.47787271840E+02  0.20000003628E+02 0.  0.
        -12    1    1    2    0    0  0.11697302298E+02  0.12440423763E+02  0.39900277948E+02  0.43400728160E+02  0.00000000000E+00 0.  1.
         11    1    3    3    0    0 -0.31532178744E+01 -0.43453571824E+01 -0.17931670517E+02  0.18718165503E+02  0.51100000000E-03 0. -1.
        -11    1    3    3    0    0 -0.10249925647E+02 -0.10449548131E+02 -0.12780026542E+02  0.19431497899E+02  0.51100000000E-03 0.  1.
        -12    1    3    3    0    0  0.17058412242E+01  0.23544815502E+01 -0.91885808898E+01  0.96376084389E+01  0.00000000000E+00 0.  1.
</event>
<event>
 7    1  0.2886681E-010  0.4778728E+02  0.7816164E-02  0.1312668E+00
        -11   -1    0    0    0    0  0.00000000000E+00  0.00000000000E+00  0.45593999997E+02  0.45594000000E+02  0.51100000000E-03 0.  1.
         11   -1    0    0    0    0 -0.00000000000E+00 -0.00000000000E+00 -0.45593999997E+02  0.45594000000E+02  0.51100000000E-03 0. -1.
    9900012    2    1    2    0    0  0.14570750674E+02  0.52700520523E-01 -0.40881697053E+02  0.47787277581E+02  0.20000029804E+02 0.  0.
        -12    1    1    2    0    0 -0.14570750674E+02 -0.52700520523E-01  0.40881697053E+02  0.43400722419E+02  0.00000000000E+00 0.  1.
         11    1    3    3    0    0  0.53330417302E+01  0.44174706573E+01 -0.29350181622E+02  0.30156069747E+02  0.51100000000E-03 0. -1.
        -11    1    3    3    0    0  0.90117401646E+00 -0.41783207898E+01 -0.13749168516E+01  0.44900863956E+01  0.51100000000E-03 0.  1.
        -12    1    3    3    0    0  0.83365349275E+01 -0.18644934700E+00 -0.10156598579E+02  0.13141121438E+02  0.00000000000E+00 0.  1.
</event>
<event>
 7    1  0.2886681E-010  0.4778727E+02  0.7816164E-02  0.1312668E+00
        -11   -1    0    0    0    0  0.00000000000E+00  0.00000000000E+00  0.45593999997E+02  0.45594000000E+02  0.51100000000E-03 0.  1.
         11   -1    0    0    0    0 -0.00000000000E+00 -0.00000000000E+00 -0.45593999997E+02  0.45594000000E+02  0.51100000000E-03 0. -1.
    9900012    2    1    2    0    0 -0.24767514659E+02  0.12870506080E+02 -0.33234676562E+02  0.47787269184E+02  0.19999991517E+02 0.  0.
        -12    1    1    2    0    0  0.24767514659E+02 -0.12870506080E+02  0.33234676562E+02  0.43400730816E+02  0.00000000000E+00 0.  1.
         11    1    3    3    0    0 -0.17038169779E+02  0.56018175788E+01 -0.86633969762E+01  0.19918183577E+02  0.51100000000E-03 0. -1.
        -11    1    3    3    0    0  0.78914354931E-01  0.26419955105E+01 -0.12443951010E+02  0.12721567700E+02  0.51100000000E-03 0.  1.
         12    1    3    3    0    0 -0.78082592358E+01  0.46266929912E+01 -0.12127328576E+02  0.15147517906E+02  0.00000000000E+00 0. -1.
</event>
<event>
 7    1  0.2886681E-010  0.4778727E+02  0.7816164E-02  0.1312668E+00
        -11   -1    0    0    0    0  0.00000000000E+00  0.00000000000E+00  0.45593999997E+02  0.45594000000E+02  0.51100000000E-03 0.  1.
         11   -1    0    0    0    0 -0.00000000000E+00 -0.00000000000E+00 -0.45593999997E+02  0.45594000000E+02  0.51100000000E-03 0. -1.
    9900012    2    1    2    0    0  0.42443781553E+02  0.52265481715E+01 -0.74048553111E+01  0.47787270968E+02  0.19999999652E+02 0.  0.
        -12    1    1    2    0    0 -0.42443781553E+02 -0.52265481715E+01  0.74048553111E+01  0.43400729032E+02  0.00000000000E+00 0.  1.
         11    1    3    3    0    0  0.35337841649E+01  0.50203736468E+01 -0.51344953898E+01  0.80034258444E+01  0.51100000000E-03 0. -1.
        -11    1    3    3    0    0  0.24081151473E+02  0.38092010083E+01 -0.26092731031E+01  0.24519791496E+02  0.51100000000E-03 0.  1.
         12    1    3    3    0    0  0.14828845915E+02 -0.36030264836E+01  0.33891318179E+00  0.15264053628E+02  0.00000000000E+00 0. -1.
</event>
<event>
 7    1  0.2886681E-010  0.4778727E+02  0.7816164E-02  0.1312668E+00
        -11   -1    0    0    0    0  0.00000000000E+00  0.00000000000E+00  0.45593999997E+02  0.45594000000E+02  0.51100000000E-03 0.  1.
         11   -1    0    0    0    0 -0.00000000000E+00 -0.00000000000E+00 -0.45593999997E+02  0.45594000000E+02  0.51100000000E-03 0. -1.
    9900012    2    1    2    0    0 -0.20870463053E+02 -0.12065966966E+02 -0.36089605976E+02  0.47787269056E+02  0.19999990936E+02 0.  0.
        -12    1    1    2    0    0  0.20870463053E+02  0.12065966966E+02  0.36089605976E+02  0.43400730944E+02  0.00000000000E+00 0.  1.
         11    1    3    3    0    0 -0.98903660258E+01 -0.80839316282E+01 -0.73510738049E+01  0.14737963802E+02  0.51100000000E-03 0.  1.
        -11    1    3    3    0    0 -0.10574066331E+02 -0.40763809349E+01 -0.29814375407E+02  0.31895528549E+02  0.51100000000E-03 0. -1.
        -12    1    3    3    0    0 -0.40603069634E+00  0.94345596616E-01  0.10758432350E+01  0.11537767047E+01  0.00000000000E+00 0.  1.
</event>
<event>
 7    1  0.2886681E-010  0.4778726E+02  0.7816164E-02  0.1312668E+00
        -11   -1    0    0    0    0  0.00000000000E+00  0.00000000000E+00  0.45593999997E+02  0.45594000000E+02  0.51100000000E-03 0.  1.
         11   -1    0    0    0    0 -0.00000000000E+00 -0.00000000000E+00 -0.45593999997E+02  0.45594000000E+02  0.51100000000E-03 0. -1.
    9900012    2    1    2    0    0  0.85431256650E+01  0.36946279462E+02 -0.21109512358E+02  0.47787261825E+02  0.19999957964E+02 0.  0.
        -12    1    1    2    0    0 -0.85431256650E+01 -0.36946279462E+02  0.21109512358E+02  0.43400738175E+02  0.00000000000E+00 0.  1.
         11    1    3    3    0    0  0.47623661002E+01  0.19875029395E+02 -0.20194837196E+02  0.28732009570E+02  0.51100000000E-03 0. -1.
        -11    1    3    3    0    0  0.33652782188E+01  0.62961267056E+01  0.27734043766E+01  0.76588563820E+01  0.51100000000E-03 0.  1.
        -12    1    3    3    0    0  0.41548134592E+00  0.10775123361E+02 -0.36880795383E+01  0.11396395873E+02  0.00000000000E+00 0.  1.
</event>
<event>
 7    1  0.2886681E-010  0.4778727E+02  0.7816164E-02  0.1312668E+00
        -11   -1    0    0    0    0  0.00000000000E+00  0.00000000000E+00  0.45593999997E+02  0.45594000000E+02  0.51100000000E-03 0. -1.
         11   -1    0    0    0    0 -0.00000000000E+00 -0.00000000000E+00 -0.45593999997E+02  0.45594000000E+02  0.51100000000E-03 0.  1.
    9900012    2    1    2    0    0  0.42735143287E+02  0.10001434842E+01 -0.75053738714E+01  0.47787269641E+02  0.19999993602E+02 0.  0.
        -12    1    1    2    0    0 -0.42735143287E+02 -0.10001434842E+01  0.75053738714E+01  0.43400730359E+02  0.00000000000E+00 0.  1.
         11    1    3    3    0    0  0.13672127891E+02 -0.39662845296E+01 -0.71014007813E+01  0.15908751911E+02  0.51100000000E-03 0. -1.
        -11    1    3    3    0    0  0.22744307999E+02  0.88622372777E+01 -0.10089985628E+01  0.24430736262E+02  0.51100000000E-03 0.  1.
        -12    1    3    3    0    0  0.63187073966E+01 -0.38958092639E+01  0.60502547279E+00  0.74477814688E+01  0.00000000000E+00 0.  1.
</event>
<event>
 7    1  0.2886681E-010  0.4778726E+02  0.7816164E-02  0.1312668E+00
        -11   -1    0    0    0    0  0.00000000000E+00  0.00000000000E+00  0.45593999997E+02  0.45594000000E+02  0.51100000000E-03 0. -1.
         11   -1    0    0    0    0 -0.00000000000E+00 -0.00000000000E+00 -0.45593999997E+02  0.45594000000E+02  0.51100000000E-03 0.  1.
    9900012    2    1    2    0    0  0.24316711815E+02  0.27381594893E+02  0.23293123193E+02  0.47787264978E+02  0.19999972341E+02 0.  0.
        -12    1    1    2    0    0 -0.24316711815E+02 -0.27381594893E+02 -0.23293123193E+02  0.43400735022E+02  0.00000000000E+00 0.  1.
         11    1    3    3    0    0  0.27173286917E+01  0.47540472969E+01 -0.29262858251E+01  0.62087027559E+01  0.51100000000E-03 0.  1.
        -11    1    3    3    0    0  0.11150803927E+02  0.14700434425E+02  0.19486670072E+02  0.26836048727E+02  0.51100000000E-03 0. -1.
        -12    1    3    3    0    0  0.10448579197E+02  0.79271131711E+01  0.67327389454E+01  0.14742513496E+02  0.00000000000E+00 0.  1.
</event>
<event>
 7    1  0.2886681E-010  0.4778726E+02  0.7816164E-02  0.1312668E+00
        -11   -1    0    0    0    0  0.00000000000E+00  0.00000000000E+00  0.45593999997E+02  0.45594000000E+02  0.51100000000E-03 0. -1.
         11   -1    0    0    0    0 -0.00000000000E+00 -0.00000000000E+00 -0.45593999997E+02  0.45594000000E+02  0.51100000000E-03 0.  1.
    9900012    2    1    2    0    0  0.42661258192E+02  0.78116496859E+01  0.16185290671E+01  0.47787257406E+02  0.19999937817E+02 0.  0.
        -12    1    1    2    0    0 -0.42661258192E+02 -0.78116496859E+01 -0.16185290671E+01  0.43400742594E+02  0.00000000000E+00 0.  1.
         11    1    3    3    0    0  0.30481431743E+02  0.26228944945E+00 -0.34550608186E+01  0.30677743111E+02  0.51100000000E-03 0. -1.
        -11    1    3    3    0    0  0.11517304373E+02  0.76077774562E+01  0.19790270996E+01  0.13944286514E+02  0.51100000000E-03 0.  1.
         12    1    3    3    0    0  0.66252207598E+00 -0.58417219746E-01  0.30945627862E+01  0.31652277817E+01  0.00000000000E+00 0. -1.
</event>
<event>
 7    1  0.2886681E-010  0.4778727E+02  0.7816164E-02  0.1312668E+00
        -11   -1    0    0    0    0  0.00000000000E+00  0.00000000000E+00  0.45593999997E+02  0.45594000000E+02  0.51100000000E-03 0.  1.
         11   -1    0    0    0    0 -0.00000000000E+00 -0.00000000000E+00 -0.45593999997E+02  0.45594000000E+02  0.51100000000E-03 0. -1.
    9900012    2    1    2    0    0  0.21966616270E+02 -0.14660159647E+02 -0.34440833135E+02  0.47787268459E+02  0.19999988214E+02 0.  0.
        -12    1    1    2    0    0 -0.21966616270E+02  0.14660159647E+02  0.34440833135E+02  0.43400731541E+02  0.00000000000E+00 0.  1.
         11    1    3    3    0    0  0.48832105047E+01 -0.10343493583E+02 -0.92650607384E+01  0.14719882985E+02  0.51100000000E-03 0. -1.
        -11    1    3    3    0    0  0.17198475771E+02 -0.45712418064E+00 -0.22690215282E+02  0.28475294576E+02  0.51100000000E-03 0.  1.
        -12    1    3    3    0    0 -0.11507000602E+00 -0.38595418832E+01 -0.24855571147E+01  0.45920908990E+01  0.00000000000E+00 0.  1.
</event>
<event>
 7    1  0.2886681E-010  0.4778727E+02  0.7816164E-02  0.1312668E+00
        -11   -1    0    0    0    0  0.00000000000E+00  0.00000000000E+00  0.45593999997E+02  0.45594000000E+02  0.51100000000E-03 0.  1.
         11   -1    0    0    0    0 -0.00000000000E+00 -0.00000000000E+00 -0.45593999997E+02  0.45594000000E+02  0.51100000000E-03 0. -1.
    9900012    2    1    2    0    0 -0.21499488329E+02  0.36231367323E+02 -0.10425125097E+02  0.47787271783E+02  0.20000003366E+02 0.  0.
        -12    1    1    2    0    0  0.21499488329E+02 -0.36231367323E+02  0.10425125097E+02  0.43400728217E+02  0.00000000000E+00 0.  1.
         11    1    3    3    0    0 -0.19630605900E+02  0.29261796326E+02 -0.11665722284E+02  0.37117414900E+02  0.51100000000E-03 0. -1.
        -11    1    3    3    0    0 -0.51858911969E+00  0.36229752185E+01 -0.32598909128E+01  0.49012011930E+01  0.51100000000E-03 0.  1.
         12    1    3    3    0    0 -0.13502933095E+01  0.33465957782E+01  0.45004880998E+01  0.57686556893E+01  0.00000000000E+00 0. -1.
</event>
<event>
 7    1  0.2886681E-010  0.4778727E+02  0.7816164E-02  0.1312668E+00
        -11   -1    0    0    0    0  0.00000000000E+00  0.00000000000E+00  0.45593999997E+02  0.45594000000E+02  0.51100000000E-03 0.  1.
         11   -1    0    0    0    0 -0.00000000000E+00 -0.00000000000E+00 -0.45593999997E+02  0.45594000000E+02  0.51100000000E-03 0. -1.
    9900012    2    1    2    0    0  0.18568535055E+02  0.20086925817E+02 -0.33694927797E+02  0.47787271410E+02  0.20000001669E+02 0.  0.
        -12    1    1    2    0    0 -0.18568535055E+02 -0.20086925817E+02  0.33694927797E+02  0.43400728590E+02  0.00000000000E+00 0.  1.
         11    1    3    3    0    0  0.14444585584E+02  0.95479611985E+01 -0.15386028794E+02  0.23163322258E+02  0.51100000000E-03 0. -1.
        -11    1    3    3    0    0  0.19816881008E+01  0.83950751847E+01 -0.19534943147E+02  0.21354586840E+02  0.51100000000E-03 0.  1.
        -12    1    3    3    0    0  0.21422613706E+01  0.21438894337E+01  0.12260441443E+01  0.32693623121E+01  0.00000000000E+00 0.  1.
</event>
<event>
 7    1  0.2886681E-010  0.4778727E+02  0.7816164E-02  0.1312668E+00
        -11   -1    0    0    0    0  0.00000000000E+00  0.00000000000E+00  0.45593999997E+02  0.45594000000E+02  0.51100000000E-03 0. -1.
         11   -1    0    0    0    0 -0.00000000000E+00 -0.00000000000E+00 -0.45593999997E+02  0.45594000000E+02  0.51100000000E-03 0.  1.
    9900012    2    1    2    0    0  0.59136379188E+01 -0.16867633620E+02  0.39549147699E+02  0.47787271191E+02  0.20000000670E+02 0.  0.
        -12    1    1    2    0    0 -0.59136379188E+01  0.16867633620E+02 -0.39549147699E+02  0.43400728809E+02  0.00000000000E+00 0.  1.
         11    1    3    3    0    0  0.28360309483E+01 -0.24904912844E+01  0.14404424907E+02  0.14890704333E+02  0.51100000000E-03 0. -1.
        -11    1    3    3    0    0 -0.24543948756E-02  0.32018026228E+01  0.24867607528E+01  0.40540751550E+01  0.51100000000E-03 0.  1.
        -12    1    3    3    0    0  0.30800613654E+01 -0.17578944958E+02  0.22657962040E+02  0.28842491703E+02  0.00000000000E+00 0.  1.
</event>
<event>
 7    1  0.2886681E-010  0.4778727E+02  0.7816164E-02  0.1312668E+00
        -11   -1    0    0    0    0  0.00000000000E+00  0.00000000000E+00  0.45593999997E+02  0.45594000000E+02  0.51100000000E-03 0.  1.
         11   -1    0    0    0    0 -0.00000000000E+00 -0.00000000000E+00 -0.45593999997E+02  0.45594000000E+02  0.51100000000E-03 0. -1.
    9900012    2    1    2    0    0 -0.12492491827E+02  0.38767027658E+02 -0.14989277004E+02  0.47787271774E+02  0.20000003324E+02 0.  0.
        -12    1    1    2    0    0  0.12492491827E+02 -0.38767027658E+02  0.14989277004E+02  0.43400728226E+02  0.00000000000E+00 0.  1.
         11    1    3    3    0    0 -0.12657193713E+00  0.20324542818E+02 -0.18571477916E+00  0.20325785383E+02  0.51100000000E-03 0. -1.
        -11    1    3    3    0    0 -0.87438310553E+01  0.11906262635E+02 -0.60786349542E+01  0.15973837191E+02  0.51100000000E-03 0.  1.
         12    1    3    3    0    0 -0.36220888346E+01  0.65362222057E+01 -0.87249272702E+01  0.11487649199E+02  0.00000000000E+00 0. -1.
</event>
<event>
 7    1  0.2886681E-010  0.4778727E+02  0.7816164E-02  0.1312668E+00
        -11   -1    0    0    0    0  0.00000000000E+00  0.00000000000E+00  0.45593999997E+02  0.45594000000E+02  0.51100000000E-03 0. -1.
         11   -1    0    0    0    0 -0.00000000000E+00 -0.00000000000E+00 -0.45593999997E+02  0.45594000000E+02  0.51100000000E-03 0.  1.
    9900012    2    1    2    0    0 -0.56873633009E+01  0.42229899353E+02  0.82409331673E+01  0.47787268668E+02  0.19999989165E+02 0.  0.
        -12    1    1    2    0    0  0.56873633009E+01 -0.42229899353E+02 -0.82409331673E+01  0.43400731332E+02  0.00000000000E+00 0.  1.
         11    1    3    3    0    0 -0.63938853983E+01  0.26554572911E+02  0.13446332411E+02  0.30443898708E+02  0.51100000000E-03 0. -1.
        -11    1    3    3    0    0  0.17975939087E+01  0.23115674226E+01 -0.20334764175E+01  0.35650686405E+01  0.51100000000E-03 0.  1.
         12    1    3    3    0    0 -0.10910718113E+01  0.13363759020E+02 -0.31719228264E+01  0.13778301320E+02  0.00000000000E+00 0. -1.
</event>
<event>
 7    1  0.2886681E-010  0.4778727E+02  0.7816164E-02  0.1312668E+00
        -11   -1    0    0    0    0  0.00000000000E+00  0.00000000000E+00  0.45593999997E+02  0.45594000000E+02  0.51100000000E-03 0.  1.
         11   -1    0    0    0    0 -0.00000000000E+00 -0.00000000000E+00 -0.45593999997E+02  0.45594000000E+02  0.51100000000E-03 0. -1.
    9900012    2    1    2    0    0 -0.13831328520E+02  0.27732331198E+02 -0.30384789661E+02  0.47787270916E+02  0.19999999414E+02 0.  0.
        -12    1    1    2    0    0  0.13831328520E+02 -0.27732331198E+02  0.30384789661E+02  0.43400729084E+02  0.00000000000E+00 0.  1.
         11    1    3    3    0    0  0.32401538977E-01  0.15418048847E-03  0.20684098836E+01  0.20686637212E+01  0.51100000000E-03 0. -1.
        -11    1    3    3    0    0  0.80649381103E+00  0.27134042614E+01 -0.11797531181E+01  0.30667266969E+01  0.51100000000E-03 0.  1.
         12    1    3    3    0    0 -0.14670223870E+02  0.25018772756E+02 -0.31273446426E+02  0.42651880498E+02  0.00000000000E+00 0. -1.
</event>
<event>
 7    1  0.2886681E-010  0.4778727E+02  0.7816164E-02  0.1312668E+00
        -11   -1    0    0    0    0  0.00000000000E+00  0.00000000000E+00  0.45593999997E+02  0.45594000000E+02  0.51100000000E-03 0.  1.
         11   -1    0    0    0    0 -0.00000000000E+00 -0.00000000000E+00 -0.45593999997E+02  0.45594000000E+02  0.51100000000E-03 0. -1.
    9900012    2    1    2    0    0 -0.91415211552E+01 -0.76400467338E+01 -0.41733504491E+02  0.47787272815E+02  0.20000008071E+02 0.  0.
        -12    1    1    2    0    0  0.91415211552E+01  0.76400467338E+01  0.41733504491E+02  0.43400727185E+02  0.00000000000E+00 0.  1.
         11    1    3    3    0    0 -0.88444170284E+01 -0.34773932610E+01 -0.17958806772E+02  0.20318334514E+02  0.51100000000E-03 0. -1.
        -11    1    3    3    0    0  0.17340324789E+01  0.44152237164E+01 -0.61906022748E+01  0.77990144178E+01  0.51100000000E-03 0.  1.
        -12    1    3    3    0    0 -0.20311366057E+01 -0.85778771893E+01 -0.17584095444E+02  0.19669923883E+02  0.00000000000E+00 0.  1.
</event>
<event>
 7    1  0.2886681E-010  0.4778727E+02  0.7816164E-02  0.1312668E+00
        -11   -1    0    0    0    0  0.00000000000E+00  0.00000000000E+00  0.45593999997E+02  0.45594000000E+02  0.51100000000E-03 0.  1.
         11   -1    0    0    0    0 -0.00000000000E+00 -0.00000000000E+00 -0.45593999997E+02  0.45594000000E+02  0.51100000000E-03 0. -1.
    9900012    2    1    2    0    0 -0.12842959277E+02 -0.37648820551E+02  0.17356494652E+02  0.47787271913E+02  0.20000003961E+02 0.  0.
        -12    1    1    2    0    0  0.12842959277E+02  0.37648820551E+02 -0.17356494652E+02  0.43400728087E+02  0.00000000000E+00 0.  1.
         11    1    3    3    0    0 -0.12771066634E+02 -0.35164278717E+02  0.21212968628E+02  0.43007170087E+02  0.51100000000E-03 0. -1.
        -11    1    3    3    0    0  0.60734283263E+00 -0.15528642102E+01 -0.21545930320E+01  0.27244309436E+01  0.51100000000E-03 0.  1.
         12    1    3    3    0    0 -0.67923547629E+00 -0.93167762424E+00 -0.17018809446E+01  0.20556708826E+01  0.00000000000E+00 0. -1.
</event>
<event>
 7    1  0.2886681E-010  0.4778732E+02  0.7816164E-02  0.1312668E+00
        -11   -1    0    0    0    0  0.00000000000E+00  0.00000000000E+00  0.45593999997E+02  0.45594000000E+02  0.51100000000E-03 0. -1.
         11   -1    0    0    0    0 -0.00000000000E+00 -0.00000000000E+00 -0.45593999997E+02  0.45594000000E+02  0.51100000000E-03 0.  1.
    9900012    2    1    2    0    0 -0.36364938674E+02 -0.22405109910E+02 -0.76955307345E+01  0.47787321340E+02  0.20000229317E+02 0.  0.
        -12    1    1    2    0    0  0.36364938674E+02  0.22405109910E+02  0.76955307345E+01  0.43400678660E+02  0.00000000000E+00 0.  1.
         11    1    3    3    0    0 -0.79902928308E+01 -0.19929543721E+00 -0.62632602304E+01  0.10154453563E+02  0.51100000000E-03 0. -1.
        -11    1    3    3    0    0 -0.97044471515E+01 -0.14325390283E+02  0.17710760288E+00  0.17303885941E+02  0.51100000000E-03 0.  1.
         12    1    3    3    0    0 -0.18670198692E+02 -0.78804241893E+01 -0.16093781069E+01  0.20328981836E+02  0.00000000000E+00 0. -1.
</event>
<event>
 7    1  0.2886681E-010  0.4778725E+02  0.7816164E-02  0.1312668E+00
        -11   -1    0    0    0    0  0.00000000000E+00  0.00000000000E+00  0.45593999997E+02  0.45594000000E+02  0.51100000000E-03 0.  1.
         11   -1    0    0    0    0 -0.00000000000E+00 -0.00000000000E+00 -0.45593999997E+02  0.45594000000E+02  0.51100000000E-03 0. -1.
    9900012    2    1    2    0    0  0.39047131943E+01 -0.88563893392E+01 -0.42307709809E+02  0.47787254309E+02  0.19999923698E+02 0.  0.
        -12    1    1    2    0    0 -0.39047131943E+01  0.88563893392E+01  0.42307709809E+02  0.43400745691E+02  0.00000000000E+00 0.  1.
         11    1    3    3    0    0 -0.68929855278E+01 -0.14379346174E+01 -0.11929417094E+02  0.13852505113E+02  0.51100000000E-03 0. -1.
        -11    1    3    3    0    0  0.94141688185E+01 -0.89833973325E+01 -0.25507456665E+02  0.28634914841E+02  0.51100000000E-03 0.  1.
         12    1    3    3    0    0  0.13835299036E+01  0.15649426108E+01 -0.48708360503E+01  0.52998343557E+01  0.00000000000E+00 0. -1.
</event>
<event>
 7    1  0.2886681E-010  0.4778727E+02  0.7816164E-02  0.1312668E+00
        -11   -1    0    0    0    0  0.00000000000E+00  0.00000000000E+00  0.45593999997E+02  0.45594000000E+02  0.51100000000E-03 0.  1.
         11   -1    0    0    0    0 -0.00000000000E+00 -0.00000000000E+00 -0.45593999997E+02  0.45594000000E+02  0.51100000000E-03 0. -1.
    9900012    2    1    2    0    0  0.18529196932E+02 -0.36463343406E+02 -0.14516089385E+02  0.47787269565E+02  0.19999993255E+02 0.  0.
        -12    1    1    2    0    0 -0.18529196932E+02  0.36463343406E+02  0.14516089385E+02  0.43400730435E+02  0.00000000000E+00 0.  1.
         11    1    3    3    0    0  0.17655631933E+01 -0.13009224859E+02 -0.10076279655E+02  0.16549578749E+02  0.51100000000E-03 0. -1.
        -11    1    3    3    0    0  0.60328586398E+01 -0.10831889381E+02  0.34759238899E+01  0.12876616717E+02  0.51100000000E-03 0.  1.
        -12    1    3    3    0    0  0.10730775099E+02 -0.12622229165E+02 -0.79157336202E+01  0.18361074099E+02  0.00000000000E+00 0.  1.
</event>
<event>
 7    1  0.2886681E-010  0.4778727E+02  0.7816164E-02  0.1312668E+00
        -11   -1    0    0    0    0  0.00000000000E+00  0.00000000000E+00  0.45593999997E+02  0.45594000000E+02  0.51100000000E-03 0. -1.
         11   -1    0    0    0    0 -0.00000000000E+00 -0.00000000000E+00 -0.45593999997E+02  0.45594000000E+02  0.51100000000E-03 0.  1.
    9900012    2    1    2    0    0 -0.11191937856E+02 -0.41932846844E+02 -0.11522320411E-01  0.47787271318E+02  0.20000001246E+02 0.  0.
        -12    1    1    2    0    0  0.11191937856E+02  0.41932846844E+02  0.11522320411E-01  0.43400728682E+02  0.00000000000E+00 0.  1.
         11    1    3    3    0    0 -0.24910254688E+01 -0.35888899183E+02 -0.16454443224E+01  0.36012855757E+02  0.51100000000E-03 0. -1.
        -11    1    3    3    0    0 -0.37187432022E+01 -0.62290124696E+00 -0.10884449194E+01  0.39245088319E+01  0.51100000000E-03 0.  1.
        -12    1    3    3    0    0 -0.49821691847E+01 -0.54210464133E+01  0.27223669214E+01  0.78499067291E+01  0.00000000000E+00 0.  1.
</event>
<event>
 7    1  0.2886681E-010  0.4778727E+02  0.7816164E-02  0.1312668E+00
        -11   -1    0    0    0    0  0.00000000000E+00  0.00000000000E+00  0.45593999997E+02  0.45594000000E+02  0.51100000000E-03 0. -1.
         11   -1    0    0    0    0 -0.00000000000E+00 -0.00000000000E+00 -0.45593999997E+02  0.45594000000E+02  0.51100000000E-03 0.  1.
    9900012    2    1    2    0    0 -0.30281427377E+02  0.40424154924E+00  0.31088502477E+02  0.47787271418E+02  0.20000001701E+02 0.  0.
        -12    1    1    2    0    0  0.30281427377E+02 -0.40424154924E+00 -0.31088502477E+02  0.43400728582E+02  0.00000000000E+00 0.  1.
         11    1    3    3    0    0  0.10442516953E+01  0.16840633728E+01 -0.57282525426E+00  0.20626827385E+01  0.51100000000E-03 0. -1.
        -11    1    3    3    0    0 -0.71269239975E+01 -0.41981010116E+01  0.53106997253E+01  0.98295793197E+01  0.51100000000E-03 0.  1.
         12    1    3    3    0    0 -0.24198755075E+02  0.29182791880E+01  0.26350628006E+02  0.35895009359E+02  0.00000000000E+00 0. -1.
</event>
<event>
 7    1  0.2886681E-010  0.4778727E+02  0.7816164E-02  0.1312668E+00
        -11   -1    0    0    0    0  0.00000000000E+00  0.00000000000E+00  0.45593999997E+02  0.45594000000E+02  0.51100000000E-03 0. -1.
         11   -1    0    0    0    0 -0.00000000000E+00 -0.00000000000E+00 -0.45593999997E+02  0.45594000000E+02  0.51100000000E-03 0.  1.
    9900012    2    1    2    0    0 -0.88955140151E+01 -0.21258926355E+02  0.36777049292E+02  0.47787268739E+02  0.19999989490E+02 0.  0.
        -12    1    1    2    0    0  0.88955140151E+01  0.21258926355E+02 -0.36777049292E+02  0.43400731261E+02  0.00000000000E+00 0.  1.
         11    1    3    3    0    0  0.12093490600E+01  0.13072437511E+01  0.27824882581E+01  0.33035817746E+01  0.51100000000E-03 0. -1.
        -11    1    3    3    0    0 -0.58311251952E+01 -0.19586406808E+01  0.14686150572E+02  0.15922352629E+02  0.51100000000E-03 0.  1.
        -12    1    3    3    0    0 -0.42737378800E+01 -0.20607529425E+02  0.19308410462E+02  0.28561334336E+02  0.00000000000E+00 0.  1.
</event>
<event>
 7    1  0.2886681E-010  0.4778727E+02  0.7816164E-02  0.1312668E+00
        -11   -1    0    0    0    0  0.00000000000E+00  0.00000000000E+00  0.45593999997E+02  0.45594000000E+02  0.51100000000E-03 0. -1.
         11   -1    0    0    0    0 -0.00000000000E+00 -0.00000000000E+00 -0.45593999997E+02  0.45594000000E+02  0.51100000000E-03 0.  1.
    9900012    2    1    2    0    0  0.17722228829E+01 -0.25404040026E+02  0.35144234580E+02  0.47787271345E+02  0.20000001369E+02 0.  0.
        -12    1    1    2    0    0 -0.17722228829E+01  0.25404040026E+02 -0.35144234580E+02  0.43400728655E+02  0.00000000000E+00 0.  1.
         11    1    3    3    0    0 -0.32739219058E+01 -0.20997094457E+02  0.19260294506E+02  0.28680228120E+02  0.51100000000E-03 0. -1.
        -11    1    3    3    0    0  0.65914089499E+01 -0.56003232487E+01  0.13373743517E+02  0.15926936565E+02  0.51100000000E-03 0.  1.
        -12    1    3    3    0    0 -0.15452641613E+01  0.11933776791E+01  0.25101965569E+01  0.31801066597E+01  0.00000000000E+00 0.  1.
</event>
<event>
 7    1  0.2886681E-010  0.4778727E+02  0.7816164E-02  0.1312668E+00
        -11   -1    0    0    0    0  0.00000000000E+00  0.00000000000E+00  0.45593999997E+02  0.45594000000E+02  0.51100000000E-03 0. -1.
         11   -1    0    0    0    0 -0.00000000000E+00 -0.00000000000E+00 -0.45593999997E+02  0.45594000000E+02  0.51100000000E-03 0.  1.
    9900012    2    1    2    0    0 -0.55405872523E+01 -0.39824909615E+02  0.16337134578E+02  0.47787268449E+02  0.19999988167E+02 0.  0.
        -12    1    1    2    0    0  0.55405872523E+01  0.39824909615E+02 -0.16337134578E+02  0.43400731551E+02  0.00000000000E+00 0.  1.
         11    1    3    3    0    0 -0.93226066423E+01 -0.20717413470E+02  0.16439374134E+02  0.28042382881E+02  0.51100000000E-03 0. -1.
        -11    1    3    3    0    0  0.26326417735E+01 -0.11245737457E+02 -0.15985632945E+01  0.11659880725E+02  0.51100000000E-03 0.  1.
         12    1    3    3    0    0  0.11493776164E+01 -0.78617586881E+01  0.14963237383E+01  0.80850048426E+01  0.00000000000E+00 0. -1.
</event>
<event>
 7    1  0.2886681E-010  0.4778727E+02  0.7816164E-02  0.1312668E+00
        -11   -1    0    0    0    0  0.00000000000E+00  0.00000000000E+00  0.45593999997E+02  0.45594000000E+02  0.51100000000E-03 0.  1.
         11   -1    0    0    0    0 -0.00000000000E+00 -0.00000000000E+00 -0.45593999997E+02  0.45594000000E+02  0.51100000000E-03 0. -1.
    9900012    2    1    2    0    0 -0.14020250503E+02 -0.86718606602E+01 -0.40147915656E+02  0.47787265870E+02  0.19999976407E+02 0.  0.
        -12    1    1    2    0    0  0.14020250503E+02  0.86718606602E+01  0.40147915656E+02  0.43400734130E+02  0.00000000000E+00 0.  1.
         11    1    3    3    0    0 -0.12853820106E+02 -0.33471789040E+01 -0.26501971900E+02  0.29644203696E+02  0.51100000000E-03 0. -1.
        -11    1    3    3    0    0  0.29588283457E+01 -0.17180366691E+01 -0.11915133149E+02  0.12396641214E+02  0.51100000000E-03 0.  1.
        -12    1    3    3    0    0 -0.41252587434E+01 -0.36066450871E+01 -0.17308106074E+01  0.57464209595E+01  0.00000000000E+00 0.  1.
</event>
<event>
 7    1  0.2886681E-010  0.4778727E+02  0.7816164E-02  0.1312668E+00
        -11   -1    0    0    0    0  0.00000000000E+00  0.00000000000E+00  0.45593999997E+02  0.45594000000E+02  0.51100000000E-03 0.  1.
         11   -1    0    0    0    0 -0.00000000000E+00 -0.00000000000E+00 -0.45593999997E+02  0.45594000000E+02  0.51100000000E-03 0. -1.
    9900012    2    1    2    0    0  0.10353958161E+02 -0.17104215001E+02 -0.38520967842E+02  0.47787267473E+02  0.19999983717E+02 0.  0.
        -12    1    1    2    0    0 -0.10353958161E+02  0.17104215001E+02  0.38520967842E+02  0.43400732527E+02  0.00000000000E+00 0.  1.
         11    1    3    3    0    0  0.37608321689E+01 -0.11336057280E+02 -0.30932426907E+02  0.33158182819E+02  0.51100000000E-03 0. -1.
        -11    1    3    3    0    0  0.51840334080E+01  0.12519370528E+01 -0.29009458644E+01  0.60709995824E+01  0.51100000000E-03 0.  1.
        -12    1    3    3    0    0  0.14090925840E+01 -0.70200947745E+01 -0.46875950707E+01  0.85580850721E+01  0.00000000000E+00 0.  1.
</event>
<event>
 7    1  0.2886681E-010  0.4778727E+02  0.7816164E-02  0.1312668E+00
        -11   -1    0    0    0    0  0.00000000000E+00  0.00000000000E+00  0.45593999997E+02  0.45594000000E+02  0.51100000000E-03 0.  1.
         11   -1    0    0    0    0 -0.00000000000E+00 -0.00000000000E+00 -0.45593999997E+02  0.45594000000E+02  0.51100000000E-03 0. -1.
    9900012    2    1    2    0    0 -0.17664065196E+02  0.75849655615E+01 -0.38911084124E+02  0.47787269942E+02  0.19999994975E+02 0.  0.
        -12    1    1    2    0    0  0.17664065196E+02 -0.75849655615E+01  0.38911084124E+02  0.43400730058E+02  0.00000000000E+00 0.  1.
         11    1    3    3    0    0 -0.64657289849E+01  0.46090276554E+00 -0.17925418330E+01  0.67254211132E+01  0.51100000000E-03 0. -1.
        -11    1    3    3    0    0 -0.74157758268E+01  0.72605160507E+01 -0.12934622077E+02  0.16583524142E+02  0.51100000000E-03 0.  1.
         12    1    3    3    0    0 -0.37825603842E+01 -0.13645325473E+00 -0.24183920214E+02  0.24478324687E+02  0.00000000000E+00 0. -1.
</event>
<event>
 7    1  0.2886681E-010  0.4778727E+02  0.7816164E-02  0.1312668E+00
        -11   -1    0    0    0    0  0.00000000000E+00  0.00000000000E+00  0.45593999997E+02  0.45594000000E+02  0.51100000000E-03 0.  1.
         11   -1    0    0    0    0 -0.00000000000E+00 -0.00000000000E+00 -0.45593999997E+02  0.45594000000E+02  0.51100000000E-03 0. -1.
    9900012    2    1    2    0    0 -0.27559240464E+02  0.16671938489E+01 -0.33486295555E+02  0.47787271201E+02  0.20000000715E+02 0.  0.
        -12    1    1    2    0    0  0.27559240464E+02 -0.16671938489E+01  0.33486295555E+02  0.43400728799E+02  0.00000000000E+00 0.  1.
         11    1    3    3    0    0 -0.20044393852E+02 -0.43085481947E+01 -0.29398611459E+02  0.35841591321E+02  0.51100000000E-03 0. -1.
        -11    1    3    3    0    0 -0.13448697263E+01  0.33614614885E+01  0.72902473724E+00  0.36931795581E+01  0.51100000000E-03 0.  1.
        -12    1    3    3    0    0 -0.61699768853E+01  0.26142805551E+01 -0.48167088335E+01  0.82525003225E+01  0.00000000000E+00 0.  1.
</event>
<event>
 7    1  0.2886681E-010  0.4778732E+02  0.7816164E-02  0.1312668E+00
        -11   -1    0    0    0    0  0.00000000000E+00  0.00000000000E+00  0.45593999997E+02  0.45594000000E+02  0.51100000000E-03 0.  1.
         11   -1    0    0    0    0 -0.00000000000E+00 -0.00000000000E+00 -0.45593999997E+02  0.45594000000E+02  0.51100000000E-03 0. -1.
    9900012    2    1    2    0    0  0.14368823847E+02  0.34746195168E+02 -0.21676201297E+02  0.47787321664E+02  0.20000230791E+02 0.  0.
        -12    1    1    2    0    0 -0.14368823847E+02 -0.34746195168E+02  0.21676201297E+02  0.43400678336E+02  0.00000000000E+00 0.  1.
         11    1    3    3    0    0  0.34005137936E+01  0.14772791827E+02 -0.17683823152E+02  0.23291983041E+02  0.51100000000E-03 0. -1.
        -11    1    3    3    0    0 -0.10541836788E+01  0.40469378093E+01 -0.11653041596E+01  0.43413065898E+01  0.51100000000E-03 0.  1.
         12    1    3    3    0    0  0.12022493732E+02  0.15926465532E+02 -0.28270739853E+01  0.20154032033E+02  0.00000000000E+00 0. -1.
</event>
<event>
 7    1  0.2886681E-010  0.4778727E+02  0.7816164E-02  0.1312668E+00
        -11   -1    0    0    0    0  0.00000000000E+00  0.00000000000E+00  0.45593999997E+02  0.45594000000E+02  0.51100000000E-03 0.  1.
         11   -1    0    0    0    0 -0.00000000000E+00 -0.00000000000E+00 -0.45593999997E+02  0.45594000000E+02  0.51100000000E-03 0. -1.
    9900012    2    1    2    0    0  0.44498973351E+01  0.25381670464E+02 -0.34922666709E+02  0.47787269224E+02  0.19999991699E+02 0.  0.
        -12    1    1    2    0    0 -0.44498973351E+01 -0.25381670464E+02  0.34922666709E+02  0.43400730776E+02  0.00000000000E+00 0.  1.
         11    1    3    3    0    0 -0.13937953279E+01 -0.11592284848E-01 -0.12724643354E+02  0.12800755780E+02  0.51100000000E-03 0. -1.
        -11    1    3    3    0    0  0.70987066825E+01  0.15251722802E+02 -0.13668689351E+02  0.21675787272E+02  0.51100000000E-03 0.  1.
         12    1    3    3    0    0 -0.12550140195E+01  0.10141539947E+02 -0.85293340041E+01  0.13310726172E+02  0.00000000000E+00 0. -1.
</event>
<event>
 7    1  0.2886681E-010  0.4778727E+02  0.7816164E-02  0.1312668E+00
        -11   -1    0    0    0    0  0.00000000000E+00  0.00000000000E+00  0.45593999997E+02  0.45594000000E+02  0.51100000000E-03 0. -1.
         11   -1    0    0    0    0 -0.00000000000E+00 -0.00000000000E+00 -0.45593999997E+02  0.45594000000E+02  0.51100000000E-03 0.  1.
    9900012    2    1    2    0    0  0.54332989511E+01  0.58572066065E+01  0.42659063399E+02  0.47787270781E+02  0.19999998797E+02 0.  0.
        -12    1    1    2    0    0 -0.54332989511E+01 -0.58572066065E+01 -0.42659063399E+02  0.43400729219E+02  0.00000000000E+00 0.  1.
         11    1    3    3    0    0 -0.35687016658E+01  0.24800106166E+01  0.29362999521E+02  0.29682854064E+02  0.51100000000E-03 0. -1.
        -11    1    3    3    0    0  0.48529492615E+01 -0.10090560138E-01  0.13885145237E+01  0.50476916702E+01  0.51100000000E-03 0.  1.
        -12    1    3    3    0    0  0.41490513555E+01  0.33872865500E+01  0.11907549354E+02  0.13056725047E+02  0.00000000000E+00 0.  1.
</event>
<event>
 7    1  0.2886681E-010  0.4778727E+02  0.7816164E-02  0.1312668E+00
        -11   -1    0    0    0    0  0.00000000000E+00  0.00000000000E+00  0.45593999997E+02  0.45594000000E+02  0.51100000000E-03 0. -1.
         11   -1    0    0    0    0 -0.00000000000E+00 -0.00000000000E+00 -0.45593999997E+02  0.45594000000E+02  0.51100000000E-03 0.  1.
    9900012    2    1    2    0    0 -0.28417017927E+02  0.13818429886E+02  0.29751420901E+02  0.47787274684E+02  0.20000016594E+02 0.  0.
        -12    1    1    2    0    0  0.28417017927E+02 -0.13818429886E+02 -0.29751420901E+02  0.43400725316E+02  0.00000000000E+00 0.  1.
         11    1    3    3    0    0  0.98345904110E-01  0.49765367116E+01  0.95494564782E+01  0.10768830431E+02  0.51100000000E-03 0. -1.
        -11    1    3    3    0    0 -0.34484098131E+01  0.23390441567E+01 -0.11565954445E-01  0.41668683491E+01  0.51100000000E-03 0.  1.
         12    1    3    3    0    0 -0.25066954018E+02  0.65028490177E+01  0.20213530377E+02  0.32851575904E+02  0.00000000000E+00 0. -1.
</event>
<event>
 7    1  0.2886681E-010  0.4778727E+02  0.7816164E-02  0.1312668E+00
        -11   -1    0    0    0    0  0.00000000000E+00  0.00000000000E+00  0.45593999997E+02  0.45594000000E+02  0.51100000000E-03 0. -1.
         11   -1    0    0    0    0 -0.00000000000E+00 -0.00000000000E+00 -0.45593999997E+02  0.45594000000E+02  0.51100000000E-03 0.  1.
    9900012    2    1    2    0    0 -0.13629078144E+02  0.22291565469E+02  0.34654836010E+02  0.47787270502E+02  0.19999997526E+02 0.  0.
        -12    1    1    2    0    0  0.13629078144E+02 -0.22291565469E+02 -0.34654836010E+02  0.43400729498E+02  0.00000000000E+00 0.  1.
         11    1    3    3    0    0 -0.80028190353E+01  0.57721985611E+01  0.26583175430E+02  0.28355398162E+02  0.51100000000E-03 0. -1.
        -11    1    3    3    0    0 -0.11840242541E+01  0.75326542946E+01  0.40137508984E+01  0.86170175057E+01  0.51100000000E-03 0.  1.
         12    1    3    3    0    0 -0.44422348544E+01  0.89867126134E+01  0.40579096814E+01  0.10814854834E+02  0.00000000000E+00 0. -1.
</event>
<event>
 7    1  0.2886681E-010  0.4778727E+02  0.7816164E-02  0.1312668E+00
        -11   -1    0    0    0    0  0.00000000000E+00  0.00000000000E+00  0.45593999997E+02  0.45594000000E+02  0.51100000000E-03 0.  1.
         11   -1    0    0    0    0 -0.00000000000E+00 -0.00000000000E+00 -0.45593999997E+02  0.45594000000E+02  0.51100000000E-03 0. -1.
    9900012    2    1    2    0    0 -0.86009308037E+00 -0.38839056627E+02 -0.19349710437E+02  0.47787269893E+02  0.19999994752E+02 0.  0.
        -12    1    1    2    0    0  0.86009308037E+00  0.38839056627E+02  0.19349710437E+02  0.43400730107E+02  0.00000000000E+00 0.  1.
         11    1    3    3    0    0 -0.60708802799E+00  0.19247540371E+01 -0.11662006798E+01  0.23309350621E+01  0.51100000000E-03 0.  1.
        -11    1    3    3    0    0 -0.34528196565E+01 -0.18278323834E+02 -0.52875493876E+01  0.19338491786E+02  0.51100000000E-03 0. -1.
         12    1    3    3    0    0  0.31998146041E+01 -0.22485486830E+02 -0.12895960370E+02  0.26117843045E+02  0.00000000000E+00 0. -1.
</event>
<event>
 7    1  0.2886681E-010  0.4778727E+02  0.7816164E-02  0.1312668E+00
        -11   -1    0    0    0    0  0.00000000000E+00  0.00000000000E+00  0.45593999997E+02  0.45594000000E+02  0.51100000000E-03 0. -1.
         11   -1    0    0    0    0 -0.00000000000E+00 -0.00000000000E+00 -0.45593999997E+02  0.45594000000E+02  0.51100000000E-03 0.  1.
    9900012    2    1    2    0    0 -0.25048368508E+02  0.28953053347E+02  0.20443164263E+02  0.47787273876E+02  0.20000012909E+02 0.  0.
        -12    1    1    2    0    0  0.25048368508E+02 -0.28953053347E+02 -0.20443164263E+02  0.43400726124E+02  0.00000000000E+00 0.  1.
         11    1    3    3    0    0 -0.39397692559E+01  0.20089509143E+01  0.94390622092E+00  0.45220155662E+01  0.51100000000E-03 0. -1.
        -11    1    3    3    0    0 -0.21047071456E+02  0.26829552078E+02  0.12582473862E+02  0.36347252033E+02  0.51100000000E-03 0.  1.
        -12    1    3    3    0    0 -0.61527795429E-01  0.11455035501E+00  0.69167841797E+01  0.69180062766E+01  0.00000000000E+00 0.  1.
</event>
<event>
 7    1  0.2886681E-010  0.4778727E+02  0.7816164E-02  0.1312668E+00
        -11   -1    0    0    0    0  0.00000000000E+00  0.00000000000E+00  0.45593999997E+02  0.45594000000E+02  0.51100000000E-03 0.  1.
         11   -1    0    0    0    0 -0.00000000000E+00 -0.00000000000E+00 -0.45593999997E+02  0.45594000000E+02  0.51100000000E-03 0. -1.
    9900012    2    1    2    0    0 -0.44994948428E+01  0.10222111982E+02 -0.41939082126E+02  0.47787266863E+02  0.19999980936E+02 0.  0.
        -12    1    1    2    0    0  0.44994948428E+01 -0.10222111982E+02  0.41939082126E+02  0.43400733137E+02  0.00000000000E+00 0.  1.
         11    1    3    3    0    0  0.16987365341E+01 -0.31419907725E+01 -0.68359310689E+01  0.77128312355E+01  0.51100000000E-03 0. -1.
        -11    1    3    3    0    0 -0.54942656048E+01  0.13279470287E+02 -0.36097566171E+02  0.38853128180E+02  0.51100000000E-03 0.  1.
        -12    1    3    3    0    0 -0.70396577216E+00  0.84632467786E-01  0.99441511387E+00  0.12213074476E+01  0.00000000000E+00 0.  1.
</event>
<event>
 7    1  0.2886681E-010  0.4778725E+02  0.7816164E-02  0.1312668E+00
        -11   -1    0    0    0    0  0.00000000000E+00  0.00000000000E+00  0.45593999997E+02  0.45594000000E+02  0.51100000000E-03 0. -1.
         11   -1    0    0    0    0 -0.00000000000E+00 -0.00000000000E+00 -0.45593999997E+02  0.45594000000E+02  0.51100000000E-03 0.  1.
    9900012    2    1    2    0    0 -0.42690768793E+02 -0.13894940277E+00  0.78169237261E+01  0.47787247200E+02  0.19999891285E+02 0.  0.
        -12    1    1    2    0    0  0.42690768793E+02  0.13894940277E+00 -0.78169237261E+01  0.43400752800E+02  0.00000000000E+00 0.  1.
         11    1    3    3    0    0 -0.34194220261E+01  0.20673379412E+01  0.60954809402E+01  0.72884306479E+01  0.51100000000E-03 0.  1.
        -11    1    3    3    0    0 -0.39714318165E+02 -0.26639959321E+01  0.15270381189E+01  0.39832848095E+02  0.51100000000E-03 0. -1.
         12    1    3    3    0    0  0.44297139891E+00  0.45770858809E+00  0.19440466700E+00  0.66596845752E+00  0.00000000000E+00 0. -1.
</event>
<event>
 7    1  0.2886681E-010  0.4778727E+02  0.7816164E-02  0.1312668E+00
        -11   -1    0    0    0    0  0.00000000000E+00  0.00000000000E+00  0.45593999997E+02  0.45594000000E+02  0.51100000000E-03 0.  1.
         11   -1    0    0    0    0 -0.00000000000E+00 -0.00000000000E+00 -0.45593999997E+02  0.45594000000E+02  0.51100000000E-03 0. -1.
    9900012    2    1    2    0    0  0.11664397044E+02  0.18955230785E+02 -0.37259418208E+02  0.47787272152E+02  0.20000005050E+02 0.  0.
        -12    1    1    2    0    0 -0.11664397044E+02 -0.18955230785E+02  0.37259418208E+02  0.43400727848E+02  0.00000000000E+00 0.  1.
         11    1    3    3    0    0  0.10174993513E+01 -0.25750017985E+01 -0.83048916802E+01  0.87542655473E+01  0.51100000000E-03 0. -1.
        -11    1    3    3    0    0  0.63848603246E+01  0.18400847744E+02 -0.16588249388E+02  0.25583738138E+02  0.51100000000E-03 0.  1.
         12    1    3    3    0    0  0.42620373681E+01  0.31293848396E+01 -0.12366277140E+02  0.13449268467E+02  0.00000000000E+00 0. -1.
</event>
<event>
 7    1  0.2886681E-010  0.4778727E+02  0.7816164E-02  0.1312668E+00
        -11   -1    0    0    0    0  0.00000000000E+00  0.00000000000E+00  0.45593999997E+02  0.45594000000E+02  0.51100000000E-03 0.  1.
         11   -1    0    0    0    0 -0.00000000000E+00 -0.00000000000E+00 -0.45593999997E+02  0.45594000000E+02  0.51100000000E-03 0. -1.
    9900012    2    1    2    0    0  0.33420436514E+02 -0.26612009335E+02 -0.76484400502E+01  0.47787271287E+02  0.20000001106E+02 0.  0.
        -12    1    1    2    0    0 -0.33420436514E+02  0.26612009335E+02  0.76484400502E+01  0.43400728713E+02  0.00000000000E+00 0.  1.
         11    1    3    3    0    0  0.15192332906E+02 -0.20866522750E+02 -0.54682519190E+01  0.26384096159E+02  0.51100000000E-03 0. -1.
        -11    1    3    3    0    0  0.39247911952E+01  0.25664634614E+01  0.17836895210E+00  0.46928175299E+01  0.51100000000E-03 0.  1.
         12    1    3    3    0    0  0.14303312413E+02 -0.83119500457E+01 -0.23585570833E+01  0.16710357598E+02  0.00000000000E+00 0. -1.
</event>
<event>
 7    1  0.2886681E-010  0.4778727E+02  0.7816164E-02  0.1312668E+00
        -11   -1    0    0    0    0  0.00000000000E+00  0.00000000000E+00  0.45593999997E+02  0.45594000000E+02  0.51100000000E-03 0.  1.
         11   -1    0    0    0    0 -0.00000000000E+00 -0.00000000000E+00 -0.45593999997E+02  0.45594000000E+02  0.51100000000E-03 0. -1.
    9900012    2    1    2    0    0  0.72248801642E+01 -0.40551300578E+02 -0.13675407098E+02  0.47787266927E+02  0.19999981229E+02 0.  0.
        -12    1    1    2    0    0 -0.72248801642E+01  0.40551300578E+02  0.13675407098E+02  0.43400733073E+02  0.00000000000E+00 0.  1.
         11    1    3    3    0    0 -0.34528766088E+01 -0.12240004596E+02 -0.75790640339E+01  0.14804806020E+02  0.51100000000E-03 0. -1.
        -11    1    3    3    0    0  0.12433672150E+02 -0.27684811878E+02 -0.65855336382E+01  0.31055019972E+02  0.51100000000E-03 0.  1.
        -12    1    3    3    0    0 -0.17559153774E+01 -0.62648410296E+00  0.48919057361E+00  0.19274409358E+01  0.00000000000E+00 0.  1.
</event>
<event>
 7    1  0.2886681E-010  0.4778728E+02  0.7816164E-02  0.1312668E+00
        -11   -1    0    0    0    0  0.00000000000E+00  0.00000000000E+00  0.45593999997E+02  0.45594000000E+02  0.51100000000E-03 0.  1.
         11   -1    0    0    0    0 -0.00000000000E+00 -0.00000000000E+00 -0.45593999997E+02  0.45594000000E+02  0.51100000000E-03 0. -1.
    9900012    2    1    2    0    0  0.34985292747E+02 -0.12575245153E+02 -0.22394532939E+02  0.47787278752E+02  0.20000035144E+02 0.  0.
        -12    1    1    2    0    0 -0.34985292747E+02  0.12575245153E+02  0.22394532939E+02  0.43400721248E+02  0.00000000000E+00 0.  1.
         11    1    3    3    0    0  0.27119186057E+02 -0.53078530500E+01 -0.23498739988E+02  0.36274155230E+02  0.51100000000E-03 0. -1.
        -11    1    3    3    0    0  0.13141556874E+01 -0.37926994666E+01 -0.77068738876E-02  0.40139300033E+01  0.51100000000E-03 0.  1.
         12    1    3    3    0    0  0.65519510033E+01 -0.34746926361E+01  0.11119139230E+01  0.74991935191E+01  0.00000000000E+00 0. -1.
</event>
<event>
 7    1  0.2886681E-010  0.4778727E+02  0.7816164E-02  0.1312668E+00
        -11   -1    0    0    0    0  0.00000000000E+00  0.00000000000E+00  0.45593999997E+02  0.45594000000E+02  0.51100000000E-03 0.  1.
         11   -1    0    0    0    0 -0.00000000000E+00 -0.00000000000E+00 -0.45593999997E+02  0.45594000000E+02  0.51100000000E-03 0. -1.
    9900012    2    1    2    0    0 -0.86669406233E+01  0.18557398765E+02 -0.38263956752E+02  0.47787270801E+02  0.19999998889E+02 0.  0.
        -12    1    1    2    0    0  0.86669406233E+01 -0.18557398765E+02  0.38263956752E+02  0.43400729199E+02  0.00000000000E+00 0.  1.
         11    1    3    3    0    0 -0.66385508145E+01 -0.13324720139E+00 -0.35227322388E+01  0.75164988140E+01  0.51100000000E-03 0. -1.
        -11    1    3    3    0    0  0.17752617787E+01  0.48347570494E+01 -0.47103499421E+01  0.69795291351E+01  0.51100000000E-03 0.  1.
         12    1    3    3    0    0 -0.38036515875E+01  0.13855888917E+02 -0.30030874571E+02  0.33291242852E+02  0.00000000000E+00 0. -1.
</event>
<event>
 7    1  0.2886681E-010  0.4778727E+02  0.7816164E-02  0.1312668E+00
        -11   -1    0    0    0    0  0.00000000000E+00  0.00000000000E+00  0.45593999997E+02  0.45594000000E+02  0.51100000000E-03 0. -1.
         11   -1    0    0    0    0 -0.00000000000E+00 -0.00000000000E+00 -0.45593999997E+02  0.45594000000E+02  0.51100000000E-03 0.  1.
    9900012    2    1    2    0    0  0.26207985216E+02 -0.78731242221E+01  0.33686476719E+02  0.47787270883E+02  0.19999999265E+02 0.  0.
        -12    1    1    2    0    0 -0.26207985216E+02  0.78731242221E+01 -0.33686476719E+02  0.43400729117E+02  0.00000000000E+00 0.  1.
         11    1    3    3    0    0  0.21353297227E+02 -0.14191064742E+02  0.26106412878E+02  0.36590906174E+02  0.51100000000E-03 0. -1.
        -11    1    3    3    0    0  0.42536484420E+01  0.39765945674E+01  0.53533858586E+01  0.79098400638E+01  0.51100000000E-03 0.  1.
         12    1    3    3    0    0  0.60103954666E+00  0.23413459529E+01  0.22266779830E+01  0.32865246458E+01  0.00000000000E+00 0. -1.
</event>
<event>
 7    1  0.2886681E-010  0.4778727E+02  0.7816164E-02  0.1312668E+00
        -11   -1    0    0    0    0  0.00000000000E+00  0.00000000000E+00  0.45593999997E+02  0.45594000000E+02  0.51100000000E-03 0. -1.
         11   -1    0    0    0    0 -0.00000000000E+00 -0.00000000000E+00 -0.45593999997E+02  0.45594000000E+02  0.51100000000E-03 0.  1.
    9900012    2    1    2    0    0 -0.26323227251E+02  0.20941251197E+02  0.27425807336E+02  0.47787271866E+02  0.20000003745E+02 0.  0.
        -12    1    1    2    0    0  0.26323227251E+02 -0.20941251197E+02 -0.27425807336E+02  0.43400728134E+02  0.00000000000E+00 0.  1.
         11    1    3    3    0    0 -0.21123381475E+02  0.12939031709E+02  0.21393608867E+02  0.32730754454E+02  0.51100000000E-03 0. -1.
        -11    1    3    3    0    0 -0.26130328274E+01  0.54789916419E+01 -0.18829160004E+01  0.63555222362E+01  0.51100000000E-03 0.  1.
        -12    1    3    3    0    0 -0.25868129489E+01  0.25232278454E+01  0.79151144692E+01  0.87009951760E+01  0.00000000000E+00 0.  1.
</event>
<event>
 7    1  0.2886681E-010  0.4778722E+02  0.7816164E-02  0.1312668E+00
        -11   -1    0    0    0    0  0.00000000000E+00  0.00000000000E+00  0.45593999997E+02  0.45594000000E+02  0.51100000000E-03 0.  1.
         11   -1    0    0    0    0 -0.00000000000E+00 -0.00000000000E+00 -0.45593999997E+02  0.45594000000E+02  0.51100000000E-03 0. -1.
    9900012    2    1    2    0    0  0.15713737342E+02 -0.91400310656E+01 -0.39410231964E+02  0.47787215530E+02  0.19999746888E+02 0.  0.
        -12    1    1    2    0    0 -0.15713737342E+02  0.91400310656E+01  0.39410231964E+02  0.43400784470E+02  0.00000000000E+00 0.  1.
         11    1    3    3    0    0  0.32594525056E+01  0.84806075435E+00 -0.20018679914E+02  0.20300019297E+02  0.51100000000E-03 0. -1.
        -11    1    3    3    0    0  0.11194582726E+02 -0.25570674428E+01 -0.87020916195E+01  0.14407764404E+02  0.51100000000E-03 0.  1.
         12    1    3    3    0    0  0.12597021110E+01 -0.74310243771E+01 -0.10689460430E+02  0.13079431830E+02  0.00000000000E+00 0. -1.
</event>
<event>
 7    1  0.2886681E-010  0.4778727E+02  0.7816164E-02  0.1312668E+00
        -11   -1    0    0    0    0  0.00000000000E+00  0.00000000000E+00  0.45593999997E+02  0.45594000000E+02  0.51100000000E-03 0.  1.
         11   -1    0    0    0    0 -0.00000000000E+00 -0.00000000000E+00 -0.45593999997E+02  0.45594000000E+02  0.51100000000E-03 0. -1.
    9900012    2    1    2    0    0  0.29991718659E+02 -0.30816236465E+02 -0.58719666189E+01  0.47787267173E+02  0.19999982347E+02 0.  0.
        -12    1    1    2    0    0 -0.29991718659E+02  0.30816236465E+02  0.58719666189E+01  0.43400732827E+02  0.00000000000E+00 0.  1.
         11    1    3    3    0    0  0.28670081117E+02 -0.22063685479E+02  0.37864055277E+00  0.36179042789E+02  0.51100000000E-03 0. -1.
        -11    1    3    3    0    0 -0.11396668736E+01 -0.36666796434E+01 -0.11813236113E+01  0.40173257181E+01  0.51100000000E-03 0.  1.
         12    1    3    3    0    0  0.24613044146E+01 -0.50858713427E+01 -0.50692835603E+01  0.75908986656E+01  0.00000000000E+00 0. -1.
</event>
<event>
 7    1  0.2886681E-010  0.4778727E+02  0.7816164E-02  0.1312668E+00
        -11   -1    0    0    0    0  0.00000000000E+00  0.00000000000E+00  0.45593999997E+02  0.45594000000E+02  0.51100000000E-03 0.  1.
         11   -1    0    0    0    0 -0.00000000000E+00 -0.00000000000E+00 -0.45593999997E+02  0.45594000000E+02  0.51100000000E-03 0. -1.
    9900012    2    1    2    0    0 -0.18399482253E+02  0.30599246013E+02 -0.24673231108E+02  0.47787272620E+02  0.20000007185E+02 0.  0.
        -12    1    1    2    0    0  0.18399482253E+02 -0.30599246013E+02  0.24673231108E+02  0.43400727380E+02  0.00000000000E+00 0.  1.
         11    1    3    3    0    0 -0.93145285163E+01  0.68809943453E+01 -0.20402381139E+01  0.11758873096E+02  0.51100000000E-03 0. -1.
        -11    1    3    3    0    0  0.10323751188E+01  0.12897482662E+02 -0.80354905445E+01  0.15230888548E+02  0.51100000000E-03 0.  1.
        -12    1    3    3    0    0 -0.10117328856E+02  0.10820769006E+02 -0.14597502450E+02  0.20797510977E+02  0.00000000000E+00 0.  1.
</event>
<event>
 7    1  0.2886681E-010  0.4778727E+02  0.7816164E-02  0.1312668E+00
        -11   -1    0    0    0    0  0.00000000000E+00  0.00000000000E+00  0.45593999997E+02  0.45594000000E+02  0.51100000000E-03 0. -1.
         11   -1    0    0    0    0 -0.00000000000E+00 -0.00000000000E+00 -0.45593999997E+02  0.45594000000E+02  0.51100000000E-03 0.  1.
    9900012    2    1    2    0    0  0.38356145839E+02  0.17037692679E+02  0.11051990438E+02  0.47787269729E+02  0.19999994002E+02 0.  0.
        -12    1    1    2    0    0 -0.38356145839E+02 -0.17037692679E+02 -0.11051990438E+02  0.43400730271E+02  0.00000000000E+00 0.  1.
         11    1    3    3    0    0  0.75640232573E+01 -0.32925830368E+01  0.47480615687E+01  0.95183843068E+01  0.51100000000E-03 0. -1.
        -11    1    3    3    0    0 -0.49712797627E+00  0.22769428491E+00 -0.65699791809E-02  0.54683117863E+00  0.51100000000E-03 0.  1.
         12    1    3    3    0    0  0.31289250558E+02  0.20102581431E+02  0.63104988485E+01  0.37722054244E+02  0.00000000000E+00 0. -1.
</event>
<event>
 7    1  0.2886681E-010  0.4778727E+02  0.7816164E-02  0.1312668E+00
        -11   -1    0    0    0    0  0.00000000000E+00  0.00000000000E+00  0.45593999997E+02  0.45594000000E+02  0.51100000000E-03 0.  1.
         11   -1    0    0    0    0 -0.00000000000E+00 -0.00000000000E+00 -0.45593999997E+02  0.45594000000E+02  0.51100000000E-03 0. -1.
    9900012    2    1    2    0    0 -0.17780460145E+02  0.14771262587E+02 -0.36732656298E+02  0.47787274199E+02  0.20000014383E+02 0.  0.
        -12    1    1    2    0    0  0.17780460145E+02 -0.14771262587E+02  0.36732656298E+02  0.43400725801E+02  0.00000000000E+00 0.  1.
         11    1    3    3    0    0 -0.43558430712E+01 -0.18903582120E+01 -0.10393526658E+02  0.11426820192E+02  0.51100000000E-03 0. -1.
        -11    1    3    3    0    0 -0.10749685672E+02  0.16083319129E+02 -0.14411859240E+02  0.24123237413E+02  0.51100000000E-03 0.  1.
        -12    1    3    3    0    0 -0.26749314017E+01  0.57830167023E+00 -0.11927270399E+02  0.12237216595E+02  0.00000000000E+00 0.  1.
</event>
<event>
 7    1  0.2886681E-010  0.4778727E+02  0.7816164E-02  0.1312668E+00
        -11   -1    0    0    0    0  0.00000000000E+00  0.00000000000E+00  0.45593999997E+02  0.45594000000E+02  0.51100000000E-03 0. -1.
         11   -1    0    0    0    0 -0.00000000000E+00 -0.00000000000E+00 -0.45593999997E+02  0.45594000000E+02  0.51100000000E-03 0.  1.
    9900012    2    1    2    0    0  0.24844485999E+01  0.31055925480E+01  0.43218121169E+02  0.47787272042E+02  0.20000004547E+02 0.  0.
        -12    1    1    2    0    0 -0.24844485999E+01 -0.31055925480E+01 -0.43218121169E+02  0.43400727958E+02  0.00000000000E+00 0.  1.
         11    1    3    3    0    0  0.28936344994E+01  0.68586074788E+01  0.29841573172E+02  0.30756025537E+02  0.51100000000E-03 0. -1.
        -11    1    3    3    0    0 -0.50848584853E+01 -0.26662611994E+01  0.73194010506E+01  0.93025999914E+01  0.51100000000E-03 0.  1.
        -12    1    3    3    0    0  0.46756725859E+01 -0.10867537314E+01  0.60571469461E+01  0.77286465134E+01  0.00000000000E+00 0.  1.
</event>
<event>
 7    1  0.2886681E-010  0.4778727E+02  0.7816164E-02  0.1312668E+00
        -11   -1    0    0    0    0  0.00000000000E+00  0.00000000000E+00  0.45593999997E+02  0.45594000000E+02  0.51100000000E-03 0.  1.
         11   -1    0    0    0    0 -0.00000000000E+00 -0.00000000000E+00 -0.45593999997E+02  0.45594000000E+02  0.51100000000E-03 0. -1.
    9900012    2    1    2    0    0  0.14469372844E+02 -0.15894326434E+02 -0.37704524118E+02  0.47787268413E+02  0.19999988003E+02 0.  0.
        -12    1    1    2    0    0 -0.14469372844E+02  0.15894326434E+02  0.37704524118E+02  0.43400731587E+02  0.00000000000E+00 0.  1.
         11    1    3    3    0    0  0.71426971836E+01 -0.12419201844E+02 -0.24276899731E+02  0.28189050326E+02  0.51100000000E-03 0. -1.
        -11    1    3    3    0    0 -0.19720277479E+01  0.30986429437E+00  0.82888592166E+00  0.21614720567E+01  0.51100000000E-03 0.  1.
         12    1    3    3    0    0  0.92987034086E+01 -0.37849888846E+01 -0.14256510309E+02  0.17436746031E+02  0.00000000000E+00 0. -1.
</event>
<event>
 7    1  0.2886681E-010  0.4778728E+02  0.7816164E-02  0.1312668E+00
        -11   -1    0    0    0    0  0.00000000000E+00  0.00000000000E+00  0.45593999997E+02  0.45594000000E+02  0.51100000000E-03 0. -1.
         11   -1    0    0    0    0 -0.00000000000E+00 -0.00000000000E+00 -0.45593999997E+02  0.45594000000E+02  0.51100000000E-03 0.  1.
    9900012    2    1    2    0    0  0.16259476749E+02 -0.37790075175E+01  0.40062094621E+02  0.47787275266E+02  0.20000019249E+02 0.  0.
        -12    1    1    2    0    0 -0.16259476749E+02  0.37790075175E+01 -0.40062094621E+02  0.43400724734E+02  0.00000000000E+00 0.  1.
         11    1    3    3    0    0  0.15337762100E+02 -0.37356068098E+01  0.17322491194E+02  0.23436518639E+02  0.51100000000E-03 0. -1.
        -11    1    3    3    0    0  0.30897132606E-01  0.30537702766E+01  0.19651241339E+02  0.19887125332E+02  0.51100000000E-03 0.  1.
        -12    1    3    3    0    0  0.89081751605E+00 -0.30971709843E+01  0.30883620878E+01  0.44636312951E+01  0.00000000000E+00 0.  1.
</event>
<event>
 7    1  0.2886681E-010  0.4778727E+02  0.7816164E-02  0.1312668E+00
        -11   -1    0    0    0    0  0.00000000000E+00  0.00000000000E+00  0.45593999997E+02  0.45594000000E+02  0.51100000000E-03 0.  1.
         11   -1    0    0    0    0 -0.00000000000E+00 -0.00000000000E+00 -0.45593999997E+02  0.45594000000E+02  0.51100000000E-03 0. -1.
    9900012    2    1    2    0    0 -0.34009862902E+02 -0.26957782112E+02 -0.48029814516E+00  0.47787268700E+02  0.19999989312E+02 0.  0.
        -12    1    1    2    0    0  0.34009862902E+02  0.26957782112E+02  0.48029814516E+00  0.43400731300E+02  0.00000000000E+00 0.  1.
         11    1    3    3    0    0 -0.16385274617E+02 -0.13844964801E+02 -0.26329971490E+01  0.21612333258E+02  0.51100000000E-03 0. -1.
        -11    1    3    3    0    0 -0.10271406957E+02 -0.49758618612E+01  0.78148917561E+01  0.13832336591E+02  0.51100000000E-03 0.  1.
        -12    1    3    3    0    0 -0.73531813285E+01 -0.81369554503E+01 -0.56621927523E+01  0.12342598852E+02  0.00000000000E+00 0.  1.
</event>
<event>
 7    1  0.2886681E-010  0.4778727E+02  0.7816164E-02  0.1312668E+00
        -11   -1    0    0    0    0  0.00000000000E+00  0.00000000000E+00  0.45593999997E+02  0.45594000000E+02  0.51100000000E-03 0. -1.
         11   -1    0    0    0    0 -0.00000000000E+00 -0.00000000000E+00 -0.45593999997E+02  0.45594000000E+02  0.51100000000E-03 0.  1.
    9900012    2    1    2    0    0  0.31829186349E+02  0.29453476986E+02  0.17375311037E+01  0.47787269309E+02  0.19999992088E+02 0.  0.
        -12    1    1    2    0    0 -0.31829186349E+02 -0.29453476986E+02 -0.17375311037E+01  0.43400730691E+02  0.00000000000E+00 0.  1.
         11    1    3    3    0    0  0.74590615469E+00  0.29823428065E+01 -0.90124463885E+00  0.32035896690E+01  0.51100000000E-03 0. -1.
        -11    1    3    3    0    0  0.68105939944E+01 -0.18479589082E+00 -0.40371382165E+01  0.79193955147E+01  0.51100000000E-03 0.  1.
        -12    1    3    3    0    0  0.24272686200E+02  0.26655930070E+02  0.66759139590E+01  0.36664284125E+02  0.00000000000E+00 0.  1.
</event>
<event>
 7    1  0.2886681E-010  0.4778727E+02  0.7816164E-02  0.1312668E+00
        -11   -1    0    0    0    0  0.00000000000E+00  0.00000000000E+00  0.45593999997E+02  0.45594000000E+02  0.51100000000E-03 0.  1.
         11   -1    0    0    0    0 -0.00000000000E+00 -0.00000000000E+00 -0.45593999997E+02  0.45594000000E+02  0.51100000000E-03 0. -1.
    9900012    2    1    2    0    0  0.54033081636E+01 -0.11151627765E+02 -0.41594098170E+02  0.47787267938E+02  0.19999985836E+02 0.  0.
        -12    1    1    2    0    0 -0.54033081636E+01  0.11151627765E+02  0.41594098170E+02  0.43400732062E+02  0.00000000000E+00 0.  1.
         11    1    3    3    0    0  0.86308157278E+01  0.66963688619E+00 -0.16576277640E+02  0.18700598235E+02  0.51100000000E-03 0. -1.
        -11    1    3    3    0    0  0.22900214252E+01 -0.19273135423E+01 -0.25814453159E+01  0.39525429534E+01  0.51100000000E-03 0.  1.
         12    1    3    3    0    0 -0.55175289894E+01 -0.98939511090E+01 -0.22436375214E+02  0.25134126750E+02  0.00000000000E+00 0. -1.
</event>
<event>
 7    1  0.2886681E-010  0.4778727E+02  0.7816164E-02  0.1312668E+00
        -11   -1    0    0    0    0  0.00000000000E+00  0.00000000000E+00  0.45593999997E+02  0.45594000000E+02  0.51100000000E-03 0. -1.
         11   -1    0    0    0    0 -0.00000000000E+00 -0.00000000000E+00 -0.45593999997E+02  0.45594000000E+02  0.51100000000E-03 0.  1.
    9900012    2    1    2    0    0 -0.45244641284E+00  0.43267850245E+02  0.33632865257E+01  0.47787271103E+02  0.20000000265E+02 0.  0.
        -12    1    1    2    0    0  0.45244641284E+00 -0.43267850245E+02 -0.33632865257E+01  0.43400728897E+02  0.00000000000E+00 0.  1.
         11    1    3    3    0    0 -0.15141053272E+01  0.10873424659E+01 -0.85227027573E+00  0.20496813079E+01  0.51100000000E-03 0.  1.
        -11    1    3    3    0    0 -0.44388755642E+01  0.33831469086E+02  0.80008483926E+01  0.35046904172E+02  0.51100000000E-03 0. -1.
        -12    1    3    3    0    0  0.55005344786E+01  0.83490386932E+01 -0.37852915912E+01  0.10690685623E+02  0.00000000000E+00 0.  1.
</event>
<event>
 7    1  0.2886681E-010  0.4778728E+02  0.7816164E-02  0.1312668E+00
        -11   -1    0    0    0    0  0.00000000000E+00  0.00000000000E+00  0.45593999997E+02  0.45594000000E+02  0.51100000000E-03 0. -1.
         11   -1    0    0    0    0 -0.00000000000E+00 -0.00000000000E+00 -0.45593999997E+02  0.45594000000E+02  0.51100000000E-03 0.  1.
    9900012    2    1    2    0    0  0.25136512148E-01  0.37087679890E+02  0.22541656577E+02  0.47787275205E+02  0.20000018970E+02 0.  0.
        -12    1    1    2    0    0 -0.25136512148E-01 -0.37087679890E+02 -0.22541656577E+02  0.43400724795E+02  0.00000000000E+00 0.  1.
         11    1    3    3    0    0 -0.30785477354E+01  0.10573843774E+02 -0.11779789274E+01  0.11075705978E+02  0.51100000000E-03 0. -1.
        -11    1    3    3    0    0 -0.19411595025E+01  0.14846835345E+01  0.26824414045E+01  0.36287570270E+01  0.51100000000E-03 0.  1.
         12    1    3    3    0    0  0.50448437500E+01  0.25029152582E+02  0.21037194100E+02  0.33082812200E+02  0.00000000000E+00 0. -1.
</event>
<event>
 7    1  0.2886681E-010  0.4778727E+02  0.7816164E-02  0.1312668E+00
        -11   -1    0    0    0    0  0.00000000000E+00  0.00000000000E+00  0.45593999997E+02  0.45594000000E+02  0.51100000000E-03 0.  1.
         11   -1    0    0    0    0 -0.00000000000E+00 -0.00000000000E+00 -0.45593999997E+02  0.45594000000E+02  0.51100000000E-03 0. -1.
    9900012    2    1    2    0    0 -0.15919850079E+02  0.49422652947E+01 -0.40071885192E+02  0.47787267337E+02  0.19999983097E+02 0.  0.
        -12    1    1    2    0    0  0.15919850079E+02 -0.49422652947E+01  0.40071885192E+02  0.43400732663E+02  0.00000000000E+00 0.  1.
         11    1    3    3    0    0 -0.10806204562E+02  0.54494577202E+01 -0.39978275467E+02  0.41770003065E+02  0.51100000000E-03 0. -1.
        -11    1    3    3    0    0 -0.67918723633E+00  0.89919442148E+00  0.65783196604E+00  0.13048329649E+01  0.51100000000E-03 0.  1.
         12    1    3    3    0    0 -0.44344582809E+01 -0.14063868469E+01 -0.75144169145E+00  0.47124313071E+01  0.00000000000E+00 0. -1.
</event>
<event>
 7    1  0.2886681E-010  0.4778725E+02  0.7816164E-02  0.1312668E+00
        -11   -1    0    0    0    0  0.00000000000E+00  0.00000000000E+00  0.45593999997E+02  0.45594000000E+02  0.51100000000E-03 0.  1.
         11   -1    0    0    0    0 -0.00000000000E+00 -0.00000000000E+00 -0.45593999997E+02  0.45594000000E+02  0.51100000000E-03 0. -1.
    9900012    2    1    2    0    0  0.32463941833E+02  0.28599383700E+02 -0.34340569503E+01  0.47787250992E+02  0.19999908571E+02 0.  0.
        -12    1    1    2    0    0 -0.32463941833E+02 -0.28599383700E+02  0.34340569503E+01  0.43400749008E+02  0.00000000000E+00 0.  1.
         11    1    3    3    0    0  0.21041899919E+02  0.12116648384E+02  0.51481515421E+01  0.24820922321E+02  0.51100000000E-03 0. -1.
        -11    1    3    3    0    0  0.92901301626E+01  0.16361514132E+02 -0.63020649769E+01  0.19842421383E+02  0.51100000000E-03 0.  1.
        -12    1    3    3    0    0  0.21319117513E+01  0.12122118391E+00 -0.22801435156E+01  0.31239072877E+01  0.00000000000E+00 0.  1.
</event>
<event>
 7    1  0.2886681E-010  0.4778727E+02  0.7816164E-02  0.1312668E+00
        -11   -1    0    0    0    0  0.00000000000E+00  0.00000000000E+00  0.45593999997E+02  0.45594000000E+02  0.51100000000E-03 0. -1.
         11   -1    0    0    0    0 -0.00000000000E+00 -0.00000000000E+00 -0.45593999997E+02  0.45594000000E+02  0.51100000000E-03 0.  1.
    9900012    2    1    2    0    0 -0.20568453599E+02  0.14507521950E+02  0.35356662659E+02  0.47787273382E+02  0.20000010658E+02 0.  0.
        -12    1    1    2    0    0  0.20568453599E+02 -0.14507521950E+02 -0.35356662659E+02  0.43400726618E+02  0.00000000000E+00 0.  1.
         11    1    3    3    0    0 -0.94279950564E+01  0.60915904968E+01  0.35659377320E+01  0.11777541243E+02  0.51100000000E-03 0. -1.
        -11    1    3    3    0    0 -0.57922084761E+01  0.97994925049E+01  0.21827221594E+02  0.24617216235E+02  0.51100000000E-03 0.  1.
        -12    1    3    3    0    0 -0.53482500662E+01 -0.13835610513E+01  0.99635033325E+01  0.11392515903E+02  0.00000000000E+00 0.  1.
</event>
<event>
 7    1  0.2886681E-010  0.4778727E+02  0.7816164E-02  0.1312668E+00
        -11   -1    0    0    0    0  0.00000000000E+00  0.00000000000E+00  0.45593999997E+02  0.45594000000E+02  0.51100000000E-03 0. -1.
         11   -1    0    0    0    0 -0.00000000000E+00 -0.00000000000E+00 -0.45593999997E+02  0.45594000000E+02  0.51100000000E-03 0.  1.
    9900012    2    1    2    0    0  0.20677697934E+02  0.35417247733E+02  0.14201221293E+02  0.47787270570E+02  0.19999997838E+02 0.  0.
        -12    1    1    2    0    0 -0.20677697934E+02 -0.35417247733E+02 -0.14201221293E+02  0.43400729430E+02  0.00000000000E+00 0.  1.
         11    1    3    3    0    0  0.11502305334E+02  0.57521771851E+01  0.11275302980E+01  0.12909759688E+02  0.51100000000E-03 0. -1.
        -11    1    3    3    0    0  0.11495298472E+01  0.93142763216E+01 -0.14514622049E-01  0.93849546190E+01  0.51100000000E-03 0.  1.
         12    1    3    3    0    0  0.80258627526E+01  0.20350794226E+02  0.13088205617E+02  0.25492556263E+02  0.00000000000E+00 0. -1.
</event>
<event>
 7    1  0.2886681E-010  0.4778727E+02  0.7816164E-02  0.1312668E+00
        -11   -1    0    0    0    0  0.00000000000E+00  0.00000000000E+00  0.45593999997E+02  0.45594000000E+02  0.51100000000E-03 0.  1.
         11   -1    0    0    0    0 -0.00000000000E+00 -0.00000000000E+00 -0.45593999997E+02  0.45594000000E+02  0.51100000000E-03 0. -1.
    9900012    2    1    2    0    0  0.17441597972E+02 -0.81029531138E+01 -0.38907019401E+02  0.47787270194E+02  0.19999996124E+02 0.  0.
        -12    1    1    2    0    0 -0.17441597972E+02  0.81029531138E+01  0.38907019401E+02  0.43400729806E+02  0.00000000000E+00 0.  1.
         11    1    3    3    0    0  0.81461392523E+01 -0.49169724257E+01 -0.11995355557E+02  0.15310935888E+02  0.51100000000E-03 0. -1.
        -11    1    3    3    0    0  0.94462083776E+01  0.22055664682E+01 -0.73103088434E+01  0.12146439470E+02  0.51100000000E-03 0.  1.
        -12    1    3    3    0    0 -0.15074965836E+00 -0.53915471563E+01 -0.19601355000E+02  0.20329894836E+02  0.00000000000E+00 0.  1.
</event>
<event>
 7    1  0.2886681E-010  0.4778728E+02  0.7816164E-02  0.1312668E+00
        -11   -1    0    0    0    0  0.00000000000E+00  0.00000000000E+00  0.45593999997E+02  0.45594000000E+02  0.51100000000E-03 0.  1.
         11   -1    0    0    0    0 -0.00000000000E+00 -0.00000000000E+00 -0.45593999997E+02  0.45594000000E+02  0.51100000000E-03 0. -1.
    9900012    2    1    2    0    0  0.29399302773E+02  0.24425996231E+02 -0.20559051265E+02  0.47787275532E+02  0.20000020459E+02 0.  0.
        -12    1    1    2    0    0 -0.29399302773E+02 -0.24425996231E+02  0.20559051265E+02  0.43400724468E+02  0.00000000000E+00 0.  1.
         11    1    3    3    0    0  0.67186472762E+01  0.13214212133E+02 -0.11673145086E+02  0.18868437667E+02  0.51100000000E-03 0. -1.
        -11    1    3    3    0    0  0.99539315629E+01  0.58709595109E+01  0.14896215986E+01  0.11651947988E+02  0.51100000000E-03 0.  1.
        -12    1    3    3    0    0  0.12726723934E+02  0.53408245876E+01 -0.10375527778E+02  0.17266889877E+02  0.00000000000E+00 0.  1.
</event>
<event>
 7    1  0.2886681E-010  0.4778727E+02  0.7816164E-02  0.1312668E+00
        -11   -1    0    0    0    0  0.00000000000E+00  0.00000000000E+00  0.45593999997E+02  0.45594000000E+02  0.51100000000E-03 0.  1.
         11   -1    0    0    0    0 -0.00000000000E+00 -0.00000000000E+00 -0.45593999997E+02  0.45594000000E+02  0.51100000000E-03 0. -1.
    9900012    2    1    2    0    0 -0.19657924208E+02 -0.16130333891E+02 -0.35171034309E+02  0.47787270628E+02  0.19999998102E+02 0.  0.
        -12    1    1    2    0    0  0.19657924208E+02  0.16130333891E+02  0.35171034309E+02  0.43400729372E+02  0.00000000000E+00 0.  1.
         11    1    3    3    0    0 -0.13494883573E+02 -0.51273794145E+01 -0.11641793516E+02  0.18545437682E+02  0.51100000000E-03 0. -1.
        -11    1    3    3    0    0 -0.94436777078E+00 -0.16101678772E+01 -0.16030403652E+02  0.16138720909E+02  0.51100000000E-03 0.  1.
        -12    1    3    3    0    0 -0.52186728647E+01 -0.93927865997E+01 -0.74988371416E+01  0.13103112037E+02  0.00000000000E+00 0.  1.
</event>
<event>
 7    1  0.2886681E-010  0.4778727E+02  0.7816164E-02  0.1312668E+00
        -11   -1    0    0    0    0  0.00000000000E+00  0.00000000000E+00  0.45593999997E+02  0.45594000000E+02  0.51100000000E-03 0.  1.
         11   -1    0    0    0    0 -0.00000000000E+00 -0.00000000000E+00 -0.45593999997E+02  0.45594000000E+02  0.51100000000E-03 0. -1.
    9900012    2    1    2    0    0 -0.13283197677E+02  0.26751122779E+02 -0.31489004303E+02  0.47787270715E+02  0.19999998500E+02 0.  0.
        -12    1    1    2    0    0  0.13283197677E+02 -0.26751122779E+02  0.31489004303E+02  0.43400729285E+02  0.00000000000E+00 0.  1.
         11    1    3    3    0    0 -0.17273919548E+01  0.58879882840E+01 -0.74480567274E+01  0.96501729660E+01  0.51100000000E-03 0. -1.
        -11    1    3    3    0    0 -0.14935581199E+01  0.18250202778E+02 -0.19628143224E+02  0.26843334815E+02  0.51100000000E-03 0.  1.
        -12    1    3    3    0    0 -0.10062247603E+02  0.26129317165E+01 -0.44128043512E+01  0.11293762934E+02  0.00000000000E+00 0.  1.
</event>
<event>
 7    1  0.2886681E-010  0.4778727E+02  0.7816164E-02  0.1312668E+00
        -11   -1    0    0    0    0  0.00000000000E+00  0.00000000000E+00  0.45593999997E+02  0.45594000000E+02  0.51100000000E-03 0. -1.
         11   -1    0    0    0    0 -0.00000000000E+00 -0.00000000000E+00 -0.45593999997E+02  0.45594000000E+02  0.51100000000E-03 0.  1.
    9900012    2    1    2    0    0 -0.21311751611E+02  0.30405996496E+02  0.22470156248E+02  0.47787270727E+02  0.19999998552E+02 0.  0.
        -12    1    1    2    0    0  0.21311751611E+02 -0.30405996496E+02 -0.22470156248E+02  0.43400729273E+02  0.00000000000E+00 0.  1.
         11    1    3    3    0    0 -0.10122021471E+02  0.20615998917E+02  0.75297329200E+01  0.24169642283E+02  0.51100000000E-03 0. -1.
        -11    1    3    3    0    0  0.21042136272E+01  0.18610800358E+01  0.24600732387E+01  0.37340721056E+01  0.51100000000E-03 0.  1.
         12    1    3    3    0    0 -0.13293943768E+02  0.79289175434E+01  0.12480350089E+02  0.19883556338E+02  0.00000000000E+00 0. -1.
</event>
<event>
 7    1  0.2886681E-010  0.4778727E+02  0.7816164E-02  0.1312668E+00
        -11   -1    0    0    0    0  0.00000000000E+00  0.00000000000E+00  0.45593999997E+02  0.45594000000E+02  0.51100000000E-03 0. -1.
         11   -1    0    0    0    0 -0.00000000000E+00 -0.00000000000E+00 -0.45593999997E+02  0.45594000000E+02  0.51100000000E-03 0.  1.
    9900012    2    1    2    0    0 -0.39800482079E+02  0.57591807010E+01  0.16321050784E+02  0.47787271495E+02  0.20000002055E+02 0.  0.
        -12    1    1    2    0    0  0.39800482079E+02 -0.57591807010E+01 -0.16321050784E+02  0.43400728505E+02  0.00000000000E+00 0.  1.
         11    1    3    3    0    0 -0.51770699824E+01 -0.33021701116E+01  0.22731568498E+01  0.65477953063E+01  0.51100000000E-03 0. -1.
        -11    1    3    3    0    0 -0.11821340062E+02  0.10134359695E+02  0.85323445844E+01  0.17755287428E+02  0.51100000000E-03 0.  1.
        -12    1    3    3    0    0 -0.22802072034E+02 -0.10730088819E+01  0.55155493494E+01  0.23484188761E+02  0.00000000000E+00 0.  1.
</event>
<event>
 7    1  0.2886681E-010  0.4778727E+02  0.7816164E-02  0.1312668E+00
        -11   -1    0    0    0    0  0.00000000000E+00  0.00000000000E+00  0.45593999997E+02  0.45594000000E+02  0.51100000000E-03 0. -1.
         11   -1    0    0    0    0 -0.00000000000E+00 -0.00000000000E+00 -0.45593999997E+02  0.45594000000E+02  0.51100000000E-03 0.  1.
    9900012    2    1    2    0    0  0.34716936094E+01 -0.41186402228E+02  0.13238249328E+02  0.47787266938E+02  0.19999981278E+02 0.  0.
        -12    1    1    2    0    0 -0.34716936094E+01  0.41186402228E+02 -0.13238249328E+02  0.43400733062E+02  0.00000000000E+00 0.  1.
         11    1    3    3    0    0 -0.33285400547E+01 -0.37077796172E+02  0.86826840371E+01  0.38226053291E+02  0.51100000000E-03 0. -1.
        -11    1    3    3    0    0  0.33365384139E+01 -0.23385027727E+01  0.79589921457E+00  0.41514503040E+01  0.51100000000E-03 0.  1.
         12    1    3    3    0    0  0.34636952501E+01 -0.17701032835E+01  0.37596660768E+01  0.54097633432E+01  0.00000000000E+00 0. -1.
</event>
<event>
 7    1  0.2886681E-010  0.4778726E+02  0.7816164E-02  0.1312668E+00
        -11   -1    0    0    0    0  0.00000000000E+00  0.00000000000E+00  0.45593999997E+02  0.45594000000E+02  0.51100000000E-03 0.  1.
         11   -1    0    0    0    0 -0.00000000000E+00 -0.00000000000E+00 -0.45593999997E+02  0.45594000000E+02  0.51100000000E-03 0. -1.
    9900012    2    1    2    0    0 -0.36988566335E+02  0.20601135043E+02  0.95427130584E+01  0.47787260638E+02  0.19999952554E+02 0.  0.
        -12    1    1    2    0    0  0.36988566335E+02 -0.20601135043E+02 -0.95427130584E+01  0.43400739362E+02  0.00000000000E+00 0.  1.
         11    1    3    3    0    0 -0.72313876566E+01  0.56415715243E+01  0.47876614735E+00  0.91841991480E+01  0.51100000000E-03 0. -1.
        -11    1    3    3    0    0 -0.29404226061E+02  0.16383382781E+02  0.11658741198E+02  0.35622324295E+02  0.51100000000E-03 0.  1.
        -12    1    3    3    0    0 -0.35295261802E+00 -0.14238192617E+01 -0.25947942865E+01  0.29807371957E+01  0.00000000000E+00 0.  1.
</event>
<event>
 7    1  0.2886681E-010  0.4778727E+02  0.7816164E-02  0.1312668E+00
        -11   -1    0    0    0    0  0.00000000000E+00  0.00000000000E+00  0.45593999997E+02  0.45594000000E+02  0.51100000000E-03 0.  1.
         11   -1    0    0    0    0 -0.00000000000E+00 -0.00000000000E+00 -0.45593999997E+02  0.45594000000E+02  0.51100000000E-03 0. -1.
    9900012    2    1    2    0    0  0.33252793135E+02  0.88978536499E+01 -0.26432994385E+02  0.47787271400E+02  0.20000001620E+02 0.  0.
        -12    1    1    2    0    0 -0.33252793135E+02 -0.88978536499E+01  0.26432994385E+02  0.43400728600E+02  0.00000000000E+00 0.  1.
         11    1    3    3    0    0  0.23533744900E+01 -0.65407189961E+00 -0.11620758983E+02  0.11874688255E+02  0.51100000000E-03 0. -1.
        -11    1    3    3    0    0  0.17765548544E+02  0.52497697084E+01 -0.57937520617E+01  0.19409852144E+02  0.51100000000E-03 0.  1.
         12    1    3    3    0    0  0.13133870101E+02  0.43021558411E+01 -0.90184833402E+01  0.16502731001E+02  0.00000000000E+00 0. -1.
</event>
<event>
 7    1  0.2886681E-010  0.4778726E+02  0.7816164E-02  0.1312668E+00
        -11   -1    0    0    0    0  0.00000000000E+00  0.00000000000E+00  0.45593999997E+02  0.45594000000E+02  0.51100000000E-03 0.  1.
         11   -1    0    0    0    0 -0.00000000000E+00 -0.00000000000E+00 -0.45593999997E+02  0.45594000000E+02  0.51100000000E-03 0. -1.
    9900012    2    1    2    0    0 -0.60591482220E+01 -0.17930089606E+02 -0.39056659537E+02  0.47787262165E+02  0.19999959515E+02 0.  0.
        -12    1    1    2    0    0  0.60591482220E+01  0.17930089606E+02  0.39056659537E+02  0.43400737835E+02  0.00000000000E+00 0.  1.
         11    1    3    3    0    0 -0.95155085498E+01 -0.16772915535E+02 -0.20715543549E+02  0.28302108460E+02  0.51100000000E-03 0. -1.
        -11    1    3    3    0    0  0.46840737425E+01 -0.19653670640E+01 -0.14942289893E+02  0.15782117793E+02  0.51100000000E-03 0.  1.
        -12    1    3    3    0    0 -0.12277134147E+01  0.80819299315E+00 -0.33988260950E+01  0.37030359121E+01  0.00000000000E+00 0.  1.
</event>
<event>
 7    1  0.2886681E-010  0.4778727E+02  0.7816164E-02  0.1312668E+00
        -11   -1    0    0    0    0  0.00000000000E+00  0.00000000000E+00  0.45593999997E+02  0.45594000000E+02  0.51100000000E-03 0.  1.
         11   -1    0    0    0    0 -0.00000000000E+00 -0.00000000000E+00 -0.45593999997E+02  0.45594000000E+02  0.51100000000E-03 0. -1.
    9900012    2    1    2    0    0 -0.15421326243E+02  0.94182319881E+01 -0.39460143012E+02  0.47787270934E+02  0.19999999497E+02 0.  0.
        -12    1    1    2    0    0  0.15421326243E+02 -0.94182319881E+01  0.39460143012E+02  0.43400729066E+02  0.00000000000E+00 0.  1.
         11    1    3    3    0    0 -0.93470237980E+01  0.34096475515E+01 -0.32982324588E+02  0.34450345220E+02  0.51100000000E-03 0. -1.
        -11    1    3    3    0    0 -0.53558701474E+01  0.24397358520E+01  0.23876660944E-01  0.58854249141E+01  0.51100000000E-03 0.  1.
         12    1    3    3    0    0 -0.71843229792E+00  0.35688485846E+01 -0.65016950853E+01  0.74515007997E+01  0.00000000000E+00 0. -1.
</event>
<event>
 7    1  0.2886681E-010  0.4778728E+02  0.7816164E-02  0.1312668E+00
        -11   -1    0    0    0    0  0.00000000000E+00  0.00000000000E+00  0.45593999997E+02  0.45594000000E+02  0.51100000000E-03 0.  1.
         11   -1    0    0    0    0 -0.00000000000E+00 -0.00000000000E+00 -0.45593999997E+02  0.45594000000E+02  0.51100000000E-03 0. -1.
    9900012    2    1    2    0    0  0.29793807472E+02  0.22444938493E+02 -0.22185053071E+02  0.47787276419E+02  0.20000024503E+02 0.  0.
        -12    1    1    2    0    0 -0.29793807472E+02 -0.22444938493E+02  0.22185053071E+02  0.43400723581E+02  0.00000000000E+00 0.  1.
         11    1    3    3    0    0  0.59488216192E+01 -0.89366254012E-01 -0.69572299914E+01  0.91542074697E+01  0.51100000000E-03 0. -1.
        -11    1    3    3    0    0  0.16340562233E+02  0.90556490425E+01 -0.29432064488E+01  0.18912461980E+02  0.51100000000E-03 0.  1.
        -12    1    3    3    0    0  0.75044236198E+01  0.13478655704E+02 -0.12284616631E+02  0.19720606969E+02  0.00000000000E+00 0.  1.
</event>
<event>
 7    1  0.2886681E-010  0.4778727E+02  0.7816164E-02  0.1312668E+00
        -11   -1    0    0    0    0  0.00000000000E+00  0.00000000000E+00  0.45593999997E+02  0.45594000000E+02  0.51100000000E-03 0.  1.
         11   -1    0    0    0    0 -0.00000000000E+00 -0.00000000000E+00 -0.45593999997E+02  0.45594000000E+02  0.51100000000E-03 0. -1.
    9900012    2    1    2    0    0  0.99427024938E+01 -0.11042435180E+02 -0.40777818199E+02  0.47787272303E+02  0.20000005737E+02 0.  0.
        -12    1    1    2    0    0 -0.99427024938E+01  0.11042435180E+02  0.40777818199E+02  0.43400727697E+02  0.00000000000E+00 0.  1.
         11    1    3    3    0    0  0.62060083651E+01 -0.12762970451E+02 -0.40434587785E+02  0.42852816058E+02  0.51100000000E-03 0. -1.
        -11    1    3    3    0    0  0.30408034557E+01  0.22267042326E+01 -0.94356683520E+00  0.38852304989E+01  0.51100000000E-03 0.  1.
         12    1    3    3    0    0  0.69589067306E+00 -0.50616896148E+00  0.60033642095E+00  0.10492257454E+01  0.00000000000E+00 0. -1.
</event>
<event>
 7    1  0.2886681E-010  0.4778726E+02  0.7816164E-02  0.1312668E+00
        -11   -1    0    0    0    0  0.00000000000E+00  0.00000000000E+00  0.45593999997E+02  0.45594000000E+02  0.51100000000E-03 0. -1.
         11   -1    0    0    0    0 -0.00000000000E+00 -0.00000000000E+00 -0.45593999997E+02  0.45594000000E+02  0.51100000000E-03 0.  1.
    9900012    2    1    2    0    0  0.25682262840E+02  0.12392344133E+02  0.32718118758E+02  0.47787261380E+02  0.19999955935E+02 0.  0.
        -12    1    1    2    0    0 -0.25682262840E+02 -0.12392344133E+02 -0.32718118758E+02  0.43400738620E+02  0.00000000000E+00 0.  1.
         11    1    3    3    0    0  0.12128263267E+02  0.13191188234E+02  0.18582141912E+02  0.25814689911E+02  0.51100000000E-03 0. -1.
        -11    1    3    3    0    0  0.29877849625E+01 -0.38184166658E+01  0.80856655498E+01  0.94278922597E+01  0.51100000000E-03 0.  1.
        -12    1    3    3    0    0  0.10566214611E+02  0.30195725649E+01  0.60503112961E+01  0.12544679209E+02  0.00000000000E+00 0.  1.
</event>
<event>
 7    1 -0.2886681E-010  0.4778727E+02  0.7816164E-02  0.1312668E+00
        -11   -1    0    0    0    0  0.00000000000E+00  0.00000000000E+00  0.45593999997E+02  0.45594000000E+02  0.51100000000E-03 0.  1.
         11   -1    0    0    0    0 -0.00000000000E+00 -0.00000000000E+00 -0.45593999997E+02  0.45594000000E+02  0.51100000000E-03 0. -1.
    9900012    2    1    2    0    0  0.10701112664E+01 -0.27388678083E+02 -0.33650234177E+02  0.47787273215E+02  0.20000009898E+02 0.  0.
        -12    1    1    2    0    0 -0.10701112664E+01  0.27388678083E+02  0.33650234177E+02  0.43400726785E+02  0.00000000000E+00 0.  1.
         11    1    3    3    0    0  0.34773579589E+01 -0.90087354465E+01 -0.46531928928E+01  0.10719213454E+02  0.51100000000E-03 0. -1.
        -11    1    3    3    0    0 -0.71456014350E+01 -0.60645248199E+01 -0.82817470796E+01  0.12507014676E+02  0.51100000000E-03 0.  1.
        -12    1    3    3    0    0  0.47383547425E+01 -0.12315417816E+02 -0.20715294205E+02  0.24561045085E+02  0.00000000000E+00 0.  1.
</event>
<event>
 7    1  0.2886681E-010  0.4778727E+02  0.7816164E-02  0.1312668E+00
        -11   -1    0    0    0    0  0.00000000000E+00  0.00000000000E+00  0.45593999997E+02  0.45594000000E+02  0.51100000000E-03 0.  1.
         11   -1    0    0    0    0 -0.00000000000E+00 -0.00000000000E+00 -0.45593999997E+02  0.45594000000E+02  0.51100000000E-03 0. -1.
    9900012    2    1    2    0    0  0.22426968953E+02  0.12484089561E+02 -0.34997171595E+02  0.47787269035E+02  0.19999990839E+02 0.  0.
        -12    1    1    2    0    0 -0.22426968953E+02 -0.12484089561E+02  0.34997171595E+02  0.43400730965E+02  0.00000000000E+00 0.  1.
         11    1    3    3    0    0 -0.64732929975E+00  0.80964614953E+00 -0.77568252912E+01  0.78257843677E+01  0.51100000000E-03 0. -1.
        -11    1    3    3    0    0  0.14095052410E+02  0.53913323662E+01 -0.63530556322E+01  0.16373707071E+02  0.51100000000E-03 0.  1.
        -12    1    3    3    0    0  0.89792458432E+01  0.62831110457E+01 -0.20887290672E+02  0.23587777597E+02  0.00000000000E+00 0.  1.
</event>
<event>
 7    1  0.2886681E-010  0.4778727E+02  0.7816164E-02  0.1312668E+00
        -11   -1    0    0    0    0  0.00000000000E+00  0.00000000000E+00  0.45593999997E+02  0.45594000000E+02  0.51100000000E-03 0.  1.
         11   -1    0    0    0    0 -0.00000000000E+00 -0.00000000000E+00 -0.45593999997E+02  0.45594000000E+02  0.51100000000E-03 0. -1.
    9900012    2    1    2    0    0  0.41018699034E+02 -0.10959414971E+02  0.89989409682E+01  0.47787269758E+02  0.19999994136E+02 0.  0.
        -12    1    1    2    0    0 -0.41018699034E+02  0.10959414971E+02 -0.89989409682E+01  0.43400730242E+02  0.00000000000E+00 0.  1.
         11    1    3    3    0    0  0.20680932176E+02 -0.13212040208E+02  0.91979994159E+01  0.26208055167E+02  0.51100000000E-03 0. -1.
        -11    1    3    3    0    0  0.11756653555E+02  0.32110847757E+01  0.26779626559E+01  0.12478038808E+02  0.51100000000E-03 0.  1.
         12    1    3    3    0    0  0.85811133027E+01 -0.95845953897E+00 -0.28770211036E+01  0.91011757829E+01  0.00000000000E+00 0. -1.
</event>
<event>
 7    1  0.2886681E-010  0.4778729E+02  0.7816164E-02  0.1312668E+00
        -11   -1    0    0    0    0  0.00000000000E+00  0.00000000000E+00  0.45593999997E+02  0.45594000000E+02  0.51100000000E-03 0.  1.
         11   -1    0    0    0    0 -0.00000000000E+00 -0.00000000000E+00 -0.45593999997E+02  0.45594000000E+02  0.51100000000E-03 0. -1.
    9900012    2    1    2    0    0  0.16618469660E+02  0.30272054693E+02 -0.26287850372E+02  0.47787286799E+02  0.20000071831E+02 0.  0.
        -12    1    1    2    0    0 -0.16618469660E+02 -0.30272054693E+02  0.26287850372E+02  0.43400713201E+02  0.00000000000E+00 0.  1.
         11    1    3    3    0    0  0.13672761802E+02  0.12405078879E+02 -0.36915601821E+01  0.18827055376E+02  0.51100000000E-03 0. -1.
        -11    1    3    3    0    0  0.24044545085E+01  0.14194000973E+02 -0.18227845106E+02  0.23227255597E+02  0.51100000000E-03 0.  1.
         12    1    3    3    0    0  0.54125334984E+00  0.36729748406E+01 -0.43684450841E+01  0.57329758260E+01  0.00000000000E+00 0. -1.
</event>
<event>
 7    1  0.2886681E-010  0.4778727E+02  0.7816164E-02  0.1312668E+00
        -11   -1    0    0    0    0  0.00000000000E+00  0.00000000000E+00  0.45593999997E+02  0.45594000000E+02  0.51100000000E-03 0. -1.
         11   -1    0    0    0    0 -0.00000000000E+00 -0.00000000000E+00 -0.45593999997E+02  0.45594000000E+02  0.51100000000E-03 0.  1.
    9900012    2    1    2    0    0 -0.11113475206E+02 -0.31978432716E+02  0.27156836835E+02  0.47787271008E+02  0.19999999836E+02 0.  0.
        -12    1    1    2    0    0  0.11113475206E+02  0.31978432716E+02 -0.27156836835E+02  0.43400728992E+02  0.00000000000E+00 0.  1.
         11    1    3    3    0    0 -0.89218990973E+01 -0.26753327654E+02  0.23861020903E+02  0.36941699242E+02  0.51100000000E-03 0. -1.
        -11    1    3    3    0    0  0.21841820708E+01 -0.52774048854E+01  0.69166636547E+00  0.57532648353E+01  0.51100000000E-03 0.  1.
         12    1    3    3    0    0 -0.43757581795E+01  0.52299823775E-01  0.26041495665E+01  0.50923069312E+01  0.00000000000E+00 0. -1.
</event>
<event>
 7    1  0.2886681E-010  0.4778727E+02  0.7816164E-02  0.1312668E+00
        -11   -1    0    0    0    0  0.00000000000E+00  0.00000000000E+00  0.45593999997E+02  0.45594000000E+02  0.51100000000E-03 0.  1.
         11   -1    0    0    0    0 -0.00000000000E+00 -0.00000000000E+00 -0.45593999997E+02  0.45594000000E+02  0.51100000000E-03 0. -1.
    9900012    2    1    2    0    0  0.22517287561E+02 -0.30264142886E+02 -0.21463373054E+02  0.47787274585E+02  0.20000016142E+02 0.  0.
        -12    1    1    2    0    0 -0.22517287561E+02  0.30264142886E+02  0.21463373054E+02  0.43400725415E+02  0.00000000000E+00 0.  1.
         11    1    3    3    0    0  0.81319366086E+01 -0.23464346842E+02 -0.85272412408E+01  0.26256766922E+02  0.51100000000E-03 0. -1.
        -11    1    3    3    0    0  0.28304594630E+01 -0.23640244386E+01 -0.85686977451E-01  0.36888283827E+01  0.51100000000E-03 0.  1.
         12    1    3    3    0    0  0.11554891489E+02 -0.44357716049E+01 -0.12850444836E+02  0.17841679280E+02  0.00000000000E+00 0. -1.
</event>
<event>
 7    1  0.2886681E-010  0.4778728E+02  0.7816164E-02  0.1312668E+00
        -11   -1    0    0    0    0  0.00000000000E+00  0.00000000000E+00  0.45593999997E+02  0.45594000000E+02  0.51100000000E-03 0.  1.
         11   -1    0    0    0    0 -0.00000000000E+00 -0.00000000000E+00 -0.45593999997E+02  0.45594000000E+02  0.51100000000E-03 0. -1.
    9900012    2    1    2    0    0  0.17616843148E+02  0.28138772663E+02 -0.27954947415E+02  0.47787276798E+02  0.20000026232E+02 0.  0.
        -12    1    1    2    0    0 -0.17616843148E+02 -0.28138772663E+02  0.27954947415E+02  0.43400723202E+02  0.00000000000E+00 0.  1.
         11    1    3    3    0    0  0.18417236138E+02  0.22474439962E+02 -0.22810852893E+02  0.36940899401E+02  0.51100000000E-03 0. -1.
        -11    1    3    3    0    0  0.19031251523E+01  0.27999006589E+01  0.10160577177E+01  0.35346432057E+01  0.51100000000E-03 0.  1.
         12    1    3    3    0    0 -0.27035181422E+01  0.28644320420E+01 -0.61601522396E+01  0.73117341913E+01  0.00000000000E+00 0. -1.
</event>
<event>
 7    1  0.2886681E-010  0.4778728E+02  0.7816164E-02  0.1312668E+00
        -11   -1    0    0    0    0  0.00000000000E+00  0.00000000000E+00  0.45593999997E+02  0.45594000000E+02  0.51100000000E-03 0.  1.
         11   -1    0    0    0    0 -0.00000000000E+00 -0.00000000000E+00 -0.45593999997E+02  0.45594000000E+02  0.51100000000E-03 0. -1.
    9900012    2    1    2    0    0 -0.58357790603E+01  0.25420262389E+02 -0.34689720952E+02  0.47787276539E+02  0.20000025054E+02 0.  0.
        -12    1    1    2    0    0  0.58357790603E+01 -0.25420262389E+02  0.34689720952E+02  0.43400723461E+02  0.00000000000E+00 0.  1.
         11    1    3    3    0    0 -0.79175512581E+00  0.92556783705E+01 -0.70557022048E+01  0.11665221478E+02  0.51100000000E-03 0. -1.
        -11    1    3    3    0    0 -0.91176796982E+01  0.15522108735E+02 -0.26133180841E+02  0.31733437945E+02  0.51100000000E-03 0.  1.
        -12    1    3    3    0    0  0.40736557637E+01  0.64247528314E+00 -0.15008379060E+01  0.43886171160E+01  0.00000000000E+00 0.  1.
</event>
<event>
 7    1  0.2886681E-010  0.4778728E+02  0.7816164E-02  0.1312668E+00
        -11   -1    0    0    0    0  0.00000000000E+00  0.00000000000E+00  0.45593999997E+02  0.45594000000E+02  0.51100000000E-03 0.  1.
         11   -1    0    0    0    0 -0.00000000000E+00 -0.00000000000E+00 -0.45593999997E+02  0.45594000000E+02  0.51100000000E-03 0. -1.
    9900012    2    1    2    0    0 -0.36535752748E+02  0.19517675322E+02 -0.12954609821E+02  0.47787276568E+02  0.20000025182E+02 0.  0.
        -12    1    1    2    0    0  0.36535752748E+02 -0.19517675322E+02  0.12954609821E+02  0.43400723432E+02  0.00000000000E+00 0.  1.
         11    1    3    3    0    0 -0.64630563440E+01  0.46183480708E+01  0.23428126591E+01  0.82818480803E+01  0.51100000000E-03 0. -1.
        -11    1    3    3    0    0 -0.14825242128E+02  0.20877518267E+01 -0.12278531422E+02  0.19362563001E+02  0.51100000000E-03 0.  1.
        -12    1    3    3    0    0 -0.15247454276E+02  0.12811575425E+02 -0.30188910584E+01  0.20142865486E+02  0.00000000000E+00 0.  1.
</event>
<event>
 7    1  0.2886681E-010  0.4778727E+02  0.7816164E-02  0.1312668E+00
        -11   -1    0    0    0    0  0.00000000000E+00  0.00000000000E+00  0.45593999997E+02  0.45594000000E+02  0.51100000000E-03 0. -1.
         11   -1    0    0    0    0 -0.00000000000E+00 -0.00000000000E+00 -0.45593999997E+02  0.45594000000E+02  0.51100000000E-03 0.  1.
    9900012    2    1    2    0    0  0.35177371156E+01  0.97459344613E+01  0.42145762289E+02  0.47787274293E+02  0.20000014814E+02 0.  0.
        -12    1    1    2    0    0 -0.35177371156E+01 -0.97459344613E+01 -0.42145762289E+02  0.43400725707E+02  0.00000000000E+00 0.  1.
         11    1    3    3    0    0  0.94665427912E+01  0.76256195578E+01  0.37272273346E+02  0.39204436824E+02  0.51100000000E-03 0. -1.
        -11    1    3    3    0    0 -0.40659843984E+01  0.27973591041E+01  0.26883337875E+01  0.56200165390E+01  0.51100000000E-03 0.  1.
         12    1    3    3    0    0 -0.18828212771E+01 -0.67704420063E+00  0.21851551554E+01  0.29628209302E+01  0.00000000000E+00 0. -1.
</event>
<event>
 7    1  0.2886681E-010  0.4778729E+02  0.7816164E-02  0.1312668E+00
        -11   -1    0    0    0    0  0.00000000000E+00  0.00000000000E+00  0.45593999997E+02  0.45594000000E+02  0.51100000000E-03 0. -1.
         11   -1    0    0    0    0 -0.00000000000E+00 -0.00000000000E+00 -0.45593999997E+02  0.45594000000E+02  0.51100000000E-03 0.  1.
    9900012    2    1    2    0    0  0.18372486663E+02 -0.62967867450E+01  0.38812670969E+02  0.47787294738E+02  0.20000108029E+02 0.  0.
        -12    1    1    2    0    0 -0.18372486663E+02  0.62967867450E+01 -0.38812670969E+02  0.43400705262E+02  0.00000000000E+00 0.  1.
         11    1    3    3    0    0  0.43496374038E+01 -0.90475478872E+00  0.20430487693E+02  0.20907959116E+02  0.51100000000E-03 0. -1.
        -11    1    3    3    0    0  0.69937158632E+01  0.12719322179E+01  0.12770960436E+01  0.72222467216E+01  0.51100000000E-03 0.  1.
         12    1    3    3    0    0  0.70291333957E+01 -0.66639641742E+01  0.17105087232E+02  0.19657088900E+02  0.00000000000E+00 0. -1.
</event>
<event>
 7    1  0.2886681E-010  0.4778728E+02  0.7816164E-02  0.1312668E+00
        -11   -1    0    0    0    0  0.00000000000E+00  0.00000000000E+00  0.45593999997E+02  0.45594000000E+02  0.51100000000E-03 0.  1.
         11   -1    0    0    0    0 -0.00000000000E+00 -0.00000000000E+00 -0.45593999997E+02  0.45594000000E+02  0.51100000000E-03 0. -1.
    9900012    2    1    2    0    0 -0.13266732452E+02 -0.10282317257E+02 -0.40023619169E+02  0.47787281924E+02  0.20000049603E+02 0.  0.
        -12    1    1    2    0    0  0.13266732452E+02  0.10282317257E+02  0.40023619169E+02  0.43400718076E+02  0.00000000000E+00 0.  1.
         11    1    3    3    0    0 -0.66360935288E+01 -0.86378432621E+01 -0.27017540583E+02  0.29130698120E+02  0.51100000000E-03 0. -1.
        -11    1    3    3    0    0  0.13104711840E+01  0.20105998771E+01  0.60954385758E+00  0.24761644867E+01  0.51100000000E-03 0.  1.
        -12    1    3    3    0    0 -0.79411101070E+01 -0.36550738715E+01 -0.13615622444E+02  0.16180419317E+02  0.00000000000E+00 0.  1.
</event>
<event>
 7    1  0.2886681E-010  0.4778726E+02  0.7816164E-02  0.1312668E+00
        -11   -1    0    0    0    0  0.00000000000E+00  0.00000000000E+00  0.45593999997E+02  0.45594000000E+02  0.51100000000E-03 0.  1.
         11   -1    0    0    0    0 -0.00000000000E+00 -0.00000000000E+00 -0.45593999997E+02  0.45594000000E+02  0.51100000000E-03 0. -1.
    9900012    2    1    2    0    0 -0.26925786036E+02 -0.28109640151E+02 -0.19195689283E+02  0.47787259106E+02  0.19999945570E+02 0.  0.
        -12    1    1    2    0    0  0.26925786036E+02  0.28109640151E+02  0.19195689283E+02  0.43400740894E+02  0.00000000000E+00 0.  1.
         11    1    3    3    0    0 -0.23693866563E+02 -0.27202389504E+02 -0.17860602569E+02  0.40253825058E+02  0.51100000000E-03 0. -1.
        -11    1    3    3    0    0 -0.32495555645E+01 -0.33202379330E+01  0.23967829889E+00  0.46519928253E+01  0.51100000000E-03 0.  1.
         12    1    3    3    0    0  0.17636091302E-01  0.24129872864E+01 -0.15747650125E+01  0.28814412228E+01  0.00000000000E+00 0. -1.
</event>
<event>
 7    1  0.2886681E-010  0.4778727E+02  0.7816164E-02  0.1312668E+00
        -11   -1    0    0    0    0  0.00000000000E+00  0.00000000000E+00  0.45593999997E+02  0.45594000000E+02  0.51100000000E-03 0.  1.
         11   -1    0    0    0    0 -0.00000000000E+00 -0.00000000000E+00 -0.45593999997E+02  0.45594000000E+02  0.51100000000E-03 0. -1.
    9900012    2    1    2    0    0 -0.28240825517E+02  0.30963366757E+02  0.11284901915E+02  0.47787270536E+02  0.19999997681E+02 0.  0.
        -12    1    1    2    0    0  0.28240825517E+02 -0.30963366757E+02 -0.11284901915E+02  0.43400729464E+02  0.00000000000E+00 0.  1.
         11    1    3    3    0    0 -0.53314236346E+01  0.33212708496E+01  0.95066112975E+01  0.11394322123E+02  0.51100000000E-03 0. -1.
        -11    1    3    3    0    0 -0.17777806954E+02  0.22597219659E+02 -0.76033477914E+00  0.28762177693E+02  0.51100000000E-03 0.  1.
        -12    1    3    3    0    0 -0.51315949288E+01  0.50448762480E+01  0.25386253969E+01  0.76307707198E+01  0.00000000000E+00 0.  1.
</event>
<event>
 7    1  0.2886681E-010  0.4778727E+02  0.7816164E-02  0.1312668E+00
        -11   -1    0    0    0    0  0.00000000000E+00  0.00000000000E+00  0.45593999997E+02  0.45594000000E+02  0.51100000000E-03 0.  1.
         11   -1    0    0    0    0 -0.00000000000E+00 -0.00000000000E+00 -0.45593999997E+02  0.45594000000E+02  0.51100000000E-03 0. -1.
    9900012    2    1    2    0    0  0.21151389802E+02 -0.37825413965E+02  0.23409196505E+01  0.47787272621E+02  0.20000007188E+02 0.  0.
        -12    1    1    2    0    0 -0.21151389802E+02  0.37825413965E+02 -0.23409196505E+01  0.43400727379E+02  0.00000000000E+00 0.  1.
         11    1    3    3    0    0  0.70047578787E+00 -0.34146231657E+01  0.17150643745E+01  0.38848119341E+01  0.51100000000E-03 0. -1.
        -11    1    3    3    0    0  0.12066566985E+02 -0.15989568196E+02  0.90482535422E+01  0.21980428165E+02  0.51100000000E-03 0.  1.
        -12    1    3    3    0    0  0.83843470295E+01 -0.18421222604E+02 -0.84223982661E+01  0.21922032522E+02  0.00000000000E+00 0.  1.
</event>
<event>
 7    1  0.2886681E-010  0.4778727E+02  0.7816164E-02  0.1312668E+00
        -11   -1    0    0    0    0  0.00000000000E+00  0.00000000000E+00  0.45593999997E+02  0.45594000000E+02  0.51100000000E-03 0.  1.
         11   -1    0    0    0    0 -0.00000000000E+00 -0.00000000000E+00 -0.45593999997E+02  0.45594000000E+02  0.51100000000E-03 0. -1.
    9900012    2    1    2    0    0 -0.11876273363E+02 -0.29869812059E+02 -0.29161133957E+02  0.47787271030E+02  0.19999999936E+02 0.  0.
        -12    1    1    2    0    0  0.11876273363E+02  0.29869812059E+02  0.29161133957E+02  0.43400728970E+02  0.00000000000E+00 0.  1.
         11    1    3    3    0    0 -0.85487586867E+01 -0.14988944108E+02 -0.15546851270E+02  0.23226155627E+02  0.51100000000E-03 0. -1.
        -11    1    3    3    0    0  0.31616843802E+01  0.33990467544E+00 -0.74055682666E-01  0.31807652874E+01  0.51100000000E-03 0.  1.
        -12    1    3    3    0    0 -0.64891990560E+01 -0.15220772627E+02 -0.13540227004E+02  0.21380350116E+02  0.00000000000E+00 0.  1.
</event>
<event>
 7    1  0.2886681E-010  0.4778727E+02  0.7816164E-02  0.1312668E+00
        -11   -1    0    0    0    0  0.00000000000E+00  0.00000000000E+00  0.45593999997E+02  0.45594000000E+02  0.51100000000E-03 0.  1.
         11   -1    0    0    0    0 -0.00000000000E+00 -0.00000000000E+00 -0.45593999997E+02  0.45594000000E+02  0.51100000000E-03 0. -1.
    9900012    2    1    2    0    0 -0.31074530716E+02  0.24314109733E+02 -0.18078197911E+02  0.47787266930E+02  0.19999981239E+02 0.  0.
        -12    1    1    2    0    0  0.31074530716E+02 -0.24314109733E+02  0.18078197911E+02  0.43400733070E+02  0.00000000000E+00 0.  1.
         11    1    3    3    0    0 -0.70167740704E+01  0.14385685920E+02 -0.63689450342E+01  0.17226332716E+02  0.51100000000E-03 0. -1.
        -11    1    3    3    0    0 -0.23002064215E+01  0.19502170851E+01  0.20157569150E+01  0.36273368278E+01  0.51100000000E-03 0.  1.
         12    1    3    3    0    0 -0.21757550224E+02  0.79782067282E+01 -0.13725009792E+02  0.26933597386E+02  0.00000000000E+00 0. -1.
</event>
<event>
 7    1  0.2886681E-010  0.4778729E+02  0.7816164E-02  0.1312668E+00
        -11   -1    0    0    0    0  0.00000000000E+00  0.00000000000E+00  0.45593999997E+02  0.45594000000E+02  0.51100000000E-03 0.  1.
         11   -1    0    0    0    0 -0.00000000000E+00 -0.00000000000E+00 -0.45593999997E+02  0.45594000000E+02  0.51100000000E-03 0. -1.
    9900012    2    1    2    0    0  0.12172386879E+02 -0.37492086168E+02 -0.18160349154E+02  0.47787287921E+02  0.20000076948E+02 0.  0.
        -12    1    1    2    0    0 -0.12172386879E+02  0.37492086168E+02  0.18160349154E+02  0.43400712079E+02  0.00000000000E+00 0.  1.
         11    1    3    3    0    0  0.43591585237E+01 -0.23133852898E+02 -0.13033114751E+02  0.26907981963E+02  0.51100000000E-03 0. -1.
        -11    1    3    3    0    0  0.18867940299E+01  0.13169036250E+01 -0.32985410569E+01  0.40217658105E+01  0.51100000000E-03 0.  1.
         12    1    3    3    0    0  0.59264343253E+01 -0.15675136895E+02 -0.18286933462E+01  0.16857540148E+02  0.00000000000E+00 0. -1.
</event>
<event>
 7    1  0.2886681E-010  0.4778727E+02  0.7816164E-02  0.1312668E+00
        -11   -1    0    0    0    0  0.00000000000E+00  0.00000000000E+00  0.45593999997E+02  0.45594000000E+02  0.51100000000E-03 0.  1.
         11   -1    0    0    0    0 -0.00000000000E+00 -0.00000000000E+00 -0.45593999997E+02  0.45594000000E+02  0.51100000000E-03 0. -1.
    9900012    2    1    2    0    0 -0.14045431229E+02  0.31941330955E+02 -0.25808920560E+02  0.47787272563E+02  0.20000006924E+02 0.  0.
        -12    1    1    2    0    0  0.14045431229E+02 -0.31941330955E+02  0.25808920560E+02  0.43400727437E+02  0.00000000000E+00 0.  1.
         11    1    3    3    0    0 -0.15730754914E+01  0.17020870790E+02 -0.32322227527E+01  0.17396317804E+02  0.51100000000E-03 0. -1.
        -11    1    3    3    0    0 -0.11563611517E+02  0.11102948296E+02 -0.15499348046E+02  0.22298483408E+02  0.51100000000E-03 0.  1.
         12    1    3    3    0    0 -0.90874422105E+00  0.38175118688E+01 -0.70773497613E+01  0.80924713513E+01  0.00000000000E+00 0. -1.
</event>
<event>
 7    1  0.2886681E-010  0.4778727E+02  0.7816164E-02  0.1312668E+00
        -11   -1    0    0    0    0  0.00000000000E+00  0.00000000000E+00  0.45593999997E+02  0.45594000000E+02  0.51100000000E-03 0.  1.
         11   -1    0    0    0    0 -0.00000000000E+00 -0.00000000000E+00 -0.45593999997E+02  0.45594000000E+02  0.51100000000E-03 0. -1.
    9900012    2    1    2    0    0  0.27148127827E+02  0.18345649349E+02 -0.28461194186E+02  0.47787271100E+02  0.20000000254E+02 0.  0.
        -12    1    1    2    0    0 -0.27148127827E+02 -0.18345649349E+02  0.28461194186E+02  0.43400728900E+02  0.00000000000E+00 0.  1.
         11    1    3    3    0    0  0.17621756075E+02  0.95321583056E+01 -0.73746772277E+01  0.21348868672E+02  0.51100000000E-03 0. -1.
        -11    1    3    3    0    0  0.76668058786E+01  0.97912071193E+01 -0.20912024844E+02  0.24330237002E+02  0.51100000000E-03 0.  1.
        -12    1    3    3    0    0  0.18595658740E+01 -0.97771607565E+00 -0.17449211389E+00  0.21081654257E+01  0.00000000000E+00 0.  1.
</event>
<event>
 7    1  0.2886681E-010  0.4778727E+02  0.7816164E-02  0.1312668E+00
        -11   -1    0    0    0    0  0.00000000000E+00  0.00000000000E+00  0.45593999997E+02  0.45594000000E+02  0.51100000000E-03 0. -1.
         11   -1    0    0    0    0 -0.00000000000E+00 -0.00000000000E+00 -0.45593999997E+02  0.45594000000E+02  0.51100000000E-03 0.  1.
    9900012    2    1    2    0    0 -0.26387855505E+02 -0.14765227081E+02  0.31133468868E+02  0.47787265758E+02  0.19999975899E+02 0.  0.
        -12    1    1    2    0    0  0.26387855505E+02  0.14765227081E+02 -0.31133468868E+02  0.43400734242E+02  0.00000000000E+00 0.  1.
         11    1    3    3    0    0 -0.84344145524E+00 -0.92703090816E+00  0.30164973288E+01  0.32665021336E+01  0.51100000000E-03 0. -1.
        -11    1    3    3    0    0 -0.18685209532E+02 -0.76748290199E+01  0.68319836215E+01  0.21324072224E+02  0.51100000000E-03 0.  1.
        -12    1    3    3    0    0 -0.68592045180E+01 -0.61633671528E+01  0.21284987918E+02  0.23196691401E+02  0.00000000000E+00 0.  1.
</event>
<event>
 7    1  0.2886681E-010  0.4778727E+02  0.7816164E-02  0.1312668E+00
        -11   -1    0    0    0    0  0.00000000000E+00  0.00000000000E+00  0.45593999997E+02  0.45594000000E+02  0.51100000000E-03 0. -1.
         11   -1    0    0    0    0 -0.00000000000E+00 -0.00000000000E+00 -0.45593999997E+02  0.45594000000E+02  0.51100000000E-03 0.  1.
    9900012    2    1    2    0    0  0.35829716418E+02  0.22892795448E+02  0.87048763368E+01  0.47787268047E+02  0.19999986333E+02 0.  0.
        -12    1    1    2    0    0 -0.35829716418E+02 -0.22892795448E+02 -0.87048763368E+01  0.43400731953E+02  0.00000000000E+00 0.  1.
         11    1    3    3    0    0  0.13122180357E+02  0.17414665183E+02  0.85055316549E+01  0.23405261155E+02  0.51100000000E-03 0. -1.
        -11    1    3    3    0    0 -0.43346510761E+00  0.10815423040E+00  0.43696566130E+00  0.62492286512E+00  0.51100000000E-03 0.  1.
         12    1    3    3    0    0  0.23141001169E+02  0.53699760348E+01 -0.23762097944E+00  0.23757084027E+02  0.00000000000E+00 0. -1.
</event>
<event>
 7    1  0.2886681E-010  0.4778727E+02  0.7816164E-02  0.1312668E+00
        -11   -1    0    0    0    0  0.00000000000E+00  0.00000000000E+00  0.45593999997E+02  0.45594000000E+02  0.51100000000E-03 0. -1.
         11   -1    0    0    0    0 -0.00000000000E+00 -0.00000000000E+00 -0.45593999997E+02  0.45594000000E+02  0.51100000000E-03 0.  1.
    9900012    2    1    2    0    0 -0.39830853093E+02 -0.17177146890E+02  0.14395627974E+01  0.47787267582E+02  0.19999984212E+02 0.  0.
        -12    1    1    2    0    0  0.39830853093E+02  0.17177146890E+02 -0.14395627974E+01  0.43400732418E+02  0.00000000000E+00 0.  1.
         11    1    3    3    0    0 -0.90246387033E+01  0.97696441739E+00  0.47373652867E+01  0.10239198861E+02  0.51100000000E-03 0. -1.
        -11    1    3    3    0    0 -0.14145629171E+02 -0.61665169338E+01 -0.65556558946E+01  0.16766078260E+02  0.51100000000E-03 0.  1.
         12    1    3    3    0    0 -0.16660585219E+02 -0.11987594374E+02  0.32578534053E+01  0.20781990461E+02  0.00000000000E+00 0. -1.
</event>
<event>
 7    1  0.2886681E-010  0.4778727E+02  0.7816164E-02  0.1312668E+00
        -11   -1    0    0    0    0  0.00000000000E+00  0.00000000000E+00  0.45593999997E+02  0.45594000000E+02  0.51100000000E-03 0.  1.
         11   -1    0    0    0    0 -0.00000000000E+00 -0.00000000000E+00 -0.45593999997E+02  0.45594000000E+02  0.51100000000E-03 0. -1.
    9900012    2    1    2    0    0  0.32960787813E+02 -0.18948711973E+02 -0.20932171564E+02  0.47787273911E+02  0.20000013070E+02 0.  0.
        -12    1    1    2    0    0 -0.32960787813E+02  0.18948711973E+02  0.20932171564E+02  0.43400726089E+02  0.00000000000E+00 0.  1.
         11    1    3    3    0    0  0.15171545286E+02 -0.10679512466E+02 -0.78174721595E+01  0.20133073389E+02  0.51100000000E-03 0. -1.
        -11    1    3    3    0    0  0.18153634612E+02 -0.41132130653E+01 -0.62758910230E+01  0.19643313868E+02  0.51100000000E-03 0.  1.
        -12    1    3    3    0    0 -0.36439208488E+00 -0.41559864413E+01 -0.68388083816E+01  0.80108866533E+01  0.00000000000E+00 0.  1.
</event>
<event>
 7    1  0.2886681E-010  0.4778727E+02  0.7816164E-02  0.1312668E+00
        -11   -1    0    0    0    0  0.00000000000E+00  0.00000000000E+00  0.45593999997E+02  0.45594000000E+02  0.51100000000E-03 0.  1.
         11   -1    0    0    0    0 -0.00000000000E+00 -0.00000000000E+00 -0.45593999997E+02  0.45594000000E+02  0.51100000000E-03 0. -1.
    9900012    2    1    2    0    0  0.17069017867E+01  0.64881822765E+01 -0.42879052533E+02  0.47787272252E+02  0.20000005504E+02 0.  0.
        -12    1    1    2    0    0 -0.17069017867E+01 -0.64881822765E+01  0.42879052533E+02  0.43400727748E+02  0.00000000000E+00 0.  1.
         11    1    3    3    0    0  0.23012075033E+01 -0.38548462522E+01 -0.16901753273E+02  0.17487843194E+02  0.51100000000E-03 0. -1.
        -11    1    3    3    0    0  0.15248710411E+01  0.86350704245E+01 -0.72566115227E+01  0.11381919169E+02  0.51100000000E-03 0.  1.
        -12    1    3    3    0    0 -0.21191767577E+01  0.17079581042E+01 -0.18720687737E+02  0.18917509888E+02  0.00000000000E+00 0.  1.
</event>
<event>
 7    1  0.2886681E-010  0.4778728E+02  0.7816164E-02  0.1312668E+00
        -11   -1    0    0    0    0  0.00000000000E+00  0.00000000000E+00  0.45593999997E+02  0.45594000000E+02  0.51100000000E-03 0. -1.
         11   -1    0    0    0    0 -0.00000000000E+00 -0.00000000000E+00 -0.45593999997E+02  0.45594000000E+02  0.51100000000E-03 0.  1.
    9900012    2    1    2    0    0  0.23000952231E+02 -0.35527429268E+02 -0.96114955670E+01  0.47787275571E+02  0.20000020640E+02 0.  0.
        -12    1    1    2    0    0 -0.23000952231E+02  0.35527429268E+02  0.96114955670E+01  0.43400724429E+02  0.00000000000E+00 0.  1.
         11    1    3    3    0    0 -0.71586113173E+00 -0.13228734116E+02 -0.35352771476E+01  0.13711675618E+02  0.51100000000E-03 0. -1.
        -11    1    3    3    0    0  0.17128440460E+02 -0.18391390453E+02 -0.76194554517E+01  0.26261812904E+02  0.51100000000E-03 0.  1.
         12    1    3    3    0    0  0.65883729030E+01 -0.39073046981E+01  0.15432370323E+01  0.78137870492E+01  0.00000000000E+00 0. -1.
</event>
<event>
 7    1  0.2886681E-010  0.4778727E+02  0.7816164E-02  0.1312668E+00
        -11   -1    0    0    0    0  0.00000000000E+00  0.00000000000E+00  0.45593999997E+02  0.45594000000E+02  0.51100000000E-03 0.  1.
         11   -1    0    0    0    0 -0.00000000000E+00 -0.00000000000E+00 -0.45593999997E+02  0.45594000000E+02  0.51100000000E-03 0. -1.
    9900012    2    1    2    0    0 -0.13454011747E+02 -0.34236667071E+02 -0.23031798159E+02  0.47787268087E+02  0.19999986515E+02 0.  0.
        -12    1    1    2    0    0  0.13454011747E+02  0.34236667071E+02  0.23031798159E+02  0.43400731913E+02  0.00000000000E+00 0.  1.
         11    1    3    3    0    0 -0.15751639525E+02 -0.20716840057E+02 -0.13049122555E+02  0.29113248005E+02  0.51100000000E-03 0. -1.
        -11    1    3    3    0    0  0.31698673691E+01 -0.14199616585E+02 -0.98276985009E+01  0.17557358240E+02  0.51100000000E-03 0.  1.
        -12    1    3    3    0    0 -0.87223959088E+00  0.67978957138E+00 -0.15497710225E+00  0.11166618411E+01  0.00000000000E+00 0.  1.
</event>
<event>
 7    1  0.2886681E-010  0.4778727E+02  0.7816164E-02  0.1312668E+00
        -11   -1    0    0    0    0  0.00000000000E+00  0.00000000000E+00  0.45593999997E+02  0.45594000000E+02  0.51100000000E-03 0.  1.
         11   -1    0    0    0    0 -0.00000000000E+00 -0.00000000000E+00 -0.45593999997E+02  0.45594000000E+02  0.51100000000E-03 0. -1.
    9900012    2    1    2    0    0 -0.20476529683E+02  0.38241918254E+02 -0.13750054053E+01  0.47787271672E+02  0.20000002860E+02 0.  0.
        -12    1    1    2    0    0  0.20476529683E+02 -0.38241918254E+02  0.13750054053E+01  0.43400728328E+02  0.00000000000E+00 0.  1.
         11    1    3    3    0    0 -0.10893658024E+02  0.13378148706E+02 -0.16848200320E+01  0.17334510859E+02  0.51100000000E-03 0. -1.
        -11    1    3    3    0    0 -0.19739136280E+01  0.49505962658E+01 -0.61882825484E+01  0.81669810553E+01  0.51100000000E-03 0.  1.
        -12    1    3    3    0    0 -0.76089580307E+01  0.19913173282E+02  0.64980971751E+01  0.22285779757E+02  0.00000000000E+00 0.  1.
</event>
<event>
 7    1  0.2886681E-010  0.4778728E+02  0.7816164E-02  0.1312668E+00
        -11   -1    0    0    0    0  0.00000000000E+00  0.00000000000E+00  0.45593999997E+02  0.45594000000E+02  0.51100000000E-03 0. -1.
         11   -1    0    0    0    0 -0.00000000000E+00 -0.00000000000E+00 -0.45593999997E+02  0.45594000000E+02  0.51100000000E-03 0.  1.
    9900012    2    1    2    0    0  0.27539252199E+01  0.36235253679E+02 -0.23728566314E+02  0.47787279124E+02  0.20000036837E+02 0.  0.
        -12    1    1    2    0    0 -0.27539252199E+01 -0.36235253679E+02  0.23728566314E+02  0.43400720876E+02  0.00000000000E+00 0.  1.
         11    1    3    3    0    0 -0.34194110597E+01  0.98867505863E+01 -0.49811941553E+01  0.11586738308E+02  0.51100000000E-03 0. -1.
        -11    1    3    3    0    0  0.48600560979E+00  0.19294520027E+02 -0.19071382275E+02  0.27133601432E+02  0.51100000000E-03 0.  1.
        -12    1    3    3    0    0  0.56873306698E+01  0.70539830652E+01  0.32401011623E+00  0.90669393837E+01  0.00000000000E+00 0.  1.
</event>
<event>
 7    1  0.2886681E-010  0.4778727E+02  0.7816164E-02  0.1312668E+00
        -11   -1    0    0    0    0  0.00000000000E+00  0.00000000000E+00  0.45593999997E+02  0.45594000000E+02  0.51100000000E-03 0.  1.
         11   -1    0    0    0    0 -0.00000000000E+00 -0.00000000000E+00 -0.45593999997E+02  0.45594000000E+02  0.51100000000E-03 0. -1.
    9900012    2    1    2    0    0  0.29903083529E+02 -0.20450679600E+02 -0.23899762414E+02  0.47787270235E+02  0.19999996310E+02 0.  0.
        -12    1    1    2    0    0 -0.29903083529E+02  0.20450679600E+02  0.23899762414E+02  0.43400729765E+02  0.00000000000E+00 0.  1.
         11    1    3    3    0    0  0.14126579773E+02 -0.25058416070E+01 -0.16237320681E+02  0.21667719802E+02  0.51100000000E-03 0. -1.
        -11    1    3    3    0    0  0.52903913795E+01 -0.92290571776E+01 -0.64263543677E+01  0.12428264885E+02  0.51100000000E-03 0.  1.
         12    1    3    3    0    0  0.10486112376E+02 -0.87157808156E+01 -0.12360873660E+01  0.13691285548E+02  0.00000000000E+00 0. -1.
</event>
<event>
 7    1  0.2886681E-010  0.4778727E+02  0.7816164E-02  0.1312668E+00
        -11   -1    0    0    0    0  0.00000000000E+00  0.00000000000E+00  0.45593999997E+02  0.45594000000E+02  0.51100000000E-03 0.  1.
         11   -1    0    0    0    0 -0.00000000000E+00 -0.00000000000E+00 -0.45593999997E+02  0.45594000000E+02  0.51100000000E-03 0. -1.
    9900012    2    1    2    0    0 -0.22616434818E+02 -0.11535629957E+02 -0.35200133728E+02  0.47787270780E+02  0.19999998794E+02 0.  0.
        -12    1    1    2    0    0  0.22616434818E+02  0.11535629957E+02  0.35200133728E+02  0.43400729220E+02  0.00000000000E+00 0.  1.
         11    1    3    3    0    0 -0.79221562980E+01 -0.13667131939E+02 -0.10910391013E+02  0.19198637664E+02  0.51100000000E-03 0. -1.
        -11    1    3    3    0    0 -0.74380023476E+01  0.23999141836E+01 -0.12673655100E+02  0.14889761612E+02  0.51100000000E-03 0.  1.
         12    1    3    3    0    0 -0.72562761726E+01 -0.26841220160E+00 -0.11616087614E+02  0.13698871503E+02  0.00000000000E+00 0. -1.
</event>
<event>
 7    1  0.2886681E-010  0.4778729E+02  0.7816164E-02  0.1312668E+00
        -11   -1    0    0    0    0  0.00000000000E+00  0.00000000000E+00  0.45593999997E+02  0.45594000000E+02  0.51100000000E-03 0.  1.
         11   -1    0    0    0    0 -0.00000000000E+00 -0.00000000000E+00 -0.45593999997E+02  0.45594000000E+02  0.51100000000E-03 0. -1.
    9900012    2    1    2    0    0  0.11404700807E+02  0.12912305568E+02 -0.39834995371E+02  0.47787289271E+02  0.20000083101E+02 0.  0.
        -12    1    1    2    0    0 -0.11404700807E+02 -0.12912305568E+02  0.39834995371E+02  0.43400710729E+02  0.00000000000E+00 0.  1.
         11    1    3    3    0    0 -0.13723861376E+01 -0.21228446202E+01 -0.19364623742E+01  0.31843052272E+01  0.51100000000E-03 0.  1.
        -11    1    3    3    0    0  0.11332284563E+02  0.12396188773E+02 -0.18557385636E+02  0.25029237532E+02  0.51100000000E-03 0. -1.
        -12    1    3    3    0    0  0.14448023810E+01  0.26389614148E+01 -0.19341147361E+02  0.19573746512E+02  0.00000000000E+00 0.  1.
</event>
<event>
 7    1  0.2886681E-010  0.4778728E+02  0.7816164E-02  0.1312668E+00
        -11   -1    0    0    0    0  0.00000000000E+00  0.00000000000E+00  0.45593999997E+02  0.45594000000E+02  0.51100000000E-03 0.  1.
         11   -1    0    0    0    0 -0.00000000000E+00 -0.00000000000E+00 -0.45593999997E+02  0.45594000000E+02  0.51100000000E-03 0. -1.
    9900012    2    1    2    0    0 -0.14630760623E+02 -0.31203172612E+02 -0.26380389616E+02  0.47787284641E+02  0.20000061990E+02 0.  0.
        -12    1    1    2    0    0  0.14630760623E+02  0.31203172612E+02  0.26380389616E+02  0.43400715359E+02  0.00000000000E+00 0.  1.
         11    1    3    3    0    0 -0.70938368623E+01 -0.16371024253E+02 -0.23883781587E+02  0.29812211922E+02  0.51100000000E-03 0. -1.
        -11    1    3    3    0    0 -0.56705660506E+01 -0.51094686641E+01  0.44847519256E+00  0.76461179446E+01  0.51100000000E-03 0.  1.
        -12    1    3    3    0    0 -0.18663577104E+01 -0.97226796940E+01 -0.29450832209E+01  0.10328954773E+02  0.00000000000E+00 0.  1.
</event>
<event>
 7    1  0.2886681E-010  0.4778727E+02  0.7816164E-02  0.1312668E+00
        -11   -1    0    0    0    0  0.00000000000E+00  0.00000000000E+00  0.45593999997E+02  0.45594000000E+02  0.51100000000E-03 0. -1.
         11   -1    0    0    0    0 -0.00000000000E+00 -0.00000000000E+00 -0.45593999997E+02  0.45594000000E+02  0.51100000000E-03 0.  1.
    9900012    2    1    2    0    0 -0.13673001700E+01  0.37947163192E+02  0.21018247359E+02  0.47787269291E+02  0.19999992005E+02 0.  0.
        -12    1    1    2    0    0  0.13673001700E+01 -0.37947163192E+02 -0.21018247359E+02  0.43400730709E+02  0.00000000000E+00 0.  1.
         11    1    3    3    0    0  0.13709936587E+01  0.27406621130E+02  0.91049294878E+01  0.28911974105E+02  0.51100000000E-03 0. -1.
        -11    1    3    3    0    0 -0.29246104587E+01 -0.95772538079E+00  0.32628943332E+01  0.44852050043E+01  0.51100000000E-03 0.  1.
        -12    1    3    3    0    0  0.18631662990E+00  0.11498267442E+02  0.86504235380E+01  0.14390090182E+02  0.00000000000E+00 0.  1.
</event>
<event>
 7    1  0.2886681E-010  0.4778728E+02  0.7816164E-02  0.1312668E+00
        -11   -1    0    0    0    0  0.00000000000E+00  0.00000000000E+00  0.45593999997E+02  0.45594000000E+02  0.51100000000E-03 0.  1.
         11   -1    0    0    0    0 -0.00000000000E+00 -0.00000000000E+00 -0.45593999997E+02  0.45594000000E+02  0.51100000000E-03 0. -1.
    9900012    2    1    2    0    0 -0.35633034353E+02 -0.20024342815E+02 -0.14592283309E+02  0.47787283709E+02  0.20000057744E+02 0.  0.
        -12    1    1    2    0    0  0.35633034353E+02  0.20024342815E+02  0.14592283309E+02  0.43400716291E+02  0.00000000000E+00 0.  1.
         11    1    3    3    0    0  0.55848847891E+00  0.26649967307E+00 -0.18316048377E+01  0.19333152872E+01  0.51100000000E-03 0. -1.
        -11    1    3    3    0    0 -0.21812440303E+02 -0.51889271604E+01 -0.23407058003E+01  0.22542990506E+02  0.51100000000E-03 0.  1.
        -12    1    3    3    0    0 -0.14379082529E+02 -0.15101915327E+02 -0.10419972671E+02  0.23310977916E+02  0.00000000000E+00 0.  1.
</event>
<event>
 7    1  0.2886681E-010  0.4778727E+02  0.7816164E-02  0.1312668E+00
        -11   -1    0    0    0    0  0.00000000000E+00  0.00000000000E+00  0.45593999997E+02  0.45594000000E+02  0.51100000000E-03 0. -1.
         11   -1    0    0    0    0 -0.00000000000E+00 -0.00000000000E+00 -0.45593999997E+02  0.45594000000E+02  0.51100000000E-03 0.  1.
    9900012    2    1    2    0    0  0.62411260936E+01  0.28384198742E+02  0.32233661324E+02  0.47787270564E+02  0.19999997811E+02 0.  0.
        -12    1    1    2    0    0 -0.62411260936E+01 -0.28384198742E+02 -0.32233661324E+02  0.43400729436E+02  0.00000000000E+00 0.  1.
         11    1    3    3    0    0  0.61898131945E+00  0.18050794014E+02  0.73190883379E+01  0.19488031116E+02  0.51100000000E-03 0. -1.
        -11    1    3    3    0    0  0.16466711254E+01 -0.16000495248E+00  0.67365929493E+01  0.69367724632E+01  0.51100000000E-03 0.  1.
         12    1    3    3    0    0  0.39754736487E+01  0.10493409680E+02  0.18177980037E+02  0.21362466985E+02  0.00000000000E+00 0. -1.
</event>
<event>
 7    1  0.2886681E-010  0.4778727E+02  0.7816164E-02  0.1312668E+00
        -11   -1    0    0    0    0  0.00000000000E+00  0.00000000000E+00  0.45593999997E+02  0.45594000000E+02  0.51100000000E-03 0.  1.
         11   -1    0    0    0    0 -0.00000000000E+00 -0.00000000000E+00 -0.45593999997E+02  0.45594000000E+02  0.51100000000E-03 0. -1.
    9900012    2    1    2    0    0 -0.35503918896E+02  0.20646335974E+02 -0.14029398661E+02  0.47787268752E+02  0.19999989547E+02 0.  0.
        -12    1    1    2    0    0  0.35503918896E+02 -0.20646335974E+02  0.14029398661E+02  0.43400731248E+02  0.00000000000E+00 0.  1.
         11    1    3    3    0    0 -0.20606102329E+02  0.14568027140E+02 -0.12958935856E+02  0.28368519291E+02  0.51100000000E-03 0. -1.
        -11    1    3    3    0    0 -0.10424073566E+02  0.44125544046E+01  0.44121877544E+01  0.12149047169E+02  0.51100000000E-03 0.  1.
        -12    1    3    3    0    0 -0.44737430004E+01  0.16657544288E+01 -0.54826505597E+01  0.72697022918E+01  0.00000000000E+00 0.  1.
</event>
<event>
 7    1  0.2886681E-010  0.4778727E+02  0.7816164E-02  0.1312668E+00
        -11   -1    0    0    0    0  0.00000000000E+00  0.00000000000E+00  0.45593999997E+02  0.45594000000E+02  0.51100000000E-03 0.  1.
         11   -1    0    0    0    0 -0.00000000000E+00 -0.00000000000E+00 -0.45593999997E+02  0.45594000000E+02  0.51100000000E-03 0. -1.
    9900012    2    1    2    0    0 -0.98376271110E+01  0.24635554614E+02 -0.34350167267E+02  0.47787269020E+02  0.19999990770E+02 0.  0.
        -12    1    1    2    0    0  0.98376271110E+01 -0.24635554614E+02  0.34350167267E+02  0.43400730980E+02  0.00000000000E+00 0.  1.
         11    1    3    3    0    0 -0.22380411396E+01  0.70675468769E+00 -0.14523691456E+02  0.14712101961E+02  0.51100000000E-03 0.  1.
        -11    1    3    3    0    0 -0.69425170929E+01  0.17491185135E+02 -0.18656571941E+02  0.26499203344E+02  0.51100000000E-03 0. -1.
        -12    1    3    3    0    0 -0.65706887857E+00  0.64376147920E+01 -0.11699038693E+01  0.65759637153E+01  0.00000000000E+00 0.  1.
</event>
<event>
 7    1  0.2886681E-010  0.4778727E+02  0.7816164E-02  0.1312668E+00
        -11   -1    0    0    0    0  0.00000000000E+00  0.00000000000E+00  0.45593999997E+02  0.45594000000E+02  0.51100000000E-03 0.  1.
         11   -1    0    0    0    0 -0.00000000000E+00 -0.00000000000E+00 -0.45593999997E+02  0.45594000000E+02  0.51100000000E-03 0. -1.
    9900012    2    1    2    0    0  0.16246655276E+02  0.20308958155E+02 -0.34745015016E+02  0.47787266625E+02  0.19999979850E+02 0.  0.
        -12    1    1    2    0    0 -0.16246655276E+02 -0.20308958155E+02  0.34745015016E+02  0.43400733375E+02  0.00000000000E+00 0.  1.
         11    1    3    3    0    0  0.65849184302E+01  0.13598129524E+02 -0.58309681711E+01  0.16194766666E+02  0.51100000000E-03 0. -1.
        -11    1    3    3    0    0  0.86741742080E+00  0.19306417176E+01 -0.96924855807E+01  0.99208904548E+01  0.51100000000E-03 0.  1.
         12    1    3    3    0    0  0.87943194245E+01  0.47801869139E+01 -0.19221561265E+02  0.21671609505E+02  0.00000000000E+00 0. -1.
</event>
<event>
 7    1  0.2886681E-010  0.4778726E+02  0.7816164E-02  0.1312668E+00
        -11   -1    0    0    0    0  0.00000000000E+00  0.00000000000E+00  0.45593999997E+02  0.45594000000E+02  0.51100000000E-03 0.  1.
         11   -1    0    0    0    0 -0.00000000000E+00 -0.00000000000E+00 -0.45593999997E+02  0.45594000000E+02  0.51100000000E-03 0. -1.
    9900012    2    1    2    0    0  0.87209092278E+01 -0.29801403924E+02 -0.30322372751E+02  0.47787260112E+02  0.19999950154E+02 0.  0.
        -12    1    1    2    0    0 -0.87209092278E+01  0.29801403924E+02  0.30322372751E+02  0.43400739888E+02  0.00000000000E+00 0.  1.
         11    1    3    3    0    0  0.63848613679E+01 -0.15100839187E+02 -0.12634699764E+02  0.20698730329E+02  0.51100000000E-03 0. -1.
        -11    1    3    3    0    0 -0.50054180639E+01 -0.71217693506E+01 -0.12751664911E+02  0.15439519647E+02  0.51100000000E-03 0.  1.
        -12    1    3    3    0    0  0.73414659238E+01 -0.75787953863E+01 -0.49360080762E+01  0.11649010136E+02  0.00000000000E+00 0.  1.
</event>
<event>
 7    1  0.2886681E-010  0.4778727E+02  0.7816164E-02  0.1312668E+00
        -11   -1    0    0    0    0  0.00000000000E+00  0.00000000000E+00  0.45593999997E+02  0.45594000000E+02  0.51100000000E-03 0.  1.
         11   -1    0    0    0    0 -0.00000000000E+00 -0.00000000000E+00 -0.45593999997E+02  0.45594000000E+02  0.51100000000E-03 0. -1.
    9900012    2    1    2    0    0  0.37432138407E+02 -0.63411524404E+01 -0.21029694152E+02  0.47787271479E+02  0.20000001982E+02 0.  0.
        -12    1    1    2    0    0 -0.37432138407E+02  0.63411524404E+01  0.21029694152E+02  0.43400728521E+02  0.00000000000E+00 0.  1.
         11    1    3    3    0    0  0.10326858294E+02  0.41860745273E+01 -0.10119090528E+02  0.15052016993E+02  0.51100000000E-03 0. -1.
        -11    1    3    3    0    0  0.22564172327E+02 -0.10638988530E+02 -0.12525214379E+02  0.27914350166E+02  0.51100000000E-03 0.  1.
         12    1    3    3    0    0  0.45411077860E+01  0.11176156189E+00  0.16146107547E+01  0.48209043198E+01  0.00000000000E+00 0. -1.
</event>
<event>
 7    1  0.2886681E-010  0.4778727E+02  0.7816164E-02  0.1312668E+00
        -11   -1    0    0    0    0  0.00000000000E+00  0.00000000000E+00  0.45593999997E+02  0.45594000000E+02  0.51100000000E-03 0.  1.
         11   -1    0    0    0    0 -0.00000000000E+00 -0.00000000000E+00 -0.45593999997E+02  0.45594000000E+02  0.51100000000E-03 0. -1.
    9900012    2    1    2    0    0 -0.30225045352E+02 -0.51925559745E+01 -0.30710052130E+02  0.47787270675E+02  0.19999998317E+02 0.  0.
        -12    1    1    2    0    0  0.30225045352E+02  0.51925559745E+01  0.30710052130E+02  0.43400729325E+02  0.00000000000E+00 0.  1.
         11    1    3    3    0    0 -0.12865119540E+02  0.31526013956E+01 -0.12483913087E+02  0.18201601099E+02  0.51100000000E-03 0. -1.
        -11    1    3    3    0    0  0.53301689027E+00 -0.11362314572E+01  0.15263848409E+01  0.19761021920E+01  0.51100000000E-03 0.  1.
        -12    1    3    3    0    0 -0.17892942703E+02 -0.72089259129E+01 -0.19752523884E+02  0.27609567384E+02  0.00000000000E+00 0.  1.
</event>
<event>
 7    1  0.2886681E-010  0.4778726E+02  0.7816164E-02  0.1312668E+00
        -11   -1    0    0    0    0  0.00000000000E+00  0.00000000000E+00  0.45593999997E+02  0.45594000000E+02  0.51100000000E-03 0.  1.
         11   -1    0    0    0    0 -0.00000000000E+00 -0.00000000000E+00 -0.45593999997E+02  0.45594000000E+02  0.51100000000E-03 0. -1.
    9900012    2    1    2    0    0 -0.25576663583E+01  0.35260085137E+02 -0.25175555138E+02  0.47787264550E+02  0.19999970391E+02 0.  0.
        -12    1    1    2    0    0  0.25576663583E+01 -0.35260085137E+02  0.25175555138E+02  0.43400735450E+02  0.00000000000E+00 0.  1.
         11    1    3    3    0    0 -0.31310285836E+01  0.51155317717E+00 -0.64699903682E+01  0.72059560275E+01  0.51100000000E-03 0.  1.
        -11    1    3    3    0    0  0.35826004443E+01  0.23052278065E+02 -0.15749509135E+02  0.28147639123E+02  0.51100000000E-03 0. -1.
        -12    1    3    3    0    0 -0.30092382189E+01  0.11696253895E+02 -0.29560556341E+01  0.12433669400E+02  0.00000000000E+00 0.  1.
</event>
<event>
 7    1  0.2886681E-010  0.4778727E+02  0.7816164E-02  0.1312668E+00
        -11   -1    0    0    0    0  0.00000000000E+00  0.00000000000E+00  0.45593999997E+02  0.45594000000E+02  0.51100000000E-03 0.  1.
         11   -1    0    0    0    0 -0.00000000000E+00 -0.00000000000E+00 -0.45593999997E+02  0.45594000000E+02  0.51100000000E-03 0. -1.
    9900012    2    1    2    0    0 -0.13811454228E+01  0.33006957099E+02 -0.28147053698E+02  0.47787269459E+02  0.19999992771E+02 0.  0.
        -12    1    1    2    0    0  0.13811454228E+01 -0.33006957099E+02  0.28147053698E+02  0.43400730541E+02  0.00000000000E+00 0.  1.
         11    1    3    3    0    0  0.14664421013E+01  0.14096474404E+02 -0.73324607265E+01  0.15957005472E+02  0.51100000000E-03 0. -1.
        -11    1    3    3    0    0 -0.21531724489E+01  0.17462044054E+02 -0.23099662539E+02  0.29037106326E+02  0.51100000000E-03 0.  1.
        -12    1    3    3    0    0 -0.69441507519E+00  0.14484386403E+01  0.22850695668E+01  0.27931576605E+01  0.00000000000E+00 0.  1.
</event>
<event>
 7    1  0.2886681E-010  0.4778727E+02  0.7816164E-02  0.1312668E+00
        -11   -1    0    0    0    0  0.00000000000E+00  0.00000000000E+00  0.45593999997E+02  0.45594000000E+02  0.51100000000E-03 0. -1.
         11   -1    0    0    0    0 -0.00000000000E+00 -0.00000000000E+00 -0.45593999997E+02  0.45594000000E+02  0.51100000000E-03 0.  1.
    9900012    2    1    2    0    0 -0.33627106774E+02  0.26511146804E+02  0.70710582678E+01  0.47787273279E+02  0.20000010189E+02 0.  0.
        -12    1    1    2    0    0  0.33627106774E+02 -0.26511146804E+02 -0.70710582678E+01  0.43400726721E+02  0.00000000000E+00 0.  1.
         11    1    3    3    0    0 -0.16294955118E+02  0.17600093701E+02  0.11525072686E+02  0.26610452106E+02  0.51100000000E-03 0. -1.
        -11    1    3    3    0    0 -0.95631443363E+01  0.14530940232E+01 -0.37838195500E+01  0.10386650205E+02  0.51100000000E-03 0.  1.
         12    1    3    3    0    0 -0.77690073202E+01  0.74579590793E+01 -0.67019486796E+00  0.10790170969E+02  0.00000000000E+00 0. -1.
</event>
<event>
 7    1  0.2886681E-010  0.4778727E+02  0.7816164E-02  0.1312668E+00
        -11   -1    0    0    0    0  0.00000000000E+00  0.00000000000E+00  0.45593999997E+02  0.45594000000E+02  0.51100000000E-03 0. -1.
         11   -1    0    0    0    0 -0.00000000000E+00 -0.00000000000E+00 -0.45593999997E+02  0.45594000000E+02  0.51100000000E-03 0.  1.
    9900012    2    1    2    0    0  0.19611619605E+02  0.21102361970E+02  0.32460713061E+02  0.47787271934E+02  0.20000004057E+02 0.  0.
        -12    1    1    2    0    0 -0.19611619605E+02 -0.21102361970E+02 -0.32460713061E+02  0.43400728066E+02  0.00000000000E+00 0.  1.
         11    1    3    3    0    0 -0.20044932953E+01  0.78831159832E+01  0.95048719772E+01  0.12510159973E+02  0.51100000000E-03 0. -1.
        -11    1    3    3    0    0  0.85169066284E+00  0.11950996300E+01 -0.66113484228E+00  0.16095774761E+01  0.51100000000E-03 0.  1.
         12    1    3    3    0    0  0.20764422237E+02  0.12024146357E+02  0.23616975926E+02  0.33667534486E+02  0.00000000000E+00 0. -1.
</event>
<event>
 7    1  0.2886681E-010  0.4778728E+02  0.7816164E-02  0.1312668E+00
        -11   -1    0    0    0    0  0.00000000000E+00  0.00000000000E+00  0.45593999997E+02  0.45594000000E+02  0.51100000000E-03 0.  1.
         11   -1    0    0    0    0 -0.00000000000E+00 -0.00000000000E+00 -0.45593999997E+02  0.45594000000E+02  0.51100000000E-03 0. -1.
    9900012    2    1    2    0    0  0.31117329164E+02 -0.21120666434E+02 -0.21662228474E+02  0.47787275728E+02  0.20000021353E+02 0.  0.
        -12    1    1    2    0    0 -0.31117329164E+02  0.21120666434E+02  0.21662228474E+02  0.43400724272E+02  0.00000000000E+00 0.  1.
         11    1    3    3    0    0  0.83509085528E+01 -0.67523113377E+01 -0.12413141732E+02  0.16413941330E+02  0.51100000000E-03 0. -1.
        -11    1    3    3    0    0  0.52079376574E+01 -0.58852228091E+01  0.29243859245E+01  0.83851353867E+01  0.51100000000E-03 0.  1.
        -12    1    3    3    0    0  0.17558482953E+02 -0.84831322872E+01 -0.12173472667E+02  0.22988199012E+02  0.00000000000E+00 0.  1.
</event>
<event>
 7    1  0.2886681E-010  0.4778727E+02  0.7816164E-02  0.1312668E+00
        -11   -1    0    0    0    0  0.00000000000E+00  0.00000000000E+00  0.45593999997E+02  0.45594000000E+02  0.51100000000E-03 0.  1.
         11   -1    0    0    0    0 -0.00000000000E+00 -0.00000000000E+00 -0.45593999997E+02  0.45594000000E+02  0.51100000000E-03 0. -1.
    9900012    2    1    2    0    0 -0.24530095111E+00  0.19866862327E+02 -0.38585889121E+02  0.47787271543E+02  0.20000002274E+02 0.  0.
        -12    1    1    2    0    0  0.24530095111E+00 -0.19866862327E+02  0.38585889121E+02  0.43400728457E+02  0.00000000000E+00 0.  1.
         11    1    3    3    0    0 -0.47950080112E+01  0.77224944723E+01 -0.27096443397E+02  0.28580522524E+02  0.51100000000E-03 0. -1.
        -11    1    3    3    0    0  0.39248557645E+01  0.19158340494E+01 -0.87786749707E+00  0.44548360778E+01  0.51100000000E-03 0.  1.
         12    1    3    3    0    0  0.62485129564E+00  0.10228533806E+02 -0.10611578228E+02  0.14751912942E+02  0.00000000000E+00 0. -1.
</event>
<event>
 7    1  0.2886681E-010  0.4778727E+02  0.7816164E-02  0.1312668E+00
        -11   -1    0    0    0    0  0.00000000000E+00  0.00000000000E+00  0.45593999997E+02  0.45594000000E+02  0.51100000000E-03 0.  1.
         11   -1    0    0    0    0 -0.00000000000E+00 -0.00000000000E+00 -0.45593999997E+02  0.45594000000E+02  0.51100000000E-03 0. -1.
    9900012    2    1    2    0    0  0.23848856967E+02  0.44862609363E+01 -0.35982338823E+02  0.47787271631E+02  0.20000002674E+02 0.  0.
        -12    1    1    2    0    0 -0.23848856967E+02 -0.44862609363E+01  0.35982338823E+02  0.43400728369E+02  0.00000000000E+00 0.  1.
         11    1    3    3    0    0  0.30794710260E+01  0.29035224027E+01 -0.48824303638E+01  0.64615563653E+01  0.51100000000E-03 0.  1.
        -11    1    3    3    0    0  0.90287713385E+01  0.94545926358E+01 -0.15363081649E+02  0.20172563343E+02  0.51100000000E-03 0. -1.
        -12    1    3    3    0    0  0.11740614602E+02 -0.78718541022E+01 -0.15736826810E+02  0.21153151923E+02  0.00000000000E+00 0.  1.
</event>
<event>
 7    1  0.3069425E-010  0.4778727E+02  0.7816164E-02  0.1312668E+00
        -11   -1    0    0    0    0  0.00000000000E+00  0.00000000000E+00  0.45593999997E+02  0.45594000000E+02  0.51100000000E-03 0. -1.
         11   -1    0    0    0    0 -0.00000000000E+00 -0.00000000000E+00 -0.45593999997E+02  0.45594000000E+02  0.51100000000E-03 0.  1.
    9900012    2    1    2    0    0 -0.35355133074E+02  0.21175356288E+02 -0.13610357278E+02  0.47787274501E+02  0.20000015760E+02 0.  0.
        -12    1    1    2    0    0  0.35355133074E+02 -0.21175356288E+02  0.13610357278E+02  0.43400725499E+02  0.00000000000E+00 0.  1.
         11    1    3    3    0    0 -0.17450249297E+02  0.45651542348E+01 -0.11426533452E+02  0.21352224725E+02  0.51100000000E-03 0. -1.
        -11    1    3    3    0    0 -0.14181064738E+01  0.19902359052E+01  0.29287095747E+01  0.38143682259E+01  0.51100000000E-03 0.  1.
         12    1    3    3    0    0 -0.16486777303E+02  0.14619966148E+02 -0.51125333998E+01  0.22620681550E+02  0.00000000000E+00 0. -1.
</event>
<event>
 7    1  0.2886681E-010  0.4778727E+02  0.7816164E-02  0.1312668E+00
        -11   -1    0    0    0    0  0.00000000000E+00  0.00000000000E+00  0.45593999997E+02  0.45594000000E+02  0.51100000000E-03 0.  1.
         11   -1    0    0    0    0 -0.00000000000E+00 -0.00000000000E+00 -0.45593999997E+02  0.45594000000E+02  0.51100000000E-03 0. -1.
    9900012    2    1    2    0    0 -0.37478966776E+02 -0.44106043146E+01 -0.21435875695E+02  0.47787272497E+02  0.20000006623E+02 0.  0.
        -12    1    1    2    0    0  0.37478966776E+02  0.44106043146E+01  0.21435875695E+02  0.43400727503E+02  0.00000000000E+00 0.  1.
         11    1    3    3    0    0 -0.33907484417E+02 -0.89316018475E+01 -0.18581609327E+02  0.39683336761E+02  0.51100000000E-03 0. -1.
        -11    1    3    3    0    0 -0.99829909396E+00  0.34963725032E+01  0.59057465983E+00  0.36837481526E+01  0.51100000000E-03 0.  1.
        -12    1    3    3    0    0 -0.25731832647E+01  0.10246250297E+01 -0.34448410280E+01  0.44201875835E+01  0.00000000000E+00 0.  1.
</event>
<event>
 7    1  0.2886681E-010  0.4778727E+02  0.7816164E-02  0.1312668E+00
        -11   -1    0    0    0    0  0.00000000000E+00  0.00000000000E+00  0.45593999997E+02  0.45594000000E+02  0.51100000000E-03 0. -1.
         11   -1    0    0    0    0 -0.00000000000E+00 -0.00000000000E+00 -0.45593999997E+02  0.45594000000E+02  0.51100000000E-03 0.  1.
    9900012    2    1    2    0    0 -0.38460051338E+02 -0.20059859499E+02 -0.14317032355E+01  0.47787270902E+02  0.19999999350E+02 0.  0.
        -12    1    1    2    0    0  0.38460051338E+02  0.20059859499E+02  0.14317032355E+01  0.43400729098E+02  0.00000000000E+00 0.  1.
         11    1    3    3    0    0 -0.25081075176E+02 -0.78413948591E+01  0.58739520745E+01  0.26926773267E+02  0.51100000000E-03 0. -1.
        -11    1    3    3    0    0 -0.14207209897E+02 -0.10694828746E+02 -0.69350404901E+01  0.19087141269E+02  0.51100000000E-03 0.  1.
         12    1    3    3    0    0  0.82823373460E+00 -0.15236358938E+01 -0.37061481982E+00  0.17733563659E+01  0.00000000000E+00 0. -1.
</event>
<event>
 7    1  0.2886681E-010  0.4778727E+02  0.7816164E-02  0.1312668E+00
        -11   -1    0    0    0    0  0.00000000000E+00  0.00000000000E+00  0.45593999997E+02  0.45594000000E+02  0.51100000000E-03 0.  1.
         11   -1    0    0    0    0 -0.00000000000E+00 -0.00000000000E+00 -0.45593999997E+02  0.45594000000E+02  0.51100000000E-03 0. -1.
    9900012    2    1    2    0    0 -0.11235545696E+02 -0.11445354193E+01 -0.41905558255E+02  0.47787271192E+02  0.20000000673E+02 0.  0.
        -12    1    1    2    0    0  0.11235545696E+02  0.11445354193E+01  0.41905558255E+02  0.43400728808E+02  0.00000000000E+00 0.  1.
         11    1    3    3    0    0 -0.88159373721E+01 -0.93149645611E+01 -0.19506068087E+02  0.23344721223E+02  0.51100000000E-03 0.  1.
        -11    1    3    3    0    0 -0.36030444264E+01  0.51923275697E+01 -0.17315790956E+02  0.18433090121E+02  0.51100000000E-03 0. -1.
        -12    1    3    3    0    0  0.11834361025E+01  0.29781015720E+01 -0.50836992124E+01  0.60094598480E+01  0.00000000000E+00 0.  1.
</event>
<event>
 7    1  0.2886681E-010  0.4778727E+02  0.7816164E-02  0.1312668E+00
        -11   -1    0    0    0    0  0.00000000000E+00  0.00000000000E+00  0.45593999997E+02  0.45594000000E+02  0.51100000000E-03 0. -1.
         11   -1    0    0    0    0 -0.00000000000E+00 -0.00000000000E+00 -0.45593999997E+02  0.45594000000E+02  0.51100000000E-03 0.  1.
    9900012    2    1    2    0    0 -0.21446471608E+02  0.37637696117E+02 -0.26600674218E+01  0.47787271064E+02  0.20000000091E+02 0.  0.
        -12    1    1    2    0    0  0.21446471608E+02 -0.37637696117E+02  0.26600674218E+01  0.43400728936E+02  0.00000000000E+00 0.  1.
         11    1    3    3    0    0 -0.20059936478E+02  0.29634697397E+02  0.18037638598E+01  0.35831130399E+02  0.51100000000E-03 0. -1.
        -11    1    3    3    0    0 -0.24571853207E+01 -0.47978571239E-01 -0.26884582264E+01  0.36425086877E+01  0.51100000000E-03 0.  1.
         12    1    3    3    0    0  0.10706501911E+01  0.80509772913E+01 -0.17753730552E+01  0.83136319778E+01  0.00000000000E+00 0. -1.
</event>
<event>
 7    1  0.2886681E-010  0.4778726E+02  0.7816164E-02  0.1312668E+00
        -11   -1    0    0    0    0  0.00000000000E+00  0.00000000000E+00  0.45593999997E+02  0.45594000000E+02  0.51100000000E-03 0.  1.
         11   -1    0    0    0    0 -0.00000000000E+00 -0.00000000000E+00 -0.45593999997E+02  0.45594000000E+02  0.51100000000E-03 0. -1.
    9900012    2    1    2    0    0 -0.23261621535E+02 -0.34869132955E+02 -0.11254525347E+02  0.47787264865E+02  0.19999971826E+02 0.  0.
        -12    1    1    2    0    0  0.23261621535E+02  0.34869132955E+02  0.11254525347E+02  0.43400735135E+02  0.00000000000E+00 0.  1.
         11    1    3    3    0    0 -0.88915991177E+01 -0.79395830922E+01 -0.31349924999E+01  0.12325814082E+02  0.51100000000E-03 0. -1.
        -11    1    3    3    0    0 -0.92930454364E+01 -0.51892595186E+01  0.21965228171E+01  0.10868018245E+02  0.51100000000E-03 0.  1.
        -12    1    3    3    0    0 -0.50769769805E+01 -0.21740290345E+02 -0.10316055664E+02  0.24593432538E+02  0.00000000000E+00 0.  1.
</event>
<event>
 7    1  0.2886681E-010  0.4778727E+02  0.7816164E-02  0.1312668E+00
        -11   -1    0    0    0    0  0.00000000000E+00  0.00000000000E+00  0.45593999997E+02  0.45594000000E+02  0.51100000000E-03 0.  1.
         11   -1    0    0    0    0 -0.00000000000E+00 -0.00000000000E+00 -0.45593999997E+02  0.45594000000E+02  0.51100000000E-03 0. -1.
    9900012    2    1    2    0    0  0.37510650988E+01  0.40990866491E+02 -0.13758704568E+02  0.47787267559E+02  0.19999984107E+02 0.  0.
        -12    1    1    2    0    0 -0.37510650988E+01 -0.40990866491E+02  0.13758704568E+02  0.43400732441E+02  0.00000000000E+00 0.  1.
         11    1    3    3    0    0 -0.61387934523E+01  0.14343656550E+02 -0.22824660216E+01  0.15768161582E+02  0.51100000000E-03 0. -1.
        -11    1    3    3    0    0  0.10228882261E+02  0.20145114418E+02 -0.56665962344E+01  0.23293045751E+02  0.51100000000E-03 0.  1.
        -12    1    3    3    0    0 -0.33902370982E+00  0.65020955234E+01 -0.58096423117E+01  0.87260602257E+01  0.00000000000E+00 0.  1.
</event>
<event>
 7    1  0.2886681E-010  0.4778727E+02  0.7816164E-02  0.1312668E+00
        -11   -1    0    0    0    0  0.00000000000E+00  0.00000000000E+00  0.45593999997E+02  0.45594000000E+02  0.51100000000E-03 0.  1.
         11   -1    0    0    0    0 -0.00000000000E+00 -0.00000000000E+00 -0.45593999997E+02  0.45594000000E+02  0.51100000000E-03 0. -1.
    9900012    2    1    2    0    0  0.96855715265E+01  0.69245282442E+01 -0.41735641889E+02  0.47787271998E+02  0.20000004349E+02 0.  0.
        -12    1    1    2    0    0 -0.96855715265E+01 -0.69245282442E+01  0.41735641889E+02  0.43400728002E+02  0.00000000000E+00 0.  1.
         11    1    3    3    0    0 -0.19008471388E+01  0.17094687788E+01 -0.23475445163E+02  0.23614233614E+02  0.51100000000E-03 0. -1.
        -11    1    3    3    0    0  0.74864086664E+01  0.71871235226E+01 -0.85369810398E+01  0.13438046911E+02  0.51100000000E-03 0.  1.
         12    1    3    3    0    0  0.41000099989E+01 -0.19720640572E+01 -0.97232156864E+01  0.10734991473E+02  0.00000000000E+00 0. -1.
</event>
<event>
 7    1  0.2886681E-010  0.4778727E+02  0.7816164E-02  0.1312668E+00
        -11   -1    0    0    0    0  0.00000000000E+00  0.00000000000E+00  0.45593999997E+02  0.45594000000E+02  0.51100000000E-03 0.  1.
         11   -1    0    0    0    0 -0.00000000000E+00 -0.00000000000E+00 -0.45593999997E+02  0.45594000000E+02  0.51100000000E-03 0. -1.
    9900012    2    1    2    0    0  0.20332372437E+02  0.17548371504E+02 -0.34092118252E+02  0.47787271454E+02  0.20000001870E+02 0.  0.
        -12    1    1    2    0    0 -0.20332372437E+02 -0.17548371504E+02  0.34092118252E+02  0.43400728546E+02  0.00000000000E+00 0.  1.
         11    1    3    3    0    0  0.10966562166E+02  0.12723878288E+02 -0.22417147553E+02  0.28012337801E+02  0.51100000000E-03 0. -1.
        -11    1    3    3    0    0  0.11303077052E+02  0.75538477196E+00 -0.94322007357E+01  0.14740982599E+02  0.51100000000E-03 0.  1.
        -12    1    3    3    0    0 -0.19372667808E+01  0.40691084439E+01 -0.22427699635E+01  0.50339510543E+01  0.00000000000E+00 0.  1.
</event>
<event>
 7    1  0.2886681E-010  0.4778727E+02  0.7816164E-02  0.1312668E+00
        -11   -1    0    0    0    0  0.00000000000E+00  0.00000000000E+00  0.45593999997E+02  0.45594000000E+02  0.51100000000E-03 0.  1.
         11   -1    0    0    0    0 -0.00000000000E+00 -0.00000000000E+00 -0.45593999997E+02  0.45594000000E+02  0.51100000000E-03 0. -1.
    9900012    2    1    2    0    0  0.97384671669E+00  0.42695577434E+02 -0.77306230135E+01  0.47787271411E+02  0.20000001672E+02 0.  0.
        -12    1    1    2    0    0 -0.97384671669E+00 -0.42695577434E+02  0.77306230135E+01  0.43400728589E+02  0.00000000000E+00 0.  1.
         11    1    3    3    0    0  0.34950734310E+01  0.15638142932E+02 -0.31497249921E+01  0.16330579305E+02  0.51100000000E-03 0. -1.
        -11    1    3    3    0    0 -0.45173283855E+01  0.15355442823E+02 -0.94930416584E+01  0.18609506179E+02  0.51100000000E-03 0.  1.
        -12    1    3    3    0    0  0.19961016712E+01  0.11701991679E+02  0.49121436371E+01  0.12847185928E+02  0.00000000000E+00 0.  1.
</event>
<event>
 7    1  0.2886681E-010  0.4778727E+02  0.7816164E-02  0.1312668E+00
        -11   -1    0    0    0    0  0.00000000000E+00  0.00000000000E+00  0.45593999997E+02  0.45594000000E+02  0.51100000000E-03 0. -1.
         11   -1    0    0    0    0 -0.00000000000E+00 -0.00000000000E+00 -0.45593999997E+02  0.45594000000E+02  0.51100000000E-03 0.  1.
    9900012    2    1    2    0    0  0.25692926495E+02  0.34413612048E+02  0.62610199858E+01  0.47787268010E+02  0.19999986163E+02 0.  0.
        -12    1    1    2    0    0 -0.25692926495E+02 -0.34413612048E+02 -0.62610199858E+01  0.43400731990E+02  0.00000000000E+00 0.  1.
         11    1    3    3    0    0  0.11005327215E+01  0.11738831838E+02 -0.20666961714E+01  0.11970070113E+02  0.51100000000E-03 0. -1.
        -11    1    3    3    0    0  0.27718670146E+01 -0.17760937507E+00 -0.86679152485E+00  0.29096597130E+01  0.51100000000E-03 0.  1.
         12    1    3    3    0    0  0.21820526758E+02  0.22852389585E+02  0.91945076821E+01  0.32907538183E+02  0.00000000000E+00 0. -1.
</event>
<event>
 7    1  0.2886681E-010  0.4778727E+02  0.7816164E-02  0.1312668E+00
        -11   -1    0    0    0    0  0.00000000000E+00  0.00000000000E+00  0.45593999997E+02  0.45594000000E+02  0.51100000000E-03 0.  1.
         11   -1    0    0    0    0 -0.00000000000E+00 -0.00000000000E+00 -0.45593999997E+02  0.45594000000E+02  0.51100000000E-03 0. -1.
    9900012    2    1    2    0    0 -0.37963689636E+01  0.41182247224E+01 -0.43037788500E+02  0.47787269233E+02  0.19999991741E+02 0.  0.
        -12    1    1    2    0    0  0.37963689636E+01 -0.41182247224E+01  0.43037788500E+02  0.43400730767E+02  0.00000000000E+00 0.  1.
         11    1    3    3    0    0  0.50287507802E+01  0.12683228761E+01 -0.23258413393E+02  0.23829619618E+02  0.51100000000E-03 0. -1.
        -11    1    3    3    0    0 -0.57108693649E+01 -0.33148546075E+01 -0.92454380013E+01  0.11361356172E+02  0.51100000000E-03 0.  1.
        -12    1    3    3    0    0 -0.31142503789E+01  0.61647564539E+01 -0.10533937105E+02  0.12596293443E+02  0.00000000000E+00 0.  1.
</event>
<event>
 7    1  0.2886681E-010  0.4778728E+02  0.7816164E-02  0.1312668E+00
        -11   -1    0    0    0    0  0.00000000000E+00  0.00000000000E+00  0.45593999997E+02  0.45594000000E+02  0.51100000000E-03 0.  1.
         11   -1    0    0    0    0 -0.00000000000E+00 -0.00000000000E+00 -0.45593999997E+02  0.45594000000E+02  0.51100000000E-03 0. -1.
    9900012    2    1    2    0    0  0.16503535472E+02  0.21684466923E+02 -0.33779284554E+02  0.47787275884E+02  0.20000022065E+02 0.  0.
        -12    1    1    2    0    0 -0.16503535472E+02 -0.21684466923E+02  0.33779284554E+02  0.43400724116E+02  0.00000000000E+00 0.  1.
         11    1    3    3    0    0  0.11327991028E+02  0.10906464377E+02 -0.29562231560E+02  0.33484322913E+02  0.51100000000E-03 0. -1.
        -11    1    3    3    0    0  0.37882835591E+01  0.17965507638E+01  0.20200141660E+00  0.41975578381E+01  0.51100000000E-03 0.  1.
         12    1    3    3    0    0  0.13872608849E+01  0.89814517830E+01 -0.44190544110E+01  0.10105395132E+02  0.00000000000E+00 0. -1.
</event>
<event>
 7    1  0.2886681E-010  0.4778727E+02  0.7816164E-02  0.1312668E+00
        -11   -1    0    0    0    0  0.00000000000E+00  0.00000000000E+00  0.45593999997E+02  0.45594000000E+02  0.51100000000E-03 0.  1.
         11   -1    0    0    0    0 -0.00000000000E+00 -0.00000000000E+00 -0.45593999997E+02  0.45594000000E+02  0.51100000000E-03 0. -1.
    9900012    2    1    2    0    0 -0.11542320442E+02 -0.38459459644E+02 -0.16470216333E+02  0.47787271626E+02  0.20000002653E+02 0.  0.
        -12    1    1    2    0    0  0.11542320442E+02  0.38459459644E+02  0.16470216333E+02  0.43400728374E+02  0.00000000000E+00 0.  1.
         11    1    3    3    0    0 -0.72220010891E+00 -0.32650711433E+01  0.47335218890E+00  0.33773251434E+01  0.51100000000E-03 0. -1.
        -11    1    3    3    0    0 -0.15685620723E+02 -0.30330933761E+02 -0.14668757797E+02  0.37164185661E+02  0.51100000000E-03 0.  1.
        -12    1    3    3    0    0  0.48655003902E+01 -0.48634547403E+01 -0.22748107252E+01  0.72457608223E+01  0.00000000000E+00 0.  1.
</event>
<event>
 7    1  0.2886681E-010  0.4778727E+02  0.7816164E-02  0.1312668E+00
        -11   -1    0    0    0    0  0.00000000000E+00  0.00000000000E+00  0.45593999997E+02  0.45594000000E+02  0.51100000000E-03 0. -1.
         11   -1    0    0    0    0 -0.00000000000E+00 -0.00000000000E+00 -0.45593999997E+02  0.45594000000E+02  0.51100000000E-03 0.  1.
    9900012    2    1    2    0    0 -0.31461607493E+02  0.24238476279E+02  0.17501046118E+02  0.47787273121E+02  0.20000009467E+02 0.  0.
        -12    1    1    2    0    0  0.31461607493E+02 -0.24238476279E+02 -0.17501046118E+02  0.43400726879E+02  0.00000000000E+00 0.  1.
         11    1    3    3    0    0 -0.31035558856E+01  0.27823924501E+01  0.47026747710E+00  0.41946297384E+01  0.51100000000E-03 0. -1.
        -11    1    3    3    0    0 -0.11883212148E+01 -0.32073040208E+01  0.11414972014E+01  0.36058178702E+01  0.51100000000E-03 0.  1.
        -12    1    3    3    0    0 -0.27169730393E+02  0.24663387850E+02  0.15889281440E+02  0.39986825512E+02  0.00000000000E+00 0.  1.
</event>
<event>
 7    1  0.2886681E-010  0.4778727E+02  0.7816164E-02  0.1312668E+00
        -11   -1    0    0    0    0  0.00000000000E+00  0.00000000000E+00  0.45593999997E+02  0.45594000000E+02  0.51100000000E-03 0.  1.
         11   -1    0    0    0    0 -0.00000000000E+00 -0.00000000000E+00 -0.45593999997E+02  0.45594000000E+02  0.51100000000E-03 0. -1.
    9900012    2    1    2    0    0 -0.38280942778E+02  0.11508736591E+02 -0.16903908324E+02  0.47787265968E+02  0.19999976854E+02 0.  0.
        -12    1    1    2    0    0  0.38280942778E+02 -0.11508736591E+02  0.16903908324E+02  0.43400734032E+02  0.00000000000E+00 0.  1.
         11    1    3    3    0    0 -0.25063447832E+02  0.12620815458E+02 -0.74772614697E+01  0.29040847774E+02  0.51100000000E-03 0. -1.
        -11    1    3    3    0    0 -0.38094984748E+01 -0.26890430529E+01 -0.77737776570E+01  0.90650345003E+01  0.51100000000E-03 0.  1.
        -12    1    3    3    0    0 -0.94079964711E+01  0.15769641857E+01 -0.16528691977E+01  0.96813836939E+01  0.00000000000E+00 0.  1.
</event>
<event>
 7    1  0.2886681E-010  0.4778727E+02  0.7816164E-02  0.1312668E+00
        -11   -1    0    0    0    0  0.00000000000E+00  0.00000000000E+00  0.45593999997E+02  0.45594000000E+02  0.51100000000E-03 0.  1.
         11   -1    0    0    0    0 -0.00000000000E+00 -0.00000000000E+00 -0.45593999997E+02  0.45594000000E+02  0.51100000000E-03 0. -1.
    9900012    2    1    2    0    0  0.17682507097E+02 -0.47030814446E+00 -0.39632446611E+02  0.47787273377E+02  0.20000010636E+02 0.  0.
        -12    1    1    2    0    0 -0.17682507097E+02  0.47030814446E+00  0.39632446611E+02  0.43400726623E+02  0.00000000000E+00 0.  1.
         11    1    3    3    0    0  0.47813533557E+01 -0.38150110895E+01 -0.22765765221E+02  0.23573199101E+02  0.51100000000E-03 0. -1.
        -11    1    3    3    0    0  0.14644627928E+02  0.14442041121E+01 -0.15121614748E+02  0.21100096813E+02  0.51100000000E-03 0.  1.
        -12    1    3    3    0    0 -0.17434741865E+01  0.19004988329E+01 -0.17450666431E+01  0.31139774632E+01  0.00000000000E+00 0.  1.
</event>
<event>
 7    1  0.2886681E-010  0.4778727E+02  0.7816164E-02  0.1312668E+00
        -11   -1    0    0    0    0  0.00000000000E+00  0.00000000000E+00  0.45593999997E+02  0.45594000000E+02  0.51100000000E-03 0. -1.
         11   -1    0    0    0    0 -0.00000000000E+00 -0.00000000000E+00 -0.45593999997E+02  0.45594000000E+02  0.51100000000E-03 0.  1.
    9900012    2    1    2    0    0  0.42141493802E+02 -0.10358213904E+02  0.65210939153E+00  0.47787270262E+02  0.19999996434E+02 0.  0.
        -12    1    1    2    0    0 -0.42141493802E+02  0.10358213904E+02 -0.65210939153E+00  0.43400729738E+02  0.00000000000E+00 0.  1.
         11    1    3    3    0    0  0.24417757772E+02 -0.13201207508E+01  0.10573005578E+01  0.24476263974E+02  0.51100000000E-03 0. -1.
        -11    1    3    3    0    0  0.84022107115E+01 -0.67777625467E+01 -0.58534466252E+01  0.12279985653E+02  0.51100000000E-03 0.  1.
        -12    1    3    3    0    0  0.93215253184E+01 -0.22603306066E+01  0.54482554590E+01  0.11031020635E+02  0.00000000000E+00 0.  1.
</event>
<event>
 7    1  0.2886681E-010  0.4778727E+02  0.7816164E-02  0.1312668E+00
        -11   -1    0    0    0    0  0.00000000000E+00  0.00000000000E+00  0.45593999997E+02  0.45594000000E+02  0.51100000000E-03 0. -1.
         11   -1    0    0    0    0 -0.00000000000E+00 -0.00000000000E+00 -0.45593999997E+02  0.45594000000E+02  0.51100000000E-03 0.  1.
    9900012    2    1    2    0    0 -0.38267091963E+02  0.13427560590E+02  0.15458136935E+02  0.47787266041E+02  0.19999977186E+02 0.  0.
        -12    1    1    2    0    0  0.38267091963E+02 -0.13427560590E+02 -0.15458136935E+02  0.43400733959E+02  0.00000000000E+00 0.  1.
         11    1    3    3    0    0 -0.10703008156E+02  0.93809793508E+01  0.21770527452E+01  0.14397802474E+02  0.51100000000E-03 0. -1.
        -11    1    3    3    0    0 -0.11999482935E+02  0.12663820500E+01  0.12772026875E+02  0.17570315448E+02  0.51100000000E-03 0.  1.
        -12    1    3    3    0    0 -0.15564600873E+02  0.27801991892E+01  0.50905731519E+00  0.15819148119E+02  0.00000000000E+00 0.  1.
</event>
<event>
 7    1  0.2886681E-010  0.4778727E+02  0.7816164E-02  0.1312668E+00
        -11   -1    0    0    0    0  0.00000000000E+00  0.00000000000E+00  0.45593999997E+02  0.45594000000E+02  0.51100000000E-03 0.  1.
         11   -1    0    0    0    0 -0.00000000000E+00 -0.00000000000E+00 -0.45593999997E+02  0.45594000000E+02  0.51100000000E-03 0. -1.
    9900012    2    1    2    0    0 -0.22836328009E+02 -0.14470540257E+02 -0.33951862740E+02  0.47787269640E+02  0.19999993596E+02 0.  0.
        -12    1    1    2    0    0  0.22836328009E+02  0.14470540257E+02  0.33951862740E+02  0.43400730360E+02  0.00000000000E+00 0.  1.
         11    1    3    3    0    0 -0.74449067176E+01 -0.33834065386E+01 -0.52474817738E+00  0.81944759900E+01  0.51100000000E-03 0. -1.
        -11    1    3    3    0    0 -0.18985875451E+01 -0.49540414523E+01 -0.40013243537E+01  0.66451304142E+01  0.51100000000E-03 0.  1.
         12    1    3    3    0    0 -0.13492833746E+02 -0.61330922665E+01 -0.29425790209E+02  0.32947663236E+02  0.00000000000E+00 0. -1.
</event>
<event>
 7    1  0.2886681E-010  0.4778728E+02  0.7816164E-02  0.1312668E+00
        -11   -1    0    0    0    0  0.00000000000E+00  0.00000000000E+00  0.45593999997E+02  0.45594000000E+02  0.51100000000E-03 0.  1.
         11   -1    0    0    0    0 -0.00000000000E+00 -0.00000000000E+00 -0.45593999997E+02  0.45594000000E+02  0.51100000000E-03 0. -1.
    9900012    2    1    2    0    0  0.37468872048E+02 -0.21835439551E+02 -0.17087556871E+01  0.47787278360E+02  0.20000033353E+02 0.  0.
        -12    1    1    2    0    0 -0.37468872048E+02  0.21835439551E+02  0.17087556871E+01  0.43400721640E+02  0.00000000000E+00 0.  1.
         11    1    3    3    0    0  0.24575177518E+02 -0.22442015236E+02 -0.42757007787E+01  0.33553912072E+02  0.51100000000E-03 0. -1.
        -11    1    3    3    0    0  0.21899883206E+01  0.47874712500E+00  0.27239205520E+01  0.35277458934E+01  0.51100000000E-03 0.  1.
         12    1    3    3    0    0  0.10703706209E+02  0.12782855955E+00 -0.15697546039E+00  0.10705620395E+02  0.00000000000E+00 0. -1.
</event>
<event>
 7    1  0.2886681E-010  0.4778728E+02  0.7816164E-02  0.1312668E+00
        -11   -1    0    0    0    0  0.00000000000E+00  0.00000000000E+00  0.45593999997E+02  0.45594000000E+02  0.51100000000E-03 0.  1.
         11   -1    0    0    0    0 -0.00000000000E+00 -0.00000000000E+00 -0.45593999997E+02  0.45594000000E+02  0.51100000000E-03 0. -1.
    9900012    2    1    2    0    0 -0.32585173334E+01  0.24585359269E+02 -0.35616921545E+02  0.47787275053E+02  0.20000018276E+02 0.  0.
        -12    1    1    2    0    0  0.32585173334E+01 -0.24585359269E+02  0.35616921545E+02  0.43400724947E+02  0.00000000000E+00 0.  1.
         11    1    3    3    0    0 -0.14076365539E+01  0.15621354172E+02 -0.28645591899E+02  0.32658507044E+02  0.51100000000E-03 0. -1.
        -11    1    3    3    0    0  0.15520701277E+01  0.29582752719E-02  0.16294504837E+01  0.22503421012E+01  0.51100000000E-03 0.  1.
        -12    1    3    3    0    0 -0.34029509071E+01  0.89610468216E+01 -0.86007801299E+01  0.12878425908E+02  0.00000000000E+00 0.  1.
</event>
<event>
 7    1  0.2886681E-010  0.4778727E+02  0.7816164E-02  0.1312668E+00
        -11   -1    0    0    0    0  0.00000000000E+00  0.00000000000E+00  0.45593999997E+02  0.45594000000E+02  0.51100000000E-03 0.  1.
         11   -1    0    0    0    0 -0.00000000000E+00 -0.00000000000E+00 -0.45593999997E+02  0.45594000000E+02  0.51100000000E-03 0. -1.
    9900012    2    1    2    0    0  0.69924216339E+01 -0.54495152569E+01 -0.42485669680E+02  0.47787270686E+02  0.19999998364E+02 0.  0.
        -12    1    1    2    0    0 -0.69924216339E+01  0.54495152569E+01  0.42485669680E+02  0.43400729314E+02  0.00000000000E+00 0.  1.
         11    1    3    3    0    0  0.42386945595E+01 -0.10815973342E+02 -0.38216334486E+02  0.39942959739E+02  0.51100000000E-03 0. -1.
        -11    1    3    3    0    0  0.31499139027E+01  0.42284708667E+01 -0.39768613462E+01  0.66043432598E+01  0.51100000000E-03 0.  1.
        -12    1    3    3    0    0 -0.39618682823E+00  0.11379872185E+01 -0.29247384776E+00  0.12399676867E+01  0.00000000000E+00 0.  1.
</event>
<event>
 7    1  0.2886681E-010  0.4778727E+02  0.7816164E-02  0.1312668E+00
        -11   -1    0    0    0    0  0.00000000000E+00  0.00000000000E+00  0.45593999997E+02  0.45594000000E+02  0.51100000000E-03 0. -1.
         11   -1    0    0    0    0 -0.00000000000E+00 -0.00000000000E+00 -0.45593999997E+02  0.45594000000E+02  0.51100000000E-03 0.  1.
    9900012    2    1    2    0    0 -0.22701092291E+02  0.34606570473E+02  0.13064020441E+02  0.47787274878E+02  0.20000017477E+02 0.  0.
        -12    1    1    2    0    0  0.22701092291E+02 -0.34606570473E+02 -0.13064020441E+02  0.43400725122E+02  0.00000000000E+00 0.  1.
         11    1    3    3    0    0 -0.16183723565E+02  0.12457373592E+02 -0.24583753171E+00  0.20424482896E+02  0.51100000000E-03 0. -1.
        -11    1    3    3    0    0 -0.28084061258E+01  0.13293790372E+02  0.44464767630E+01  0.14296263962E+02  0.51100000000E-03 0.  1.
         12    1    3    3    0    0 -0.37089626003E+01  0.88554065092E+01  0.88633812094E+01  0.13066528019E+02  0.00000000000E+00 0. -1.
</event>
<event>
 7    1  0.2886681E-010  0.4778727E+02  0.7816164E-02  0.1312668E+00
        -11   -1    0    0    0    0  0.00000000000E+00  0.00000000000E+00  0.45593999997E+02  0.45594000000E+02  0.51100000000E-03 0.  1.
         11   -1    0    0    0    0 -0.00000000000E+00 -0.00000000000E+00 -0.45593999997E+02  0.45594000000E+02  0.51100000000E-03 0. -1.
    9900012    2    1    2    0    0  0.11059194038E+02  0.41146595789E+02 -0.82628979911E+01  0.47787267276E+02  0.19999982817E+02 0.  0.
        -12    1    1    2    0    0 -0.11059194038E+02 -0.41146595789E+02  0.82628979911E+01  0.43400732724E+02  0.00000000000E+00 0.  1.
         11    1    3    3    0    0  0.12817686346E+02  0.27964594362E+02 -0.67519842333E+01  0.31494458440E+02  0.51100000000E-03 0. -1.
        -11    1    3    3    0    0 -0.51977459171E+01  0.74904715125E+01 -0.27615395289E+01  0.95262703578E+01  0.51100000000E-03 0.  1.
         12    1    3    3    0    0  0.34392536093E+01  0.56915299145E+01  0.12506257711E+01  0.67665384782E+01  0.00000000000E+00 0. -1.
</event>
<event>
 7    1  0.2886681E-010  0.4778727E+02  0.7816164E-02  0.1312668E+00
        -11   -1    0    0    0    0  0.00000000000E+00  0.00000000000E+00  0.45593999997E+02  0.45594000000E+02  0.51100000000E-03 0. -1.
         11   -1    0    0    0    0 -0.00000000000E+00 -0.00000000000E+00 -0.45593999997E+02  0.45594000000E+02  0.51100000000E-03 0.  1.
    9900012    2    1    2    0    0 -0.39098605579E+02  0.72473685159E+01  0.17389596962E+02  0.47787269694E+02  0.19999993843E+02 0.  0.
        -12    1    1    2    0    0  0.39098605579E+02 -0.72473685159E+01 -0.17389596962E+02  0.43400730306E+02  0.00000000000E+00 0.  1.
         11    1    3    3    0    0 -0.38241732844E+01 -0.31852333452E+01 -0.15216032295E+01  0.52043529302E+01  0.51100000000E-03 0.  1.
        -11    1    3    3    0    0 -0.23229529251E+02  0.10777601233E+02  0.95752050453E+01  0.27339573323E+02  0.51100000000E-03 0. -1.
         12    1    3    3    0    0 -0.12044903043E+02 -0.34499937215E+00  0.93359951458E+01  0.15243343440E+02  0.00000000000E+00 0. -1.
</event>
<event>
 7    1  0.2886681E-010  0.4778727E+02  0.7816164E-02  0.1312668E+00
        -11   -1    0    0    0    0  0.00000000000E+00  0.00000000000E+00  0.45593999997E+02  0.45594000000E+02  0.51100000000E-03 0.  1.
         11   -1    0    0    0    0 -0.00000000000E+00 -0.00000000000E+00 -0.45593999997E+02  0.45594000000E+02  0.51100000000E-03 0. -1.
    9900012    2    1    2    0    0  0.20109681474E+02  0.32303850004E+02 -0.20873070410E+02  0.47787273250E+02  0.20000010055E+02 0.  0.
        -12    1    1    2    0    0 -0.20109681474E+02 -0.32303850004E+02  0.20873070410E+02  0.43400726750E+02  0.00000000000E+00 0.  1.
         11    1    3    3    0    0 -0.19987663804E+01  0.98017038943E+01 -0.58778557034E+01  0.11602484829E+02  0.51100000000E-03 0. -1.
        -11    1    3    3    0    0  0.19205118296E+01  0.22921187535E+01  0.13415926355E+01  0.32775059312E+01  0.51100000000E-03 0.  1.
         12    1    3    3    0    0  0.20187936025E+02  0.20210027357E+02 -0.16336807343E+02  0.32907282490E+02  0.00000000000E+00 0. -1.
</event>
<event>
 7    1  0.2886681E-010  0.4778727E+02  0.7816164E-02  0.1312668E+00
        -11   -1    0    0    0    0  0.00000000000E+00  0.00000000000E+00  0.45593999997E+02  0.45594000000E+02  0.51100000000E-03 0.  1.
         11   -1    0    0    0    0 -0.00000000000E+00 -0.00000000000E+00 -0.45593999997E+02  0.45594000000E+02  0.51100000000E-03 0. -1.
    9900012    2    1    2    0    0 -0.26221218263E+02 -0.32581445195E+02 -0.11598284923E+02  0.47787273378E+02  0.20000010638E+02 0.  0.
        -12    1    1    2    0    0  0.26221218263E+02  0.32581445195E+02  0.11598284923E+02  0.43400726622E+02  0.00000000000E+00 0.  1.
         11    1    3    3    0    0 -0.18970747884E+02 -0.26457806445E+02 -0.31576493567E+01  0.32708952091E+02  0.51100000000E-03 0. -1.
        -11    1    3    3    0    0 -0.89623819237E+01 -0.56807239798E+01 -0.64583822747E+01  0.12421981184E+02  0.51100000000E-03 0.  1.
         12    1    3    3    0    0  0.17119115439E+01 -0.44291476936E+00 -0.19822532914E+01  0.26563401022E+01  0.00000000000E+00 0. -1.
</event>
<event>
 7    1  0.2886681E-010  0.4778727E+02  0.7816164E-02  0.1312668E+00
        -11   -1    0    0    0    0  0.00000000000E+00  0.00000000000E+00  0.45593999997E+02  0.45594000000E+02  0.51100000000E-03 0.  1.
         11   -1    0    0    0    0 -0.00000000000E+00 -0.00000000000E+00 -0.45593999997E+02  0.45594000000E+02  0.51100000000E-03 0. -1.
    9900012    2    1    2    0    0 -0.21597351200E+02  0.19846098741E+02 -0.31989222782E+02  0.47787267422E+02  0.19999983485E+02 0.  0.
        -12    1    1    2    0    0  0.21597351200E+02 -0.19846098741E+02  0.31989222782E+02  0.43400732578E+02  0.00000000000E+00 0.  1.
         11    1    3    3    0    0 -0.14080974085E+02  0.17230809813E+02 -0.27482236612E+02  0.35361673708E+02  0.51100000000E-03 0. -1.
        -11    1    3    3    0    0 -0.46233971069E+01  0.23468535954E+01  0.17943998761E+01  0.54866559746E+01  0.51100000000E-03 0.  1.
         12    1    3    3    0    0 -0.28929800073E+01  0.26843533322E+00 -0.63013860461E+01  0.69389377395E+01  0.00000000000E+00 0. -1.
</event>
<event>
 7    1  0.2886681E-010  0.4778728E+02  0.7816164E-02  0.1312668E+00
        -11   -1    0    0    0    0  0.00000000000E+00  0.00000000000E+00  0.45593999997E+02  0.45594000000E+02  0.51100000000E-03 0.  1.
         11   -1    0    0    0    0 -0.00000000000E+00 -0.00000000000E+00 -0.45593999997E+02  0.45594000000E+02  0.51100000000E-03 0. -1.
    9900012    2    1    2    0    0 -0.32735016347E+02  0.18173138156E+02 -0.21949453194E+02  0.47787277181E+02  0.20000027980E+02 0.  0.
        -12    1    1    2    0    0  0.32735016347E+02 -0.18173138156E+02  0.21949453194E+02  0.43400722819E+02  0.00000000000E+00 0.  1.
         11    1    3    3    0    0  0.70837016993E+00 -0.11680029934E+01 -0.74700061308E+00  0.15569294998E+01  0.51100000000E-03 0. -1.
        -11    1    3    3    0    0 -0.33595060207E+02  0.15756857065E+02 -0.17338202246E+02  0.40957537429E+02  0.51100000000E-03 0.  1.
        -12    1    3    3    0    0  0.15167368965E+00  0.35842840849E+01 -0.38642503349E+01  0.52728102526E+01  0.00000000000E+00 0.  1.
</event>
<event>
 7    1  0.2886681E-010  0.4778727E+02  0.7816164E-02  0.1312668E+00
        -11   -1    0    0    0    0  0.00000000000E+00  0.00000000000E+00  0.45593999997E+02  0.45594000000E+02  0.51100000000E-03 0.  1.
         11   -1    0    0    0    0 -0.00000000000E+00 -0.00000000000E+00 -0.45593999997E+02  0.45594000000E+02  0.51100000000E-03 0. -1.
    9900012    2    1    2    0    0  0.16264559525E+02 -0.39186180042E+02 -0.91395199002E+01  0.47787269282E+02  0.19999991965E+02 0.  0.
        -12    1    1    2    0    0 -0.16264559525E+02  0.39186180042E+02  0.91395199002E+01  0.43400730718E+02  0.00000000000E+00 0.  1.
         11    1    3    3    0    0  0.14041565921E+02 -0.12691944939E+02 -0.49524025444E+01  0.19564696039E+02  0.51100000000E-03 0. -1.
        -11    1    3    3    0    0  0.22373634715E+01 -0.25840053594E+02 -0.57163806767E+01  0.26559201293E+02  0.51100000000E-03 0.  1.
         12    1    3    3    0    0 -0.14369867427E-01 -0.65418150900E+00  0.15292633210E+01  0.16633719502E+01  0.00000000000E+00 0. -1.
</event>
<event>
 7    1  0.2886681E-010  0.4778727E+02  0.7816164E-02  0.1312668E+00
        -11   -1    0    0    0    0  0.00000000000E+00  0.00000000000E+00  0.45593999997E+02  0.45594000000E+02  0.51100000000E-03 0. -1.
         11   -1    0    0    0    0 -0.00000000000E+00 -0.00000000000E+00 -0.45593999997E+02  0.45594000000E+02  0.51100000000E-03 0.  1.
    9900012    2    1    2    0    0  0.16249474035E+02 -0.40011176421E+02 -0.43224766406E+01  0.47787269023E+02  0.19999990784E+02 0.  0.
        -12    1    1    2    0    0 -0.16249474035E+02  0.40011176421E+02  0.43224766406E+01  0.43400730977E+02  0.00000000000E+00 0.  1.
         11    1    3    3    0    0 -0.15199701435E+01 -0.14499511653E+02  0.30199944607E+01  0.14888469169E+02  0.51100000000E-03 0. -1.
        -11    1    3    3    0    0  0.14794011454E+02 -0.15010692568E+02 -0.37376499159E+01  0.21404525069E+02  0.51100000000E-03 0.  1.
         12    1    3    3    0    0  0.29754327246E+01 -0.10500972200E+02 -0.36048211854E+01  0.11494274785E+02  0.00000000000E+00 0. -1.
</event>
<event>
 7    1  0.2886681E-010  0.4778727E+02  0.7816164E-02  0.1312668E+00
        -11   -1    0    0    0    0  0.00000000000E+00  0.00000000000E+00  0.45593999997E+02  0.45594000000E+02  0.51100000000E-03 0.  1.
         11   -1    0    0    0    0 -0.00000000000E+00 -0.00000000000E+00 -0.45593999997E+02  0.45594000000E+02  0.51100000000E-03 0. -1.
    9900012    2    1    2    0    0 -0.14333542340E+02 -0.40899870769E+02 -0.23180678135E+01  0.47787270705E+02  0.19999998452E+02 0.  0.
        -12    1    1    2    0    0  0.14333542340E+02  0.40899870769E+02  0.23180678135E+01  0.43400729295E+02  0.00000000000E+00 0.  1.
         11    1    3    3    0    0 -0.12066040142E+02 -0.16628216901E+02  0.42196928263E+00  0.20549087093E+02  0.51100000000E-03 0. -1.
        -11    1    3    3    0    0 -0.10354686108E+00 -0.10176887706E+02 -0.70038023386E+01  0.12354473392E+02  0.51100000000E-03 0.  1.
         12    1    3    3    0    0 -0.21639553363E+01 -0.14094766163E+02  0.42637652425E+01  0.14883710220E+02  0.00000000000E+00 0. -1.
</event>
<event>
 7    1  0.2886681E-010  0.4778728E+02  0.7816164E-02  0.1312668E+00
        -11   -1    0    0    0    0  0.00000000000E+00  0.00000000000E+00  0.45593999997E+02  0.45594000000E+02  0.51100000000E-03 0.  1.
         11   -1    0    0    0    0 -0.00000000000E+00 -0.00000000000E+00 -0.45593999997E+02  0.45594000000E+02  0.51100000000E-03 0. -1.
    9900012    2    1    2    0    0 -0.59239232202E+01 -0.40214804198E+02 -0.15208518194E+02  0.47787281473E+02  0.20000047546E+02 0.  0.
        -12    1    1    2    0    0  0.59239232202E+01  0.40214804198E+02  0.15208518194E+02  0.43400718527E+02  0.00000000000E+00 0.  1.
         11    1    3    3    0    0 -0.16352994349E+01 -0.90590870910E+01 -0.36467448265E-02  0.92055025242E+01  0.51100000000E-03 0. -1.
        -11    1    3    3    0    0  0.38568100010E+00 -0.28804692239E+02 -0.84177057080E+01  0.30011944530E+02  0.51100000000E-03 0.  1.
        -12    1    3    3    0    0 -0.46743047854E+01 -0.23510248683E+01 -0.67871657415E+01  0.85698344186E+01  0.00000000000E+00 0.  1.
</event>
<event>
 7    1  0.2886681E-010  0.4778727E+02  0.7816164E-02  0.1312668E+00
        -11   -1    0    0    0    0  0.00000000000E+00  0.00000000000E+00  0.45593999997E+02  0.45594000000E+02  0.51100000000E-03 0.  1.
         11   -1    0    0    0    0 -0.00000000000E+00 -0.00000000000E+00 -0.45593999997E+02  0.45594000000E+02  0.51100000000E-03 0. -1.
    9900012    2    1    2    0    0  0.88665796673E+01  0.42254439705E+02  0.44237806389E+01  0.47787265618E+02  0.19999975256E+02 0.  0.
        -12    1    1    2    0    0 -0.88665796673E+01 -0.42254439705E+02 -0.44237806389E+01  0.43400734382E+02  0.00000000000E+00 0.  1.
         11    1    3    3    0    0 -0.29514274363E+01  0.25829195207E+00  0.85855314232E+00  0.30845992290E+01  0.51100000000E-03 0. -1.
        -11    1    3    3    0    0  0.53075865198E+00  0.15613625537E+02  0.34863421927E+01  0.16006923168E+02  0.51100000000E-03 0.  1.
         12    1    3    3    0    0  0.11287248452E+02  0.26382522216E+02  0.78885303922E-01  0.28695743221E+02  0.00000000000E+00 0. -1.
</event>
<event>
 7    1  0.2886681E-010  0.4778727E+02  0.7816164E-02  0.1312668E+00
        -11   -1    0    0    0    0  0.00000000000E+00  0.00000000000E+00  0.45593999997E+02  0.45594000000E+02  0.51100000000E-03 0.  1.
         11   -1    0    0    0    0 -0.00000000000E+00 -0.00000000000E+00 -0.45593999997E+02  0.45594000000E+02  0.51100000000E-03 0. -1.
    9900012    2    1    2    0    0  0.42665315836E+02  0.59627938218E+01 -0.52667979044E+01  0.47787271369E+02  0.20000001478E+02 0.  0.
        -12    1    1    2    0    0 -0.42665315836E+02 -0.59627938218E+01  0.52667979044E+01  0.43400728631E+02  0.00000000000E+00 0.  1.
         11    1    3    3    0    0  0.20055036998E+02  0.45580773569E+01 -0.66542848080E+01  0.21616199590E+02  0.51100000000E-03 0. -1.
        -11    1    3    3    0    0  0.76285344286E+01 -0.36474824389E+01  0.51743090449E+01  0.99132305543E+01  0.51100000000E-03 0.  1.
        -12    1    3    3    0    0  0.14981744410E+02  0.50521989038E+01 -0.37868221413E+01  0.16257841224E+02  0.00000000000E+00 0.  1.
</event>
<event>
 7    1  0.2886681E-010  0.4778726E+02  0.7816164E-02  0.1312668E+00
        -11   -1    0    0    0    0  0.00000000000E+00  0.00000000000E+00  0.45593999997E+02  0.45594000000E+02  0.51100000000E-03 0.  1.
         11   -1    0    0    0    0 -0.00000000000E+00 -0.00000000000E+00 -0.45593999997E+02  0.45594000000E+02  0.51100000000E-03 0. -1.
    9900012    2    1    2    0    0 -0.16767031643E+02 -0.40015865641E+02 -0.11051926785E+01  0.47787259177E+02  0.19999945893E+02 0.  0.
        -12    1    1    2    0    0  0.16767031643E+02  0.40015865641E+02  0.11051926785E+01  0.43400740823E+02  0.00000000000E+00 0.  1.
         11    1    3    3    0    0 -0.94330773688E+01 -0.23480633653E+02  0.84238606684E+01  0.26669918152E+02  0.51100000000E-03 0. -1.
        -11    1    3    3    0    0 -0.86845720964E+00  0.20856692027E+00 -0.53648480026E+00  0.10418897673E+01  0.51100000000E-03 0.  1.
         12    1    3    3    0    0 -0.64654970648E+01 -0.16743798908E+02 -0.89925685466E+01  0.20075451258E+02  0.00000000000E+00 0. -1.
</event>
<event>
 7    1  0.2886681E-010  0.4778726E+02  0.7816164E-02  0.1312668E+00
        -11   -1    0    0    0    0  0.00000000000E+00  0.00000000000E+00  0.45593999997E+02  0.45594000000E+02  0.51100000000E-03 0.  1.
         11   -1    0    0    0    0 -0.00000000000E+00 -0.00000000000E+00 -0.45593999997E+02  0.45594000000E+02  0.51100000000E-03 0. -1.
    9900012    2    1    2    0    0 -0.71721115708E+01 -0.39304659584E+02 -0.16950765269E+02  0.47787263917E+02  0.19999967501E+02 0.  0.
        -12    1    1    2    0    0  0.71721115708E+01  0.39304659584E+02  0.16950765269E+02  0.43400736083E+02  0.00000000000E+00 0.  1.
         11    1    3    3    0    0 -0.98111020135E+00 -0.95713602211E+00 -0.16558509548E+01  0.21495416343E+01  0.51100000000E-03 0. -1.
        -11    1    3    3    0    0  0.32848265074E+01 -0.15762727285E+00  0.32119826683E+00  0.33042548522E+01  0.51100000000E-03 0.  1.
        -12    1    3    3    0    0 -0.94758278768E+01 -0.38189896289E+02 -0.15616112581E+02  0.42333467430E+02  0.00000000000E+00 0.  1.
</event>
<event>
 7    1  0.2886681E-010  0.4778727E+02  0.7816164E-02  0.1312668E+00
        -11   -1    0    0    0    0  0.00000000000E+00  0.00000000000E+00  0.45593999997E+02  0.45594000000E+02  0.51100000000E-03 0.  1.
         11   -1    0    0    0    0 -0.00000000000E+00 -0.00000000000E+00 -0.45593999997E+02  0.45594000000E+02  0.51100000000E-03 0. -1.
    9900012    2    1    2    0    0  0.94355499458E+01 -0.17384475147E+02 -0.38631257258E+02  0.47787267100E+02  0.19999982018E+02 0.  0.
        -12    1    1    2    0    0 -0.94355499458E+01  0.17384475147E+02  0.38631257258E+02  0.43400732900E+02  0.00000000000E+00 0.  1.
         11    1    3    3    0    0  0.11461844906E+01 -0.16200355786E+02 -0.28431792648E+02  0.32743428347E+02  0.51100000000E-03 0. -1.
        -11    1    3    3    0    0  0.36291495353E+01  0.18560936593E+01 -0.85004029056E+00  0.41639378932E+01  0.51100000000E-03 0.  1.
         12    1    3    3    0    0  0.46602159200E+01 -0.30402130205E+01 -0.93494243194E+01  0.10879900861E+02  0.00000000000E+00 0. -1.
</event>
<event>
 7    1  0.2886681E-010  0.4778726E+02  0.7816164E-02  0.1312668E+00
        -11   -1    0    0    0    0  0.00000000000E+00  0.00000000000E+00  0.45593999997E+02  0.45594000000E+02  0.51100000000E-03 0. -1.
         11   -1    0    0    0    0 -0.00000000000E+00 -0.00000000000E+00 -0.45593999997E+02  0.45594000000E+02  0.51100000000E-03 0.  1.
    9900012    2    1    2    0    0 -0.27805086898E+02  0.12916339086E+02  0.30719207536E+02  0.47787258251E+02  0.19999941667E+02 0.  0.
        -12    1    1    2    0    0  0.27805086898E+02 -0.12916339086E+02 -0.30719207536E+02  0.43400741749E+02  0.00000000000E+00 0.  1.
         11    1    3    3    0    0 -0.15081317849E+02  0.35034175146E+01  0.20375166136E+02  0.25590378616E+02  0.51100000000E-03 0. -1.
        -11    1    3    3    0    0 -0.43311120384E+01  0.10041744515E+02  0.77012516326E+01  0.13375516490E+02  0.51100000000E-03 0.  1.
        -12    1    3    3    0    0 -0.83926570105E+01 -0.62882294365E+00  0.26427897667E+01  0.88213631453E+01  0.00000000000E+00 0.  1.
</event>
<event>
 7    1  0.2886681E-010  0.4778727E+02  0.7816164E-02  0.1312668E+00
        -11   -1    0    0    0    0  0.00000000000E+00  0.00000000000E+00  0.45593999997E+02  0.45594000000E+02  0.51100000000E-03 0.  1.
         11   -1    0    0    0    0 -0.00000000000E+00 -0.00000000000E+00 -0.45593999997E+02  0.45594000000E+02  0.51100000000E-03 0. -1.
    9900012    2    1    2    0    0 -0.28551074020E+02  0.19280874551E+01 -0.32630385343E+02  0.47787269631E+02  0.19999993554E+02 0.  0.
        -12    1    1    2    0    0  0.28551074020E+02 -0.19280874551E+01  0.32630385343E+02  0.43400730369E+02  0.00000000000E+00 0.  1.
         11    1    3    3    0    0 -0.23650740519E+02  0.18201799197E+01 -0.31022513291E+02  0.39052105106E+02  0.51100000000E-03 0. -1.
        -11    1    3    3    0    0 -0.12848164353E+01  0.19641061937E+01  0.21625307109E+01  0.31913955802E+01  0.51100000000E-03 0.  1.
         12    1    3    3    0    0 -0.36155170662E+01 -0.18561986583E+01 -0.37704027628E+01  0.55437689443E+01  0.00000000000E+00 0. -1.
</event>
<event>
 7    1  0.2886681E-010  0.4778727E+02  0.7816164E-02  0.1312668E+00
        -11   -1    0    0    0    0  0.00000000000E+00  0.00000000000E+00  0.45593999997E+02  0.45594000000E+02  0.51100000000E-03 0.  1.
         11   -1    0    0    0    0 -0.00000000000E+00 -0.00000000000E+00 -0.45593999997E+02  0.45594000000E+02  0.51100000000E-03 0. -1.
    9900012    2    1    2    0    0  0.13372853036E+02  0.24704419225E+02 -0.33082953019E+02  0.47787270651E+02  0.19999998206E+02 0.  0.
        -12    1    1    2    0    0 -0.13372853036E+02 -0.24704419225E+02  0.33082953019E+02  0.43400729349E+02  0.00000000000E+00 0.  1.
         11    1    3    3    0    0  0.10325173103E+02  0.19365197051E+02 -0.33163400964E+02  0.39767212879E+02  0.51100000000E-03 0. -1.
        -11    1    3    3    0    0  0.23465252168E+00  0.51076838347E+01  0.60649403950E+00  0.51489155404E+01  0.51100000000E-03 0.  1.
        -12    1    3    3    0    0  0.28130274114E+01  0.23153833960E+00 -0.52604609460E+00  0.28711422316E+01  0.00000000000E+00 0.  1.
</event>
<event>
 7    1  0.2886681E-010  0.4778727E+02  0.7816164E-02  0.1312668E+00
        -11   -1    0    0    0    0  0.00000000000E+00  0.00000000000E+00  0.45593999997E+02  0.45594000000E+02  0.51100000000E-03 0. -1.
         11   -1    0    0    0    0 -0.00000000000E+00 -0.00000000000E+00 -0.45593999997E+02  0.45594000000E+02  0.51100000000E-03 0.  1.
    9900012    2    1    2    0    0  0.34144805916E+02 -0.26538079394E+02 -0.36723094579E+01  0.47787270909E+02  0.19999999380E+02 0.  0.
        -12    1    1    2    0    0 -0.34144805916E+02  0.26538079394E+02  0.36723094579E+01  0.43400729091E+02  0.00000000000E+00 0.  1.
         11    1    3    3    0    0  0.52420903546E+01 -0.17548869640E+01 -0.58432124474E+01  0.80437722189E+01  0.51100000000E-03 0. -1.
        -11    1    3    3    0    0  0.59422134186E+01 -0.34648544071E+00  0.17702314564E+01  0.62099655509E+01  0.51100000000E-03 0.  1.
         12    1    3    3    0    0  0.22960502142E+02 -0.24436706989E+02  0.40067153317E+00  0.33533533139E+02  0.00000000000E+00 0. -1.
</event>
<event>
 7    1  0.2886681E-010  0.4778727E+02  0.7816164E-02  0.1312668E+00
        -11   -1    0    0    0    0  0.00000000000E+00  0.00000000000E+00  0.45593999997E+02  0.45594000000E+02  0.51100000000E-03 0.  1.
         11   -1    0    0    0    0 -0.00000000000E+00 -0.00000000000E+00 -0.45593999997E+02  0.45594000000E+02  0.51100000000E-03 0. -1.
    9900012    2    1    2    0    0  0.14346455127E+02  0.35590494406E+02 -0.20276076430E+02  0.47787270257E+02  0.19999996411E+02 0.  0.
        -12    1    1    2    0    0 -0.14346455127E+02 -0.35590494406E+02  0.20276076430E+02  0.43400729743E+02  0.00000000000E+00 0.  1.
         11    1    3    3    0    0  0.22949534377E+01  0.25639432690E+02 -0.11184091073E+02  0.28066549723E+02  0.51100000000E-03 0. -1.
        -11    1    3    3    0    0 -0.33810042560E+00  0.17581826705E+01 -0.33453994876E+01  0.37943663757E+01  0.51100000000E-03 0.  1.
         12    1    3    3    0    0  0.12389602115E+02  0.81928790454E+01 -0.57465858697E+01  0.15926354158E+02  0.00000000000E+00 0. -1.
</event>
<event>
 7    1  0.2886681E-010  0.4778728E+02  0.7816164E-02  0.1312668E+00
        -11   -1    0    0    0    0  0.00000000000E+00  0.00000000000E+00  0.45593999997E+02  0.45594000000E+02  0.51100000000E-03 0. -1.
         11   -1    0    0    0    0 -0.00000000000E+00 -0.00000000000E+00 -0.45593999997E+02  0.45594000000E+02  0.51100000000E-03 0.  1.
    9900012    2    1    2    0    0  0.91077372611E+01 -0.91045726060E+01  0.41446091481E+02  0.47787278584E+02  0.20000034377E+02 0.  0.
        -12    1    1    2    0    0 -0.91077372611E+01  0.91045726060E+01 -0.41446091481E+02  0.43400721416E+02  0.00000000000E+00 0.  1.
         11    1    3    3    0    0  0.41419907949E+01 -0.86010080312E+01  0.97557489344E+01  0.13649471214E+02  0.51100000000E-03 0. -1.
        -11    1    3    3    0    0 -0.75971192797E+00  0.22849493053E+01  0.24142354342E+02  0.24262139827E+02  0.51100000000E-03 0.  1.
         12    1    3    3    0    0  0.57254583942E+01 -0.27885138801E+01  0.75479882048E+01  0.98756675431E+01  0.00000000000E+00 0. -1.
</event>
<event>
 7    1  0.2886681E-010  0.4778728E+02  0.7816164E-02  0.1312668E+00
        -11   -1    0    0    0    0  0.00000000000E+00  0.00000000000E+00  0.45593999997E+02  0.45594000000E+02  0.51100000000E-03 0.  1.
         11   -1    0    0    0    0 -0.00000000000E+00 -0.00000000000E+00 -0.45593999997E+02  0.45594000000E+02  0.51100000000E-03 0. -1.
    9900012    2    1    2    0    0 -0.32160072804E+02  0.24351924075E+02  0.16010497842E+02  0.47787279614E+02  0.20000039071E+02 0.  0.
        -12    1    1    2    0    0  0.32160072804E+02 -0.24351924075E+02 -0.16010497842E+02  0.43400720386E+02  0.00000000000E+00 0.  1.
         11    1    3    3    0    0 -0.13310859616E+02  0.84634520714E+01  0.10699404611E+02  0.19060069884E+02  0.51100000000E-03 0. -1.
        -11    1    3    3    0    0 -0.11622980337E+02  0.15721881256E+01 -0.31284610263E+00  0.11733001337E+02  0.51100000000E-03 0.  1.
        -12    1    3    3    0    0 -0.72262328508E+01  0.14316283878E+02  0.56239393332E+01  0.16994208394E+02  0.00000000000E+00 0.  1.
</event>
<event>
 7    1  0.2886681E-010  0.4778727E+02  0.7816164E-02  0.1312668E+00
        -11   -1    0    0    0    0  0.00000000000E+00  0.00000000000E+00  0.45593999997E+02  0.45594000000E+02  0.51100000000E-03 0.  1.
         11   -1    0    0    0    0 -0.00000000000E+00 -0.00000000000E+00 -0.45593999997E+02  0.45594000000E+02  0.51100000000E-03 0. -1.
    9900012    2    1    2    0    0 -0.33984788012E+02 -0.53411268239E+01 -0.26459969803E+02  0.47787268970E+02  0.19999990541E+02 0.  0.
        -12    1    1    2    0    0  0.33984788012E+02  0.53411268239E+01  0.26459969803E+02  0.43400731030E+02  0.00000000000E+00 0.  1.
         11    1    3    3    0    0 -0.31535367077E+02 -0.99924369444E+00 -0.23287660796E+02  0.39214704006E+02  0.51100000000E-03 0. -1.
        -11    1    3    3    0    0 -0.31588108280E+01 -0.41252838945E+01  0.12058192247E+00  0.51971716653E+01  0.51100000000E-03 0.  1.
         12    1    3    3    0    0  0.70938989311E+00 -0.21659923503E+00 -0.32928909294E+01  0.33753932988E+01  0.00000000000E+00 0. -1.
</event>
<event>
 7    1  0.2886681E-010  0.4778727E+02  0.7816164E-02  0.1312668E+00
        -11   -1    0    0    0    0  0.00000000000E+00  0.00000000000E+00  0.45593999997E+02  0.45594000000E+02  0.51100000000E-03 0.  1.
         11   -1    0    0    0    0 -0.00000000000E+00 -0.00000000000E+00 -0.45593999997E+02  0.45594000000E+02  0.51100000000E-03 0. -1.
    9900012    2    1    2    0    0 -0.17943981835E+02 -0.25716516094E+02 -0.30004955831E+02  0.47787273525E+02  0.20000011310E+02 0.  0.
        -12    1    1    2    0    0  0.17943981835E+02  0.25716516094E+02  0.30004955831E+02  0.43400726475E+02  0.00000000000E+00 0.  1.
         11    1    3    3    0    0 -0.72101864695E+01 -0.11038446845E+02 -0.25384187516E+01  0.13426751942E+02  0.51100000000E-03 0. -1.
        -11    1    3    3    0    0 -0.54074019069E+00 -0.36154753061E+01 -0.12948726764E+02  0.13454872229E+02  0.51100000000E-03 0.  1.
        -12    1    3    3    0    0 -0.10193055175E+02 -0.11062593943E+02 -0.14517810315E+02  0.20905649354E+02  0.00000000000E+00 0.  1.
</event>
<event>
 7    1  0.2886681E-010  0.4778727E+02  0.7816164E-02  0.1312668E+00
        -11   -1    0    0    0    0  0.00000000000E+00  0.00000000000E+00  0.45593999997E+02  0.45594000000E+02  0.51100000000E-03 0.  1.
         11   -1    0    0    0    0 -0.00000000000E+00 -0.00000000000E+00 -0.45593999997E+02  0.45594000000E+02  0.51100000000E-03 0. -1.
    9900012    2    1    2    0    0 -0.24844321538E+02  0.66821107435E+01 -0.34953286619E+02  0.47787272332E+02  0.20000005868E+02 0.  0.
        -12    1    1    2    0    0  0.24844321538E+02 -0.66821107435E+01  0.34953286619E+02  0.43400727668E+02  0.00000000000E+00 0.  1.
         11    1    3    3    0    0 -0.14586844895E+02  0.27722375203E+01 -0.28637030855E+02  0.32257415911E+02  0.51100000000E-03 0. -1.
        -11    1    3    3    0    0 -0.33928677577E+01 -0.26411326309E+01 -0.37370031873E+01  0.56966943291E+01  0.51100000000E-03 0.  1.
         12    1    3    3    0    0 -0.68646088856E+01  0.65510058541E+01 -0.25792525774E+01  0.98331620911E+01  0.00000000000E+00 0. -1.
</event>
<event>
 7    1  0.2886681E-010  0.4778727E+02  0.7816164E-02  0.1312668E+00
        -11   -1    0    0    0    0  0.00000000000E+00  0.00000000000E+00  0.45593999997E+02  0.45594000000E+02  0.51100000000E-03 0. -1.
         11   -1    0    0    0    0 -0.00000000000E+00 -0.00000000000E+00 -0.45593999997E+02  0.45594000000E+02  0.51100000000E-03 0.  1.
    9900012    2    1    2    0    0  0.84329715089E+01  0.22194387541E+02  0.36330666791E+02  0.47787271939E+02  0.20000004077E+02 0.  0.
        -12    1    1    2    0    0 -0.84329715089E+01 -0.22194387541E+02 -0.36330666791E+02  0.43400728061E+02  0.00000000000E+00 0.  1.
         11    1    3    3    0    0 -0.56987578630E+01  0.91749920534E+01  0.13022362957E+02  0.16918577292E+02  0.51100000000E-03 0. -1.
        -11    1    3    3    0    0  0.11710735623E+02  0.68539012008E+01  0.14669760992E+02  0.19982972209E+02  0.51100000000E-03 0.  1.
         12    1    3    3    0    0  0.24209937490E+01  0.61654942866E+01  0.86385428422E+01  0.10885722437E+02  0.00000000000E+00 0. -1.
</event>
<event>
 7    1  0.2886681E-010  0.4778727E+02  0.7816164E-02  0.1312668E+00
        -11   -1    0    0    0    0  0.00000000000E+00  0.00000000000E+00  0.45593999997E+02  0.45594000000E+02  0.51100000000E-03 0.  1.
         11   -1    0    0    0    0 -0.00000000000E+00 -0.00000000000E+00 -0.45593999997E+02  0.45594000000E+02  0.51100000000E-03 0. -1.
    9900012    2    1    2    0    0 -0.24598779434E+02 -0.13568231649E+02 -0.33082120460E+02  0.47787267819E+02  0.19999985293E+02 0.  0.
        -12    1    1    2    0    0  0.24598779434E+02  0.13568231649E+02  0.33082120460E+02  0.43400732181E+02  0.00000000000E+00 0.  1.
         11    1    3    3    0    0 -0.26471127601E+02 -0.14805878411E+02 -0.29899603589E+02  0.42590150587E+02  0.51100000000E-03 0. -1.
        -11    1    3    3    0    0  0.27903621096E+00  0.17047461238E+01 -0.14258963735E+00  0.17333068452E+01  0.51100000000E-03 0.  1.
         12    1    3    3    0    0  0.15933119565E+01 -0.46709936238E+00 -0.30399272343E+01  0.34638103866E+01  0.00000000000E+00 0. -1.
</event>
<event>
 7    1  0.2886681E-010  0.4778727E+02  0.7816164E-02  0.1312668E+00
        -11   -1    0    0    0    0  0.00000000000E+00  0.00000000000E+00  0.45593999997E+02  0.45594000000E+02  0.51100000000E-03 0.  1.
         11   -1    0    0    0    0 -0.00000000000E+00 -0.00000000000E+00 -0.45593999997E+02  0.45594000000E+02  0.51100000000E-03 0. -1.
    9900012    2    1    2    0    0 -0.34892874406E+02  0.16255809856E+01 -0.25757876819E+02  0.47787269406E+02  0.19999992531E+02 0.  0.
        -12    1    1    2    0    0  0.34892874406E+02 -0.16255809856E+01  0.25757876819E+02  0.43400730594E+02  0.00000000000E+00 0.  1.
         11    1    3    3    0    0 -0.13238202782E+02  0.61632558314E+01 -0.95944907215E+01  0.17472549551E+02  0.51100000000E-03 0. -1.
        -11    1    3    3    0    0 -0.73331630969E+01 -0.53722245780E+01 -0.54355633104E+00  0.91066751160E+01  0.51100000000E-03 0.  1.
        -12    1    3    3    0    0 -0.14321508527E+02  0.83454973224E+00 -0.15619829767E+02  0.21208044740E+02  0.00000000000E+00 0.  1.
</event>
<event>
 7    1  0.2886681E-010  0.4778727E+02  0.7816164E-02  0.1312668E+00
        -11   -1    0    0    0    0  0.00000000000E+00  0.00000000000E+00  0.45593999997E+02  0.45594000000E+02  0.51100000000E-03 0.  1.
         11   -1    0    0    0    0 -0.00000000000E+00 -0.00000000000E+00 -0.45593999997E+02  0.45594000000E+02  0.51100000000E-03 0. -1.
    9900012    2    1    2    0    0  0.43131319110E+00  0.19675317487E+02 -0.38682280958E+02  0.47787274091E+02  0.20000013892E+02 0.  0.
        -12    1    1    2    0    0 -0.43131319110E+00 -0.19675317487E+02  0.38682280958E+02  0.43400725909E+02  0.00000000000E+00 0.  1.
         11    1    3    3    0    0 -0.28818619553E+01  0.10891247615E+01 -0.12018696612E+02  0.12407271641E+02  0.51100000000E-03 0. -1.
        -11    1    3    3    0    0  0.26161247969E+01  0.20740858712E+02 -0.23074177286E+02  0.31135911529E+02  0.51100000000E-03 0.  1.
        -12    1    3    3    0    0  0.69705034949E+00 -0.21546659862E+01 -0.35894070605E+01  0.42440909212E+01  0.00000000000E+00 0.  1.
</event>
<event>
 7    1  0.2886681E-010  0.4778728E+02  0.7816164E-02  0.1312668E+00
        -11   -1    0    0    0    0  0.00000000000E+00  0.00000000000E+00  0.45593999997E+02  0.45594000000E+02  0.51100000000E-03 0.  1.
         11   -1    0    0    0    0 -0.00000000000E+00 -0.00000000000E+00 -0.45593999997E+02  0.45594000000E+02  0.51100000000E-03 0. -1.
    9900012    2    1    2    0    0  0.39980405072E+02  0.62281112461E+01 -0.15697155021E+02  0.47787276098E+02  0.20000023043E+02 0.  0.
        -12    1    1    2    0    0 -0.39980405072E+02 -0.62281112461E+01  0.15697155021E+02  0.43400723902E+02  0.00000000000E+00 0.  1.
         11    1    3    3    0    0  0.26957210614E+02  0.43295894828E+01 -0.89036345932E+01  0.28717786447E+02  0.51100000000E-03 0. -1.
        -11    1    3    3    0    0 -0.18393877799E+01  0.20188436555E+01 -0.22172871987E+01  0.35178743430E+01  0.51100000000E-03 0.  1.
        -12    1    3    3    0    0  0.14862582238E+02 -0.12032189221E+00 -0.45762332287E+01  0.15551615308E+02  0.00000000000E+00 0.  1.
</event>
<event>
 7    1  0.2886681E-010  0.4778727E+02  0.7816164E-02  0.1312668E+00
        -11   -1    0    0    0    0  0.00000000000E+00  0.00000000000E+00  0.45593999997E+02  0.45594000000E+02  0.51100000000E-03 0.  1.
         11   -1    0    0    0    0 -0.00000000000E+00 -0.00000000000E+00 -0.45593999997E+02  0.45594000000E+02  0.51100000000E-03 0. -1.
    9900012    2    1    2    0    0 -0.44603355619E+01  0.21550855092E+01 -0.43117100426E+02  0.47787270329E+02  0.19999996737E+02 0.  0.
        -12    1    1    2    0    0  0.44603355619E+01 -0.21550855092E+01  0.43117100426E+02  0.43400729671E+02  0.00000000000E+00 0.  1.
         11    1    3    3    0    0 -0.43143815844E+01  0.30580535151E+01 -0.61269259393E+01  0.80935036593E+01  0.51100000000E-03 0. -1.
        -11    1    3    3    0    0  0.59590144623E+01 -0.11552672036E+01 -0.29035863874E+02  0.29663544745E+02  0.51100000000E-03 0.  1.
        -12    1    3    3    0    0 -0.61049684398E+01  0.25229919772E+00 -0.79543106121E+01  0.10030221924E+02  0.00000000000E+00 0.  1.
</event>
<event>
 7    1  0.2886681E-010  0.4778727E+02  0.7816164E-02  0.1312668E+00
        -11   -1    0    0    0    0  0.00000000000E+00  0.00000000000E+00  0.45593999997E+02  0.45594000000E+02  0.51100000000E-03 0. -1.
         11   -1    0    0    0    0 -0.00000000000E+00 -0.00000000000E+00 -0.45593999997E+02  0.45594000000E+02  0.51100000000E-03 0.  1.
    9900012    2    1    2    0    0  0.92621060309E+00  0.40468194417E+02  0.15655378178E+02  0.47787268539E+02  0.19999988577E+02 0.  0.
        -12    1    1    2    0    0 -0.92621060309E+00 -0.40468194417E+02 -0.15655378178E+02  0.43400731461E+02  0.00000000000E+00 0.  1.
         11    1    3    3    0    0  0.31616049144E+01  0.30640350002E+02  0.70634225980E+01  0.31602511498E+02  0.51100000000E-03 0. -1.
        -11    1    3    3    0    0 -0.11843535810E+01  0.78312088784E+01  0.67093348641E+00  0.79486274227E+01  0.51100000000E-03 0.  1.
         12    1    3    3    0    0 -0.10510407303E+01  0.19966355359E+01  0.79210220941E+01  0.82361296187E+01  0.00000000000E+00 0. -1.
</event>
<event>
 7    1  0.2886681E-010  0.4778727E+02  0.7816164E-02  0.1312668E+00
        -11   -1    0    0    0    0  0.00000000000E+00  0.00000000000E+00  0.45593999997E+02  0.45594000000E+02  0.51100000000E-03 0.  1.
         11   -1    0    0    0    0 -0.00000000000E+00 -0.00000000000E+00 -0.45593999997E+02  0.45594000000E+02  0.51100000000E-03 0. -1.
    9900012    2    1    2    0    0 -0.17544782400E+02  0.27438155780E+02 -0.28687131514E+02  0.47787270783E+02  0.19999998807E+02 0.  0.
        -12    1    1    2    0    0  0.17544782400E+02 -0.27438155780E+02  0.28687131514E+02  0.43400729217E+02  0.00000000000E+00 0.  1.
         11    1    3    3    0    0 -0.28714586022E+01  0.10482197478E+02 -0.64540347416E+01  0.12640265154E+02  0.51100000000E-03 0. -1.
        -11    1    3    3    0    0  0.26984155230E+01  0.37419716284E+01 -0.10500787456E+01  0.47314335709E+01  0.51100000000E-03 0.  1.
        -12    1    3    3    0    0 -0.17371739321E+02  0.13213986674E+02 -0.21183018027E+02  0.30415572058E+02  0.00000000000E+00 0.  1.
</event>
<event>
 7    1  0.2886681E-010  0.4778727E+02  0.7816164E-02  0.1312668E+00
        -11   -1    0    0    0    0  0.00000000000E+00  0.00000000000E+00  0.45593999997E+02  0.45594000000E+02  0.51100000000E-03 0.  1.
         11   -1    0    0    0    0 -0.00000000000E+00 -0.00000000000E+00 -0.45593999997E+02  0.45594000000E+02  0.51100000000E-03 0. -1.
    9900012    2    1    2    0    0 -0.32022524223E+02 -0.20912466849E+02 -0.20514624848E+02  0.47787272356E+02  0.20000005981E+02 0.  0.
        -12    1    1    2    0    0  0.32022524223E+02  0.20912466849E+02  0.20514624848E+02  0.43400727644E+02  0.00000000000E+00 0.  1.
         11    1    3    3    0    0 -0.21848720658E+02 -0.61186973405E+01 -0.13279438792E+02  0.26289704190E+02  0.51100000000E-03 0. -1.
        -11    1    3    3    0    0 -0.16359051332E+01  0.94452919829E+00  0.55854230608E+00  0.19698453696E+01  0.51100000000E-03 0.  1.
         12    1    3    3    0    0 -0.85378984321E+01 -0.15738298707E+02 -0.77937283627E+01  0.19527722797E+02  0.00000000000E+00 0. -1.
</event>
<event>
 7    1  0.2886681E-010  0.4778728E+02  0.7816164E-02  0.1312668E+00
        -11   -1    0    0    0    0  0.00000000000E+00  0.00000000000E+00  0.45593999997E+02  0.45594000000E+02  0.51100000000E-03 0. -1.
         11   -1    0    0    0    0 -0.00000000000E+00 -0.00000000000E+00 -0.45593999997E+02  0.45594000000E+02  0.51100000000E-03 0.  1.
    9900012    2    1    2    0    0 -0.35851413179E+02 -0.14616454210E+02  0.19612690458E+02  0.47787283559E+02  0.20000057059E+02 0.  0.
        -12    1    1    2    0    0  0.35851413179E+02  0.14616454210E+02 -0.19612690458E+02  0.43400716441E+02  0.00000000000E+00 0.  1.
         11    1    3    3    0    0 -0.49611911768E+01 -0.88706937687E+01  0.66060963788E+01  0.12122010372E+02  0.51100000000E-03 0. -1.
        -11    1    3    3    0    0 -0.28912006525E+02 -0.57139179217E+01  0.14814500278E+02  0.32985184524E+02  0.51100000000E-03 0.  1.
         12    1    3    3    0    0 -0.19782154772E+01 -0.31842519384E-01 -0.18079061988E+01  0.26800886635E+01  0.00000000000E+00 0. -1.
</event>
<event>
 7    1  0.2886681E-010  0.4778727E+02  0.7816164E-02  0.1312668E+00
        -11   -1    0    0    0    0  0.00000000000E+00  0.00000000000E+00  0.45593999997E+02  0.45594000000E+02  0.51100000000E-03 0. -1.
         11   -1    0    0    0    0 -0.00000000000E+00 -0.00000000000E+00 -0.45593999997E+02  0.45594000000E+02  0.51100000000E-03 0.  1.
    9900012    2    1    2    0    0  0.12093450026E+02  0.21636018004E+02  0.35626596723E+02  0.47787271865E+02  0.20000003741E+02 0.  0.
        -12    1    1    2    0    0 -0.12093450026E+02 -0.21636018004E+02 -0.35626596723E+02  0.43400728135E+02  0.00000000000E+00 0.  1.
         11    1    3    3    0    0  0.99890965510E+01  0.50999205820E+01  0.54840431180E+01  0.12484629311E+02  0.51100000000E-03 0. -1.
        -11    1    3    3    0    0  0.39069846332E+01  0.14950618699E+02  0.28415058799E+02  0.32345032002E+02  0.51100000000E-03 0.  1.
        -12    1    3    3    0    0 -0.18026311579E+01  0.15854787232E+01  0.17274948054E+01  0.29576105517E+01  0.00000000000E+00 0.  1.
</event>
<event>
 7    1  0.2886681E-010  0.4778728E+02  0.7816164E-02  0.1312668E+00
        -11   -1    0    0    0    0  0.00000000000E+00  0.00000000000E+00  0.45593999997E+02  0.45594000000E+02  0.51100000000E-03 0.  1.
         11   -1    0    0    0    0 -0.00000000000E+00 -0.00000000000E+00 -0.45593999997E+02  0.45594000000E+02  0.51100000000E-03 0. -1.
    9900012    2    1    2    0    0  0.36619771017E+02  0.24893167915E+01 -0.23160712271E+02  0.47787275118E+02  0.20000018571E+02 0.  0.
        -12    1    1    2    0    0 -0.36619771017E+02 -0.24893167915E+01  0.23160712271E+02  0.43400724882E+02  0.00000000000E+00 0.  1.
         11    1    3    3    0    0  0.11336967319E+02  0.72436191298E-01 -0.15432073589E+02  0.19148915648E+02  0.51100000000E-03 0. -1.
        -11    1    3    3    0    0  0.14914582830E+02  0.67001055554E+01 -0.42606983667E+01  0.16896441823E+02  0.51100000000E-03 0.  1.
         12    1    3    3    0    0  0.10368220868E+02 -0.42832249552E+01 -0.34679403159E+01  0.11741917646E+02  0.00000000000E+00 0. -1.
</event>
<event>
 7    1  0.2886681E-010  0.4778727E+02  0.7816164E-02  0.1312668E+00
        -11   -1    0    0    0    0  0.00000000000E+00  0.00000000000E+00  0.45593999997E+02  0.45594000000E+02  0.51100000000E-03 0.  1.
         11   -1    0    0    0    0 -0.00000000000E+00 -0.00000000000E+00 -0.45593999997E+02  0.45594000000E+02  0.51100000000E-03 0. -1.
    9900012    2    1    2    0    0 -0.50256851846E+01 -0.68367438629E+01 -0.42563184547E+02  0.47787271239E+02  0.20000000888E+02 0.  0.
        -12    1    1    2    0    0  0.50256851846E+01  0.68367438629E+01  0.42563184547E+02  0.43400728761E+02  0.00000000000E+00 0.  1.
         11    1    3    3    0    0  0.29521147124E+01 -0.27957283465E+01 -0.31744184331E+02  0.32003504767E+02  0.51100000000E-03 0. -1.
        -11    1    3    3    0    0 -0.78540838386E+01 -0.51268224655E+01 -0.11216176945E+02  0.14620997472E+02  0.51100000000E-03 0.  1.
        -12    1    3    3    0    0 -0.12371605843E+00  0.10858069491E+01  0.39717673001E+00  0.11627690006E+01  0.00000000000E+00 0.  1.
</event>
<event>
 7    1  0.2886681E-010  0.4778727E+02  0.7816164E-02  0.1312668E+00
        -11   -1    0    0    0    0  0.00000000000E+00  0.00000000000E+00  0.45593999997E+02  0.45594000000E+02  0.51100000000E-03 0.  1.
         11   -1    0    0    0    0 -0.00000000000E+00 -0.00000000000E+00 -0.45593999997E+02  0.45594000000E+02  0.51100000000E-03 0. -1.
    9900012    2    1    2    0    0  0.40305966412E+02 -0.13788210789E+02  0.83028534516E+01  0.47787273502E+02  0.20000011204E+02 0.  0.
        -12    1    1    2    0    0 -0.40305966412E+02  0.13788210789E+02 -0.83028534516E+01  0.43400726498E+02  0.00000000000E+00 0.  1.
         11    1    3    3    0    0 -0.43798521686E+00  0.22800193498E+01  0.74192310113E+00  0.24373693677E+01  0.51100000000E-03 0. -1.
        -11    1    3    3    0    0  0.88157901156E+01 -0.28856697263E+01  0.54146412534E+01  0.10740744169E+02  0.51100000000E-03 0.  1.
         12    1    3    3    0    0  0.31928161513E+02 -0.13182560412E+02  0.21462890970E+01  0.34609159965E+02  0.00000000000E+00 0. -1.
</event>
<event>
 7    1  0.2886681E-010  0.4778727E+02  0.7816164E-02  0.1312668E+00
        -11   -1    0    0    0    0  0.00000000000E+00  0.00000000000E+00  0.45593999997E+02  0.45594000000E+02  0.51100000000E-03 0.  1.
         11   -1    0    0    0    0 -0.00000000000E+00 -0.00000000000E+00 -0.45593999997E+02  0.45594000000E+02  0.51100000000E-03 0. -1.
    9900012    2    1    2    0    0  0.55216755235E+01 -0.32543280771E+02 -0.28179236494E+02  0.47787269669E+02  0.19999993728E+02 0.  0.
        -12    1    1    2    0    0 -0.55216755235E+01  0.32543280771E+02  0.28179236494E+02  0.43400730331E+02  0.00000000000E+00 0.  1.
         11    1    3    3    0    0 -0.81729996923E+00 -0.48117513255E+01 -0.31668700489E+01  0.58180749588E+01  0.51100000000E-03 0. -1.
        -11    1    3    3    0    0 -0.44044121952E+01 -0.19913189530E+02 -0.14435412067E+02  0.24986297962E+02  0.51100000000E-03 0.  1.
        -12    1    3    3    0    0  0.10743387688E+02 -0.78183399155E+01 -0.10576954378E+02  0.16982896748E+02  0.00000000000E+00 0.  1.
</event>
<event>
 7    1  0.2886681E-010  0.4778727E+02  0.7816164E-02  0.1312668E+00
        -11   -1    0    0    0    0  0.00000000000E+00  0.00000000000E+00  0.45593999997E+02  0.45594000000E+02  0.51100000000E-03 0.  1.
         11   -1    0    0    0    0 -0.00000000000E+00 -0.00000000000E+00 -0.45593999997E+02  0.45594000000E+02  0.51100000000E-03 0. -1.
    9900012    2    1    2    0    0 -0.14980149833E+01  0.20173498586E+02 -0.38398035199E+02  0.47787271881E+02  0.20000003815E+02 0.  0.
        -12    1    1    2    0    0  0.14980149833E+01 -0.20173498586E+02  0.38398035199E+02  0.43400728119E+02  0.00000000000E+00 0.  1.
         11    1    3    3    0    0 -0.56265669163E+01  0.90301517895E+01 -0.22914373773E+02  0.25264014374E+02  0.51100000000E-03 0. -1.
        -11    1    3    3    0    0 -0.38996505225E+01  0.31650582439E+01 -0.43014654839E+01  0.66126752117E+01  0.51100000000E-03 0.  1.
         12    1    3    3    0    0  0.80282024556E+01  0.79782885526E+01 -0.11182195942E+02  0.15910582295E+02  0.00000000000E+00 0. -1.
</event>
<event>
 7    1  0.2886681E-010  0.4778727E+02  0.7816164E-02  0.1312668E+00
        -11   -1    0    0    0    0  0.00000000000E+00  0.00000000000E+00  0.45593999997E+02  0.45594000000E+02  0.51100000000E-03 0.  1.
         11   -1    0    0    0    0 -0.00000000000E+00 -0.00000000000E+00 -0.45593999997E+02  0.45594000000E+02  0.51100000000E-03 0. -1.
    9900012    2    1    2    0    0  0.16642249437E+02  0.25712503364E+02 -0.30749404764E+02  0.47787272023E+02  0.20000004461E+02 0.  0.
        -12    1    1    2    0    0 -0.16642249437E+02 -0.25712503364E+02  0.30749404764E+02  0.43400727977E+02  0.00000000000E+00 0.  1.
         11    1    3    3    0    0  0.95417875885E+01  0.11805424542E+02 -0.19907406161E+02  0.25034347990E+02  0.51100000000E-03 0. -1.
        -11    1    3    3    0    0 -0.24612057232E+01  0.54471422020E+00  0.76668510702E+00  0.26347776961E+01  0.51100000000E-03 0.  1.
        -12    1    3    3    0    0  0.95616675720E+01  0.13362364602E+02 -0.11608683711E+02  0.20118146337E+02  0.00000000000E+00 0.  1.
</event>
<event>
 7    1  0.2886681E-010  0.4778727E+02  0.7816164E-02  0.1312668E+00
        -11   -1    0    0    0    0  0.00000000000E+00  0.00000000000E+00  0.45593999997E+02  0.45594000000E+02  0.51100000000E-03 0.  1.
         11   -1    0    0    0    0 -0.00000000000E+00 -0.00000000000E+00 -0.45593999997E+02  0.45594000000E+02  0.51100000000E-03 0. -1.
    9900012    2    1    2    0    0  0.34808825349E+02  0.17461641477E+02 -0.19158806294E+02  0.47787273003E+02  0.20000008930E+02 0.  0.
        -12    1    1    2    0    0 -0.34808825349E+02 -0.17461641477E+02  0.19158806294E+02  0.43400726997E+02  0.00000000000E+00 0.  1.
         11    1    3    3    0    0  0.31112550790E+02  0.14166817574E+02 -0.22037634815E+02  0.40673663289E+02  0.51100000000E-03 0. -1.
        -11    1    3    3    0    0  0.12356789587E+01  0.38096036695E+00  0.30325295767E+01  0.32967058080E+01  0.51100000000E-03 0.  1.
         12    1    3    3    0    0  0.24605956007E+01  0.29138635359E+01 -0.15370105571E+00  0.38169039064E+01  0.00000000000E+00 0. -1.
</event>
<event>
 7    1  0.2886681E-010  0.4778727E+02  0.7816164E-02  0.1312668E+00
        -11   -1    0    0    0    0  0.00000000000E+00  0.00000000000E+00  0.45593999997E+02  0.45594000000E+02  0.51100000000E-03 0.  1.
         11   -1    0    0    0    0 -0.00000000000E+00 -0.00000000000E+00 -0.45593999997E+02  0.45594000000E+02  0.51100000000E-03 0. -1.
    9900012    2    1    2    0    0 -0.20506805300E+02 -0.27581953237E+02 -0.26501516471E+02  0.47787267480E+02  0.19999983751E+02 0.  0.
        -12    1    1    2    0    0  0.20506805300E+02  0.27581953237E+02  0.26501516471E+02  0.43400732520E+02  0.00000000000E+00 0.  1.
         11    1    3    3    0    0 -0.15080732941E+02 -0.13813555749E+02 -0.22488507038E+02  0.30396969874E+02  0.51100000000E-03 0. -1.
        -11    1    3    3    0    0 -0.40833052630E+01 -0.13093966371E+02 -0.67825495133E+00  0.13732638757E+02  0.51100000000E-03 0.  1.
        -12    1    3    3    0    0 -0.13427670963E+01 -0.67443111689E+00 -0.33347544819E+01  0.36576588497E+01  0.00000000000E+00 0.  1.
</event>
<event>
 7    1  0.2886681E-010  0.4778727E+02  0.7816164E-02  0.1312668E+00
        -11   -1    0    0    0    0  0.00000000000E+00  0.00000000000E+00  0.45593999997E+02  0.45594000000E+02  0.51100000000E-03 0.  1.
         11   -1    0    0    0    0 -0.00000000000E+00 -0.00000000000E+00 -0.45593999997E+02  0.45594000000E+02  0.51100000000E-03 0. -1.
    9900012    2    1    2    0    0  0.77248641398E+01  0.32940389063E+02 -0.27182361759E+02  0.47787267882E+02  0.19999985582E+02 0.  0.
        -12    1    1    2    0    0 -0.77248641398E+01 -0.32940389063E+02  0.27182361759E+02  0.43400732118E+02  0.00000000000E+00 0.  1.
         11    1    3    3    0    0  0.71414303195E+01  0.33198440649E+02 -0.20812808849E+02  0.39828501114E+02  0.51100000000E-03 0. -1.
        -11    1    3    3    0    0  0.63166700512E+00 -0.11934552239E+01 -0.67965450733E+01  0.69293840831E+01  0.51100000000E-03 0.  1.
         12    1    3    3    0    0 -0.48233184876E-01  0.93540363697E+00  0.42699216332E+00  0.10293826848E+01  0.00000000000E+00 0. -1.
</event>
<event>
 7    1  0.2886681E-010  0.4778727E+02  0.7816164E-02  0.1312668E+00
        -11   -1    0    0    0    0  0.00000000000E+00  0.00000000000E+00  0.45593999997E+02  0.45594000000E+02  0.51100000000E-03 0.  1.
         11   -1    0    0    0    0 -0.00000000000E+00 -0.00000000000E+00 -0.45593999997E+02  0.45594000000E+02  0.51100000000E-03 0. -1.
    9900012    2    1    2    0    0  0.99003554788E+01  0.33416489969E+02 -0.25863958744E+02  0.47787271868E+02  0.20000003757E+02 0.  0.
        -12    1    1    2    0    0 -0.99003554788E+01 -0.33416489969E+02  0.25863958744E+02  0.43400728132E+02  0.00000000000E+00 0.  1.
         11    1    3    3    0    0  0.64349123339E+00  0.68898099429E+01 -0.58899373337E+01  0.90870745607E+01  0.51100000000E-03 0. -1.
        -11    1    3    3    0    0 -0.83626617018E+00  0.18410998933E+02 -0.17695819032E+02  0.25550073078E+02  0.51100000000E-03 0.  1.
        -12    1    3    3    0    0  0.10093130416E+02  0.81156810924E+01 -0.22782023788E+01  0.13150124230E+02  0.00000000000E+00 0.  1.
</event>
<event>
 7    1  0.2886681E-010  0.4778727E+02  0.7816164E-02  0.1312668E+00
        -11   -1    0    0    0    0  0.00000000000E+00  0.00000000000E+00  0.45593999997E+02  0.45594000000E+02  0.51100000000E-03 0.  1.
         11   -1    0    0    0    0 -0.00000000000E+00 -0.00000000000E+00 -0.45593999997E+02  0.45594000000E+02  0.51100000000E-03 0. -1.
    9900012    2    1    2    0    0 -0.17756734023E+02 -0.12955274114E+02 -0.37423024698E+02  0.47787268346E+02  0.19999987698E+02 0.  0.
        -12    1    1    2    0    0  0.17756734023E+02  0.12955274114E+02  0.37423024698E+02  0.43400731654E+02  0.00000000000E+00 0.  1.
         11    1    3    3    0    0 -0.40260971276E+01 -0.40753162799E+01 -0.12338314359E+02  0.13603369522E+02  0.51100000000E-03 0. -1.
        -11    1    3    3    0    0 -0.49760068840E+00 -0.64533117068E+01 -0.17679073316E+02  0.18826642611E+02  0.51100000000E-03 0.  1.
        -12    1    3    3    0    0 -0.13233036207E+02 -0.24266461277E+01 -0.74056370223E+01  0.15357256213E+02  0.00000000000E+00 0.  1.
</event>
<event>
 7    1  0.2886681E-010  0.4778727E+02  0.7816164E-02  0.1312668E+00
        -11   -1    0    0    0    0  0.00000000000E+00  0.00000000000E+00  0.45593999997E+02  0.45594000000E+02  0.51100000000E-03 0.  1.
         11   -1    0    0    0    0 -0.00000000000E+00 -0.00000000000E+00 -0.45593999997E+02  0.45594000000E+02  0.51100000000E-03 0. -1.
    9900012    2    1    2    0    0 -0.29596444280E+01  0.11488045624E+02 -0.41747915390E+02  0.47787272738E+02  0.20000007724E+02 0.  0.
        -12    1    1    2    0    0  0.29596444280E+01 -0.11488045624E+02  0.41747915390E+02  0.43400727262E+02  0.00000000000E+00 0.  1.
         11    1    3    3    0    0  0.13129176181E+01  0.81210919199E-01 -0.83707335954E+00  0.15591792570E+01  0.51100000000E-03 0. -1.
        -11    1    3    3    0    0 -0.68903621116E+00  0.10676994560E+02 -0.41193322161E+02  0.42560107785E+02  0.51100000000E-03 0.  1.
        -12    1    3    3    0    0 -0.35835258349E+01  0.72984014445E+00  0.28248013029E+00  0.36679856965E+01  0.00000000000E+00 0.  1.
</event>
<event>
 7    1  0.2886681E-010  0.4778728E+02  0.7816164E-02  0.1312668E+00
        -11   -1    0    0    0    0  0.00000000000E+00  0.00000000000E+00  0.45593999997E+02  0.45594000000E+02  0.51100000000E-03 0. -1.
         11   -1    0    0    0    0 -0.00000000000E+00 -0.00000000000E+00 -0.45593999997E+02  0.45594000000E+02  0.51100000000E-03 0.  1.
    9900012    2    1    2    0    0 -0.28154977458E+02  0.31909720752E+02  0.85257989829E+01  0.47787282466E+02  0.20000052077E+02 0.  0.
        -12    1    1    2    0    0  0.28154977458E+02 -0.31909720752E+02 -0.85257989829E+01  0.43400717534E+02  0.00000000000E+00 0.  1.
         11    1    3    3    0    0 -0.78843061452E+01  0.18927189272E+02  0.88353353728E+01  0.22326305752E+02  0.51100000000E-03 0. -1.
        -11    1    3    3    0    0 -0.10966258031E+02  0.81290489292E+01 -0.41791724889E+01  0.14276054589E+02  0.51100000000E-03 0.  1.
        -12    1    3    3    0    0 -0.93044132824E+01  0.48534825511E+01  0.38696360990E+01  0.11184922125E+02  0.00000000000E+00 0.  1.
</event>
<event>
 7    1  0.2886681E-010  0.4778727E+02  0.7816164E-02  0.1312668E+00
        -11   -1    0    0    0    0  0.00000000000E+00  0.00000000000E+00  0.45593999997E+02  0.45594000000E+02  0.51100000000E-03 0.  1.
         11   -1    0    0    0    0 -0.00000000000E+00 -0.00000000000E+00 -0.45593999997E+02  0.45594000000E+02  0.51100000000E-03 0. -1.
    9900012    2    1    2    0    0 -0.15561240392E+01  0.42070908355E+02  0.10547050621E+02  0.47787272717E+02  0.20000007628E+02 0.  0.
        -12    1    1    2    0    0  0.15561240392E+01 -0.42070908355E+02 -0.10547050621E+02  0.43400727283E+02  0.00000000000E+00 0.  1.
         11    1    3    3    0    0  0.58555862476E+01  0.27989653631E+02  0.55910642253E+01  0.29137065743E+02  0.51100000000E-03 0. -1.
        -11    1    3    3    0    0 -0.31082736899E+01  0.66201532877E+00 -0.10277691178E+01  0.33400507852E+01  0.51100000000E-03 0.  1.
         12    1    3    3    0    0 -0.43034365969E+01  0.13419239395E+02  0.59837555133E+01  0.15310156189E+02  0.00000000000E+00 0. -1.
</event>
<event>
 7    1  0.2886681E-010  0.4778727E+02  0.7816164E-02  0.1312668E+00
        -11   -1    0    0    0    0  0.00000000000E+00  0.00000000000E+00  0.45593999997E+02  0.45594000000E+02  0.51100000000E-03 0.  1.
         11   -1    0    0    0    0 -0.00000000000E+00 -0.00000000000E+00 -0.45593999997E+02  0.45594000000E+02  0.51100000000E-03 0. -1.
    9900012    2    1    2    0    0  0.89987487229E+01 -0.37863672550E+02 -0.19209071965E+02  0.47787267018E+02  0.19999981644E+02 0.  0.
        -12    1    1    2    0    0 -0.89987487229E+01  0.37863672550E+02  0.19209071965E+02  0.43400732982E+02  0.00000000000E+00 0.  1.
         11    1    3    3    0    0 -0.44544949407E+01 -0.54269434854E+01 -0.84968304518E+00  0.70722133953E+01  0.51100000000E-03 0.  1.
        -11    1    3    3    0    0  0.34275868544E+01 -0.17578665874E+01 -0.67007977163E+00  0.39099173578E+01  0.51100000000E-03 0. -1.
         12    1    3    3    0    0  0.10025656809E+02 -0.30678862477E+02 -0.17689309148E+02  0.36805136265E+02  0.00000000000E+00 0. -1.
</event>
<event>
 7    1  0.2886681E-010  0.4778727E+02  0.7816164E-02  0.1312668E+00
        -11   -1    0    0    0    0  0.00000000000E+00  0.00000000000E+00  0.45593999997E+02  0.45594000000E+02  0.51100000000E-03 0.  1.
         11   -1    0    0    0    0 -0.00000000000E+00 -0.00000000000E+00 -0.45593999997E+02  0.45594000000E+02  0.51100000000E-03 0. -1.
    9900012    2    1    2    0    0  0.12113683919E+02  0.19241269706E+02 -0.36968303655E+02  0.47787271053E+02  0.20000000040E+02 0.  0.
        -12    1    1    2    0    0 -0.12113683919E+02 -0.19241269706E+02  0.36968303655E+02  0.43400728947E+02  0.00000000000E+00 0.  1.
         11    1    3    3    0    0  0.77941219263E+01  0.81779858387E+01 -0.36690466720E+01  0.11878118232E+02  0.51100000000E-03 0. -1.
        -11    1    3    3    0    0  0.28863730892E+01  0.24063054775E+01 -0.16869499662E+02  0.17282982230E+02  0.51100000000E-03 0.  1.
         12    1    3    3    0    0  0.14331889035E+01  0.86569783899E+01 -0.16429757321E+02  0.18626170591E+02  0.00000000000E+00 0. -1.
</event>
<event>
 7    1  0.2886681E-010  0.4778726E+02  0.7816164E-02  0.1312668E+00
        -11   -1    0    0    0    0  0.00000000000E+00  0.00000000000E+00  0.45593999997E+02  0.45594000000E+02  0.51100000000E-03 0.  1.
         11   -1    0    0    0    0 -0.00000000000E+00 -0.00000000000E+00 -0.45593999997E+02  0.45594000000E+02  0.51100000000E-03 0. -1.
    9900012    2    1    2    0    0  0.24417930317E+02 -0.21771537871E+02 -0.28519973828E+02  0.47787261649E+02  0.19999957163E+02 0.  0.
        -12    1    1    2    0    0 -0.24417930317E+02  0.21771537871E+02  0.28519973828E+02  0.43400738351E+02  0.00000000000E+00 0.  1.
         11    1    3    3    0    0  0.20976716058E+02 -0.18245179840E+02 -0.25684754848E+02  0.37849911966E+02  0.51100000000E-03 0. -1.
        -11    1    3    3    0    0  0.94036382356E+00 -0.23407459359E+01  0.27330015949E+01  0.37192302477E+01  0.51100000000E-03 0.  1.
         12    1    3    3    0    0  0.25008504357E+01 -0.11856120952E+01 -0.55682205745E+01  0.62181194350E+01  0.00000000000E+00 0. -1.
</event>
<event>
 7    1  0.2886681E-010  0.4778725E+02  0.7816164E-02  0.1312668E+00
        -11   -1    0    0    0    0  0.00000000000E+00  0.00000000000E+00  0.45593999997E+02  0.45594000000E+02  0.51100000000E-03 0. -1.
         11   -1    0    0    0    0 -0.00000000000E+00 -0.00000000000E+00 -0.45593999997E+02  0.45594000000E+02  0.51100000000E-03 0.  1.
    9900012    2    1    2    0    0 -0.31077659654E+02  0.13232708579E+02  0.27252513907E+02  0.47787250926E+02  0.19999908272E+02 0.  0.
        -12    1    1    2    0    0  0.31077659654E+02 -0.13232708579E+02 -0.27252513907E+02  0.43400749074E+02  0.00000000000E+00 0.  1.
         11    1    3    3    0    0 -0.13988199673E+02  0.20938498225E+01  0.19169728537E+01  0.14273357081E+02  0.51100000000E-03 0. -1.
        -11    1    3    3    0    0 -0.27262854250E+01  0.57255257854E+01  0.52366073759E+01  0.82241312495E+01  0.51100000000E-03 0.  1.
         12    1    3    3    0    0 -0.14363174556E+02  0.54133329714E+01  0.20098933677E+02  0.25289762596E+02  0.00000000000E+00 0. -1.
</event>
<event>
 7    1  0.2886681E-010  0.4778728E+02  0.7816164E-02  0.1312668E+00
        -11   -1    0    0    0    0  0.00000000000E+00  0.00000000000E+00  0.45593999997E+02  0.45594000000E+02  0.51100000000E-03 0. -1.
         11   -1    0    0    0    0 -0.00000000000E+00 -0.00000000000E+00 -0.45593999997E+02  0.45594000000E+02  0.51100000000E-03 0.  1.
    9900012    2    1    2    0    0 -0.77615363447E+01  0.20571680193E+02  0.37419070117E+02  0.47787282485E+02  0.20000052162E+02 0.  0.
        -12    1    1    2    0    0  0.77615363447E+01 -0.20571680193E+02 -0.37419070117E+02  0.43400717515E+02  0.00000000000E+00 0.  1.
         11    1    3    3    0    0 -0.62925491758E+01  0.10784795823E+02  0.20370901318E+02  0.23893129072E+02  0.51100000000E-03 0. -1.
        -11    1    3    3    0    0  0.11565844587E+01 -0.59670124299E+00  0.11970584540E+02  0.12041122642E+02  0.51100000000E-03 0.  1.
        -12    1    3    3    0    0 -0.26255716276E+01  0.10383585613E+02  0.50775842588E+01  0.11853030771E+02  0.00000000000E+00 0.  1.
</event>
<event>
 7    1  0.2886681E-010  0.4778727E+02  0.7816164E-02  0.1312668E+00
        -11   -1    0    0    0    0  0.00000000000E+00  0.00000000000E+00  0.45593999997E+02  0.45594000000E+02  0.51100000000E-03 0.  1.
         11   -1    0    0    0    0 -0.00000000000E+00 -0.00000000000E+00 -0.45593999997E+02  0.45594000000E+02  0.51100000000E-03 0. -1.
    9900012    2    1    2    0    0 -0.35517959155E+02  0.18314745327E+02 -0.16931269357E+02  0.47787271884E+02  0.20000003829E+02 0.  0.
        -12    1    1    2    0    0  0.35517959155E+02 -0.18314745327E+02  0.16931269357E+02  0.43400728116E+02  0.00000000000E+00 0.  1.
         11    1    3    3    0    0 -0.28731263157E+01  0.12879202380E+01  0.13363111835E+01  0.34204270502E+01  0.51100000000E-03 0. -1.
        -11    1    3    3    0    0 -0.31569809236E+02  0.16705639351E+02 -0.20985738720E+02  0.41426229266E+02  0.51100000000E-03 0.  1.
        -12    1    3    3    0    0 -0.10750236037E+01  0.32118573831E+00  0.27181581801E+01  0.29406155681E+01  0.00000000000E+00 0.  1.
</event>
<event>
 7    1  0.2886681E-010  0.4778727E+02  0.7816164E-02  0.1312668E+00
        -11   -1    0    0    0    0  0.00000000000E+00  0.00000000000E+00  0.45593999997E+02  0.45594000000E+02  0.51100000000E-03 0.  1.
         11   -1    0    0    0    0 -0.00000000000E+00 -0.00000000000E+00 -0.45593999997E+02  0.45594000000E+02  0.51100000000E-03 0. -1.
    9900012    2    1    2    0    0 -0.16267362451E+02 -0.18322041036E+02 -0.35823159409E+02  0.47787273982E+02  0.20000013393E+02 0.  0.
        -12    1    1    2    0    0  0.16267362451E+02  0.18322041036E+02  0.35823159409E+02  0.43400726018E+02  0.00000000000E+00 0.  1.
         11    1    3    3    0    0 -0.11575378864E+02 -0.69738027915E+01 -0.25160943837E+02  0.28560399442E+02  0.51100000000E-03 0. -1.
        -11    1    3    3    0    0 -0.38203466640E+01 -0.11655832215E+02 -0.46086876772E+01  0.13103185706E+02  0.51100000000E-03 0.  1.
        -12    1    3    3    0    0 -0.87163692361E+00  0.30759397097E+00 -0.60535278945E+01  0.61236888349E+01  0.00000000000E+00 0.  1.
</event>
<event>
 7    1  0.2886681E-010  0.4778727E+02  0.7816164E-02  0.1312668E+00
        -11   -1    0    0    0    0  0.00000000000E+00  0.00000000000E+00  0.45593999997E+02  0.45594000000E+02  0.51100000000E-03 0.  1.
         11   -1    0    0    0    0 -0.00000000000E+00 -0.00000000000E+00 -0.45593999997E+02  0.45594000000E+02  0.51100000000E-03 0. -1.
    9900012    2    1    2    0    0  0.39499730619E+02  0.25559443526E+01 -0.17800615598E+02  0.47787268599E+02  0.19999988849E+02 0.  0.
        -12    1    1    2    0    0 -0.39499730619E+02 -0.25559443526E+01  0.17800615598E+02  0.43400731401E+02  0.00000000000E+00 0.  1.
         11    1    3    3    0    0  0.16015992753E+02 -0.11071979720E+01 -0.63132721789E+01  0.17250951193E+02  0.51100000000E-03 0. -1.
        -11    1    3    3    0    0  0.19473372897E+02  0.91171666801E+01 -0.92404797104E+01  0.23403449442E+02  0.51100000000E-03 0.  1.
        -12    1    3    3    0    0  0.40103649690E+01 -0.54540243555E+01 -0.22468637092E+01  0.71328679634E+01  0.00000000000E+00 0.  1.
</event>
<event>
 7    1  0.2886681E-010  0.4778727E+02  0.7816164E-02  0.1312668E+00
        -11   -1    0    0    0    0  0.00000000000E+00  0.00000000000E+00  0.45593999997E+02  0.45594000000E+02  0.51100000000E-03 0.  1.
         11   -1    0    0    0    0 -0.00000000000E+00 -0.00000000000E+00 -0.45593999997E+02  0.45594000000E+02  0.51100000000E-03 0. -1.
    9900012    2    1    2    0    0  0.21073531579E+02  0.29157531275E+02 -0.24276899183E+02  0.47787271928E+02  0.20000004028E+02 0.  0.
        -12    1    1    2    0    0 -0.21073531579E+02 -0.29157531275E+02  0.24276899183E+02  0.43400728072E+02  0.00000000000E+00 0.  1.
         11    1    3    3    0    0  0.45651379778E+01  0.10054372910E+02 -0.30464798668E+01  0.11454778008E+02  0.51100000000E-03 0. -1.
        -11    1    3    3    0    0 -0.33577584421E+00  0.84223834178E+01 -0.11170860951E+02  0.13994192456E+02  0.51100000000E-03 0.  1.
        -12    1    3    3    0    0  0.16844169446E+02  0.10680774947E+02 -0.10059558365E+02  0.22338301464E+02  0.00000000000E+00 0.  1.
</event>
<event>
 7    1  0.2886681E-010  0.4778727E+02  0.7816164E-02  0.1312668E+00
        -11   -1    0    0    0    0  0.00000000000E+00  0.00000000000E+00  0.45593999997E+02  0.45594000000E+02  0.51100000000E-03 0. -1.
         11   -1    0    0    0    0 -0.00000000000E+00 -0.00000000000E+00 -0.45593999997E+02  0.45594000000E+02  0.51100000000E-03 0.  1.
    9900012    2    1    2    0    0 -0.38634418755E+02 -0.19750553244E+02  0.95954230140E+00  0.47787269737E+02  0.19999994039E+02 0.  0.
        -12    1    1    2    0    0  0.38634418755E+02  0.19750553244E+02 -0.95954230140E+00  0.43400730263E+02  0.00000000000E+00 0.  1.
         11    1    3    3    0    0 -0.18140021848E+02 -0.13321559439E+02  0.31888773006E+01  0.22730888176E+02  0.51100000000E-03 0. -1.
        -11    1    3    3    0    0 -0.21469221378E+02 -0.34295571867E+01 -0.25303871588E+01  0.21888174627E+02  0.51100000000E-03 0.  1.
        -12    1    3    3    0    0  0.97482447206E+00 -0.29994366178E+01  0.30105215958E+00  0.31682069342E+01  0.00000000000E+00 0.  1.
</event>
<event>
 7    1  0.2886681E-010  0.4778727E+02  0.7816164E-02  0.1312668E+00
        -11   -1    0    0    0    0  0.00000000000E+00  0.00000000000E+00  0.45593999997E+02  0.45594000000E+02  0.51100000000E-03 0.  1.
         11   -1    0    0    0    0 -0.00000000000E+00 -0.00000000000E+00 -0.45593999997E+02  0.45594000000E+02  0.51100000000E-03 0. -1.
    9900012    2    1    2    0    0 -0.24811141547E+02 -0.33509046613E+02 -0.12048836298E+02  0.47787269523E+02  0.19999993064E+02 0.  0.
        -12    1    1    2    0    0  0.24811141547E+02  0.33509046613E+02  0.12048836298E+02  0.43400730477E+02  0.00000000000E+00 0.  1.
         11    1    3    3    0    0 -0.57443749744E+01 -0.56540281016E+01 -0.49497302191E+01  0.94586313557E+01  0.51100000000E-03 0.  1.
        -11    1    3    3    0    0 -0.49115033574E+01 -0.20966218617E+02 -0.68046308342E+01  0.22583360896E+02  0.51100000000E-03 0. -1.
        -12    1    3    3    0    0 -0.14155263216E+02 -0.68887998947E+01 -0.29447524442E+00  0.15745277272E+02  0.00000000000E+00 0.  1.
</event>
<event>
 7    1  0.2886681E-010  0.4778722E+02  0.7816164E-02  0.1312668E+00
        -11   -1    0    0    0    0  0.00000000000E+00  0.00000000000E+00  0.45593999997E+02  0.45594000000E+02  0.51100000000E-03 0.  1.
         11   -1    0    0    0    0 -0.00000000000E+00 -0.00000000000E+00 -0.45593999997E+02  0.45594000000E+02  0.51100000000E-03 0. -1.
    9900012    2    1    2    0    0  0.13942246620E+01 -0.42785622107E+02 -0.71466376752E+01  0.47787219459E+02  0.19999764799E+02 0.  0.
        -12    1    1    2    0    0 -0.13942246620E+01  0.42785622107E+02  0.71466376752E+01  0.43400780541E+02  0.00000000000E+00 0.  1.
         11    1    3    3    0    0  0.25169185134E+01 -0.36709035613E+01  0.33894138412E+01  0.55945096485E+01  0.51100000000E-03 0. -1.
        -11    1    3    3    0    0  0.13799131595E+00 -0.27769117769E+01 -0.45664003384E+01  0.53462410095E+01  0.51100000000E-03 0.  1.
         12    1    3    3    0    0 -0.12606851674E+01 -0.36337806769E+02 -0.59696511779E+01  0.36846468801E+02  0.00000000000E+00 0. -1.
</event>
<event>
 7    1  0.2886681E-010  0.4778727E+02  0.7816164E-02  0.1312668E+00
        -11   -1    0    0    0    0  0.00000000000E+00  0.00000000000E+00  0.45593999997E+02  0.45594000000E+02  0.51100000000E-03 0. -1.
         11   -1    0    0    0    0 -0.00000000000E+00 -0.00000000000E+00 -0.45593999997E+02  0.45594000000E+02  0.51100000000E-03 0.  1.
    9900012    2    1    2    0    0  0.11709541390E+02 -0.34879888004E+02  0.23019638512E+02  0.47787266090E+02  0.19999977411E+02 0.  0.
        -12    1    1    2    0    0 -0.11709541390E+02  0.34879888004E+02 -0.23019638512E+02  0.43400733910E+02  0.00000000000E+00 0.  1.
         11    1    3    3    0    0 -0.35835597470E+01 -0.57778015372E+01  0.38291215897E+00  0.68096632109E+01  0.51100000000E-03 0.  1.
        -11    1    3    3    0    0  0.52242495944E+01 -0.18017771499E+02  0.15751600370E+02  0.24495832055E+02  0.51100000000E-03 0. -1.
         12    1    3    3    0    0  0.10068851542E+02 -0.11084314968E+02  0.68851259833E+01  0.16481770824E+02  0.00000000000E+00 0. -1.
</event>
<event>
 7    1  0.2886681E-010  0.4778727E+02  0.7816164E-02  0.1312668E+00
        -11   -1    0    0    0    0  0.00000000000E+00  0.00000000000E+00  0.45593999997E+02  0.45594000000E+02  0.51100000000E-03 0. -1.
         11   -1    0    0    0    0 -0.00000000000E+00 -0.00000000000E+00 -0.45593999997E+02  0.45594000000E+02  0.51100000000E-03 0.  1.
    9900012    2    1    2    0    0 -0.33610111671E+02 -0.26009328748E+02  0.88033451114E+01  0.47787266439E+02  0.19999979003E+02 0.  0.
        -12    1    1    2    0    0  0.33610111671E+02  0.26009328748E+02 -0.88033451114E+01  0.43400733561E+02  0.00000000000E+00 0.  1.
         11    1    3    3    0    0 -0.13093020664E+02 -0.15067148560E+02 -0.45050308984E+01  0.20463173251E+02  0.51100000000E-03 0. -1.
        -11    1    3    3    0    0 -0.79107576346E+01 -0.18053520628E+01  0.61851278567E+01  0.10202704999E+02  0.51100000000E-03 0.  1.
         12    1    3    3    0    0 -0.12606333373E+02 -0.91368281251E+01  0.71232481531E+01  0.17121388190E+02  0.00000000000E+00 0. -1.
</event>
<event>
 7    1  0.2886681E-010  0.4778727E+02  0.7816164E-02  0.1312668E+00
        -11   -1    0    0    0    0  0.00000000000E+00  0.00000000000E+00  0.45593999997E+02  0.45594000000E+02  0.51100000000E-03 0. -1.
         11   -1    0    0    0    0 -0.00000000000E+00 -0.00000000000E+00 -0.45593999997E+02  0.45594000000E+02  0.51100000000E-03 0.  1.
    9900012    2    1    2    0    0  0.27347357370E+02 -0.17083746196E+02  0.29049802079E+02  0.47787270282E+02  0.19999996523E+02 0.  0.
        -12    1    1    2    0    0 -0.27347357370E+02  0.17083746196E+02 -0.29049802079E+02  0.43400729718E+02  0.00000000000E+00 0.  1.
         11    1    3    3    0    0  0.19658377748E+02 -0.16532688659E+02  0.15459047100E+02  0.29979388711E+02  0.51100000000E-03 0. -1.
        -11    1    3    3    0    0  0.35524760654E+01 -0.10825760882E+01  0.13090939595E+02  0.13607525745E+02  0.51100000000E-03 0.  1.
         12    1    3    3    0    0  0.41365035565E+01  0.53151855070E+00  0.49981538511E+00  0.42003558256E+01  0.00000000000E+00 0. -1.
</event>
<event>
 7    1  0.2886681E-010  0.4778728E+02  0.7816164E-02  0.1312668E+00
        -11   -1    0    0    0    0  0.00000000000E+00  0.00000000000E+00  0.45593999997E+02  0.45594000000E+02  0.51100000000E-03 0. -1.
         11   -1    0    0    0    0 -0.00000000000E+00 -0.00000000000E+00 -0.45593999997E+02  0.45594000000E+02  0.51100000000E-03 0.  1.
    9900012    2    1    2    0    0  0.90821867031E+01 -0.40484744243E+02  0.12732720427E+02  0.47787276490E+02  0.20000024829E+02 0.  0.
        -12    1    1    2    0    0 -0.90821867031E+01  0.40484744243E+02 -0.12732720427E+02  0.43400723510E+02  0.00000000000E+00 0.  1.
         11    1    3    3    0    0  0.88920891726E+01 -0.25253189267E+02 -0.24863838552E+00  0.26774141244E+02  0.51100000000E-03 0. -1.
        -11    1    3    3    0    0  0.19280896000E+01 -0.25108195739E+01  0.49288199582E+01  0.58579015765E+01  0.51100000000E-03 0.  1.
         12    1    3    3    0    0 -0.17379920695E+01 -0.12720735401E+02  0.80525388545E+01  0.15155233670E+02  0.00000000000E+00 0. -1.
</event>
<event>
 7    1  0.2886681E-010  0.4778727E+02  0.7816164E-02  0.1312668E+00
        -11   -1    0    0    0    0  0.00000000000E+00  0.00000000000E+00  0.45593999997E+02  0.45594000000E+02  0.51100000000E-03 0. -1.
         11   -1    0    0    0    0 -0.00000000000E+00 -0.00000000000E+00 -0.45593999997E+02  0.45594000000E+02  0.51100000000E-03 0.  1.
    9900012    2    1    2    0    0 -0.32285237179E+02  0.18417545453E+00  0.29004358326E+02  0.47787271179E+02  0.20000000612E+02 0.  0.
        -12    1    1    2    0    0  0.32285237179E+02 -0.18417545453E+00 -0.29004358326E+02  0.43400728821E+02  0.00000000000E+00 0.  1.
         11    1    3    3    0    0 -0.37438705779E+01  0.46474492437E+01  0.63434243036E+01  0.87094422056E+01  0.51100000000E-03 0. -1.
        -11    1    3    3    0    0 -0.17488995499E+02 -0.84030430978E+01  0.17954386081E+02  0.26435507876E+02  0.51100000000E-03 0.  1.
        -12    1    3    3    0    0 -0.11052371103E+02  0.39397693086E+01  0.47065479413E+01  0.12642321097E+02  0.00000000000E+00 0.  1.
</event>
<event>
 7    1  0.2886681E-010  0.4778727E+02  0.7816164E-02  0.1312668E+00
        -11   -1    0    0    0    0  0.00000000000E+00  0.00000000000E+00  0.45593999997E+02  0.45594000000E+02  0.51100000000E-03 0.  1.
         11   -1    0    0    0    0 -0.00000000000E+00 -0.00000000000E+00 -0.45593999997E+02  0.45594000000E+02  0.51100000000E-03 0. -1.
    9900012    2    1    2    0    0 -0.18475817721E+02  0.29126120575E+02 -0.26342672275E+02  0.47787272785E+02  0.20000007935E+02 0.  0.
        -12    1    1    2    0    0  0.18475817721E+02 -0.29126120575E+02  0.26342672275E+02  0.43400727215E+02  0.00000000000E+00 0.  1.
         11    1    3    3    0    0 -0.14188655489E+02  0.29307361283E+02 -0.24383903543E+02  0.40679406610E+02  0.51100000000E-03 0. -1.
        -11    1    3    3    0    0 -0.15742025789E+01  0.72648572084E+00  0.17236649629E+01  0.24447732875E+01  0.51100000000E-03 0.  1.
         12    1    3    3    0    0 -0.27129596534E+01 -0.90772642854E+00 -0.36824336955E+01  0.46630928869E+01  0.00000000000E+00 0. -1.
</event>
<event>
 7    1  0.2886681E-010  0.4778727E+02  0.7816164E-02  0.1312668E+00
        -11   -1    0    0    0    0  0.00000000000E+00  0.00000000000E+00  0.45593999997E+02  0.45594000000E+02  0.51100000000E-03 0.  1.
         11   -1    0    0    0    0 -0.00000000000E+00 -0.00000000000E+00 -0.45593999997E+02  0.45594000000E+02  0.51100000000E-03 0. -1.
    9900012    2    1    2    0    0  0.42746099077E+02 -0.72934384206E+01 -0.17888852293E+01  0.47787270275E+02  0.19999996492E+02 0.  0.
        -12    1    1    2    0    0 -0.42746099077E+02  0.72934384206E+01  0.17888852293E+01  0.43400729725E+02  0.00000000000E+00 0.  1.
         11    1    3    3    0    0  0.96266235590E+01  0.56602829466E+01 -0.33129086249E+01  0.11648435431E+02  0.51100000000E-03 0. -1.
        -11    1    3    3    0    0  0.18511768183E+02 -0.88601109921E+01  0.35699946011E+01  0.20831034294E+02  0.51100000000E-03 0.  1.
         12    1    3    3    0    0  0.14607707335E+02 -0.40936103752E+01 -0.20459712055E+01  0.15307800549E+02  0.00000000000E+00 0. -1.
</event>
<event>
 7    1  0.2886681E-010  0.4778727E+02  0.7816164E-02  0.1312668E+00
        -11   -1    0    0    0    0  0.00000000000E+00  0.00000000000E+00  0.45593999997E+02  0.45594000000E+02  0.51100000000E-03 0.  1.
         11   -1    0    0    0    0 -0.00000000000E+00 -0.00000000000E+00 -0.45593999997E+02  0.45594000000E+02  0.51100000000E-03 0. -1.
    9900012    2    1    2    0    0 -0.81468313786E+01 -0.56560820914E+01 -0.42252350147E+02  0.47787271676E+02  0.20000002880E+02 0.  0.
        -12    1    1    2    0    0  0.81468313786E+01  0.56560820914E+01  0.42252350147E+02  0.43400728324E+02  0.00000000000E+00 0.  1.
         11    1    3    3    0    0 -0.46818414597E+01 -0.96626000153E+01 -0.14630829769E+02  0.18147910582E+02  0.51100000000E-03 0. -1.
        -11    1    3    3    0    0 -0.36971451207E+01 -0.19346356108E+01 -0.67333713842E+01  0.79214889667E+01  0.51100000000E-03 0.  1.
         12    1    3    3    0    0  0.23215520180E+00  0.59411535347E+01 -0.20888148993E+02  0.21717872127E+02  0.00000000000E+00 0. -1.
</event>
<event>
 7    1  0.2886681E-010  0.4778727E+02  0.7816164E-02  0.1312668E+00
        -11   -1    0    0    0    0  0.00000000000E+00  0.00000000000E+00  0.45593999997E+02  0.45594000000E+02  0.51100000000E-03 0.  1.
         11   -1    0    0    0    0 -0.00000000000E+00 -0.00000000000E+00 -0.45593999997E+02  0.45594000000E+02  0.51100000000E-03 0. -1.
    9900012    2    1    2    0    0 -0.33564163386E+02 -0.64199501990E+00 -0.27507415971E+02  0.47787272416E+02  0.20000006256E+02 0.  0.
        -12    1    1    2    0    0  0.33564163386E+02  0.64199501990E+00  0.27507415971E+02  0.43400727584E+02  0.00000000000E+00 0.  1.
         11    1    3    3    0    0 -0.18053239967E+02 -0.62334228309E+01 -0.14660926116E+02  0.24077329344E+02  0.51100000000E-03 0. -1.
        -11    1    3    3    0    0 -0.16546752671E+02  0.67317144486E+01 -0.99971272933E+01  0.20470797682E+02  0.51100000000E-03 0.  1.
        -12    1    3    3    0    0  0.10358292519E+01 -0.11402866376E+01 -0.28493625610E+01  0.32391453902E+01  0.00000000000E+00 0.  1.
</event>
<event>
 7    1  0.2886681E-010  0.4778728E+02  0.7816164E-02  0.1312668E+00
        -11   -1    0    0    0    0  0.00000000000E+00  0.00000000000E+00  0.45593999997E+02  0.45594000000E+02  0.51100000000E-03 0. -1.
         11   -1    0    0    0    0 -0.00000000000E+00 -0.00000000000E+00 -0.45593999997E+02  0.45594000000E+02  0.51100000000E-03 0.  1.
    9900012    2    1    2    0    0  0.19452917108E+02  0.18224168900E+02  0.34250348372E+02  0.47787277889E+02  0.20000031209E+02 0.  0.
        -12    1    1    2    0    0 -0.19452917108E+02 -0.18224168900E+02 -0.34250348372E+02  0.43400722111E+02  0.00000000000E+00 0.  1.
         11    1    3    3    0    0  0.50174222135E+01  0.76860916815E+01  0.46788636390E+01  0.10302538339E+02  0.51100000000E-03 0. -1.
        -11    1    3    3    0    0  0.11751634415E+02  0.67689222735E+01  0.87134830459E+01  0.16119677640E+02  0.51100000000E-03 0.  1.
         12    1    3    3    0    0  0.26838604799E+01  0.37691549455E+01  0.20858001687E+02  0.21365061911E+02  0.00000000000E+00 0. -1.
</event>
<event>
 7    1  0.2886681E-010  0.4778727E+02  0.7816164E-02  0.1312668E+00
        -11   -1    0    0    0    0  0.00000000000E+00  0.00000000000E+00  0.45593999997E+02  0.45594000000E+02  0.51100000000E-03 0.  1.
         11   -1    0    0    0    0 -0.00000000000E+00 -0.00000000000E+00 -0.45593999997E+02  0.45594000000E+02  0.51100000000E-03 0. -1.
    9900012    2    1    2    0    0 -0.43285981731E+02 -0.30784924355E+01 -0.68552073901E+00  0.47787271104E+02  0.20000000270E+02 0.  0.
        -12    1    1    2    0    0  0.43285981731E+02  0.30784924355E+01  0.68552073901E+00  0.43400728896E+02  0.00000000000E+00 0.  1.
         11    1    3    3    0    0 -0.27642499081E+02 -0.40878618131E+01  0.36594411684E+00  0.27945523524E+02  0.51100000000E-03 0. -1.
        -11    1    3    3    0    0 -0.13033271474E+01  0.46785867603E+01 -0.13350935527E+01  0.50368949545E+01  0.51100000000E-03 0.  1.
        -12    1    3    3    0    0 -0.14340155502E+02 -0.36692173827E+01  0.28362869684E+00  0.14804852625E+02  0.00000000000E+00 0.  1.
</event>
<event>
 7    1  0.2886681E-010  0.4778727E+02  0.7816164E-02  0.1312668E+00
        -11   -1    0    0    0    0  0.00000000000E+00  0.00000000000E+00  0.45593999997E+02  0.45594000000E+02  0.51100000000E-03 0. -1.
         11   -1    0    0    0    0 -0.00000000000E+00 -0.00000000000E+00 -0.45593999997E+02  0.45594000000E+02  0.51100000000E-03 0.  1.
    9900012    2    1    2    0    0  0.40183171834E+02 -0.19154826432E+01  0.16287025217E+02  0.47787267715E+02  0.19999984822E+02 0.  0.
        -12    1    1    2    0    0 -0.40183171834E+02  0.19154826432E+01 -0.16287025217E+02  0.43400732285E+02  0.00000000000E+00 0.  1.
         11    1    3    3    0    0  0.15467936029E+01 -0.15328801462E+01  0.13459037819E+01  0.25600291490E+01  0.51100000000E-03 0. -1.
        -11    1    3    3    0    0  0.59904393328E+01  0.69993743038E+01  0.29409140336E+01  0.96708624051E+01  0.51100000000E-03 0.  1.
        -12    1    3    3    0    0  0.32645938898E+02 -0.73819768008E+01  0.12000207402E+02  0.35556376161E+02  0.00000000000E+00 0.  1.
</event>
<event>
 7    1  0.2886681E-010  0.4778727E+02  0.7816164E-02  0.1312668E+00
        -11   -1    0    0    0    0  0.00000000000E+00  0.00000000000E+00  0.45593999997E+02  0.45594000000E+02  0.51100000000E-03 0. -1.
         11   -1    0    0    0    0 -0.00000000000E+00 -0.00000000000E+00 -0.45593999997E+02  0.45594000000E+02  0.51100000000E-03 0.  1.
    9900012    2    1    2    0    0  0.13721399747E+02 -0.40680055156E+02  0.63623572055E+01  0.47787270885E+02  0.19999999272E+02 0.  0.
        -12    1    1    2    0    0 -0.13721399747E+02  0.40680055156E+02 -0.63623572055E+01  0.43400729115E+02  0.00000000000E+00 0.  1.
         11    1    3    3    0    0  0.67119904861E+01 -0.54015608134E+01  0.85270894643E+00  0.86576433465E+01  0.51100000000E-03 0. -1.
        -11    1    3    3    0    0  0.57150575890E+00 -0.16236980236E+02 -0.42375535395E+01  0.16790563013E+02  0.51100000000E-03 0.  1.
        -12    1    3    3    0    0  0.64379035022E+01 -0.19041514107E+02  0.97472017985E+01  0.22339064526E+02  0.00000000000E+00 0.  1.
</event>
<event>
 7    1  0.2886681E-010  0.4778728E+02  0.7816164E-02  0.1312668E+00
        -11   -1    0    0    0    0  0.00000000000E+00  0.00000000000E+00  0.45593999997E+02  0.45594000000E+02  0.51100000000E-03 0.  1.
         11   -1    0    0    0    0 -0.00000000000E+00 -0.00000000000E+00 -0.45593999997E+02  0.45594000000E+02  0.51100000000E-03 0. -1.
    9900012    2    1    2    0    0  0.12889817877E+02  0.35582420074E+02 -0.21245382868E+02  0.47787282075E+02  0.20000050293E+02 0.  0.
        -12    1    1    2    0    0 -0.12889817877E+02 -0.35582420074E+02  0.21245382868E+02  0.43400717925E+02  0.00000000000E+00 0.  1.
         11    1    3    3    0    0 -0.36859524474E+01  0.42156864493E+01 -0.55930445738E+01  0.79145691955E+01  0.51100000000E-03 0. -1.
        -11    1    3    3    0    0  0.18707337424E+01  0.54108382267E+01  0.83843607052E+00  0.57861723407E+01  0.51100000000E-03 0.  1.
         12    1    3    3    0    0  0.14705036582E+02  0.25955895398E+02 -0.16490774364E+02  0.34086540539E+02  0.00000000000E+00 0. -1.
</event>
<event>
 7    1  0.2886681E-010  0.4778727E+02  0.7816164E-02  0.1312668E+00
        -11   -1    0    0    0    0  0.00000000000E+00  0.00000000000E+00  0.45593999997E+02  0.45594000000E+02  0.51100000000E-03 0.  1.
         11   -1    0    0    0    0 -0.00000000000E+00 -0.00000000000E+00 -0.45593999997E+02  0.45594000000E+02  0.51100000000E-03 0. -1.
    9900012    2    1    2    0    0  0.40906124198E+02  0.11007338683E+02 -0.94419508171E+01  0.47787274925E+02  0.20000017694E+02 0.  0.
        -12    1    1    2    0    0 -0.40906124198E+02 -0.11007338683E+02  0.94419508171E+01  0.43400725075E+02  0.00000000000E+00 0.  1.
         11    1    3    3    0    0  0.24643774687E+01  0.21150150204E+01  0.36904920995E+01  0.49159106016E+01  0.51100000000E-03 0.  1.
        -11    1    3    3    0    0  0.25175574164E+02  0.97806790257E+01 -0.11914114702E+02  0.29519778897E+02  0.51100000000E-03 0. -1.
         12    1    3    3    0    0  0.13266172565E+02 -0.88835536343E+00 -0.12183282148E+01  0.13351585427E+02  0.00000000000E+00 0. -1.
</event>
<event>
 7    1  0.2886681E-010  0.4778727E+02  0.7816164E-02  0.1312668E+00
        -11   -1    0    0    0    0  0.00000000000E+00  0.00000000000E+00  0.45593999997E+02  0.45594000000E+02  0.51100000000E-03 0. -1.
         11   -1    0    0    0    0 -0.00000000000E+00 -0.00000000000E+00 -0.45593999997E+02  0.45594000000E+02  0.51100000000E-03 0.  1.
    9900012    2    1    2    0    0  0.87180624288E+01 -0.30351864393E+02  0.29772190442E+02  0.47787267191E+02  0.19999982432E+02 0.  0.
        -12    1    1    2    0    0 -0.87180624288E+01  0.30351864393E+02 -0.29772190442E+02  0.43400732809E+02  0.00000000000E+00 0.  1.
         11    1    3    3    0    0  0.12220118987E+02 -0.25953905120E+02  0.24710809710E+02  0.37862390519E+02  0.51100000000E-03 0. -1.
        -11    1    3    3    0    0 -0.40829327278E+01 -0.55085855325E+01  0.29390491101E+01  0.74600847289E+01  0.51100000000E-03 0.  1.
        -12    1    3    3    0    0  0.58087616972E+00  0.11106262594E+01  0.21223316214E+01  0.24647919433E+01  0.00000000000E+00 0.  1.
</event>
<event>
 7    1  0.2886681E-010  0.4778727E+02  0.7816164E-02  0.1312668E+00
        -11   -1    0    0    0    0  0.00000000000E+00  0.00000000000E+00  0.45593999997E+02  0.45594000000E+02  0.51100000000E-03 0.  1.
         11   -1    0    0    0    0 -0.00000000000E+00 -0.00000000000E+00 -0.45593999997E+02  0.45594000000E+02  0.51100000000E-03 0. -1.
    9900012    2    1    2    0    0 -0.20961457420E+02 -0.23283684015E+02 -0.30035155435E+02  0.47787271890E+02  0.20000003854E+02 0.  0.
        -12    1    1    2    0    0  0.20961457420E+02  0.23283684015E+02  0.30035155435E+02  0.43400728110E+02  0.00000000000E+00 0.  1.
         11    1    3    3    0    0 -0.10778018876E+02 -0.10346219518E+02 -0.12557517321E+02  0.19516690056E+02  0.51100000000E-03 0. -1.
        -11    1    3    3    0    0 -0.98100999822E+01 -0.10672584709E+02 -0.20102174479E+02  0.24783856542E+02  0.51100000000E-03 0.  1.
        -12    1    3    3    0    0 -0.37333856183E+00 -0.22648797870E+01  0.26245363647E+01  0.34867252918E+01  0.00000000000E+00 0.  1.
</event>
<event>
 7    1  0.2886681E-010  0.4778724E+02  0.7816164E-02  0.1312668E+00
        -11   -1    0    0    0    0  0.00000000000E+00  0.00000000000E+00  0.45593999997E+02  0.45594000000E+02  0.51100000000E-03 0.  1.
         11   -1    0    0    0    0 -0.00000000000E+00 -0.00000000000E+00 -0.45593999997E+02  0.45594000000E+02  0.51100000000E-03 0. -1.
    9900012    2    1    2    0    0  0.13229179013E+02  0.23319400360E+02 -0.34129468393E+02  0.47787237065E+02  0.19999845074E+02 0.  0.
        -12    1    1    2    0    0 -0.13229179013E+02 -0.23319400360E+02  0.34129468393E+02  0.43400762935E+02  0.00000000000E+00 0.  1.
         11    1    3    3    0    0  0.16477412716E+02  0.16495514460E+02 -0.19311793409E+02  0.30274617950E+02  0.51100000000E-03 0. -1.
        -11    1    3    3    0    0 -0.37502169944E+01  0.32989561980E+01 -0.49917634392E+01  0.70615113111E+01  0.51100000000E-03 0.  1.
        -12    1    3    3    0    0  0.50198329114E+00  0.35249297027E+01 -0.98259115451E+01  0.10451107804E+02  0.00000000000E+00 0.  1.
</event>
<event>
 7    1  0.2886681E-010  0.4778727E+02  0.7816164E-02  0.1312668E+00
        -11   -1    0    0    0    0  0.00000000000E+00  0.00000000000E+00  0.45593999997E+02  0.45594000000E+02  0.51100000000E-03 0.  1.
         11   -1    0    0    0    0 -0.00000000000E+00 -0.00000000000E+00 -0.45593999997E+02  0.45594000000E+02  0.51100000000E-03 0. -1.
    9900012    2    1    2    0    0  0.18909140834E+02 -0.38984652320E+02 -0.25028902789E+01  0.47787272087E+02  0.20000004755E+02 0.  0.
        -12    1    1    2    0    0 -0.18909140834E+02  0.38984652320E+02  0.25028902789E+01  0.43400727913E+02  0.00000000000E+00 0.  1.
         11    1    3    3    0    0  0.89120341012E+01 -0.29937576168E+02 -0.82609433865E+01  0.32309843772E+02  0.51100000000E-03 0. -1.
        -11    1    3    3    0    0  0.46830212731E+01 -0.17220661589E+01  0.50851957022E+00  0.50154553645E+01  0.51100000000E-03 0.  1.
         12    1    3    3    0    0  0.53140854599E+01 -0.73250099926E+01  0.52495335373E+01  0.10461972951E+02  0.00000000000E+00 0. -1.
</event>
<event>
 7    1  0.2886681E-010  0.4778721E+02  0.7816164E-02  0.1312668E+00
        -11   -1    0    0    0    0  0.00000000000E+00  0.00000000000E+00  0.45593999997E+02  0.45594000000E+02  0.51100000000E-03 0.  1.
         11   -1    0    0    0    0 -0.00000000000E+00 -0.00000000000E+00 -0.45593999997E+02  0.45594000000E+02  0.51100000000E-03 0. -1.
    9900012    2    1    2    0    0  0.43557077073E+01 -0.14749161826E+01 -0.43156472775E+02  0.47787208421E+02  0.19999714471E+02 0.  0.
        -12    1    1    2    0    0 -0.43557077073E+01  0.14749161826E+01  0.43156472775E+02  0.43400791579E+02  0.00000000000E+00 0.  1.
         11    1    3    3    0    0  0.72223448416E+01 -0.32592657632E+01 -0.74753495213E+01  0.10893389236E+02  0.51100000000E-03 0. -1.
        -11    1    3    3    0    0 -0.43945657833E+01 -0.10739550612E+01 -0.96049427382E+01  0.10616991719E+02  0.51100000000E-03 0.  1.
         12    1    3    3    0    0  0.15279286490E+01  0.28583046419E+01 -0.26076180515E+02  0.26276827465E+02  0.00000000000E+00 0. -1.
</event>
<event>
 7    1  0.2886681E-010  0.4778727E+02  0.7816164E-02  0.1312668E+00
        -11   -1    0    0    0    0  0.00000000000E+00  0.00000000000E+00  0.45593999997E+02  0.45594000000E+02  0.51100000000E-03 0.  1.
         11   -1    0    0    0    0 -0.00000000000E+00 -0.00000000000E+00 -0.45593999997E+02  0.45594000000E+02  0.51100000000E-03 0. -1.
    9900012    2    1    2    0    0  0.27399262217E+02  0.24175540569E+02 -0.23418950927E+02  0.47787267352E+02  0.19999983164E+02 0.  0.
        -12    1    1    2    0    0 -0.27399262217E+02 -0.24175540569E+02  0.23418950927E+02  0.43400732648E+02  0.00000000000E+00 0.  1.
         11    1    3    3    0    0  0.15762283601E+02  0.50984563925E+01 -0.17550953389E+02  0.24134618436E+02  0.51100000000E-03 0. -1.
        -11    1    3    3    0    0  0.33630920350E+01  0.10065384956E+02 -0.36280418494E+01  0.11215393451E+02  0.51100000000E-03 0.  1.
         12    1    3    3    0    0  0.82738865812E+01  0.90116992210E+01 -0.22399556887E+01  0.12437255465E+02  0.00000000000E+00 0. -1.
</event>
<event>
 7    1  0.2886681E-010  0.4778727E+02  0.7816164E-02  0.1312668E+00
        -11   -1    0    0    0    0  0.00000000000E+00  0.00000000000E+00  0.45593999997E+02  0.45594000000E+02  0.51100000000E-03 0.  1.
         11   -1    0    0    0    0 -0.00000000000E+00 -0.00000000000E+00 -0.45593999997E+02  0.45594000000E+02  0.51100000000E-03 0. -1.
    9900012    2    1    2    0    0 -0.42107210386E+02  0.24188740478E+00 -0.10514158536E+02  0.47787271830E+02  0.20000003580E+02 0.  0.
        -12    1    1    2    0    0  0.42107210386E+02 -0.24188740478E+00  0.10514158536E+02  0.43400728170E+02  0.00000000000E+00 0.  1.
         11    1    3    3    0    0 -0.39397235209E+02  0.45307529872E+01 -0.65946473571E+01  0.40201483042E+02  0.51100000000E-03 0. -1.
        -11    1    3    3    0    0 -0.27434749102E+01 -0.48857025689E+01 -0.26833042875E+01  0.62126376311E+01  0.51100000000E-03 0.  1.
         12    1    3    3    0    0  0.33499733239E-01  0.59683698647E+00 -0.12362068917E+01  0.13731511568E+01  0.00000000000E+00 0. -1.
</event>
<event>
 7    1  0.2886681E-010  0.4778727E+02  0.7816164E-02  0.1312668E+00
        -11   -1    0    0    0    0  0.00000000000E+00  0.00000000000E+00  0.45593999997E+02  0.45594000000E+02  0.51100000000E-03 0. -1.
         11   -1    0    0    0    0 -0.00000000000E+00 -0.00000000000E+00 -0.45593999997E+02  0.45594000000E+02  0.51100000000E-03 0.  1.
    9900012    2    1    2    0    0 -0.22472788462E+01 -0.43342361426E+02 -0.11252843611E+00  0.47787271679E+02  0.20000002892E+02 0.  0.
        -12    1    1    2    0    0  0.22472788462E+01  0.43342361426E+02  0.11252843611E+00  0.43400728321E+02  0.00000000000E+00 0.  1.
         11    1    3    3    0    0 -0.36179000254E+00 -0.21262322391E+02 -0.74538959295E+01  0.22533925762E+02  0.51100000000E-03 0. -1.
        -11    1    3    3    0    0  0.22706528948E+01 -0.10266985380E+02  0.71742815823E+01  0.12729382147E+02  0.51100000000E-03 0.  1.
        -12    1    3    3    0    0 -0.41561417384E+01 -0.11813053654E+02  0.16708591103E+00  0.12523963769E+02  0.00000000000E+00 0.  1.
</event>
<event>
 7    1  0.2886681E-010  0.4778727E+02  0.7816164E-02  0.1312668E+00
        -11   -1    0    0    0    0  0.00000000000E+00  0.00000000000E+00  0.45593999997E+02  0.45594000000E+02  0.51100000000E-03 0.  1.
         11   -1    0    0    0    0 -0.00000000000E+00 -0.00000000000E+00 -0.45593999997E+02  0.45594000000E+02  0.51100000000E-03 0. -1.
    9900012    2    1    2    0    0  0.92089476736E+01 -0.41975859322E+02 -0.60700784617E+01  0.47787270334E+02  0.19999996759E+02 0.  0.
        -12    1    1    2    0    0 -0.92089476736E+01  0.41975859322E+02  0.60700784617E+01  0.43400729666E+02  0.00000000000E+00 0.  1.
         11    1    3    3    0    0  0.85867500134E+01 -0.21704943670E+02  0.43206244172E+01  0.23738252908E+02  0.51100000000E-03 0. -1.
        -11    1    3    3    0    0  0.47058605383E+00 -0.48997079419E+01 -0.65700091195E+01  0.82093610739E+01  0.51100000000E-03 0.  1.
         12    1    3    3    0    0  0.15161160645E+00 -0.15371207710E+02 -0.38206937594E+01  0.15839656352E+02  0.00000000000E+00 0. -1.
</event>
<event>
 7    1  0.2886681E-010  0.4778727E+02  0.7816164E-02  0.1312668E+00
        -11   -1    0    0    0    0  0.00000000000E+00  0.00000000000E+00  0.45593999997E+02  0.45594000000E+02  0.51100000000E-03 0. -1.
         11   -1    0    0    0    0 -0.00000000000E+00 -0.00000000000E+00 -0.45593999997E+02  0.45594000000E+02  0.51100000000E-03 0.  1.
    9900012    2    1    2    0    0  0.19068481071E+02 -0.34585045781E+02  0.17996968016E+02  0.47787271667E+02  0.20000002841E+02 0.  0.
        -12    1    1    2    0    0 -0.19068481071E+02  0.34585045781E+02 -0.17996968016E+02  0.43400728333E+02  0.00000000000E+00 0.  1.
         11    1    3    3    0    0  0.10927387196E+02 -0.22245765602E+02  0.55423664051E+01  0.25396844367E+02  0.51100000000E-03 0. -1.
        -11    1    3    3    0    0  0.49136859245E+01 -0.10953206398E+02  0.14094420391E+02  0.18514041324E+02  0.51100000000E-03 0.  1.
        -12    1    3    3    0    0  0.32274079503E+01 -0.13860737815E+01 -0.16398187801E+01  0.38763859762E+01  0.00000000000E+00 0.  1.
</event>
<event>
 7    1  0.2886681E-010  0.4778726E+02  0.7816164E-02  0.1312668E+00
        -11   -1    0    0    0    0  0.00000000000E+00  0.00000000000E+00  0.45593999997E+02  0.45594000000E+02  0.51100000000E-03 0. -1.
         11   -1    0    0    0    0 -0.00000000000E+00 -0.00000000000E+00 -0.45593999997E+02  0.45594000000E+02  0.51100000000E-03 0.  1.
    9900012    2    1    2    0    0 -0.33723372877E+01 -0.41533892069E+02  0.12132068349E+02  0.47787263467E+02  0.19999965451E+02 0.  0.
        -12    1    1    2    0    0  0.33723372877E+01  0.41533892069E+02 -0.12132068349E+02  0.43400736533E+02  0.00000000000E+00 0.  1.
         11    1    3    3    0    0 -0.19668118842E+00 -0.13338554728E+02 -0.30075487790E+01  0.13674833660E+02  0.51100000000E-03 0. -1.
        -11    1    3    3    0    0 -0.14251680762E+01 -0.28702515673E+02  0.14422807456E+02  0.32154049281E+02  0.51100000000E-03 0.  1.
        -12    1    3    3    0    0 -0.17504880231E+01  0.50717833105E+00  0.71680967218E+00  0.19583805260E+01  0.00000000000E+00 0.  1.
</event>
<event>
 7    1  0.2886681E-010  0.4778727E+02  0.7816164E-02  0.1312668E+00
        -11   -1    0    0    0    0  0.00000000000E+00  0.00000000000E+00  0.45593999997E+02  0.45594000000E+02  0.51100000000E-03 0. -1.
         11   -1    0    0    0    0 -0.00000000000E+00 -0.00000000000E+00 -0.45593999997E+02  0.45594000000E+02  0.51100000000E-03 0.  1.
    9900012    2    1    2    0    0 -0.16098194014E+02 -0.23004369118E+02  0.33094873509E+02  0.47787268420E+02  0.19999988036E+02 0.  0.
        -12    1    1    2    0    0  0.16098194014E+02  0.23004369118E+02 -0.33094873509E+02  0.43400731580E+02  0.00000000000E+00 0.  1.
         11    1    3    3    0    0 -0.15727625465E+02 -0.89518114841E+01  0.22567635424E+02  0.28927345203E+02  0.51100000000E-03 0. -1.
        -11    1    3    3    0    0  0.73280253512E+00 -0.12578610697E+02  0.11240785191E+02  0.16885310142E+02  0.51100000000E-03 0.  1.
        -12    1    3    3    0    0 -0.11033710843E+01 -0.14739469374E+01 -0.71354710600E+00  0.19746130751E+01  0.00000000000E+00 0.  1.
</event>
<event>
 7    1  0.2886681E-010  0.4778726E+02  0.7816164E-02  0.1312668E+00
        -11   -1    0    0    0    0  0.00000000000E+00  0.00000000000E+00  0.45593999997E+02  0.45594000000E+02  0.51100000000E-03 0.  1.
         11   -1    0    0    0    0 -0.00000000000E+00 -0.00000000000E+00 -0.45593999997E+02  0.45594000000E+02  0.51100000000E-03 0. -1.
    9900012    2    1    2    0    0 -0.23112027526E+02 -0.22698537440E+01 -0.36664775908E+02  0.47787264467E+02  0.19999970011E+02 0.  0.
        -12    1    1    2    0    0  0.23112027526E+02  0.22698537440E+01  0.36664775908E+02  0.43400735533E+02  0.00000000000E+00 0.  1.
         11    1    3    3    0    0 -0.82024265254E+01  0.91191129030E+00 -0.24581460738E+02  0.25929897712E+02  0.51100000000E-03 0. -1.
        -11    1    3    3    0    0 -0.27263279092E+01 -0.17310405749E+01  0.14934381799E+01  0.35580504773E+01  0.51100000000E-03 0.  1.
        -12    1    3    3    0    0 -0.12183273092E+02 -0.14507244594E+01 -0.13576753351E+02  0.18299316278E+02  0.00000000000E+00 0.  1.
</event>
<event>
 7    1  0.2886681E-010  0.4778727E+02  0.7816164E-02  0.1312668E+00
        -11   -1    0    0    0    0  0.00000000000E+00  0.00000000000E+00  0.45593999997E+02  0.45594000000E+02  0.51100000000E-03 0.  1.
         11   -1    0    0    0    0 -0.00000000000E+00 -0.00000000000E+00 -0.45593999997E+02  0.45594000000E+02  0.51100000000E-03 0. -1.
    9900012    2    1    2    0    0  0.21243447876E+02 -0.37398725249E+02 -0.58029620971E+01  0.47787273082E+02  0.20000009290E+02 0.  0.
        -12    1    1    2    0    0 -0.21243447876E+02  0.37398725249E+02  0.58029620971E+01  0.43400726918E+02  0.00000000000E+00 0.  1.
         11    1    3    3    0    0  0.24726826615E+02 -0.27981737979E+02 -0.44555435359E+01  0.37606455340E+02  0.51100000000E-03 0.  1.
        -11    1    3    3    0    0 -0.18415675403E+01 -0.55416338524E+01 -0.12446089692E+01  0.59707728568E+01  0.51100000000E-03 0. -1.
        -12    1    3    3    0    0 -0.16418111986E+01 -0.38753534176E+01 -0.10280959195E+00  0.42100448852E+01  0.00000000000E+00 0.  1.
</event>
<event>
 7    1  0.2886681E-010  0.4778729E+02  0.7816164E-02  0.1312668E+00
        -11   -1    0    0    0    0  0.00000000000E+00  0.00000000000E+00  0.45593999997E+02  0.45594000000E+02  0.51100000000E-03 0.  1.
         11   -1    0    0    0    0 -0.00000000000E+00 -0.00000000000E+00 -0.45593999997E+02  0.45594000000E+02  0.51100000000E-03 0. -1.
    9900012    2    1    2    0    0 -0.25207951618E+02  0.31941444678E+02 -0.15097170559E+02  0.47787294110E+02  0.20000105163E+02 0.  0.
        -12    1    1    2    0    0  0.25207951618E+02 -0.31941444678E+02  0.15097170559E+02  0.43400705890E+02  0.00000000000E+00 0.  1.
         11    1    3    3    0    0 -0.47921323940E+01  0.14217057588E+02 -0.79901874095E+00  0.15024236771E+02  0.51100000000E-03 0. -1.
        -11    1    3    3    0    0 -0.63526080337E+01  0.65482531832E+01 -0.11345533540E+02  0.14558721789E+02  0.51100000000E-03 0.  1.
        -12    1    3    3    0    0 -0.14063211190E+02  0.11176133907E+02 -0.29526182785E+01  0.18204335549E+02  0.00000000000E+00 0.  1.
</event>
<event>
 7    1  0.2886681E-010  0.4778727E+02  0.7816164E-02  0.1312668E+00
        -11   -1    0    0    0    0  0.00000000000E+00  0.00000000000E+00  0.45593999997E+02  0.45594000000E+02  0.51100000000E-03 0.  1.
         11   -1    0    0    0    0 -0.00000000000E+00 -0.00000000000E+00 -0.45593999997E+02  0.45594000000E+02  0.51100000000E-03 0. -1.
    9900012    2    1    2    0    0 -0.24918618885E+02  0.13877979785E+02 -0.32712190423E+02  0.47787270832E+02  0.19999999032E+02 0.  0.
        -12    1    1    2    0    0  0.24918618885E+02 -0.13877979785E+02  0.32712190423E+02  0.43400729168E+02  0.00000000000E+00 0.  1.
         11    1    3    3    0    0 -0.90110668159E+01  0.54191605912E+01 -0.19869909253E+02  0.22480656589E+02  0.51100000000E-03 0. -1.
        -11    1    3    3    0    0 -0.10352627449E+02  0.51094083711E+01 -0.73134646270E+00  0.11567965115E+02  0.51100000000E-03 0.  1.
        -12    1    3    3    0    0 -0.55549246202E+01  0.33494108231E+01 -0.12110934707E+02  0.13738649128E+02  0.00000000000E+00 0.  1.
</event>
<event>
 7    1  0.2886681E-010  0.4778727E+02  0.7816164E-02  0.1312668E+00
        -11   -1    0    0    0    0  0.00000000000E+00  0.00000000000E+00  0.45593999997E+02  0.45594000000E+02  0.51100000000E-03 0.  1.
         11   -1    0    0    0    0 -0.00000000000E+00 -0.00000000000E+00 -0.45593999997E+02  0.45594000000E+02  0.51100000000E-03 0. -1.
    9900012    2    1    2    0    0 -0.21468886545E+02  0.33562745176E+02 -0.17211977907E+02  0.47787272625E+02  0.20000007205E+02 0.  0.
        -12    1    1    2    0    0  0.21468886545E+02 -0.33562745176E+02  0.17211977907E+02  0.43400727375E+02  0.00000000000E+00 0.  1.
         11    1    3    3    0    0 -0.10475630556E+02  0.11610026108E+02  0.34970787080E+00  0.15641414183E+02  0.51100000000E-03 0. -1.
        -11    1    3    3    0    0  0.76646647723E+00  0.98188636582E+01 -0.82814025328E+01  0.12867757480E+02  0.51100000000E-03 0.  1.
        -12    1    3    3    0    0 -0.11759722466E+02  0.12133855409E+02 -0.92802832451E+01  0.19278100961E+02  0.00000000000E+00 0.  1.
</event>
<event>
 7    1  0.2886681E-010  0.4778727E+02  0.7816164E-02  0.1312668E+00
        -11   -1    0    0    0    0  0.00000000000E+00  0.00000000000E+00  0.45593999997E+02  0.45594000000E+02  0.51100000000E-03 0. -1.
         11   -1    0    0    0    0 -0.00000000000E+00 -0.00000000000E+00 -0.45593999997E+02  0.45594000000E+02  0.51100000000E-03 0.  1.
    9900012    2    1    2    0    0 -0.35970007111E+02  0.24241811101E+02 -0.14547725173E+01  0.47787272125E+02  0.20000004928E+02 0.  0.
        -12    1    1    2    0    0  0.35970007111E+02 -0.24241811101E+02  0.14547725173E+01  0.43400727875E+02  0.00000000000E+00 0.  1.
         11    1    3    3    0    0 -0.61607530870E+01  0.13106523884E+01 -0.38445268011E+01  0.73792326748E+01  0.51100000000E-03 0. -1.
        -11    1    3    3    0    0 -0.10898148904E+02  0.63890858944E+01 -0.59108156678E+01  0.13947322690E+02  0.51100000000E-03 0.  1.
         12    1    3    3    0    0 -0.18911105120E+02  0.16542072818E+02  0.83005699516E+01  0.26460716760E+02  0.00000000000E+00 0. -1.
</event>
<event>
 7    1  0.2886681E-010  0.4778727E+02  0.7816164E-02  0.1312668E+00
        -11   -1    0    0    0    0  0.00000000000E+00  0.00000000000E+00  0.45593999997E+02  0.45594000000E+02  0.51100000000E-03 0.  1.
         11   -1    0    0    0    0 -0.00000000000E+00 -0.00000000000E+00 -0.45593999997E+02  0.45594000000E+02  0.51100000000E-03 0. -1.
    9900012    2    1    2    0    0 -0.35877516011E+02  0.53768300587E+01 -0.23822618779E+02  0.47787267033E+02  0.19999981710E+02 0.  0.
        -12    1    1    2    0    0  0.35877516011E+02 -0.53768300587E+01  0.23822618779E+02  0.43400732967E+02  0.00000000000E+00 0.  1.
         11    1    3    3    0    0 -0.12084417188E+02  0.12156532114E+01 -0.50517114707E+01  0.13154114967E+02  0.51100000000E-03 0. -1.
        -11    1    3    3    0    0 -0.60161377186E+01  0.46856035601E+01  0.13876480534E+01  0.77507651979E+01  0.51100000000E-03 0.  1.
        -12    1    3    3    0    0 -0.17776961104E+02 -0.52442671283E+00 -0.20158555362E+02  0.26882386868E+02  0.00000000000E+00 0.  1.
</event>
<event>
 7    1  0.2886681E-010  0.4778727E+02  0.7816164E-02  0.1312668E+00
        -11   -1    0    0    0    0  0.00000000000E+00  0.00000000000E+00  0.45593999997E+02  0.45594000000E+02  0.51100000000E-03 0.  1.
         11   -1    0    0    0    0 -0.00000000000E+00 -0.00000000000E+00 -0.45593999997E+02  0.45594000000E+02  0.51100000000E-03 0. -1.
    9900012    2    1    2    0    0  0.37050596501E+02  0.20063961188E+02 -0.10407401830E+02  0.47787271291E+02  0.20000001123E+02 0.  0.
        -12    1    1    2    0    0 -0.37050596501E+02 -0.20063961188E+02  0.10407401830E+02  0.43400728709E+02  0.00000000000E+00 0.  1.
         11    1    3    3    0    0  0.11597898880E+02  0.48098896274E+01 -0.26750337449E+01  0.12837527116E+02  0.51100000000E-03 0. -1.
        -11    1    3    3    0    0  0.12500595741E+02 -0.13433537440E+00 -0.79861407815E+01  0.14834466108E+02  0.51100000000E-03 0.  1.
        -12    1    3    3    0    0  0.12952101880E+02  0.15388406935E+02  0.25377269646E+00  0.20115278067E+02  0.00000000000E+00 0.  1.
</event>
<event>
 7    1  0.2886681E-010  0.4778727E+02  0.7816164E-02  0.1312668E+00
        -11   -1    0    0    0    0  0.00000000000E+00  0.00000000000E+00  0.45593999997E+02  0.45594000000E+02  0.51100000000E-03 0.  1.
         11   -1    0    0    0    0 -0.00000000000E+00 -0.00000000000E+00 -0.45593999997E+02  0.45594000000E+02  0.51100000000E-03 0. -1.
    9900012    2    1    2    0    0 -0.18916342299E+02 -0.55383504468E+01 -0.38666804197E+02  0.47787273296E+02  0.20000010267E+02 0.  0.
        -12    1    1    2    0    0  0.18916342299E+02  0.55383504468E+01  0.38666804197E+02  0.43400726704E+02  0.00000000000E+00 0.  1.
         11    1    3    3    0    0 -0.57572989561E+01  0.31016918838E+00 -0.21575951903E+02  0.22333033761E+02  0.51100000000E-03 0. -1.
        -11    1    3    3    0    0 -0.14021017451E+02 -0.51948344021E+01 -0.93434129022E+01  0.17631636332E+02  0.51100000000E-03 0.  1.
        -12    1    3    3    0    0  0.86197410846E+00 -0.65368523303E+00 -0.77474393917E+01  0.78226032033E+01  0.00000000000E+00 0.  1.
</event>
<event>
 7    1  0.2886681E-010  0.4778727E+02  0.7816164E-02  0.1312668E+00
        -11   -1    0    0    0    0  0.00000000000E+00  0.00000000000E+00  0.45593999997E+02  0.45594000000E+02  0.51100000000E-03 0.  1.
         11   -1    0    0    0    0 -0.00000000000E+00 -0.00000000000E+00 -0.45593999997E+02  0.45594000000E+02  0.51100000000E-03 0. -1.
    9900012    2    1    2    0    0  0.39226171909E+02  0.16520115983E+02  0.84862388259E+01  0.47787273691E+02  0.20000012067E+02 0.  0.
        -12    1    1    2    0    0 -0.39226171909E+02 -0.16520115983E+02 -0.84862388259E+01  0.43400726309E+02  0.00000000000E+00 0.  1.
         11    1    3    3    0    0  0.11739704694E+02  0.10138742731E+01  0.30851742294E+01  0.12180595537E+02  0.51100000000E-03 0. -1.
        -11    1    3    3    0    0  0.17612349773E+01 -0.15223931475E+01 -0.28420070228E+01  0.36737764928E+01  0.51100000000E-03 0.  1.
        -12    1    3    3    0    0  0.25725232237E+02  0.17028634858E+02  0.82430716193E+01  0.31932901661E+02  0.00000000000E+00 0.  1.
</event>
<event>
 7    1  0.2886681E-010  0.4778727E+02  0.7816164E-02  0.1312668E+00
        -11   -1    0    0    0    0  0.00000000000E+00  0.00000000000E+00  0.45593999997E+02  0.45594000000E+02  0.51100000000E-03 0.  1.
         11   -1    0    0    0    0 -0.00000000000E+00 -0.00000000000E+00 -0.45593999997E+02  0.45594000000E+02  0.51100000000E-03 0. -1.
    9900012    2    1    2    0    0 -0.21332364515E+02 -0.35274792659E+02 -0.13573584589E+02  0.47787274528E+02  0.20000015881E+02 0.  0.
        -12    1    1    2    0    0  0.21332364515E+02  0.35274792659E+02  0.13573584589E+02  0.43400725472E+02  0.00000000000E+00 0.  1.
         11    1    3    3    0    0 -0.76297399089E+01 -0.61055258326E+01  0.14531603866E+01  0.98793750885E+01  0.51100000000E-03 0. -1.
        -11    1    3    3    0    0 -0.91583536554E+01 -0.27596323186E+02 -0.15712920194E+02  0.33050391168E+02  0.51100000000E-03 0.  1.
        -12    1    3    3    0    0 -0.45442709509E+01 -0.15729436402E+01  0.68617521875E+00  0.48575082709E+01  0.00000000000E+00 0.  1.
</event>
<event>
 7    1  0.2886681E-010  0.4778727E+02  0.7816164E-02  0.1312668E+00
        -11   -1    0    0    0    0  0.00000000000E+00  0.00000000000E+00  0.45593999997E+02  0.45594000000E+02  0.51100000000E-03 0. -1.
         11   -1    0    0    0    0 -0.00000000000E+00 -0.00000000000E+00 -0.45593999997E+02  0.45594000000E+02  0.51100000000E-03 0.  1.
    9900012    2    1    2    0    0 -0.25957234495E+02  0.34631950118E+02  0.32362376092E+01  0.47787271602E+02  0.20000002542E+02 0.  0.
        -12    1    1    2    0    0  0.25957234495E+02 -0.34631950118E+02 -0.32362376092E+01  0.43400728398E+02  0.00000000000E+00 0.  1.
         11    1    3    3    0    0 -0.61677227500E+01  0.69702126175E+01 -0.68360458620E+00  0.93323085754E+01  0.51100000000E-03 0. -1.
        -11    1    3    3    0    0 -0.18212584586E+02  0.14267876724E+02 -0.29438724898E+01  0.23322455467E+02  0.51100000000E-03 0.  1.
        -12    1    3    3    0    0 -0.15769271596E+01  0.13393860776E+02  0.68637146851E+01  0.15132507560E+02  0.00000000000E+00 0.  1.
</event>
<event>
 7    1  0.2886681E-010  0.4778727E+02  0.7816164E-02  0.1312668E+00
        -11   -1    0    0    0    0  0.00000000000E+00  0.00000000000E+00  0.45593999997E+02  0.45594000000E+02  0.51100000000E-03 0.  1.
         11   -1    0    0    0    0 -0.00000000000E+00 -0.00000000000E+00 -0.45593999997E+02  0.45594000000E+02  0.51100000000E-03 0. -1.
    9900012    2    1    2    0    0  0.34507993950E+02 -0.22143686305E+02 -0.14229495378E+02  0.47787273874E+02  0.20000012899E+02 0.  0.
        -12    1    1    2    0    0 -0.34507993950E+02  0.22143686305E+02  0.14229495378E+02  0.43400726126E+02  0.00000000000E+00 0.  1.
         11    1    3    3    0    0  0.25106234478E+01  0.26093767604E+01 -0.14117158829E+01  0.38865176148E+01  0.51100000000E-03 0.  1.
        -11    1    3    3    0    0  0.32390671322E+02 -0.24730664591E+02 -0.13651877779E+02  0.42978309960E+02  0.51100000000E-03 0. -1.
        -12    1    3    3    0    0 -0.39330082036E+00 -0.22398474188E-01  0.83409828454E+00  0.92244629936E+00  0.00000000000E+00 0.  1.
</event>
<event>
 7    1  0.2886681E-010  0.4778727E+02  0.7816164E-02  0.1312668E+00
        -11   -1    0    0    0    0  0.00000000000E+00  0.00000000000E+00  0.45593999997E+02  0.45594000000E+02  0.51100000000E-03 0.  1.
         11   -1    0    0    0    0 -0.00000000000E+00 -0.00000000000E+00 -0.45593999997E+02  0.45594000000E+02  0.51100000000E-03 0. -1.
    9900012    2    1    2    0    0  0.35427785153E+02  0.19085513205E+02 -0.16255416012E+02  0.47787270456E+02  0.19999997319E+02 0.  0.
        -12    1    1    2    0    0 -0.35427785153E+02 -0.19085513205E+02  0.16255416012E+02  0.43400729544E+02  0.00000000000E+00 0.  1.
         11    1    3    3    0    0  0.22443363591E+02  0.45116005733E+01 -0.65953025058E+01  0.23823457440E+02  0.51100000000E-03 0. -1.
        -11    1    3    3    0    0  0.87507760158E+01  0.15306318893E+02 -0.76157799001E+01  0.19205717448E+02  0.51100000000E-03 0.  1.
        -12    1    3    3    0    0  0.42336455468E+01 -0.73240626095E+00 -0.20443336064E+01  0.47580955688E+01  0.00000000000E+00 0.  1.
</event>
<event>
 7    1  0.2886681E-010  0.4778724E+02  0.7816164E-02  0.1312668E+00
        -11   -1    0    0    0    0  0.00000000000E+00  0.00000000000E+00  0.45593999997E+02  0.45594000000E+02  0.51100000000E-03 0.  1.
         11   -1    0    0    0    0 -0.00000000000E+00 -0.00000000000E+00 -0.45593999997E+02  0.45594000000E+02  0.51100000000E-03 0. -1.
    9900012    2    1    2    0    0 -0.69892639333E+01 -0.42399902364E+02  0.60847755414E+01  0.47787239360E+02  0.19999855536E+02 0.  0.
        -12    1    1    2    0    0  0.69892639333E+01  0.42399902364E+02 -0.60847755414E+01  0.43400760640E+02  0.00000000000E+00 0.  1.
         11    1    3    3    0    0  0.54402360741E+01 -0.11752985711E+02 -0.87287587229E+00  0.12980398846E+02  0.51100000000E-03 0. -1.
        -11    1    3    3    0    0 -0.37657593048E+01 -0.22127168873E+01  0.58675748284E+00  0.44069653697E+01  0.51100000000E-03 0.  1.
         12    1    3    3    0    0 -0.86637407026E+01 -0.28434199765E+02  0.63708939309E+01  0.30399875143E+02  0.00000000000E+00 0. -1.
</event>
<event>
 7    1  0.2886681E-010  0.4778727E+02  0.7816164E-02  0.1312668E+00
        -11   -1    0    0    0    0  0.00000000000E+00  0.00000000000E+00  0.45593999997E+02  0.45594000000E+02  0.51100000000E-03 0.  1.
         11   -1    0    0    0    0 -0.00000000000E+00 -0.00000000000E+00 -0.45593999997E+02  0.45594000000E+02  0.51100000000E-03 0. -1.
    9900012    2    1    2    0    0  0.36473886242E+02  0.55269311566E+01  0.22863334294E+02  0.47787269584E+02  0.19999993340E+02 0.  0.
        -12    1    1    2    0    0 -0.36473886242E+02 -0.55269311566E+01 -0.22863334294E+02  0.43400730416E+02  0.00000000000E+00 0.  1.
         11    1    3    3    0    0  0.12625790547E+02 -0.39077602717E+01  0.30284504142E+01  0.13559228940E+02  0.51100000000E-03 0. -1.
        -11    1    3    3    0    0  0.22515903939E+02  0.58702529400E+01  0.19586401205E+02  0.30414682511E+02  0.51100000000E-03 0.  1.
         12    1    3    3    0    0  0.13321917563E+01  0.35644384884E+01  0.24848267468E+00  0.38133581333E+01  0.00000000000E+00 0. -1.
</event>
<event>
 7    1  0.2886681E-010  0.4778727E+02  0.7816164E-02  0.1312668E+00
        -11   -1    0    0    0    0  0.00000000000E+00  0.00000000000E+00  0.45593999997E+02  0.45594000000E+02  0.51100000000E-03 0.  1.
         11   -1    0    0    0    0 -0.00000000000E+00 -0.00000000000E+00 -0.45593999997E+02  0.45594000000E+02  0.51100000000E-03 0. -1.
    9900012    2    1    2    0    0 -0.35442326112E+02  0.21282074884E+02 -0.13211283725E+02  0.47787271789E+02  0.20000003393E+02 0.  0.
        -12    1    1    2    0    0  0.35442326112E+02 -0.21282074884E+02  0.13211283725E+02  0.43400728211E+02  0.00000000000E+00 0.  1.
         11    1    3    3    0    0 -0.26371779730E+02  0.56339162491E+01 -0.85564677489E+01  0.28291781828E+02  0.51100000000E-03 0. -1.
        -11    1    3    3    0    0 -0.83345054123E+01  0.10769770436E+02 -0.16470001131E+01  0.13717308240E+02  0.51100000000E-03 0.  1.
         12    1    3    3    0    0 -0.73604097017E+00  0.48783881997E+01 -0.30078158626E+01  0.57781817210E+01  0.00000000000E+00 0. -1.
</event>
<event>
 7    1  0.2886681E-010  0.4778727E+02  0.7816164E-02  0.1312668E+00
        -11   -1    0    0    0    0  0.00000000000E+00  0.00000000000E+00  0.45593999997E+02  0.45594000000E+02  0.51100000000E-03 0. -1.
         11   -1    0    0    0    0 -0.00000000000E+00 -0.00000000000E+00 -0.45593999997E+02  0.45594000000E+02  0.51100000000E-03 0.  1.
    9900012    2    1    2    0    0 -0.23283844539E+02  0.13915574960E+02  0.33879829671E+02  0.47787268422E+02  0.19999988044E+02 0.  0.
        -12    1    1    2    0    0  0.23283844539E+02 -0.13915574960E+02 -0.33879829671E+02  0.43400731578E+02  0.00000000000E+00 0.  1.
         11    1    3    3    0    0 -0.68571300613E+01  0.71136224833E+01  0.74210061570E+01  0.12356989526E+02  0.51100000000E-03 0. -1.
        -11    1    3    3    0    0 -0.38056017478E+01 -0.31478302172E+01  0.14725104075E+02  0.15531262989E+02  0.51100000000E-03 0.  1.
        -12    1    3    3    0    0 -0.12621112730E+02  0.99497826942E+01  0.11733719438E+02  0.19899015907E+02  0.00000000000E+00 0.  1.
</event>
<event>
 7    1  0.2886681E-010  0.4778728E+02  0.7816164E-02  0.1312668E+00
        -11   -1    0    0    0    0  0.00000000000E+00  0.00000000000E+00  0.45593999997E+02  0.45594000000E+02  0.51100000000E-03 0.  1.
         11   -1    0    0    0    0 -0.00000000000E+00 -0.00000000000E+00 -0.45593999997E+02  0.45594000000E+02  0.51100000000E-03 0. -1.
    9900012    2    1    2    0    0 -0.98002401537E+01  0.38020124572E+02  0.18494530569E+02  0.47787282950E+02  0.20000054282E+02 0.  0.
        -12    1    1    2    0    0  0.98002401537E+01 -0.38020124572E+02 -0.18494530569E+02  0.43400717050E+02  0.00000000000E+00 0.  1.
         11    1    3    3    0    0 -0.94912827547E+00 -0.93944266260E-01 -0.10229261701E+01  0.13985879375E+01  0.51100000000E-03 0. -1.
        -11    1    3    3    0    0 -0.10938017552E+02  0.25297051426E+02  0.71887691193E+01  0.28482616462E+02  0.51100000000E-03 0.  1.
        -12    1    3    3    0    0  0.20869056739E+01  0.12817017412E+02  0.12328687619E+02  0.17906078550E+02  0.00000000000E+00 0.  1.
</event>
<event>
 7    1  0.2886681E-010  0.4778727E+02  0.7816164E-02  0.1312668E+00
        -11   -1    0    0    0    0  0.00000000000E+00  0.00000000000E+00  0.45593999997E+02  0.45594000000E+02  0.51100000000E-03 0.  1.
         11   -1    0    0    0    0 -0.00000000000E+00 -0.00000000000E+00 -0.45593999997E+02  0.45594000000E+02  0.51100000000E-03 0. -1.
    9900012    2    1    2    0    0  0.19632702842E+00 -0.42806297658E+02  0.71558084871E+01  0.47787271220E+02  0.20000000801E+02 0.  0.
        -12    1    1    2    0    0 -0.19632702842E+00  0.42806297658E+02 -0.71558084871E+01  0.43400728780E+02  0.00000000000E+00 0.  1.
         11    1    3    3    0    0 -0.37824454875E+01 -0.20764071402E+02 -0.33018881137E+01  0.21362490970E+02  0.51100000000E-03 0. -1.
        -11    1    3    3    0    0  0.20908474525E+01 -0.15062452089E+01 -0.10800320076E+01  0.27940807249E+01  0.51100000000E-03 0.  1.
         12    1    3    3    0    0  0.18879250634E+01 -0.20535981047E+02  0.11537728608E+02  0.23630699525E+02  0.00000000000E+00 0. -1.
</event>
<event>
 7    1  0.2886681E-010  0.4778727E+02  0.7816164E-02  0.1312668E+00
        -11   -1    0    0    0    0  0.00000000000E+00  0.00000000000E+00  0.45593999997E+02  0.45594000000E+02  0.51100000000E-03 0.  1.
         11   -1    0    0    0    0 -0.00000000000E+00 -0.00000000000E+00 -0.45593999997E+02  0.45594000000E+02  0.51100000000E-03 0. -1.
    9900012    2    1    2    0    0  0.73477436752E+01 -0.33595690442E+02 -0.26475713081E+02  0.47787272627E+02  0.20000007214E+02 0.  0.
        -12    1    1    2    0    0 -0.73477436752E+01  0.33595690442E+02  0.26475713081E+02  0.43400727373E+02  0.00000000000E+00 0.  1.
         11    1    3    3    0    0  0.10713899109E+02 -0.23271929905E+02 -0.14332355458E+02  0.29356204947E+02  0.51100000000E-03 0. -1.
        -11    1    3    3    0    0  0.38106368607E+00  0.46275914351E+00  0.90894805159E+00  0.10888261474E+01  0.51100000000E-03 0.  1.
         12    1    3    3    0    0 -0.37472191202E+01 -0.10786519680E+02 -0.13052305674E+02  0.17342241532E+02  0.00000000000E+00 0. -1.
</event>
<event>
 7    1  0.2886681E-010  0.4778727E+02  0.7816164E-02  0.1312668E+00
        -11   -1    0    0    0    0  0.00000000000E+00  0.00000000000E+00  0.45593999997E+02  0.45594000000E+02  0.51100000000E-03 0.  1.
         11   -1    0    0    0    0 -0.00000000000E+00 -0.00000000000E+00 -0.45593999997E+02  0.45594000000E+02  0.51100000000E-03 0. -1.
    9900012    2    1    2    0    0 -0.15829664873E+02 -0.21676149953E+02 -0.34105565938E+02  0.47787269652E+02  0.19999993650E+02 0.  0.
        -12    1    1    2    0    0  0.15829664873E+02  0.21676149953E+02  0.34105565938E+02  0.43400730348E+02  0.00000000000E+00 0.  1.
         11    1    3    3    0    0 -0.78855928766E+01 -0.19924466788E-01 -0.70772526176E+01  0.10595776370E+02  0.51100000000E-03 0. -1.
        -11    1    3    3    0    0 -0.59749792570E+01 -0.22022113117E+02 -0.21659225714E+02  0.31461021948E+02  0.51100000000E-03 0.  1.
         12    1    3    3    0    0 -0.19690927391E+01  0.36588763049E+00 -0.53690876072E+01  0.57304713338E+01  0.00000000000E+00 0. -1.
</event>
<event>
 7    1  0.2886681E-010  0.4778727E+02  0.7816164E-02  0.1312668E+00
        -11   -1    0    0    0    0  0.00000000000E+00  0.00000000000E+00  0.45593999997E+02  0.45594000000E+02  0.51100000000E-03 0.  1.
         11   -1    0    0    0    0 -0.00000000000E+00 -0.00000000000E+00 -0.45593999997E+02  0.45594000000E+02  0.51100000000E-03 0. -1.
    9900012    2    1    2    0    0  0.24082100074E+02 -0.15506478149E+02 -0.32607133400E+02  0.47787267781E+02  0.19999985122E+02 0.  0.
        -12    1    1    2    0    0 -0.24082100074E+02  0.15506478149E+02  0.32607133400E+02  0.43400732219E+02  0.00000000000E+00 0.  1.
         11    1    3    3    0    0  0.22449195279E+01 -0.82123698788E+01 -0.54088028364E+01  0.10086517293E+02  0.51100000000E-03 0. -1.
        -11    1    3    3    0    0  0.16728830330E+02 -0.48283226089E+01 -0.26870962901E+02  0.32018980478E+02  0.51100000000E-03 0.  1.
        -12    1    3    3    0    0  0.51083502164E+01 -0.24657856614E+01 -0.32736766302E+00  0.56817700102E+01  0.00000000000E+00 0.  1.
</event>
<event>
 7    1  0.2886681E-010  0.4778727E+02  0.7816164E-02  0.1312668E+00
        -11   -1    0    0    0    0  0.00000000000E+00  0.00000000000E+00  0.45593999997E+02  0.45594000000E+02  0.51100000000E-03 0.  1.
         11   -1    0    0    0    0 -0.00000000000E+00 -0.00000000000E+00 -0.45593999997E+02  0.45594000000E+02  0.51100000000E-03 0. -1.
    9900012    2    1    2    0    0  0.20793549297E+01 -0.38923965782E+02 -0.19084664129E+02  0.47787271503E+02  0.20000002092E+02 0.  0.
        -12    1    1    2    0    0 -0.20793549297E+01  0.38923965782E+02  0.19084664129E+02  0.43400728497E+02  0.00000000000E+00 0.  1.
         11    1    3    3    0    0  0.17881985733E+01 -0.22614724964E+02 -0.18096047218E+02  0.29018793299E+02  0.51100000000E-03 0. -1.
        -11    1    3    3    0    0 -0.20542313678E+01 -0.11450610674E+02 -0.43406693892E+01  0.12416833829E+02  0.51100000000E-03 0.  1.
         12    1    3    3    0    0  0.23453877242E+01 -0.48586301435E+01  0.33520524786E+01  0.63516443751E+01  0.00000000000E+00 0. -1.
</event>
<event>
 7    1  0.2886681E-010  0.4778727E+02  0.7816164E-02  0.1312668E+00
        -11   -1    0    0    0    0  0.00000000000E+00  0.00000000000E+00  0.45593999997E+02  0.45594000000E+02  0.51100000000E-03 0.  1.
         11   -1    0    0    0    0 -0.00000000000E+00 -0.00000000000E+00 -0.45593999997E+02  0.45594000000E+02  0.51100000000E-03 0. -1.
    9900012    2    1    2    0    0 -0.40825140056E+02 -0.12997363268E+02 -0.69281828315E+01  0.47787271551E+02  0.20000002310E+02 0.  0.
        -12    1    1    2    0    0  0.40825140056E+02  0.12997363268E+02  0.69281828315E+01  0.43400728449E+02  0.00000000000E+00 0.  1.
         11    1    3    3    0    0 -0.25159008097E+02 -0.64505579447E+01 -0.62153090310E+01  0.26706093927E+02  0.51100000000E-03 0. -1.
        -11    1    3    3    0    0  0.10028101250E+01  0.60731494668E+00  0.24052922998E+01  0.26757972456E+01  0.51100000000E-03 0.  1.
        -12    1    3    3    0    0 -0.16668942084E+02 -0.71541202699E+01 -0.31181661003E+01  0.18405380378E+02  0.00000000000E+00 0.  1.
</event>
<event>
 7    1  0.2886681E-010  0.4778727E+02  0.7816164E-02  0.1312668E+00
        -11   -1    0    0    0    0  0.00000000000E+00  0.00000000000E+00  0.45593999997E+02  0.45594000000E+02  0.51100000000E-03 0.  1.
         11   -1    0    0    0    0 -0.00000000000E+00 -0.00000000000E+00 -0.45593999997E+02  0.45594000000E+02  0.51100000000E-03 0. -1.
    9900012    2    1    2    0    0  0.54555361990E+00 -0.43208235391E+02 -0.40465185162E+01  0.47787267904E+02  0.19999985683E+02 0.  0.
        -12    1    1    2    0    0 -0.54555361990E+00  0.43208235391E+02  0.40465185162E+01  0.43400732096E+02  0.00000000000E+00 0.  1.
         11    1    3    3    0    0 -0.67150995161E+01 -0.21372216749E+02 -0.24052273897E+01  0.22531074748E+02  0.51100000000E-03 0. -1.
        -11    1    3    3    0    0  0.83098107005E+01 -0.20609601176E+02  0.90642887877E+00  0.22240283903E+02  0.51100000000E-03 0.  1.
        -12    1    3    3    0    0 -0.10491575645E+01 -0.12264174657E+01 -0.25477200052E+01  0.30159092526E+01  0.00000000000E+00 0.  1.
</event>
<event>
 7    1  0.2886681E-010  0.4778727E+02  0.7816164E-02  0.1312668E+00
        -11   -1    0    0    0    0  0.00000000000E+00  0.00000000000E+00  0.45593999997E+02  0.45594000000E+02  0.51100000000E-03 0.  1.
         11   -1    0    0    0    0 -0.00000000000E+00 -0.00000000000E+00 -0.45593999997E+02  0.45594000000E+02  0.51100000000E-03 0. -1.
    9900012    2    1    2    0    0  0.50186256122E+01 -0.21669383269E+02 -0.37267604131E+02  0.47787273140E+02  0.20000009555E+02 0.  0.
        -12    1    1    2    0    0 -0.50186256122E+01  0.21669383269E+02  0.37267604131E+02  0.43400726860E+02  0.00000000000E+00 0.  1.
         11    1    3    3    0    0  0.63913316761E+01 -0.15228615169E+02 -0.12067026169E+02  0.20454167336E+02  0.51100000000E-03 0. -1.
        -11    1    3    3    0    0  0.15570111325E+01 -0.11355462910E+01 -0.17142016708E+02  0.17249999598E+02  0.51100000000E-03 0.  1.
         12    1    3    3    0    0 -0.29297171964E+01 -0.53052218089E+01 -0.80585612538E+01  0.10083106207E+02  0.00000000000E+00 0. -1.
</event>
<event>
 7    1  0.2886681E-010  0.4778728E+02  0.7816164E-02  0.1312668E+00
        -11   -1    0    0    0    0  0.00000000000E+00  0.00000000000E+00  0.45593999997E+02  0.45594000000E+02  0.51100000000E-03 0.  1.
         11   -1    0    0    0    0 -0.00000000000E+00 -0.00000000000E+00 -0.45593999997E+02  0.45594000000E+02  0.51100000000E-03 0. -1.
    9900012    2    1    2    0    0 -0.29448182349E+02 -0.21651219312E+01 -0.31807848581E+02  0.47787280789E+02  0.20000044430E+02 0.  0.
        -12    1    1    2    0    0  0.29448182349E+02  0.21651219312E+01  0.31807848581E+02  0.43400719211E+02  0.00000000000E+00 0.  1.
         11    1    3    3    0    0 -0.68288183565E+01 -0.47256731702E+01 -0.32174041263E+01  0.89059775787E+01  0.51100000000E-03 0. -1.
        -11    1    3    3    0    0 -0.22066319205E+02  0.55188825601E+01 -0.22039312290E+02  0.31671940175E+02  0.51100000000E-03 0.  1.
        -12    1    3    3    0    0 -0.55304478814E+00 -0.29583313211E+01 -0.65511321646E+01  0.72093630357E+01  0.00000000000E+00 0.  1.
</event>
<event>
 7    1  0.2886681E-010  0.4778728E+02  0.7816164E-02  0.1312668E+00
        -11   -1    0    0    0    0  0.00000000000E+00  0.00000000000E+00  0.45593999997E+02  0.45594000000E+02  0.51100000000E-03 0.  1.
         11   -1    0    0    0    0 -0.00000000000E+00 -0.00000000000E+00 -0.45593999997E+02  0.45594000000E+02  0.51100000000E-03 0. -1.
    9900012    2    1    2    0    0  0.78358843889E+00 -0.35829898834E+02 -0.24479118075E+02  0.47787275547E+02  0.20000020529E+02 0.  0.
        -12    1    1    2    0    0 -0.78358843889E+00  0.35829898834E+02  0.24479118075E+02  0.43400724453E+02  0.00000000000E+00 0.  1.
         11    1    3    3    0    0  0.53757944513E+01 -0.79469991845E+01 -0.13238586604E+02  0.16349744266E+02  0.51100000000E-03 0. -1.
        -11    1    3    3    0    0 -0.51315397266E+01 -0.95162282872E+01 -0.25342055792E+01  0.11104661137E+02  0.51100000000E-03 0.  1.
        -12    1    3    3    0    0  0.53933371419E+00 -0.18366671362E+02 -0.87063258921E+01  0.20332870145E+02  0.00000000000E+00 0.  1.
</event>
<event>
 7    1  0.2886681E-010  0.4778729E+02  0.7816164E-02  0.1312668E+00
        -11   -1    0    0    0    0  0.00000000000E+00  0.00000000000E+00  0.45593999997E+02  0.45594000000E+02  0.51100000000E-03 0.  1.
         11   -1    0    0    0    0 -0.00000000000E+00 -0.00000000000E+00 -0.45593999997E+02  0.45594000000E+02  0.51100000000E-03 0. -1.
    9900012    2    1    2    0    0  0.30766218135E+02 -0.25925927215E+02 -0.16275998903E+02  0.47787285483E+02  0.20000065831E+02 0.  0.
        -12    1    1    2    0    0 -0.30766218135E+02  0.25925927215E+02  0.16275998903E+02  0.43400714517E+02  0.00000000000E+00 0.  1.
         11    1    3    3    0    0  0.32604243832E+02 -0.21762874018E+02 -0.13572084782E+02  0.41483260322E+02  0.51100000000E-03 0. -1.
        -11    1    3    3    0    0 -0.25137278826E+01 -0.31651862121E+01 -0.91033000864E+00  0.41431790464E+01  0.51100000000E-03 0.  1.
         12    1    3    3    0    0  0.67570218640E+00 -0.99786698470E+00 -0.17935841116E+01  0.21608461142E+01  0.00000000000E+00 0. -1.
</event>
<event>
 7    1  0.2886681E-010  0.4778727E+02  0.7816164E-02  0.1312668E+00
        -11   -1    0    0    0    0  0.00000000000E+00  0.00000000000E+00  0.45593999997E+02  0.45594000000E+02  0.51100000000E-03 0.  1.
         11   -1    0    0    0    0 -0.00000000000E+00 -0.00000000000E+00 -0.45593999997E+02  0.45594000000E+02  0.51100000000E-03 0. -1.
    9900012    2    1    2    0    0  0.16503979638E+02 -0.36617957054E+02  0.16442850852E+02  0.47787268821E+02  0.19999989863E+02 0.  0.
        -12    1    1    2    0    0 -0.16503979638E+02  0.36617957054E+02 -0.16442850852E+02  0.43400731179E+02  0.00000000000E+00 0.  1.
         11    1    3    3    0    0  0.10341387696E+02 -0.18789869566E+02  0.40322347505E+01  0.21823437290E+02  0.51100000000E-03 0. -1.
        -11    1    3    3    0    0 -0.24422378336E+00 -0.16085096893E+02  0.77842642343E+01  0.17871338989E+02  0.51100000000E-03 0.  1.
        -12    1    3    3    0    0  0.64068157247E+01 -0.17429905945E+01  0.46263518675E+01  0.80924925421E+01  0.00000000000E+00 0.  1.
</event>
<event>
 7    1  0.2886681E-010  0.4778727E+02  0.7816164E-02  0.1312668E+00
        -11   -1    0    0    0    0  0.00000000000E+00  0.00000000000E+00  0.45593999997E+02  0.45594000000E+02  0.51100000000E-03 0.  1.
         11   -1    0    0    0    0 -0.00000000000E+00 -0.00000000000E+00 -0.45593999997E+02  0.45594000000E+02  0.51100000000E-03 0. -1.
    9900012    2    1    2    0    0  0.10056079474E+02 -0.31442653580E+02 -0.28175491048E+02  0.47787268504E+02  0.19999988419E+02 0.  0.
        -12    1    1    2    0    0 -0.10056079474E+02  0.31442653580E+02  0.28175491048E+02  0.43400731496E+02  0.00000000000E+00 0.  1.
         11    1    3    3    0    0 -0.64063021154E+00 -0.78675036013E+01  0.14364446320E+00  0.78948498388E+01  0.51100000000E-03 0. -1.
        -11    1    3    3    0    0  0.34292207230E+00  0.76210962194E+00 -0.35839408943E+01  0.36800868493E+01  0.51100000000E-03 0.  1.
         12    1    3    3    0    0  0.10353787613E+02 -0.24337259601E+02 -0.24735194617E+02  0.36212331816E+02  0.00000000000E+00 0. -1.
</event>
<event>
 7    1  0.2886681E-010  0.4778728E+02  0.7816164E-02  0.1312668E+00
        -11   -1    0    0    0    0  0.00000000000E+00  0.00000000000E+00  0.45593999997E+02  0.45594000000E+02  0.51100000000E-03 0.  1.
         11   -1    0    0    0    0 -0.00000000000E+00 -0.00000000000E+00 -0.45593999997E+02  0.45594000000E+02  0.51100000000E-03 0. -1.
    9900012    2    1    2    0    0  0.41200673296E+02 -0.12605706621E+02 -0.52175716410E+01  0.47787281420E+02  0.20000047305E+02 0.  0.
        -12    1    1    2    0    0 -0.41200673296E+02  0.12605706621E+02  0.52175716410E+01  0.43400718580E+02  0.00000000000E+00 0.  1.
         11    1    3    3    0    0  0.32796222037E+02 -0.17887879021E+02 -0.37097686099E+01  0.37541054583E+02  0.51100000000E-03 0. -1.
        -11    1    3    3    0    0  0.72539312279E+01  0.44977060607E+01 -0.20052215742E+01  0.87675419526E+01  0.51100000000E-03 0.  1.
         12    1    3    3    0    0  0.11505200312E+01  0.78446633991E+00  0.49741854320E+00  0.14786848845E+01  0.00000000000E+00 0. -1.
</event>
<event>
 7    1  0.2886681E-010  0.4778727E+02  0.7816164E-02  0.1312668E+00
        -11   -1    0    0    0    0  0.00000000000E+00  0.00000000000E+00  0.45593999997E+02  0.45594000000E+02  0.51100000000E-03 0.  1.
         11   -1    0    0    0    0 -0.00000000000E+00 -0.00000000000E+00 -0.45593999997E+02  0.45594000000E+02  0.51100000000E-03 0. -1.
    9900012    2    1    2    0    0  0.18624147074E+02 -0.29732907940E+02 -0.25548361938E+02  0.47787268825E+02  0.19999989881E+02 0.  0.
        -12    1    1    2    0    0 -0.18624147074E+02  0.29732907940E+02  0.25548361938E+02  0.43400731175E+02  0.00000000000E+00 0.  1.
         11    1    3    3    0    0  0.74352037747E+01 -0.15157296534E+02 -0.18333780716E+02  0.24922949445E+02  0.51100000000E-03 0. -1.
        -11    1    3    3    0    0  0.42684786972E+01 -0.52962349749E+01  0.29922610812E+01  0.74312611269E+01  0.51100000000E-03 0.  1.
         12    1    3    3    0    0  0.69204646019E+01 -0.92793764307E+01 -0.10206842303E+02  0.15433058253E+02  0.00000000000E+00 0. -1.
</event>
<event>
 7    1  0.2886681E-010  0.4778730E+02  0.7816164E-02  0.1312668E+00
        -11   -1    0    0    0    0  0.00000000000E+00  0.00000000000E+00  0.45593999997E+02  0.45594000000E+02  0.51100000000E-03 0. -1.
         11   -1    0    0    0    0 -0.00000000000E+00 -0.00000000000E+00 -0.45593999997E+02  0.45594000000E+02  0.51100000000E-03 0.  1.
    9900012    2    1    2    0    0 -0.56232291759E+01  0.33091801181E+02  0.27512416654E+02  0.47787296297E+02  0.20000115136E+02 0.  0.
        -12    1    1    2    0    0  0.56232291759E+01 -0.33091801181E+02 -0.27512416654E+02  0.43400703703E+02  0.00000000000E+00 0.  1.
         11    1    3    3    0    0 -0.33891727564E+01  0.68058764896E+01  0.12495032407E+02  0.14626424098E+02  0.51100000000E-03 0. -1.
        -11    1    3    3    0    0  0.66288206802E+00  0.13782192483E+02  0.53355939591E+00  0.13808436847E+02  0.51100000000E-03 0.  1.
        -12    1    3    3    0    0 -0.28969384875E+01  0.12503732209E+02  0.14483824851E+02  0.19352435352E+02  0.00000000000E+00 0.  1.
</event>
<event>
 7    1  0.2886681E-010  0.4778727E+02  0.7816164E-02  0.1312668E+00
        -11   -1    0    0    0    0  0.00000000000E+00  0.00000000000E+00  0.45593999997E+02  0.45594000000E+02  0.51100000000E-03 0. -1.
         11   -1    0    0    0    0 -0.00000000000E+00 -0.00000000000E+00 -0.45593999997E+02  0.45594000000E+02  0.51100000000E-03 0.  1.
    9900012    2    1    2    0    0 -0.25825139321E+02 -0.27367753107E+01  0.34773485958E+02  0.47787273212E+02  0.20000009883E+02 0.  0.
        -12    1    1    2    0    0  0.25825139321E+02  0.27367753107E+01 -0.34773485958E+02  0.43400726788E+02  0.00000000000E+00 0.  1.
         11    1    3    3    0    0 -0.56925779880E+01 -0.19988222951E+01  0.46751961666E+01  0.76327055605E+01  0.51100000000E-03 0. -1.
        -11    1    3    3    0    0 -0.21962571940E+02 -0.12139645618E+01  0.19519613110E+02  0.29408222870E+02  0.51100000000E-03 0.  1.
        -12    1    3    3    0    0  0.18300106070E+01  0.47601154620E+00  0.10578676682E+02  0.10746344781E+02  0.00000000000E+00 0.  1.
</event>
<event>
 7    1  0.2886681E-010  0.4778725E+02  0.7816164E-02  0.1312668E+00
        -11   -1    0    0    0    0  0.00000000000E+00  0.00000000000E+00  0.45593999997E+02  0.45594000000E+02  0.51100000000E-03 0. -1.
         11   -1    0    0    0    0 -0.00000000000E+00 -0.00000000000E+00 -0.45593999997E+02  0.45594000000E+02  0.51100000000E-03 0.  1.
    9900012    2    1    2    0    0 -0.29027773702E+02 -0.24302543013E+02 -0.21222625005E+02  0.47787250524E+02  0.19999906438E+02 0.  0.
        -12    1    1    2    0    0  0.29027773702E+02  0.24302543013E+02  0.21222625005E+02  0.43400749476E+02  0.00000000000E+00 0.  1.
         11    1    3    3    0    0 -0.24738840008E+02 -0.16536273089E+02 -0.10141156428E+02  0.31437264298E+02  0.51100000000E-03 0. -1.
        -11    1    3    3    0    0 -0.13908314145E+01 -0.83836344735E+01 -0.57829938415E+01  0.10279239127E+02  0.51100000000E-03 0.  1.
         12    1    3    3    0    0 -0.28981022793E+01  0.61736454886E+00 -0.52984747353E+01  0.60707470980E+01  0.00000000000E+00 0. -1.
</event>
<event>
 7    1  0.2886681E-010  0.4778727E+02  0.7816164E-02  0.1312668E+00
        -11   -1    0    0    0    0  0.00000000000E+00  0.00000000000E+00  0.45593999997E+02  0.45594000000E+02  0.51100000000E-03 0.  1.
         11   -1    0    0    0    0 -0.00000000000E+00 -0.00000000000E+00 -0.45593999997E+02  0.45594000000E+02  0.51100000000E-03 0. -1.
    9900012    2    1    2    0    0  0.38911659755E+02  0.76688756698E+01 -0.17626532315E+02  0.47787267744E+02  0.19999984951E+02 0.  0.
        -12    1    1    2    0    0 -0.38911659755E+02 -0.76688756698E+01  0.17626532315E+02  0.43400732256E+02  0.00000000000E+00 0.  1.
         11    1    3    3    0    0  0.17795168587E+02 -0.15961046931E+01 -0.15333426350E+02  0.23544203939E+02  0.51100000000E-03 0. -1.
        -11    1    3    3    0    0  0.11454863282E+02  0.81777343088E+01  0.63609688237E+00  0.14088784573E+02  0.51100000000E-03 0.  1.
         12    1    3    3    0    0  0.96616278869E+01  0.10872460541E+01 -0.29292028469E+01  0.10154279232E+02  0.00000000000E+00 0. -1.
</event>
<event>
 7    1  0.2886681E-010  0.4778727E+02  0.7816164E-02  0.1312668E+00
        -11   -1    0    0    0    0  0.00000000000E+00  0.00000000000E+00  0.45593999997E+02  0.45594000000E+02  0.51100000000E-03 0.  1.
         11   -1    0    0    0    0 -0.00000000000E+00 -0.00000000000E+00 -0.45593999997E+02  0.45594000000E+02  0.51100000000E-03 0. -1.
    9900012    2    1    2    0    0  0.21108808844E+02  0.37731406189E+02 -0.37924166894E+01  0.47787271341E+02  0.20000001352E+02 0.  0.
        -12    1    1    2    0    0 -0.21108808844E+02 -0.37731406189E+02  0.37924166894E+01  0.43400728659E+02  0.00000000000E+00 0.  1.
         11    1    3    3    0    0  0.19097986420E+01  0.46969017225E+01 -0.75169107127E+01  0.90670923436E+01  0.51100000000E-03 0. -1.
        -11    1    3    3    0    0  0.70607124883E+01  0.17168236925E+02  0.17216244275E+01  0.18643122348E+02  0.51100000000E-03 0.  1.
         12    1    3    3    0    0  0.12138297713E+02  0.15866267541E+02  0.20028695958E+01  0.20077056649E+02  0.00000000000E+00 0. -1.
</event>
<event>
 7    1  0.2886681E-010  0.4778727E+02  0.7816164E-02  0.1312668E+00
        -11   -1    0    0    0    0  0.00000000000E+00  0.00000000000E+00  0.45593999997E+02  0.45594000000E+02  0.51100000000E-03 0. -1.
         11   -1    0    0    0    0 -0.00000000000E+00 -0.00000000000E+00 -0.45593999997E+02  0.45594000000E+02  0.51100000000E-03 0.  1.
    9900012    2    1    2    0    0 -0.80931421713E+01  0.80003798451E+01  0.41882201104E+02  0.47787265015E+02  0.19999972511E+02 0.  0.
        -12    1    1    2    0    0  0.80931421713E+01 -0.80003798451E+01 -0.41882201104E+02  0.43400734985E+02  0.00000000000E+00 0.  1.
         11    1    3    3    0    0  0.25189152133E+01  0.58159350076E+01  0.19310945553E+02  0.20324434858E+02  0.51100000000E-03 0.  1.
        -11    1    3    3    0    0 -0.64374012868E+00  0.43471991605E+01  0.11970030283E+02  0.12751241788E+02  0.51100000000E-03 0. -1.
         12    1    3    3    0    0 -0.99683172559E+01 -0.21627543230E+01  0.10601225268E+02  0.14711588370E+02  0.00000000000E+00 0. -1.
</event>
<event>
 7    1  0.2886681E-010  0.4778727E+02  0.7816164E-02  0.1312668E+00
        -11   -1    0    0    0    0  0.00000000000E+00  0.00000000000E+00  0.45593999997E+02  0.45594000000E+02  0.51100000000E-03 0.  1.
         11   -1    0    0    0    0 -0.00000000000E+00 -0.00000000000E+00 -0.45593999997E+02  0.45594000000E+02  0.51100000000E-03 0. -1.
    9900012    2    1    2    0    0  0.10992059588E+02  0.33564684277E+02 -0.25223201508E+02  0.47787270756E+02  0.19999998684E+02 0.  0.
        -12    1    1    2    0    0 -0.10992059588E+02 -0.33564684277E+02  0.25223201508E+02  0.43400729244E+02  0.00000000000E+00 0.  1.
         11    1    3    3    0    0 -0.18914071989E+01  0.16051116981E+02 -0.15336310893E+02  0.22280444555E+02  0.51100000000E-03 0. -1.
        -11    1    3    3    0    0  0.33492095024E+01  0.52450479825E+01  0.13043599127E+01  0.63583871912E+01  0.51100000000E-03 0.  1.
         12    1    3    3    0    0  0.95342572841E+01  0.12268519314E+02 -0.11191250528E+02  0.19148439009E+02  0.00000000000E+00 0. -1.
</event>
<event>
 7    1  0.2886681E-010  0.4778727E+02  0.7816164E-02  0.1312668E+00
        -11   -1    0    0    0    0  0.00000000000E+00  0.00000000000E+00  0.45593999997E+02  0.45594000000E+02  0.51100000000E-03 0.  1.
         11   -1    0    0    0    0 -0.00000000000E+00 -0.00000000000E+00 -0.45593999997E+02  0.45594000000E+02  0.51100000000E-03 0. -1.
    9900012    2    1    2    0    0 -0.16691047553E+02 -0.25791009106E+02 -0.30657073169E+02  0.47787270117E+02  0.19999995772E+02 0.  0.
        -12    1    1    2    0    0  0.16691047553E+02  0.25791009106E+02  0.30657073169E+02  0.43400729883E+02  0.00000000000E+00 0.  1.
         11    1    3    3    0    0 -0.13584718022E+02 -0.16026356267E+02 -0.23814492035E+02  0.31757183283E+02  0.51100000000E-03 0. -1.
        -11    1    3    3    0    0  0.34990324133E+01 -0.15701610219E+01 -0.88586667685E+00  0.39361648206E+01  0.51100000000E-03 0.  1.
         12    1    3    3    0    0 -0.66053619443E+01 -0.81944918171E+01 -0.59567144574E+01  0.12093922014E+02  0.00000000000E+00 0. -1.
</event>
<event>
 7    1  0.2886681E-010  0.4778727E+02  0.7816164E-02  0.1312668E+00
        -11   -1    0    0    0    0  0.00000000000E+00  0.00000000000E+00  0.45593999997E+02  0.45594000000E+02  0.51100000000E-03 0. -1.
         11   -1    0    0    0    0 -0.00000000000E+00 -0.00000000000E+00 -0.45593999997E+02  0.45594000000E+02  0.51100000000E-03 0.  1.
    9900012    2    1    2    0    0 -0.23465251504E+02 -0.26758604946E+02  0.24839124679E+02  0.47787273259E+02  0.20000010098E+02 0.  0.
        -12    1    1    2    0    0  0.23465251504E+02  0.26758604946E+02 -0.24839124679E+02  0.43400726741E+02  0.00000000000E+00 0.  1.
         11    1    3    3    0    0 -0.10339440685E+02 -0.72568320255E+01  0.33833386808E+01  0.13077179574E+02  0.51100000000E-03 0. -1.
        -11    1    3    3    0    0 -0.81039152882E+01 -0.89616892504E+01  0.23341147684E+01  0.12305828263E+02  0.51100000000E-03 0.  1.
         12    1    3    3    0    0 -0.50218955315E+01 -0.10540083670E+02  0.19121671230E+02  0.22404265423E+02  0.00000000000E+00 0. -1.
</event>
<event>
 7    1  0.2886681E-010  0.4778733E+02  0.7816164E-02  0.1312668E+00
        -11   -1    0    0    0    0  0.00000000000E+00  0.00000000000E+00  0.45593999997E+02  0.45594000000E+02  0.51100000000E-03 0.  1.
         11   -1    0    0    0    0 -0.00000000000E+00 -0.00000000000E+00 -0.45593999997E+02  0.45594000000E+02  0.51100000000E-03 0. -1.
    9900012    2    1    2    0    0  0.32337011675E+02 -0.28720017311E+02 -0.36189139180E+01  0.47787328849E+02  0.20000263552E+02 0.  0.
        -12    1    1    2    0    0 -0.32337011675E+02  0.28720017311E+02  0.36189139180E+01  0.43400671151E+02  0.00000000000E+00 0.  1.
         11    1    3    3    0    0  0.12847944488E+01 -0.44442992381E+01  0.43242425125E+01  0.63325797320E+01  0.51100000000E-03 0.  1.
        -11    1    3    3    0    0  0.14542270560E+02 -0.17328289933E+02 -0.62113643656E+01  0.23459077403E+02  0.51100000000E-03 0. -1.
        -12    1    3    3    0    0  0.16509946666E+02 -0.69474281394E+01 -0.17317920649E+01  0.17995671714E+02  0.00000000000E+00 0.  1.
</event>
<event>
 7    1  0.2886681E-010  0.4778727E+02  0.7816164E-02  0.1312668E+00
        -11   -1    0    0    0    0  0.00000000000E+00  0.00000000000E+00  0.45593999997E+02  0.45594000000E+02  0.51100000000E-03 0. -1.
         11   -1    0    0    0    0 -0.00000000000E+00 -0.00000000000E+00 -0.45593999997E+02  0.45594000000E+02  0.51100000000E-03 0.  1.
    9900012    2    1    2    0    0 -0.30605456888E+02  0.23913637508E+02 -0.19366652738E+02  0.47787270876E+02  0.19999999232E+02 0.  0.
        -12    1    1    2    0    0  0.30605456888E+02 -0.23913637508E+02  0.19366652738E+02  0.43400729124E+02  0.00000000000E+00 0.  1.
         11    1    3    3    0    0 -0.22471337038E+02  0.75311293571E+01 -0.13636191758E+02  0.27342725241E+02  0.51100000000E-03 0. -1.
        -11    1    3    3    0    0 -0.51713056812E+01  0.13647461594E+02 -0.70418765896E+01  0.16204432622E+02  0.51100000000E-03 0.  1.
         12    1    3    3    0    0 -0.29628141685E+01  0.27350465566E+01  0.13114156097E+01  0.42401130133E+01  0.00000000000E+00 0. -1.
</event>
<event>
 7    1  0.2886681E-010  0.4778727E+02  0.7816164E-02  0.1312668E+00
        -11   -1    0    0    0    0  0.00000000000E+00  0.00000000000E+00  0.45593999997E+02  0.45594000000E+02  0.51100000000E-03 0.  1.
         11   -1    0    0    0    0 -0.00000000000E+00 -0.00000000000E+00 -0.45593999997E+02  0.45594000000E+02  0.51100000000E-03 0. -1.
    9900012    2    1    2    0    0 -0.33745052609E+01  0.42355471387E+02 -0.88459052926E+01  0.47787270944E+02  0.19999999540E+02 0.  0.
        -12    1    1    2    0    0  0.33745052609E+01 -0.42355471387E+02  0.88459052926E+01  0.43400729056E+02  0.00000000000E+00 0.  1.
         11    1    3    3    0    0 -0.69700599337E+01  0.16572985789E+02 -0.94026929524E+01  0.20289313159E+02  0.51100000000E-03 0. -1.
        -11    1    3    3    0    0  0.30698455883E+01  0.25849054938E+02  0.18540410159E+01  0.26096648472E+02  0.51100000000E-03 0.  1.
         12    1    3    3    0    0  0.52570908444E+00 -0.66569340242E-01 -0.12972533561E+01  0.14013093122E+01  0.00000000000E+00 0. -1.
</event>
<event>
 7    1  0.2886681E-010  0.4778727E+02  0.7816164E-02  0.1312668E+00
        -11   -1    0    0    0    0  0.00000000000E+00  0.00000000000E+00  0.45593999997E+02  0.45594000000E+02  0.51100000000E-03 0. -1.
         11   -1    0    0    0    0 -0.00000000000E+00 -0.00000000000E+00 -0.45593999997E+02  0.45594000000E+02  0.51100000000E-03 0.  1.
    9900012    2    1    2    0    0  0.23158479159E+02  0.33503204592E+02  0.14994780997E+02  0.47787270374E+02  0.19999996943E+02 0.  0.
        -12    1    1    2    0    0 -0.23158479159E+02 -0.33503204592E+02 -0.14994780997E+02  0.43400729626E+02  0.00000000000E+00 0.  1.
         11    1    3    3    0    0  0.15998209451E+02  0.24876048933E+02  0.16468207996E+02  0.33852066274E+02  0.51100000000E-03 0. -1.
        -11    1    3    3    0    0 -0.10670637980E+01  0.40837324359E+01 -0.16582370771E+01  0.45348920850E+01  0.51100000000E-03 0.  1.
        -12    1    3    3    0    0  0.82273335065E+01  0.45434232229E+01  0.18481007764E+00  0.94003120147E+01  0.00000000000E+00 0.  1.
</event>
<event>
 7    1  0.2886681E-010  0.4778728E+02  0.7816164E-02  0.1312668E+00
        -11   -1    0    0    0    0  0.00000000000E+00  0.00000000000E+00  0.45593999997E+02  0.45594000000E+02  0.51100000000E-03 0.  1.
         11   -1    0    0    0    0 -0.00000000000E+00 -0.00000000000E+00 -0.45593999997E+02  0.45594000000E+02  0.51100000000E-03 0. -1.
    9900012    2    1    2    0    0  0.18494355110E+02  0.39260894163E+02 -0.40484794429E+00  0.47787275544E+02  0.20000020515E+02 0.  0.
        -12    1    1    2    0    0 -0.18494355110E+02 -0.39260894163E+02  0.40484794429E+00  0.43400724456E+02  0.00000000000E+00 0.  1.
         11    1    3    3    0    0  0.88685661016E+01  0.83590590099E+01  0.13043911295E+00  0.12187794996E+02  0.51100000000E-03 0. -1.
        -11    1    3    3    0    0  0.70254376264E+01  0.17143058352E+02 -0.74674921594E+01  0.19975101074E+02  0.51100000000E-03 0.  1.
        -12    1    3    3    0    0  0.26003513820E+01  0.13758776802E+02  0.69322051022E+01  0.15624379475E+02  0.00000000000E+00 0.  1.
</event>
<event>
 7    1  0.2886681E-010  0.4778723E+02  0.7816164E-02  0.1312668E+00
        -11   -1    0    0    0    0  0.00000000000E+00  0.00000000000E+00  0.45593999997E+02  0.45594000000E+02  0.51100000000E-03 0.  1.
         11   -1    0    0    0    0 -0.00000000000E+00 -0.00000000000E+00 -0.45593999997E+02  0.45594000000E+02  0.51100000000E-03 0. -1.
    9900012    2    1    2    0    0  0.23552763287E+02  0.22660026579E+02 -0.28555507828E+02  0.47787233989E+02  0.19999831048E+02 0.  0.
        -12    1    1    2    0    0 -0.23552763287E+02 -0.22660026579E+02  0.28555507828E+02  0.43400766011E+02  0.00000000000E+00 0.  1.
         11    1    3    3    0    0  0.10249191835E+01  0.89436271744E+01 -0.14882598417E+02  0.17393408587E+02  0.51100000000E-03 0. -1.
        -11    1    3    3    0    0  0.12165161340E+02  0.11016196757E+02 -0.88988571961E+01  0.18669156410E+02  0.51100000000E-03 0.  1.
         12    1    3    3    0    0  0.10362682764E+02  0.27002026471E+01 -0.47740522149E+01  0.11724668991E+02  0.00000000000E+00 0. -1.
</event>
<event>
 7    1  0.2886681E-010  0.4778726E+02  0.7816164E-02  0.1312668E+00
        -11   -1    0    0    0    0  0.00000000000E+00  0.00000000000E+00  0.45593999997E+02  0.45594000000E+02  0.51100000000E-03 0. -1.
         11   -1    0    0    0    0 -0.00000000000E+00 -0.00000000000E+00 -0.45593999997E+02  0.45594000000E+02  0.51100000000E-03 0.  1.
    9900012    2    1    2    0    0 -0.11679238094E+02  0.11912108776E+02  0.40066465227E+02  0.47787256070E+02  0.19999931724E+02 0.  0.
        -12    1    1    2    0    0  0.11679238094E+02 -0.11912108776E+02 -0.40066465227E+02  0.43400743930E+02  0.00000000000E+00 0.  1.
         11    1    3    3    0    0 -0.71454855203E+01 -0.19284488114E+01  0.98364349804E+01  0.12309846933E+02  0.51100000000E-03 0. -1.
        -11    1    3    3    0    0 -0.23688229546E+01 -0.12972290003E+01  0.19615831335E+01  0.33379535527E+01  0.51100000000E-03 0.  1.
         12    1    3    3    0    0 -0.21649296193E+01  0.15137786588E+02  0.28268447113E+02  0.32139455584E+02  0.00000000000E+00 0. -1.
</event>
<event>
 7    1  0.2886681E-010  0.4778727E+02  0.7816164E-02  0.1312668E+00
        -11   -1    0    0    0    0  0.00000000000E+00  0.00000000000E+00  0.45593999997E+02  0.45594000000E+02  0.51100000000E-03 0.  1.
         11   -1    0    0    0    0 -0.00000000000E+00 -0.00000000000E+00 -0.45593999997E+02  0.45594000000E+02  0.51100000000E-03 0. -1.
    9900012    2    1    2    0    0 -0.22207827290E+02  0.32024060519E+02 -0.19102234342E+02  0.47787269570E+02  0.19999993276E+02 0.  0.
        -12    1    1    2    0    0  0.22207827290E+02 -0.32024060519E+02  0.19102234342E+02  0.43400730430E+02  0.00000000000E+00 0.  1.
         11    1    3    3    0    0 -0.19427716321E+02  0.26438081421E+02 -0.90260173550E+01  0.34027596157E+02  0.51100000000E-03 0. -1.
        -11    1    3    3    0    0  0.22106198602E+01  0.54634384098E+00 -0.24982984266E+01  0.33803590118E+01  0.51100000000E-03 0.  1.
         12    1    3    3    0    0 -0.49907308294E+01  0.50396352566E+01 -0.75779185602E+01  0.10379314401E+02  0.00000000000E+00 0. -1.
</event>
<event>
 7    1  0.2886681E-010  0.4778727E+02  0.7816164E-02  0.1312668E+00
        -11   -1    0    0    0    0  0.00000000000E+00  0.00000000000E+00  0.45593999997E+02  0.45594000000E+02  0.51100000000E-03 0.  1.
         11   -1    0    0    0    0 -0.00000000000E+00 -0.00000000000E+00 -0.45593999997E+02  0.45594000000E+02  0.51100000000E-03 0. -1.
    9900012    2    1    2    0    0 -0.26036608236E+02 -0.10914899708E+02 -0.32963367509E+02  0.47787267269E+02  0.19999982785E+02 0.  0.
        -12    1    1    2    0    0  0.26036608236E+02  0.10914899708E+02  0.32963367509E+02  0.43400732731E+02  0.00000000000E+00 0.  1.
         11    1    3    3    0    0 -0.19116708466E+02 -0.69758056448E+01 -0.23134304225E+02  0.30810816919E+02  0.51100000000E-03 0. -1.
        -11    1    3    3    0    0  0.20773347027E+01 -0.43140527852E+01 -0.27471077330E+01  0.55202329714E+01  0.51100000000E-03 0.  1.
        -12    1    3    3    0    0 -0.89972344727E+01  0.37495872187E+00 -0.70819555511E+01  0.11456217379E+02  0.00000000000E+00 0.  1.
</event>
<event>
 7    1  0.2886681E-010  0.4778728E+02  0.7816164E-02  0.1312668E+00
        -11   -1    0    0    0    0  0.00000000000E+00  0.00000000000E+00  0.45593999997E+02  0.45594000000E+02  0.51100000000E-03 0. -1.
         11   -1    0    0    0    0 -0.00000000000E+00 -0.00000000000E+00 -0.45593999997E+02  0.45594000000E+02  0.51100000000E-03 0.  1.
    9900012    2    1    2    0    0 -0.20651665502E+02 -0.26674092009E+02  0.27306116214E+02  0.47787280476E+02  0.20000043002E+02 0.  0.
        -12    1    1    2    0    0  0.20651665502E+02  0.26674092009E+02 -0.27306116214E+02  0.43400719524E+02  0.00000000000E+00 0.  1.
         11    1    3    3    0    0 -0.14087042596E+02 -0.12390774424E+02  0.67781141369E+01  0.19947904438E+02  0.51100000000E-03 0. -1.
        -11    1    3    3    0    0 -0.11938833780E+01 -0.28794289351E+01  0.12527514154E+02  0.12909495717E+02  0.51100000000E-03 0.  1.
        -12    1    3    3    0    0 -0.53707395273E+01 -0.11403888650E+02  0.80004879233E+01  0.14929880322E+02  0.00000000000E+00 0.  1.
</event>
<event>
 7    1  0.2886681E-010  0.4778727E+02  0.7816164E-02  0.1312668E+00
        -11   -1    0    0    0    0  0.00000000000E+00  0.00000000000E+00  0.45593999997E+02  0.45594000000E+02  0.51100000000E-03 0.  1.
         11   -1    0    0    0    0 -0.00000000000E+00 -0.00000000000E+00 -0.45593999997E+02  0.45594000000E+02  0.51100000000E-03 0. -1.
    9900012    2    1    2    0    0  0.21241787132E+02  0.32982700173E+02 -0.18562090873E+02  0.47787271333E+02  0.20000001315E+02 0.  0.
        -12    1    1    2    0    0 -0.21241787132E+02 -0.32982700173E+02  0.18562090873E+02  0.43400728667E+02  0.00000000000E+00 0.  1.
         11    1    3    3    0    0  0.12315153279E+02  0.19382389033E+02 -0.20623387281E+02  0.30865257299E+02  0.51100000000E-03 0. -1.
        -11    1    3    3    0    0  0.70197619179E+01  0.75801397083E+01  0.23695431876E+01  0.10599542941E+02  0.51100000000E-03 0.  1.
         12    1    3    3    0    0  0.19068719353E+01  0.60201714313E+01 -0.30824677930E+00  0.63224710926E+01  0.00000000000E+00 0. -1.
</event>
<event>
 7    1  0.2886681E-010  0.4778727E+02  0.7816164E-02  0.1312668E+00
        -11   -1    0    0    0    0  0.00000000000E+00  0.00000000000E+00  0.45593999997E+02  0.45594000000E+02  0.51100000000E-03 0. -1.
         11   -1    0    0    0    0 -0.00000000000E+00 -0.00000000000E+00 -0.45593999997E+02  0.45594000000E+02  0.51100000000E-03 0.  1.
    9900012    2    1    2    0    0 -0.24291934446E+02 -0.23173466261E+02  0.27504838193E+02  0.47787265655E+02  0.19999975425E+02 0.  0.
        -12    1    1    2    0    0  0.24291934446E+02  0.23173466261E+02 -0.27504838193E+02  0.43400734345E+02  0.00000000000E+00 0.  1.
         11    1    3    3    0    0 -0.48086501874E+01 -0.10194350698E+02  0.65995574531E+00  0.11290856682E+02  0.51100000000E-03 0. -1.
        -11    1    3    3    0    0 -0.14230578708E+02 -0.11753620702E+02  0.24347477882E+02  0.30552522800E+02  0.51100000000E-03 0.  1.
        -12    1    3    3    0    0 -0.52527055510E+01 -0.12254948611E+01  0.24974045656E+01  0.59438861719E+01  0.00000000000E+00 0.  1.
</event>
<event>
 7    1  0.2886681E-010  0.4778727E+02  0.7816164E-02  0.1312668E+00
        -11   -1    0    0    0    0  0.00000000000E+00  0.00000000000E+00  0.45593999997E+02  0.45594000000E+02  0.51100000000E-03 0.  1.
         11   -1    0    0    0    0 -0.00000000000E+00 -0.00000000000E+00 -0.45593999997E+02  0.45594000000E+02  0.51100000000E-03 0. -1.
    9900012    2    1    2    0    0  0.23478088497E+02 -0.36153213573E+02 -0.50347037506E+01  0.47787265755E+02  0.19999975885E+02 0.  0.
        -12    1    1    2    0    0 -0.23478088497E+02  0.36153213573E+02  0.50347037506E+01  0.43400734245E+02  0.00000000000E+00 0.  1.
         11    1    3    3    0    0  0.46724186874E+01 -0.82611694397E+01  0.53984171519E+01  0.10918851813E+02  0.51100000000E-03 0. -1.
        -11    1    3    3    0    0  0.16569419015E+02 -0.25977076631E+02 -0.57602571141E+01  0.31345409856E+02  0.51100000000E-03 0.  1.
        -12    1    3    3    0    0  0.22362507952E+01 -0.19149675023E+01 -0.46728637884E+01  0.55230040864E+01  0.00000000000E+00 0.  1.
</event>
<event>
 7    1  0.2886681E-010  0.4778725E+02  0.7816164E-02  0.1312668E+00
        -11   -1    0    0    0    0  0.00000000000E+00  0.00000000000E+00  0.45593999997E+02  0.45594000000E+02  0.51100000000E-03 0.  1.
         11   -1    0    0    0    0 -0.00000000000E+00 -0.00000000000E+00 -0.45593999997E+02  0.45594000000E+02  0.51100000000E-03 0. -1.
    9900012    2    1    2    0    0  0.27354207001E+02  0.66157717612E+01 -0.33039430281E+02  0.47787250814E+02  0.19999907759E+02 0.  0.
        -12    1    1    2    0    0 -0.27354207001E+02 -0.66157717612E+01  0.33039430281E+02  0.43400749186E+02  0.00000000000E+00 0.  1.
         11    1    3    3    0    0  0.18324299255E+01  0.17305249743E+01  0.20691305276E+01  0.32609534679E+01  0.51100000000E-03 0. -1.
        -11    1    3    3    0    0  0.66634172772E+01  0.43118922393E+01 -0.65113880042E+01  0.10266046878E+02  0.51100000000E-03 0.  1.
         12    1    3    3    0    0  0.18858359798E+02  0.57335454761E+00 -0.28597172804E+02  0.34260250468E+02  0.00000000000E+00 0. -1.
</event>
<event>
 7    1  0.2886681E-010  0.4778727E+02  0.7816164E-02  0.1312668E+00
        -11   -1    0    0    0    0  0.00000000000E+00  0.00000000000E+00  0.45593999997E+02  0.45594000000E+02  0.51100000000E-03 0. -1.
         11   -1    0    0    0    0 -0.00000000000E+00 -0.00000000000E+00 -0.45593999997E+02  0.45594000000E+02  0.51100000000E-03 0.  1.
    9900012    2    1    2    0    0  0.25671567794E+02 -0.22417745360E+02  0.26870776676E+02  0.47787270292E+02  0.19999996568E+02 0.  0.
        -12    1    1    2    0    0 -0.25671567794E+02  0.22417745360E+02 -0.26870776676E+02  0.43400729708E+02  0.00000000000E+00 0.  1.
         11    1    3    3    0    0  0.16076094189E+02 -0.23739959703E+02  0.20255312510E+02  0.35104190294E+02  0.51100000000E-03 0. -1.
        -11    1    3    3    0    0  0.85169775220E+01 -0.44793948193E+00  0.62610285778E+01  0.10580171785E+02  0.51100000000E-03 0.  1.
         12    1    3    3    0    0  0.10784960832E+01  0.17701538247E+01  0.35443558816E+00  0.21029082126E+01  0.00000000000E+00 0. -1.
</event>
<event>
 7    1  0.2886681E-010  0.4778727E+02  0.7816164E-02  0.1312668E+00
        -11   -1    0    0    0    0  0.00000000000E+00  0.00000000000E+00  0.45593999997E+02  0.45594000000E+02  0.51100000000E-03 0.  1.
         11   -1    0    0    0    0 -0.00000000000E+00 -0.00000000000E+00 -0.45593999997E+02  0.45594000000E+02  0.51100000000E-03 0. -1.
    9900012    2    1    2    0    0  0.21106862276E+02  0.25926347935E+02 -0.27675769141E+02  0.47787270168E+02  0.19999996005E+02 0.  0.
        -12    1    1    2    0    0 -0.21106862276E+02 -0.25926347935E+02  0.27675769141E+02  0.43400729832E+02  0.00000000000E+00 0.  1.
         11    1    3    3    0    0  0.20402777983E+02  0.19736294931E+02 -0.22639433558E+02  0.36308933324E+02  0.51100000000E-03 0. -1.
        -11    1    3    3    0    0  0.37496875418E+01  0.18873909212E+01 -0.14810325565E-01  0.41979305327E+01  0.51100000000E-03 0.  1.
         12    1    3    3    0    0 -0.30456032490E+01  0.43026620828E+01 -0.50215252576E+01  0.72804063116E+01  0.00000000000E+00 0. -1.
</event>
<event>
 7    1  0.2886681E-010  0.4778727E+02  0.7816164E-02  0.1312668E+00
        -11   -1    0    0    0    0  0.00000000000E+00  0.00000000000E+00  0.45593999997E+02  0.45594000000E+02  0.51100000000E-03 0. -1.
         11   -1    0    0    0    0 -0.00000000000E+00 -0.00000000000E+00 -0.45593999997E+02  0.45594000000E+02  0.51100000000E-03 0.  1.
    9900012    2    1    2    0    0  0.13693965970E+02  0.76811384885E+01  0.40461074148E+02  0.47787272890E+02  0.20000008414E+02 0.  0.
        -12    1    1    2    0    0 -0.13693965970E+02 -0.76811384885E+01 -0.40461074148E+02  0.43400727110E+02  0.00000000000E+00 0.  1.
         11    1    3    3    0    0  0.11245064748E+02 -0.22787925625E+01  0.27004428075E+02  0.29340816496E+02  0.51100000000E-03 0. -1.
        -11    1    3    3    0    0 -0.21808235433E+01  0.51546076941E+01  0.83119342072E+01  0.10020689713E+02  0.51100000000E-03 0.  1.
         12    1    3    3    0    0  0.46297247657E+01  0.48053233569E+01  0.51447118655E+01  0.84257666802E+01  0.00000000000E+00 0. -1.
</event>
<event>
 7    1  0.2886681E-010  0.4778731E+02  0.7816164E-02  0.1312668E+00
        -11   -1    0    0    0    0  0.00000000000E+00  0.00000000000E+00  0.45593999997E+02  0.45594000000E+02  0.51100000000E-03 0.  1.
         11   -1    0    0    0    0 -0.00000000000E+00 -0.00000000000E+00 -0.45593999997E+02  0.45594000000E+02  0.51100000000E-03 0. -1.
    9900012    2    1    2    0    0 -0.33544626782E+02  0.11982384272E+02 -0.24795175740E+02  0.47787305780E+02  0.20000158371E+02 0.  0.
        -12    1    1    2    0    0  0.33544626782E+02 -0.11982384272E+02  0.24795175740E+02  0.43400694220E+02  0.00000000000E+00 0.  1.
         11    1    3    3    0    0 -0.22220278883E+02 -0.10960059696E+00 -0.15696875632E+02  0.27205600725E+02  0.51100000000E-03 0. -1.
        -11    1    3    3    0    0 -0.36720731859E+01  0.92201289152E+01 -0.29488698454E+01  0.10353295723E+02  0.51100000000E-03 0.  1.
        -12    1    3    3    0    0 -0.76522747135E+01  0.28718559537E+01 -0.61494302625E+01  0.10228409332E+02  0.00000000000E+00 0.  1.
</event>
<event>
 7    1  0.2886681E-010  0.4778727E+02  0.7816164E-02  0.1312668E+00
        -11   -1    0    0    0    0  0.00000000000E+00  0.00000000000E+00  0.45593999997E+02  0.45594000000E+02  0.51100000000E-03 0. -1.
         11   -1    0    0    0    0 -0.00000000000E+00 -0.00000000000E+00 -0.45593999997E+02  0.45594000000E+02  0.51100000000E-03 0.  1.
    9900012    2    1    2    0    0  0.85113146230E+01 -0.19444867443E+02  0.37856019269E+02  0.47787267963E+02  0.19999985948E+02 0.  0.
        -12    1    1    2    0    0 -0.85113146230E+01  0.19444867443E+02 -0.37856019269E+02  0.43400732037E+02  0.00000000000E+00 0.  1.
         11    1    3    3    0    0 -0.78813039367E+00 -0.70848265682E+01  0.19141976407E+02  0.20426237491E+02  0.51100000000E-03 0. -1.
        -11    1    3    3    0    0  0.11195780959E+02 -0.50532101004E+01  0.10059609151E+02  0.15876907134E+02  0.51100000000E-03 0.  1.
        -12    1    3    3    0    0 -0.18963359426E+01 -0.73068307741E+01  0.86544337109E+01  0.11484123337E+02  0.00000000000E+00 0.  1.
</event>
<event>
 7    1  0.2886681E-010  0.4778730E+02  0.7816164E-02  0.1312668E+00
        -11   -1    0    0    0    0  0.00000000000E+00  0.00000000000E+00  0.45593999997E+02  0.45594000000E+02  0.51100000000E-03 0.  1.
         11   -1    0    0    0    0 -0.00000000000E+00 -0.00000000000E+00 -0.45593999997E+02  0.45594000000E+02  0.51100000000E-03 0. -1.
    9900012    2    1    2    0    0 -0.18656057334E+02  0.52559919964E+01 -0.38832294215E+02  0.47787297228E+02  0.20000119382E+02 0.  0.
        -12    1    1    2    0    0  0.18656057334E+02 -0.52559919964E+01  0.38832294215E+02  0.43400702772E+02  0.00000000000E+00 0.  1.
         11    1    3    3    0    0 -0.14116101237E+01 -0.59504351661E+01 -0.11848058063E+02  0.13333296739E+02  0.51100000000E-03 0. -1.
        -11    1    3    3    0    0 -0.10761471562E+02  0.75874996791E+01 -0.12392088191E+02  0.18081572707E+02  0.51100000000E-03 0.  1.
        -12    1    3    3    0    0 -0.64829756484E+01  0.36189274834E+01 -0.14592147961E+02  0.16372427783E+02  0.00000000000E+00 0.  1.
</event>
<event>
 7    1  0.2886681E-010  0.4778728E+02  0.7816164E-02  0.1312668E+00
        -11   -1    0    0    0    0  0.00000000000E+00  0.00000000000E+00  0.45593999997E+02  0.45594000000E+02  0.51100000000E-03 0. -1.
         11   -1    0    0    0    0 -0.00000000000E+00 -0.00000000000E+00 -0.45593999997E+02  0.45594000000E+02  0.51100000000E-03 0.  1.
    9900012    2    1    2    0    0  0.23383981643E+01  0.78674851558E+01  0.42617563399E+02  0.47787284122E+02  0.20000059624E+02 0.  0.
        -12    1    1    2    0    0 -0.23383981643E+01 -0.78674851558E+01 -0.42617563399E+02  0.43400715878E+02  0.00000000000E+00 0.  1.
         11    1    3    3    0    0  0.51991854252E+01  0.63124491072E+01  0.40606996150E+02  0.41422296887E+02  0.51100000000E-03 0. -1.
        -11    1    3    3    0    0 -0.16629644187E+01 -0.18142161140E+01  0.73551662070E+00  0.25686213669E+01  0.51100000000E-03 0.  1.
         12    1    3    3    0    0 -0.11978228422E+01  0.33692521627E+01  0.12750506288E+01  0.37963658679E+01  0.00000000000E+00 0. -1.
</event>
<event>
 7    1  0.2886681E-010  0.4778727E+02  0.7816164E-02  0.1312668E+00
        -11   -1    0    0    0    0  0.00000000000E+00  0.00000000000E+00  0.45593999997E+02  0.45594000000E+02  0.51100000000E-03 0.  1.
         11   -1    0    0    0    0 -0.00000000000E+00 -0.00000000000E+00 -0.45593999997E+02  0.45594000000E+02  0.51100000000E-03 0. -1.
    9900012    2    1    2    0    0  0.41622169877E+02 -0.12278687397E+02  0.67240911972E+00  0.47787270473E+02  0.19999997395E+02 0.  0.
        -12    1    1    2    0    0 -0.41622169877E+02  0.12278687397E+02 -0.67240911972E+00  0.43400729527E+02  0.00000000000E+00 0.  1.
         11    1    3    3    0    0  0.42258077835E+01 -0.11653824831E+01 -0.13000917101E+01  0.45722867879E+01  0.51100000000E-03 0. -1.
        -11    1    3    3    0    0  0.55212701806E+01  0.23373366176E+01 -0.51368544933E+01  0.78952416820E+01  0.51100000000E-03 0.  1.
        -12    1    3    3    0    0  0.31875091913E+02 -0.13450641531E+02  0.71093553231E+01  0.35319742003E+02  0.00000000000E+00 0.  1.
</event>
<event>
 7    1  0.2886681E-010  0.4778726E+02  0.7816164E-02  0.1312668E+00
        -11   -1    0    0    0    0  0.00000000000E+00  0.00000000000E+00  0.45593999997E+02  0.45594000000E+02  0.51100000000E-03 0.  1.
         11   -1    0    0    0    0 -0.00000000000E+00 -0.00000000000E+00 -0.45593999997E+02  0.45594000000E+02  0.51100000000E-03 0. -1.
    9900012    2    1    2    0    0 -0.11685856972E+02  0.56148065717E+01 -0.41419064824E+02  0.47787259950E+02  0.19999949415E+02 0.  0.
        -12    1    1    2    0    0  0.11685856972E+02 -0.56148065717E+01  0.41419064824E+02  0.43400740050E+02  0.00000000000E+00 0.  1.
         11    1    3    3    0    0 -0.10281973832E+02  0.53926251217E+01 -0.11725572225E+02  0.16501164682E+02  0.51100000000E-03 0. -1.
        -11    1    3    3    0    0  0.51901061081E+00 -0.29142381484E+01 -0.25874954065E+01  0.39315758595E+01  0.51100000000E-03 0.  1.
         12    1    3    3    0    0 -0.19228937509E+01  0.31364195984E+01 -0.27105997192E+02  0.27354519408E+02  0.00000000000E+00 0. -1.
</event>
<event>
 7    1  0.2886681E-010  0.4778726E+02  0.7816164E-02  0.1312668E+00
        -11   -1    0    0    0    0  0.00000000000E+00  0.00000000000E+00  0.45593999997E+02  0.45594000000E+02  0.51100000000E-03 0. -1.
         11   -1    0    0    0    0 -0.00000000000E+00 -0.00000000000E+00 -0.45593999997E+02  0.45594000000E+02  0.51100000000E-03 0.  1.
    9900012    2    1    2    0    0 -0.29815131441E+02 -0.25483016115E+02  0.18582189647E+02  0.47787263310E+02  0.19999964737E+02 0.  0.
        -12    1    1    2    0    0  0.29815131441E+02  0.25483016115E+02 -0.18582189647E+02  0.43400736690E+02  0.00000000000E+00 0.  1.
         11    1    3    3    0    0 -0.70820142034E+01 -0.39909073571E+01 -0.26407581612E+01  0.85472727017E+01  0.51100000000E-03 0. -1.
        -11    1    3    3    0    0 -0.16694624701E+02 -0.19784627309E+02  0.13211611488E+02  0.29063527832E+02  0.51100000000E-03 0.  1.
        -12    1    3    3    0    0 -0.60384925364E+01 -0.17074814487E+01  0.80113363204E+01  0.10176462777E+02  0.00000000000E+00 0.  1.
</event>
<event>
 7    1  0.2886681E-010  0.4778727E+02  0.7816164E-02  0.1312668E+00
        -11   -1    0    0    0    0  0.00000000000E+00  0.00000000000E+00  0.45593999997E+02  0.45594000000E+02  0.51100000000E-03 0.  1.
         11   -1    0    0    0    0 -0.00000000000E+00 -0.00000000000E+00 -0.45593999997E+02  0.45594000000E+02  0.51100000000E-03 0. -1.
    9900012    2    1    2    0    0  0.27516081544E+02 -0.31902887700E+02 -0.10425665295E+02  0.47787268625E+02  0.19999988967E+02 0.  0.
        -12    1    1    2    0    0 -0.27516081544E+02  0.31902887700E+02  0.10425665295E+02  0.43400731375E+02  0.00000000000E+00 0.  1.
         11    1    3    3    0    0  0.12410902905E+02 -0.22231309284E+02  0.17629167364E+01  0.25521941523E+02  0.51100000000E-03 0. -1.
        -11    1    3    3    0    0  0.42294952047E+01 -0.25064030652E+00 -0.30354876713E+01  0.52120663765E+01  0.51100000000E-03 0.  1.
         12    1    3    3    0    0  0.10875683434E+02 -0.94209381089E+01 -0.91530943598E+01  0.17053260725E+02  0.00000000000E+00 0. -1.
</event>
<event>
 7    1  0.2886681E-010  0.4778727E+02  0.7816164E-02  0.1312668E+00
        -11   -1    0    0    0    0  0.00000000000E+00  0.00000000000E+00  0.45593999997E+02  0.45594000000E+02  0.51100000000E-03 0.  1.
         11   -1    0    0    0    0 -0.00000000000E+00 -0.00000000000E+00 -0.45593999997E+02  0.45594000000E+02  0.51100000000E-03 0. -1.
    9900012    2    1    2    0    0 -0.41150446184E+02  0.13064526595E+02 -0.44251597399E+01  0.47787272875E+02  0.20000008346E+02 0.  0.
        -12    1    1    2    0    0  0.41150446184E+02 -0.13064526595E+02  0.44251597399E+01  0.43400727125E+02  0.00000000000E+00 0.  1.
         11    1    3    3    0    0 -0.18535284892E+02  0.13959396613E+00 -0.77540210582E+01  0.20092314833E+02  0.51100000000E-03 0. -1.
        -11    1    3    3    0    0  0.20346944979E+00 -0.30155169233E+00  0.11776768574E+01  0.12325811461E+01  0.51100000000E-03 0.  1.
         12    1    3    3    0    0 -0.22818630741E+02  0.13226484321E+02  0.21511844609E+01  0.26462376896E+02  0.00000000000E+00 0. -1.
</event>
<event>
 7    1  0.2886681E-010  0.4778727E+02  0.7816164E-02  0.1312668E+00
        -11   -1    0    0    0    0  0.00000000000E+00  0.00000000000E+00  0.45593999997E+02  0.45594000000E+02  0.51100000000E-03 0.  1.
         11   -1    0    0    0    0 -0.00000000000E+00 -0.00000000000E+00 -0.45593999997E+02  0.45594000000E+02  0.51100000000E-03 0. -1.
    9900012    2    1    2    0    0 -0.32856740760E+02  0.15461915542E+02 -0.23769450466E+02  0.47787273957E+02  0.20000013281E+02 0.  0.
        -12    1    1    2    0    0  0.32856740760E+02 -0.15461915542E+02  0.23769450466E+02  0.43400726043E+02  0.00000000000E+00 0.  1.
         11    1    3    3    0    0 -0.47249162484E+01  0.71065303349E+01 -0.10836876966E+02  0.13793676435E+02  0.51100000000E-03 0. -1.
        -11    1    3    3    0    0 -0.28394581371E+02  0.62792449319E+01 -0.13098381802E+02  0.31894337652E+02  0.51100000000E-03 0.  1.
        -12    1    3    3    0    0  0.26275686003E+00  0.20761402747E+01  0.16580830230E+00  0.20992598698E+01  0.00000000000E+00 0.  1.
</event>
<event>
 7    1  0.2886681E-010  0.4778724E+02  0.7816164E-02  0.1312668E+00
        -11   -1    0    0    0    0  0.00000000000E+00  0.00000000000E+00  0.45593999997E+02  0.45594000000E+02  0.51100000000E-03 0.  1.
         11   -1    0    0    0    0 -0.00000000000E+00 -0.00000000000E+00 -0.45593999997E+02  0.45594000000E+02  0.51100000000E-03 0. -1.
    9900012    2    1    2    0    0 -0.26253490366E+02 -0.25588545561E+02 -0.23229423751E+02  0.47787244844E+02  0.19999880540E+02 0.  0.
        -12    1    1    2    0    0  0.26253490366E+02  0.25588545561E+02  0.23229423751E+02  0.43400755156E+02  0.00000000000E+00 0.  1.
         11    1    3    3    0    0 -0.81845445783E+01  0.78706488874E+00 -0.10535413989E+02  0.13364175593E+02  0.51100000000E-03 0.  1.
        -11    1    3    3    0    0 -0.11598664290E+02 -0.16758405930E+02 -0.87452400704E+01  0.22177745755E+02  0.51100000000E-03 0. -1.
        -12    1    3    3    0    0 -0.64702814981E+01 -0.96172045198E+01 -0.39487696914E+01  0.12245323496E+02  0.00000000000E+00 0.  1.
</event>
<event>
 7    1  0.2886681E-010  0.4778727E+02  0.7816164E-02  0.1312668E+00
        -11   -1    0    0    0    0  0.00000000000E+00  0.00000000000E+00  0.45593999997E+02  0.45594000000E+02  0.51100000000E-03 0. -1.
         11   -1    0    0    0    0 -0.00000000000E+00 -0.00000000000E+00 -0.45593999997E+02  0.45594000000E+02  0.51100000000E-03 0.  1.
    9900012    2    1    2    0    0 -0.23270350830E+02  0.73154786575E+01  0.35897047047E+02  0.47787269103E+02  0.19999991148E+02 0.  0.
        -12    1    1    2    0    0  0.23270350830E+02 -0.73154786575E+01 -0.35897047047E+02  0.43400730897E+02  0.00000000000E+00 0.  1.
         11    1    3    3    0    0 -0.11175899727E+02  0.85831772925E+01  0.22262987554E+02  0.26347908498E+02  0.51100000000E-03 0. -1.
        -11    1    3    3    0    0 -0.11210568565E+01 -0.13469441112E+01 -0.17932106875E+01  0.25073156453E+01  0.51100000000E-03 0.  1.
        -12    1    3    3    0    0 -0.10973394246E+02  0.79245476212E-01  0.15427270180E+02  0.18932044960E+02  0.00000000000E+00 0.  1.
</event>
<event>
 7    1  0.2886681E-010  0.4778727E+02  0.7816164E-02  0.1312668E+00
        -11   -1    0    0    0    0  0.00000000000E+00  0.00000000000E+00  0.45593999997E+02  0.45594000000E+02  0.51100000000E-03 0.  1.
         11   -1    0    0    0    0 -0.00000000000E+00 -0.00000000000E+00 -0.45593999997E+02  0.45594000000E+02  0.51100000000E-03 0. -1.
    9900012    2    1    2    0    0 -0.34549006413E+02 -0.24499315318E+02  0.94748449167E+01  0.47787274414E+02  0.20000015365E+02 0.  0.
        -12    1    1    2    0    0  0.34549006413E+02  0.24499315318E+02 -0.94748449167E+01  0.43400725586E+02  0.00000000000E+00 0.  1.
         11    1    3    3    0    0 -0.57341546204E+01 -0.59916280457E+01  0.22019834985E+00  0.82963017919E+01  0.51100000000E-03 0. -1.
        -11    1    3    3    0    0 -0.59937033293E+01 -0.15810037274E+01 -0.47541344259E+01  0.78119041716E+01  0.51100000000E-03 0.  1.
        -12    1    3    3    0    0 -0.22821148463E+02 -0.16926683545E+02  0.14008780993E+02  0.31679068451E+02  0.00000000000E+00 0.  1.
</event>
<event>
 7    1  0.2886681E-010  0.4778727E+02  0.7816164E-02  0.1312668E+00
        -11   -1    0    0    0    0  0.00000000000E+00  0.00000000000E+00  0.45593999997E+02  0.45594000000E+02  0.51100000000E-03 0. -1.
         11   -1    0    0    0    0 -0.00000000000E+00 -0.00000000000E+00 -0.45593999997E+02  0.45594000000E+02  0.51100000000E-03 0.  1.
    9900012    2    1    2    0    0 -0.28245447032E+02 -0.28109130080E+02  0.17195773528E+02  0.47787273058E+02  0.20000009180E+02 0.  0.
        -12    1    1    2    0    0  0.28245447032E+02  0.28109130080E+02 -0.17195773528E+02  0.43400726942E+02  0.00000000000E+00 0.  1.
         11    1    3    3    0    0 -0.14754489663E+02 -0.15710514386E+02  0.11244890643E+02  0.24309726311E+02  0.51100000000E-03 0. -1.
        -11    1    3    3    0    0 -0.74418526961E+01  0.14552870913E+01  0.23346152216E+01  0.79340696091E+01  0.51100000000E-03 0.  1.
        -12    1    3    3    0    0 -0.60491046734E+01 -0.13853902785E+02  0.36162676631E+01  0.15543477138E+02  0.00000000000E+00 0.  1.
</event>
<event>
 7    1  0.2886681E-010  0.4778727E+02  0.7816164E-02  0.1312668E+00
        -11   -1    0    0    0    0  0.00000000000E+00  0.00000000000E+00  0.45593999997E+02  0.45594000000E+02  0.51100000000E-03 0.  1.
         11   -1    0    0    0    0 -0.00000000000E+00 -0.00000000000E+00 -0.45593999997E+02  0.45594000000E+02  0.51100000000E-03 0. -1.
    9900012    2    1    2    0    0  0.68437943636E+01  0.87958393481E+01 -0.41945428243E+02  0.47787271186E+02  0.20000000645E+02 0.  0.
        -12    1    1    2    0    0 -0.68437943636E+01 -0.87958393481E+01  0.41945428243E+02  0.43400728814E+02  0.00000000000E+00 0.  1.
         11    1    3    3    0    0  0.74385812193E+01  0.42464050132E+00 -0.30856226941E+02  0.31743023665E+02  0.51100000000E-03 0. -1.
        -11    1    3    3    0    0  0.86751311749E+00  0.95064907654E+01 -0.10265258281E+02  0.14017898327E+02  0.51100000000E-03 0.  1.
        -12    1    3    3    0    0 -0.14622999732E+01 -0.11352919186E+01 -0.82394302132E+00  0.20263491936E+01  0.00000000000E+00 0.  1.
</event>
<event>
 7    1  0.2886681E-010  0.4778727E+02  0.7816164E-02  0.1312668E+00
        -11   -1    0    0    0    0  0.00000000000E+00  0.00000000000E+00  0.45593999997E+02  0.45594000000E+02  0.51100000000E-03 0. -1.
         11   -1    0    0    0    0 -0.00000000000E+00 -0.00000000000E+00 -0.45593999997E+02  0.45594000000E+02  0.51100000000E-03 0.  1.
    9900012    2    1    2    0    0 -0.40598767208E+01  0.34676155045E+02  0.25781872335E+02  0.47787271103E+02  0.20000000267E+02 0.  0.
        -12    1    1    2    0    0  0.40598767208E+01 -0.34676155045E+02 -0.25781872335E+02  0.43400728897E+02  0.00000000000E+00 0.  1.
         11    1    3    3    0    0 -0.24577253343E+01  0.21203316541E+02  0.11518228795E+02  0.24254703482E+02  0.51100000000E-03 0. -1.
        -11    1    3    3    0    0  0.26619742553E+01  0.57922076521E+01  0.13231762917E+02  0.14687250477E+02  0.51100000000E-03 0.  1.
        -12    1    3    3    0    0 -0.42641256417E+01  0.76806308512E+01  0.10318806242E+01  0.88453171444E+01  0.00000000000E+00 0.  1.
</event>
<event>
 7    1  0.2886681E-010  0.4778727E+02  0.7816164E-02  0.1312668E+00
        -11   -1    0    0    0    0  0.00000000000E+00  0.00000000000E+00  0.45593999997E+02  0.45594000000E+02  0.51100000000E-03 0. -1.
         11   -1    0    0    0    0 -0.00000000000E+00 -0.00000000000E+00 -0.45593999997E+02  0.45594000000E+02  0.51100000000E-03 0.  1.
    9900012    2    1    2    0    0 -0.32350985940E+02 -0.28618485881E+02  0.42449078585E+01  0.47787271110E+02  0.20000000299E+02 0.  0.
        -12    1    1    2    0    0  0.32350985940E+02  0.28618485881E+02 -0.42449078585E+01  0.43400728890E+02  0.00000000000E+00 0.  1.
         11    1    3    3    0    0 -0.93843159932E+01 -0.12120916295E+02  0.51269312953E+00  0.15337693862E+02  0.51100000000E-03 0.  1.
        -11    1    3    3    0    0 -0.21384610344E+02 -0.18167426939E+02  0.65478793383E+01  0.28813741257E+02  0.51100000000E-03 0. -1.
        -12    1    3    3    0    0 -0.15820596031E+01  0.16698573522E+01 -0.28156646093E+01  0.36358359914E+01  0.00000000000E+00 0.  1.
</event>
<event>
 7    1  0.2886681E-010  0.4778727E+02  0.7816164E-02  0.1312668E+00
        -11   -1    0    0    0    0  0.00000000000E+00  0.00000000000E+00  0.45593999997E+02  0.45594000000E+02  0.51100000000E-03 0.  1.
         11   -1    0    0    0    0 -0.00000000000E+00 -0.00000000000E+00 -0.45593999997E+02  0.45594000000E+02  0.51100000000E-03 0. -1.
    9900012    2    1    2    0    0 -0.17441250081E+02 -0.38577824330E+02 -0.95486914571E+01  0.47787271400E+02  0.20000001623E+02 0.  0.
        -12    1    1    2    0    0  0.17441250081E+02  0.38577824330E+02  0.95486914571E+01  0.43400728600E+02  0.00000000000E+00 0.  1.
         11    1    3    3    0    0 -0.76783255239E+01 -0.19353945950E+02 -0.40157201730E+01  0.21205138892E+02  0.51100000000E-03 0. -1.
        -11    1    3    3    0    0 -0.22647174664E+01 -0.79924110109E+01 -0.93905703486E+01  0.12537559200E+02  0.51100000000E-03 0.  1.
        -12    1    3    3    0    0 -0.74982070908E+01 -0.11231467369E+02  0.38575990645E+01  0.14044573308E+02  0.00000000000E+00 0.  1.
</event>
<event>
 7    1  0.3436241E-010  0.4778727E+02  0.7816164E-02  0.1312668E+00
        -11   -1    0    0    0    0  0.00000000000E+00  0.00000000000E+00  0.45593999997E+02  0.45594000000E+02  0.51100000000E-03 0.  1.
         11   -1    0    0    0    0 -0.00000000000E+00 -0.00000000000E+00 -0.45593999997E+02  0.45594000000E+02  0.51100000000E-03 0. -1.
    9900012    2    1    2    0    0  0.28881554164E+02 -0.21118126948E+02 -0.24566316445E+02  0.47787270047E+02  0.19999995453E+02 0.  0.
        -12    1    1    2    0    0 -0.28881554164E+02  0.21118126948E+02  0.24566316445E+02  0.43400729953E+02  0.00000000000E+00 0.  1.
         11    1    3    3    0    0  0.15753505902E+02 -0.18543432680E+02 -0.16363709465E+02  0.29322394709E+02  0.51100000000E-03 0. -1.
        -11    1    3    3    0    0 -0.11286414533E+01  0.33556991204E+00  0.73540422680E+00  0.13882573010E+01  0.51100000000E-03 0.  1.
         12    1    3    3    0    0  0.14256689716E+02 -0.29102641804E+01 -0.89380112067E+01  0.17076618037E+02  0.00000000000E+00 0. -1.
</event>
<event>
 7    1  0.2886681E-010  0.4778727E+02  0.7816164E-02  0.1312668E+00
        -11   -1    0    0    0    0  0.00000000000E+00  0.00000000000E+00  0.45593999997E+02  0.45594000000E+02  0.51100000000E-03 0.  1.
         11   -1    0    0    0    0 -0.00000000000E+00 -0.00000000000E+00 -0.45593999997E+02  0.45594000000E+02  0.51100000000E-03 0. -1.
    9900012    2    1    2    0    0  0.28143738452E+02 -0.28282637649E+02 -0.17077639415E+02  0.47787269886E+02  0.19999994716E+02 0.  0.
        -12    1    1    2    0    0 -0.28143738452E+02  0.28282637649E+02  0.17077639415E+02  0.43400730114E+02  0.00000000000E+00 0.  1.
         11    1    3    3    0    0  0.16884787879E+01 -0.33389767337E+01 -0.85121462058E+01  0.92981911969E+01  0.51100000000E-03 0. -1.
        -11    1    3    3    0    0  0.13835435289E+02 -0.17685231693E+02 -0.20759790535E+01  0.22549864278E+02  0.51100000000E-03 0.  1.
        -12    1    3    3    0    0  0.12619824376E+02 -0.72584292230E+01 -0.64895141558E+01  0.15939214411E+02  0.00000000000E+00 0.  1.
</event>
<event>
 7    1  0.2886681E-010  0.4778727E+02  0.7816164E-02  0.1312668E+00
        -11   -1    0    0    0    0  0.00000000000E+00  0.00000000000E+00  0.45593999997E+02  0.45594000000E+02  0.51100000000E-03 0.  1.
         11   -1    0    0    0    0 -0.00000000000E+00 -0.00000000000E+00 -0.45593999997E+02  0.45594000000E+02  0.51100000000E-03 0. -1.
    9900012    2    1    2    0    0 -0.37729624770E+02  0.95654899214E+01  0.19198958493E+02  0.47787272011E+02  0.20000004407E+02 0.  0.
        -12    1    1    2    0    0  0.37729624770E+02 -0.95654899214E+01 -0.19198958493E+02  0.43400727989E+02  0.00000000000E+00 0.  1.
         11    1    3    3    0    0 -0.19114135545E+02  0.28868492201E+01  0.77903848884E+01  0.20841645161E+02  0.51100000000E-03 0. -1.
        -11    1    3    3    0    0 -0.12279460303E+02  0.83544401153E+01  0.13495337627E+02  0.20067534799E+02  0.51100000000E-03 0.  1.
        -12    1    3    3    0    0 -0.63360289222E+01 -0.16757994140E+01 -0.20867640223E+01  0.68780920511E+01  0.00000000000E+00 0.  1.
</event>
<event>
 7    1  0.2886681E-010  0.4778727E+02  0.7816164E-02  0.1312668E+00
        -11   -1    0    0    0    0  0.00000000000E+00  0.00000000000E+00  0.45593999997E+02  0.45594000000E+02  0.51100000000E-03 0.  1.
         11   -1    0    0    0    0 -0.00000000000E+00 -0.00000000000E+00 -0.45593999997E+02  0.45594000000E+02  0.51100000000E-03 0. -1.
    9900012    2    1    2    0    0  0.84657838214E+01 -0.14201376832E+02 -0.40128226679E+02  0.47787272172E+02  0.20000005139E+02 0.  0.
        -12    1    1    2    0    0 -0.84657838214E+01  0.14201376832E+02  0.40128226679E+02  0.43400727828E+02  0.00000000000E+00 0.  1.
         11    1    3    3    0    0  0.54893132432E+01 -0.48253438851E+01 -0.69870268790E+01  0.10111134870E+02  0.51100000000E-03 0. -1.
        -11    1    3    3    0    0  0.78427963049E+01 -0.63143032400E+01 -0.11503321907E+02  0.15287455460E+02  0.51100000000E-03 0.  1.
        -12    1    3    3    0    0 -0.48663257268E+01 -0.30617297066E+01 -0.21637877893E+02  0.22388681842E+02  0.00000000000E+00 0.  1.
</event>
<event>
 7    1  0.2886681E-010  0.4778727E+02  0.7816164E-02  0.1312668E+00
        -11   -1    0    0    0    0  0.00000000000E+00  0.00000000000E+00  0.45593999997E+02  0.45594000000E+02  0.51100000000E-03 0. -1.
         11   -1    0    0    0    0 -0.00000000000E+00 -0.00000000000E+00 -0.45593999997E+02  0.45594000000E+02  0.51100000000E-03 0.  1.
    9900012    2    1    2    0    0 -0.15816871838E+02  0.31700215910E+02  0.25070823248E+02  0.47787270723E+02  0.19999998533E+02 0.  0.
        -12    1    1    2    0    0  0.15816871838E+02 -0.31700215910E+02 -0.25070823248E+02  0.43400729277E+02  0.00000000000E+00 0.  1.
         11    1    3    3    0    0  0.24316467865E+01  0.80317407310E+01  0.10473577434E+02  0.13420789462E+02  0.51100000000E-03 0. -1.
        -11    1    3    3    0    0 -0.10880555903E+02  0.98674147160E+01  0.10899476548E+02  0.18290734245E+02  0.51100000000E-03 0.  1.
         12    1    3    3    0    0 -0.73679627208E+01  0.13801060463E+02  0.36977692660E+01  0.16075747016E+02  0.00000000000E+00 0. -1.
</event>
<event>
 7    1  0.2886681E-010  0.4778727E+02  0.7816164E-02  0.1312668E+00
        -11   -1    0    0    0    0  0.00000000000E+00  0.00000000000E+00  0.45593999997E+02  0.45594000000E+02  0.51100000000E-03 0.  1.
         11   -1    0    0    0    0 -0.00000000000E+00 -0.00000000000E+00 -0.45593999997E+02  0.45594000000E+02  0.51100000000E-03 0. -1.
    9900012    2    1    2    0    0 -0.19661021293E+02  0.35416036215E+02 -0.15581137841E+02  0.47787271482E+02  0.20000001995E+02 0.  0.
        -12    1    1    2    0    0  0.19661021293E+02 -0.35416036215E+02  0.15581137841E+02  0.43400728518E+02  0.00000000000E+00 0.  1.
         11    1    3    3    0    0 -0.78636495560E+01  0.17268427778E+02 -0.15591233875E+02  0.24558545484E+02  0.51100000000E-03 0. -1.
        -11    1    3    3    0    0 -0.11972980545E+02  0.11622338541E+02 -0.36602679403E+00  0.16690266390E+02  0.51100000000E-03 0.  1.
         12    1    3    3    0    0  0.17560880741E+00  0.65252698959E+01  0.37612282835E+00  0.65384596083E+01  0.00000000000E+00 0. -1.
</event>
<event>
 7    1  0.2886681E-010  0.4778727E+02  0.7816164E-02  0.1312668E+00
        -11   -1    0    0    0    0  0.00000000000E+00  0.00000000000E+00  0.45593999997E+02  0.45594000000E+02  0.51100000000E-03 0.  1.
         11   -1    0    0    0    0 -0.00000000000E+00 -0.00000000000E+00 -0.45593999997E+02  0.45594000000E+02  0.51100000000E-03 0. -1.
    9900012    2    1    2    0    0  0.14688021542E+02 -0.11075974864E+02 -0.39309132437E+02  0.47787273175E+02  0.20000009712E+02 0.  0.
        -12    1    1    2    0    0 -0.14688021542E+02  0.11075974864E+02  0.39309132437E+02  0.43400726825E+02  0.00000000000E+00 0.  1.
         11    1    3    3    0    0  0.62994975461E+01 -0.54068941182E+00 -0.23478401249E+02  0.24314837854E+02  0.51100000000E-03 0. -1.
        -11    1    3    3    0    0  0.22070563314E+01 -0.10369898167E+01  0.14277841927E+01  0.28257766174E+01  0.51100000000E-03 0.  1.
        -12    1    3    3    0    0  0.61814676645E+01 -0.94982956358E+01 -0.17258515381E+02  0.20646658704E+02  0.00000000000E+00 0.  1.
</event>
<event>
 7    1  0.2886681E-010  0.4778725E+02  0.7816164E-02  0.1312668E+00
        -11   -1    0    0    0    0  0.00000000000E+00  0.00000000000E+00  0.45593999997E+02  0.45594000000E+02  0.51100000000E-03 0.  1.
         11   -1    0    0    0    0 -0.00000000000E+00 -0.00000000000E+00 -0.45593999997E+02  0.45594000000E+02  0.51100000000E-03 0. -1.
    9900012    2    1    2    0    0  0.41950437966E+02 -0.95636134709E+01  0.56853188912E+01  0.47787253474E+02  0.19999919888E+02 0.  0.
        -12    1    1    2    0    0 -0.41950437966E+02  0.95636134709E+01 -0.56853188912E+01  0.43400746526E+02  0.00000000000E+00 0.  1.
         11    1    3    3    0    0  0.17728481083E+02 -0.92860338834E+01 -0.54596385008E+00  0.20020677900E+02  0.51100000000E-03 0. -1.
        -11    1    3    3    0    0  0.10380278415E+02  0.57718976590E+01  0.37729509271E+01  0.12461947742E+02  0.51100000000E-03 0.  1.
        -12    1    3    3    0    0  0.13841678468E+02 -0.60494772465E+01  0.24583318142E+01  0.15304627832E+02  0.00000000000E+00 0.  1.
</event>
<event>
 7    1  0.2886681E-010  0.4778727E+02  0.7816164E-02  0.1312668E+00
        -11   -1    0    0    0    0  0.00000000000E+00  0.00000000000E+00  0.45593999997E+02  0.45594000000E+02  0.51100000000E-03 0.  1.
         11   -1    0    0    0    0 -0.00000000000E+00 -0.00000000000E+00 -0.45593999997E+02  0.45594000000E+02  0.51100000000E-03 0. -1.
    9900012    2    1    2    0    0  0.30271726770E+02 -0.30084572481E+02 -0.78844216981E+01  0.47787273641E+02  0.20000011837E+02 0.  0.
        -12    1    1    2    0    0 -0.30271726770E+02  0.30084572481E+02  0.78844216981E+01  0.43400726359E+02  0.00000000000E+00 0.  1.
         11    1    3    3    0    0  0.17665309642E+02 -0.26710607918E+02 -0.65931852871E+01  0.32695409962E+02  0.51100000000E-03 0. -1.
        -11    1    3    3    0    0  0.12139543580E+02 -0.51595406152E+01 -0.10958257967E+01  0.13235943945E+02  0.51100000000E-03 0.  1.
         12    1    3    3    0    0  0.46687354830E+00  0.17855760522E+01 -0.19541061423E+00  0.18559197333E+01  0.00000000000E+00 0. -1.
</event>
<event>
 7    1  0.2886681E-010  0.4778728E+02  0.7816164E-02  0.1312668E+00
        -11   -1    0    0    0    0  0.00000000000E+00  0.00000000000E+00  0.45593999997E+02  0.45594000000E+02  0.51100000000E-03 0.  1.
         11   -1    0    0    0    0 -0.00000000000E+00 -0.00000000000E+00 -0.45593999997E+02  0.45594000000E+02  0.51100000000E-03 0. -1.
    9900012    2    1    2    0    0  0.33152761285E+02 -0.18188733276E+02 -0.21299931804E+02  0.47787277727E+02  0.20000030466E+02 0.  0.
        -12    1    1    2    0    0 -0.33152761285E+02  0.18188733276E+02  0.21299931804E+02  0.43400722273E+02  0.00000000000E+00 0.  1.
         11    1    3    3    0    0  0.27139591046E+02 -0.12017931794E+02 -0.89725017974E+01  0.31007964711E+02  0.51100000000E-03 0. -1.
        -11    1    3    3    0    0  0.32860714152E+01 -0.38858590683E-01 -0.83612874882E+01  0.89839247580E+01  0.51100000000E-03 0.  1.
         12    1    3    3    0    0  0.27270988241E+01 -0.61319428908E+01 -0.39661425181E+01  0.77953882575E+01  0.00000000000E+00 0. -1.
</event>
<event>
 7    1  0.2886681E-010  0.4778727E+02  0.7816164E-02  0.1312668E+00
        -11   -1    0    0    0    0  0.00000000000E+00  0.00000000000E+00  0.45593999997E+02  0.45594000000E+02  0.51100000000E-03 0.  1.
         11   -1    0    0    0    0 -0.00000000000E+00 -0.00000000000E+00 -0.45593999997E+02  0.45594000000E+02  0.51100000000E-03 0. -1.
    9900012    2    1    2    0    0 -0.34069796107E+02  0.20250923730E+02 -0.17685380250E+02  0.47787267365E+02  0.19999983222E+02 0.  0.
        -12    1    1    2    0    0  0.34069796107E+02 -0.20250923730E+02  0.17685380250E+02  0.43400732635E+02  0.00000000000E+00 0.  1.
         11    1    3    3    0    0 -0.15633582526E+02  0.81107551961E+01 -0.58584746583E+01  0.18561114677E+02  0.51100000000E-03 0. -1.
        -11    1    3    3    0    0 -0.13471414642E+02  0.14485934637E+02 -0.12920099376E+02  0.23627320688E+02  0.51100000000E-03 0.  1.
        -12    1    3    3    0    0 -0.49647989388E+01 -0.23457661030E+01  0.10931937841E+01  0.55988319998E+01  0.00000000000E+00 0.  1.
</event>
<event>
 7    1  0.2886681E-010  0.4778727E+02  0.7816164E-02  0.1312668E+00
        -11   -1    0    0    0    0  0.00000000000E+00  0.00000000000E+00  0.45593999997E+02  0.45594000000E+02  0.51100000000E-03 0.  1.
         11   -1    0    0    0    0 -0.00000000000E+00 -0.00000000000E+00 -0.45593999997E+02  0.45594000000E+02  0.51100000000E-03 0. -1.
    9900012    2    1    2    0    0 -0.11040935688E+02  0.21400462952E+02 -0.36107357109E+02  0.47787270595E+02  0.19999997953E+02 0.  0.
        -12    1    1    2    0    0  0.11040935688E+02 -0.21400462952E+02  0.36107357109E+02  0.43400729405E+02  0.00000000000E+00 0.  1.
         11    1    3    3    0    0 -0.32897949967E+01  0.12383002391E+02 -0.10289938772E+02  0.16433025879E+02  0.51100000000E-03 0. -1.
        -11    1    3    3    0    0 -0.10003079336E+02  0.81131705918E+01 -0.25900470627E+02  0.28926104339E+02  0.51100000000E-03 0.  1.
        -12    1    3    3    0    0  0.22519386449E+01  0.90428996912E+00  0.83052290512E-01  0.24281403772E+01  0.00000000000E+00 0.  1.
</event>
<event>
 7    1  0.2886681E-010  0.4778726E+02  0.7816164E-02  0.1312668E+00
        -11   -1    0    0    0    0  0.00000000000E+00  0.00000000000E+00  0.45593999997E+02  0.45594000000E+02  0.51100000000E-03 0.  1.
         11   -1    0    0    0    0 -0.00000000000E+00 -0.00000000000E+00 -0.45593999997E+02  0.45594000000E+02  0.51100000000E-03 0. -1.
    9900012    2    1    2    0    0 -0.19493921565E+02 -0.81697071158E+01 -0.37906033886E+02  0.47787256950E+02  0.19999935736E+02 0.  0.
        -12    1    1    2    0    0  0.19493921565E+02  0.81697071158E+01  0.37906033886E+02  0.43400743050E+02  0.00000000000E+00 0.  1.
         11    1    3    3    0    0 -0.18810470628E+02  0.84970571242E+00 -0.30707157403E+02  0.36020623553E+02  0.51100000000E-03 0. -1.
        -11    1    3    3    0    0 -0.10244356249E+01 -0.66297388090E+01 -0.41910851652E+01  0.79100000094E+01  0.51100000000E-03 0.  1.
         12    1    3    3    0    0  0.34098468873E+00 -0.23896740192E+01 -0.30077913178E+01  0.38566333877E+01  0.00000000000E+00 0. -1.
</event>
<event>
 7    1  0.2886681E-010  0.4778727E+02  0.7816164E-02  0.1312668E+00
        -11   -1    0    0    0    0  0.00000000000E+00  0.00000000000E+00  0.45593999997E+02  0.45594000000E+02  0.51100000000E-03 0. -1.
         11   -1    0    0    0    0 -0.00000000000E+00 -0.00000000000E+00 -0.45593999997E+02  0.45594000000E+02  0.51100000000E-03 0.  1.
    9900012    2    1    2    0    0 -0.26796266342E+02  0.24188071832E+02  0.24093991178E+02  0.47787272821E+02  0.20000008098E+02 0.  0.
        -12    1    1    2    0    0  0.26796266342E+02 -0.24188071832E+02 -0.24093991178E+02  0.43400727179E+02  0.00000000000E+00 0.  1.
         11    1    3    3    0    0 -0.15493290031E+02  0.31697814645E+01  0.84718333817E+01  0.17940499202E+02  0.51100000000E-03 0. -1.
        -11    1    3    3    0    0 -0.15136269397E+01  0.76239610260E+00  0.43808051174E+01  0.46972085399E+01  0.51100000000E-03 0.  1.
         12    1    3    3    0    0 -0.97893493716E+01  0.20255894265E+02  0.11241352679E+02  0.25149565079E+02  0.00000000000E+00 0. -1.
</event>
<event>
 7    1  0.2886681E-010  0.4778729E+02  0.7816164E-02  0.1312668E+00
        -11   -1    0    0    0    0  0.00000000000E+00  0.00000000000E+00  0.45593999997E+02  0.45594000000E+02  0.51100000000E-03 0.  1.
         11   -1    0    0    0    0 -0.00000000000E+00 -0.00000000000E+00 -0.45593999997E+02  0.45594000000E+02  0.51100000000E-03 0. -1.
    9900012    2    1    2    0    0  0.17543919888E+00  0.25319380887E+01 -0.43326441936E+02  0.47787285026E+02  0.20000063748E+02 0.  0.
        -12    1    1    2    0    0 -0.17543919888E+00 -0.25319380887E+01  0.43326441936E+02  0.43400714974E+02  0.00000000000E+00 0.  1.
         11    1    3    3    0    0 -0.12966511508E+00  0.30454270011E+01 -0.66741345764E+01  0.73372686516E+01  0.51100000000E-03 0. -1.
        -11    1    3    3    0    0 -0.32337224353E+01  0.32289566791E+01 -0.13374151464E+01  0.47614915267E+01  0.51100000000E-03 0.  1.
        -12    1    3    3    0    0  0.35388267493E+01 -0.37424455915E+01 -0.35314892213E+02  0.35688524848E+02  0.00000000000E+00 0.  1.
</event>
<event>
 7    1  0.2886681E-010  0.4778727E+02  0.7816164E-02  0.1312668E+00
        -11   -1    0    0    0    0  0.00000000000E+00  0.00000000000E+00  0.45593999997E+02  0.45594000000E+02  0.51100000000E-03 0.  1.
         11   -1    0    0    0    0 -0.00000000000E+00 -0.00000000000E+00 -0.45593999997E+02  0.45594000000E+02  0.51100000000E-03 0. -1.
    9900012    2    1    2    0    0  0.56531617076E+01  0.57049369760E+01 -0.42651129719E+02  0.47787269482E+02  0.19999992878E+02 0.  0.
        -12    1    1    2    0    0 -0.56531617076E+01 -0.57049369760E+01  0.42651129719E+02  0.43400730518E+02  0.00000000000E+00 0.  1.
         11    1    3    3    0    0  0.26297535578E+01 -0.41616722473E+00 -0.29734870584E+02  0.29853832716E+02  0.51100000000E-03 0. -1.
        -11    1    3    3    0    0  0.36523935182E+01  0.25474942550E+01  0.66080542025E-01  0.44535460355E+01  0.51100000000E-03 0.  1.
         12    1    3    3    0    0 -0.62898536838E+00  0.35736099457E+01 -0.12982339677E+02  0.13479890731E+02  0.00000000000E+00 0. -1.
</event>
<event>
 7    1  0.2886681E-010  0.4778727E+02  0.7816164E-02  0.1312668E+00
        -11   -1    0    0    0    0  0.00000000000E+00  0.00000000000E+00  0.45593999997E+02  0.45594000000E+02  0.51100000000E-03 0. -1.
         11   -1    0    0    0    0 -0.00000000000E+00 -0.00000000000E+00 -0.45593999997E+02  0.45594000000E+02  0.51100000000E-03 0.  1.
    9900012    2    1    2    0    0  0.37606888302E+02  0.20502060852E+02  0.70007869932E+01  0.47787267685E+02  0.19999984682E+02 0.  0.
        -12    1    1    2    0    0 -0.37606888302E+02 -0.20502060852E+02 -0.70007869932E+01  0.43400732315E+02  0.00000000000E+00 0.  1.
         11    1    3    3    0    0  0.14198479498E+02  0.11170658801E+02 -0.63511821596E-01  0.18066113918E+02  0.51100000000E-03 0. -1.
        -11    1    3    3    0    0 -0.17363968220E+01  0.17521565286E+01  0.14636441936E+01  0.28683411601E+01  0.51100000000E-03 0.  1.
        -12    1    3    3    0    0  0.25144805627E+02  0.75792455224E+01  0.56006546212E+01  0.26852812607E+02  0.00000000000E+00 0.  1.
</event>
<event>
 7    1  0.2886681E-010  0.4778727E+02  0.7816164E-02  0.1312668E+00
        -11   -1    0    0    0    0  0.00000000000E+00  0.00000000000E+00  0.45593999997E+02  0.45594000000E+02  0.51100000000E-03 0.  1.
         11   -1    0    0    0    0 -0.00000000000E+00 -0.00000000000E+00 -0.45593999997E+02  0.45594000000E+02  0.51100000000E-03 0. -1.
    9900012    2    1    2    0    0 -0.19744592644E+01  0.39324157840E+02 -0.18257478178E+02  0.47787269722E+02  0.19999993972E+02 0.  0.
        -12    1    1    2    0    0  0.19744592644E+01 -0.39324157840E+02  0.18257478178E+02  0.43400730278E+02  0.00000000000E+00 0.  1.
         11    1    3    3    0    0  0.27792743874E+01  0.18334807770E+02 -0.80484185041E+01  0.20215503525E+02  0.51100000000E-03 0. -1.
        -11    1    3    3    0    0 -0.92554032810E+01  0.98448736203E+01 -0.64904834143E+01  0.14990343615E+02  0.51100000000E-03 0.  1.
        -12    1    3    3    0    0  0.45016696292E+01  0.11144476450E+02 -0.37185762593E+01  0.12581422582E+02  0.00000000000E+00 0.  1.
</event>
<event>
 7    1  0.2886681E-010  0.4778728E+02  0.7816164E-02  0.1312668E+00
        -11   -1    0    0    0    0  0.00000000000E+00  0.00000000000E+00  0.45593999997E+02  0.45594000000E+02  0.51100000000E-03 0.  1.
         11   -1    0    0    0    0 -0.00000000000E+00 -0.00000000000E+00 -0.45593999997E+02  0.45594000000E+02  0.51100000000E-03 0. -1.
    9900012    2    1    2    0    0  0.10145591272E+01  0.18293962771E+02 -0.39343662882E+02  0.47787283266E+02  0.20000055721E+02 0.  0.
        -12    1    1    2    0    0 -0.10145591272E+01 -0.18293962771E+02  0.39343662882E+02  0.43400716734E+02  0.00000000000E+00 0.  1.
         11    1    3    3    0    0 -0.71427776009E+01  0.53233227634E+01 -0.17248704920E+02  0.19413265021E+02  0.51100000000E-03 0. -1.
        -11    1    3    3    0    0  0.20281472260E+01  0.59292392881E+00  0.22612230153E+00  0.21251050591E+01  0.51100000000E-03 0.  1.
         12    1    3    3    0    0  0.61291895020E+01  0.12377716079E+02 -0.22321080263E+02  0.26248913185E+02  0.00000000000E+00 0. -1.
</event>
<event>
 7    1  0.2886681E-010  0.4778727E+02  0.7816164E-02  0.1312668E+00
        -11   -1    0    0    0    0  0.00000000000E+00  0.00000000000E+00  0.45593999997E+02  0.45594000000E+02  0.51100000000E-03 0. -1.
         11   -1    0    0    0    0 -0.00000000000E+00 -0.00000000000E+00 -0.45593999997E+02  0.45594000000E+02  0.51100000000E-03 0.  1.
    9900012    2    1    2    0    0  0.22430936020E+02 -0.78521989893E+01  0.36315549696E+02  0.47787273400E+02  0.20000010740E+02 0.  0.
        -12    1    1    2    0    0 -0.22430936020E+02  0.78521989893E+01 -0.36315549696E+02  0.43400726600E+02  0.00000000000E+00 0.  1.
         11    1    3    3    0    0  0.55718370386E+01 -0.26952011374E+01  0.11317374080E+02  0.12899319109E+02  0.51100000000E-03 0. -1.
        -11    1    3    3    0    0  0.14782720561E+02  0.34514705268E+01  0.18347468850E+02  0.23813254491E+02  0.51100000000E-03 0.  1.
        -12    1    3    3    0    0  0.20763784204E+01 -0.86084683787E+01  0.66507067660E+01  0.11074699800E+02  0.00000000000E+00 0.  1.
</event>
<event>
 7    1  0.2886681E-010  0.4778727E+02  0.7816164E-02  0.1312668E+00
        -11   -1    0    0    0    0  0.00000000000E+00  0.00000000000E+00  0.45593999997E+02  0.45594000000E+02  0.51100000000E-03 0. -1.
         11   -1    0    0    0    0 -0.00000000000E+00 -0.00000000000E+00 -0.45593999997E+02  0.45594000000E+02  0.51100000000E-03 0.  1.
    9900012    2    1    2    0    0 -0.39779887268E+02  0.13893465143E+02  0.10399780301E+02  0.47787271491E+02  0.20000002038E+02 0.  0.
        -12    1    1    2    0    0  0.39779887268E+02 -0.13893465143E+02 -0.10399780301E+02  0.43400728509E+02  0.00000000000E+00 0.  1.
         11    1    3    3    0    0 -0.27091914082E+02  0.40638385153E+01  0.67037956693E+01  0.28203323718E+02  0.51100000000E-03 0. -1.
        -11    1    3    3    0    0 -0.60604837001E+01  0.58489052659E+01 -0.34067592354E+01  0.90854369316E+01  0.51100000000E-03 0.  1.
        -12    1    3    3    0    0 -0.66274894860E+01  0.39807213618E+01  0.71027438671E+01  0.10498510841E+02  0.00000000000E+00 0.  1.
</event>
<event>
 7    1  0.2886681E-010  0.4778729E+02  0.7816164E-02  0.1312668E+00
        -11   -1    0    0    0    0  0.00000000000E+00  0.00000000000E+00  0.45593999997E+02  0.45594000000E+02  0.51100000000E-03 0. -1.
         11   -1    0    0    0    0 -0.00000000000E+00 -0.00000000000E+00 -0.45593999997E+02  0.45594000000E+02  0.51100000000E-03 0.  1.
    9900012    2    1    2    0    0 -0.14603695352E+02  0.37923347775E+02 -0.15237242512E+02  0.47787288211E+02  0.20000078268E+02 0.  0.
        -12    1    1    2    0    0  0.14603695352E+02 -0.37923347775E+02  0.15237242512E+02  0.43400711789E+02  0.00000000000E+00 0.  1.
         11    1    3    3    0    0 -0.11213229769E+01  0.13878743329E+02 -0.74286138826E+01  0.15781672474E+02  0.51100000000E-03 0. -1.
        -11    1    3    3    0    0 -0.61655083167E+01  0.34715893735E+01  0.29470720457E+01  0.76648978783E+01  0.51100000000E-03 0.  1.
        -12    1    3    3    0    0 -0.73168640589E+01  0.20573015073E+02 -0.10755700675E+02  0.24340717859E+02  0.00000000000E+00 0.  1.
</event>
<event>
 7    1  0.2886681E-010  0.4778727E+02  0.7816164E-02  0.1312668E+00
        -11   -1    0    0    0    0  0.00000000000E+00  0.00000000000E+00  0.45593999997E+02  0.45594000000E+02  0.51100000000E-03 0.  1.
         11   -1    0    0    0    0 -0.00000000000E+00 -0.00000000000E+00 -0.45593999997E+02  0.45594000000E+02  0.51100000000E-03 0. -1.
    9900012    2    1    2    0    0  0.10559011235E+02  0.68881610491E+01 -0.41529310679E+02  0.47787272743E+02  0.20000007746E+02 0.  0.
        -12    1    1    2    0    0 -0.10559011235E+02 -0.68881610491E+01  0.41529310679E+02  0.43400727257E+02  0.00000000000E+00 0.  1.
         11    1    3    3    0    0  0.49961106324E+00 -0.58654316459E+01 -0.11509595199E+02  0.12927632479E+02  0.51100000000E-03 0. -1.
        -11    1    3    3    0    0  0.14187465306E+01 -0.14025808769E+00 -0.50490129011E+00  0.15124283861E+01  0.51100000000E-03 0.  1.
         12    1    3    3    0    0  0.86406536412E+01  0.12893850783E+02 -0.29514814190E+02  0.33347211878E+02  0.00000000000E+00 0. -1.
</event>
<event>
 7    1  0.2886681E-010  0.4778727E+02  0.7816164E-02  0.1312668E+00
        -11   -1    0    0    0    0  0.00000000000E+00  0.00000000000E+00  0.45593999997E+02  0.45594000000E+02  0.51100000000E-03 0. -1.
         11   -1    0    0    0    0 -0.00000000000E+00 -0.00000000000E+00 -0.45593999997E+02  0.45594000000E+02  0.51100000000E-03 0.  1.
    9900012    2    1    2    0    0  0.35892538815E+02  0.24325177484E+02  0.19065888477E+01  0.47787266328E+02  0.19999978495E+02 0.  0.
        -12    1    1    2    0    0 -0.35892538815E+02 -0.24325177484E+02 -0.19065888477E+01  0.43400733672E+02  0.00000000000E+00 0.  1.
         11    1    3    3    0    0  0.85861170406E+01  0.10592767203E+02 -0.43406164352E+00  0.13642453321E+02  0.51100000000E-03 0. -1.
        -11    1    3    3    0    0  0.10260701142E+02 -0.47321741928E+00  0.56297787755E+01  0.11713254543E+02  0.51100000000E-03 0.  1.
        -12    1    3    3    0    0  0.17045720632E+02  0.14205627701E+02 -0.32891282843E+01  0.22431558464E+02  0.00000000000E+00 0.  1.
</event>
<event>
 7    1  0.2886681E-010  0.4778727E+02  0.7816164E-02  0.1312668E+00
        -11   -1    0    0    0    0  0.00000000000E+00  0.00000000000E+00  0.45593999997E+02  0.45594000000E+02  0.51100000000E-03 0. -1.
         11   -1    0    0    0    0 -0.00000000000E+00 -0.00000000000E+00 -0.45593999997E+02  0.45594000000E+02  0.51100000000E-03 0.  1.
    9900012    2    1    2    0    0 -0.19353129917E+02 -0.67073619658E+01  0.38263438241E+02  0.47787273645E+02  0.20000011859E+02 0.  0.
        -12    1    1    2    0    0  0.19353129917E+02  0.67073619658E+01 -0.38263438241E+02  0.43400726355E+02  0.00000000000E+00 0.  1.
         11    1    3    3    0    0 -0.79311371798E+01 -0.78284682245E+01  0.55402620725E+01  0.12445173996E+02  0.51100000000E-03 0. -1.
        -11    1    3    3    0    0 -0.18704887784E+01  0.24812220244E+01  0.13256355994E+02  0.13615658835E+02  0.51100000000E-03 0.  1.
         12    1    3    3    0    0 -0.95515039584E+01 -0.13601157657E+01  0.19466820174E+02  0.21726440814E+02  0.00000000000E+00 0. -1.
</event>
<event>
 7    1  0.2886681E-010  0.4778727E+02  0.7816164E-02  0.1312668E+00
        -11   -1    0    0    0    0  0.00000000000E+00  0.00000000000E+00  0.45593999997E+02  0.45594000000E+02  0.51100000000E-03 0.  1.
         11   -1    0    0    0    0 -0.00000000000E+00 -0.00000000000E+00 -0.45593999997E+02  0.45594000000E+02  0.51100000000E-03 0. -1.
    9900012    2    1    2    0    0  0.24430366073E+02 -0.18979946707E+02 -0.30439152274E+02  0.47787272418E+02  0.20000006263E+02 0.  0.
        -12    1    1    2    0    0 -0.24430366073E+02  0.18979946707E+02  0.30439152274E+02  0.43400727582E+02  0.00000000000E+00 0.  1.
         11    1    3    3    0    0  0.69019721909E+01 -0.66844162964E+01 -0.10612728664E+02  0.14316027777E+02  0.51100000000E-03 0. -1.
        -11    1    3    3    0    0  0.18276740049E+02 -0.69051629777E+01 -0.93369255577E+01  0.21654068479E+02  0.51100000000E-03 0.  1.
        -12    1    3    3    0    0 -0.74834616748E+00 -0.53903674332E+01 -0.10489498052E+02  0.11817176162E+02  0.00000000000E+00 0.  1.
</event>
<event>
 7    1  0.2886681E-010  0.4778727E+02  0.7816164E-02  0.1312668E+00
        -11   -1    0    0    0    0  0.00000000000E+00  0.00000000000E+00  0.45593999997E+02  0.45594000000E+02  0.51100000000E-03 0. -1.
         11   -1    0    0    0    0 -0.00000000000E+00 -0.00000000000E+00 -0.45593999997E+02  0.45594000000E+02  0.51100000000E-03 0.  1.
    9900012    2    1    2    0    0  0.41541408808E+02 -0.45869155127E+01 -0.11700207090E+02  0.47787270909E+02  0.19999999381E+02 0.  0.
        -12    1    1    2    0    0 -0.41541408808E+02  0.45869155127E+01  0.11700207090E+02  0.43400729091E+02  0.00000000000E+00 0.  1.
         11    1    3    3    0    0  0.98248915766E+01  0.14566110790E+01 -0.27555554235E+01  0.10307438881E+02  0.51100000000E-03 0. -1.
        -11    1    3    3    0    0  0.26625196448E+02 -0.87914925507E+01 -0.12489183848E+02  0.30694806411E+02  0.51100000000E-03 0.  1.
        -12    1    3    3    0    0  0.50913207840E+01  0.27479659590E+01  0.35445321816E+01  0.67850256171E+01  0.00000000000E+00 0.  1.
</event>
<event>
 7    1  0.2886681E-010  0.4778727E+02  0.7816164E-02  0.1312668E+00
        -11   -1    0    0    0    0  0.00000000000E+00  0.00000000000E+00  0.45593999997E+02  0.45594000000E+02  0.51100000000E-03 0. -1.
         11   -1    0    0    0    0 -0.00000000000E+00 -0.00000000000E+00 -0.45593999997E+02  0.45594000000E+02  0.51100000000E-03 0.  1.
    9900012    2    1    2    0    0 -0.69635271580E+00 -0.45658765985E+01  0.43154269688E+02  0.47787272719E+02  0.20000007634E+02 0.  0.
        -12    1    1    2    0    0  0.69635271580E+00  0.45658765985E+01 -0.43154269688E+02  0.43400727281E+02  0.00000000000E+00 0.  1.
         11    1    3    3    0    0 -0.20674538337E+01  0.18448254542E+01  0.36025159709E+02  0.36131563468E+02  0.51100000000E-03 0. -1.
        -11    1    3    3    0    0  0.27573828348E+01 -0.36250567703E+00  0.10606467478E+01  0.29764983199E+01  0.51100000000E-03 0.  1.
         12    1    3    3    0    0 -0.13862817169E+01 -0.60481963757E+01  0.60684632314E+01  0.86792109312E+01  0.00000000000E+00 0. -1.
</event>
<event>
 7    1  0.2886681E-010  0.4778727E+02  0.7816164E-02  0.1312668E+00
        -11   -1    0    0    0    0  0.00000000000E+00  0.00000000000E+00  0.45593999997E+02  0.45594000000E+02  0.51100000000E-03 0.  1.
         11   -1    0    0    0    0 -0.00000000000E+00 -0.00000000000E+00 -0.45593999997E+02  0.45594000000E+02  0.51100000000E-03 0. -1.
    9900012    2    1    2    0    0  0.43330456174E+02  0.24639597617E+01 -0.15518752609E+00  0.47787267136E+02  0.19999982179E+02 0.  0.
        -12    1    1    2    0    0 -0.43330456174E+02 -0.24639597617E+01  0.15518752609E+00  0.43400732864E+02  0.00000000000E+00 0.  1.
         11    1    3    3    0    0  0.16856554027E+02 -0.83540735056E+00 -0.27094686061E+01  0.17093347814E+02  0.51100000000E-03 0. -1.
        -11    1    3    3    0    0  0.23706230321E+02  0.61328860989E+01  0.62552584651E+01  0.25273027255E+02  0.51100000000E-03 0.  1.
        -12    1    3    3    0    0  0.27676718263E+01 -0.28335189867E+01 -0.37009773851E+01  0.54208920660E+01  0.00000000000E+00 0.  1.
</event>
<event>
 7    1  0.2886681E-010  0.4778727E+02  0.7816164E-02  0.1312668E+00
        -11   -1    0    0    0    0  0.00000000000E+00  0.00000000000E+00  0.45593999997E+02  0.45594000000E+02  0.51100000000E-03 0. -1.
         11   -1    0    0    0    0 -0.00000000000E+00 -0.00000000000E+00 -0.45593999997E+02  0.45594000000E+02  0.51100000000E-03 0.  1.
    9900012    2    1    2    0    0  0.42561761375E+02 -0.59352391442E+01  0.60739268840E+01  0.47787272094E+02  0.20000004784E+02 0.  0.
        -12    1    1    2    0    0 -0.42561761375E+02  0.59352391442E+01 -0.60739268840E+01  0.43400727906E+02  0.00000000000E+00 0.  1.
         11    1    3    3    0    0  0.11719914013E+02  0.44778883066E+00  0.71481414241E+01  0.13735094663E+02  0.51100000000E-03 0. -1.
        -11    1    3    3    0    0  0.31869984008E+02 -0.61342997576E+01 -0.21721461643E+01  0.32527584193E+02  0.51100000000E-03 0.  1.
        -12    1    3    3    0    0 -0.10281366468E+01 -0.24872821727E+00  0.10979316243E+01  0.15245932382E+01  0.00000000000E+00 0.  1.
</event>
<event>
 7    1  0.2886681E-010  0.4778728E+02  0.7816164E-02  0.1312668E+00
        -11   -1    0    0    0    0  0.00000000000E+00  0.00000000000E+00  0.45593999997E+02  0.45594000000E+02  0.51100000000E-03 0.  1.
         11   -1    0    0    0    0 -0.00000000000E+00 -0.00000000000E+00 -0.45593999997E+02  0.45594000000E+02  0.51100000000E-03 0. -1.
    9900012    2    1    2    0    0 -0.19321171891E+02 -0.14164867131E+02 -0.36189387721E+02  0.47787275032E+02  0.20000018182E+02 0.  0.
        -12    1    1    2    0    0  0.19321171891E+02  0.14164867131E+02  0.36189387721E+02  0.43400724968E+02  0.00000000000E+00 0.  1.
         11    1    3    3    0    0 -0.25762156902E+00 -0.91119643460E+01 -0.90893257861E+01  0.12872843766E+02  0.51100000000E-03 0. -1.
        -11    1    3    3    0    0 -0.47120312408E+01 -0.49851182848E+01 -0.47150497841E+01  0.83238415083E+01  0.51100000000E-03 0.  1.
         12    1    3    3    0    0 -0.14351519081E+02 -0.67784499994E-01 -0.22385012151E+02  0.26590589758E+02  0.00000000000E+00 0. -1.
</event>
<event>
 7    1  0.2886681E-010  0.4778726E+02  0.7816164E-02  0.1312668E+00
        -11   -1    0    0    0    0  0.00000000000E+00  0.00000000000E+00  0.45593999997E+02  0.45594000000E+02  0.51100000000E-03 0.  1.
         11   -1    0    0    0    0 -0.00000000000E+00 -0.00000000000E+00 -0.45593999997E+02  0.45594000000E+02  0.51100000000E-03 0. -1.
    9900012    2    1    2    0    0 -0.67983211873E+01  0.23220244503E+02 -0.36030920499E+02  0.47787260862E+02  0.19999953575E+02 0.  0.
        -12    1    1    2    0    0  0.67983211873E+01 -0.23220244503E+02  0.36030920499E+02  0.43400739138E+02  0.00000000000E+00 0.  1.
         11    1    3    3    0    0 -0.39298940862E+01  0.46673894561E+01 -0.67601791120E+01  0.91065149070E+01  0.51100000000E-03 0. -1.
        -11    1    3    3    0    0 -0.21260849642E+01  0.38511793947E+01 -0.21673566199E+02  0.22115498911E+02  0.51100000000E-03 0.  1.
        -12    1    3    3    0    0 -0.74234213696E+00  0.14701675652E+02 -0.75971751872E+01  0.16565247045E+02  0.00000000000E+00 0.  1.
</event>
<event>
 7    1  0.2886681E-010  0.4778727E+02  0.7816164E-02  0.1312668E+00
        -11   -1    0    0    0    0  0.00000000000E+00  0.00000000000E+00  0.45593999997E+02  0.45594000000E+02  0.51100000000E-03 0.  1.
         11   -1    0    0    0    0 -0.00000000000E+00 -0.00000000000E+00 -0.45593999997E+02  0.45594000000E+02  0.51100000000E-03 0. -1.
    9900012    2    1    2    0    0 -0.14980311392E+02  0.35325074498E+02 -0.20281837310E+02  0.47787267951E+02  0.19999985896E+02 0.  0.
        -12    1    1    2    0    0  0.14980311392E+02 -0.35325074498E+02  0.20281837310E+02  0.43400732049E+02  0.00000000000E+00 0.  1.
         11    1    3    3    0    0 -0.18703741861E+02  0.27528984417E+02 -0.18808455883E+02  0.38228692831E+02  0.51100000000E-03 0. -1.
        -11    1    3    3    0    0  0.28404616271E+01  0.78258169541E+01 -0.19557567375E+01  0.85519949679E+01  0.51100000000E-03 0.  1.
        -12    1    3    3    0    0  0.88296884211E+00 -0.29726872464E-01  0.48237530982E+00  0.10065801521E+01  0.00000000000E+00 0.  1.
</event>
<event>
 7    1  0.2886681E-010  0.4778727E+02  0.7816164E-02  0.1312668E+00
        -11   -1    0    0    0    0  0.00000000000E+00  0.00000000000E+00  0.45593999997E+02  0.45594000000E+02  0.51100000000E-03 0.  1.
         11   -1    0    0    0    0 -0.00000000000E+00 -0.00000000000E+00 -0.45593999997E+02  0.45594000000E+02  0.51100000000E-03 0. -1.
    9900012    2    1    2    0    0 -0.22835710659E+02  0.23188486900E+02 -0.28713200350E+02  0.47787268666E+02  0.19999989155E+02 0.  0.
        -12    1    1    2    0    0  0.22835710659E+02 -0.23188486900E+02  0.28713200350E+02  0.43400731334E+02  0.00000000000E+00 0.  1.
         11    1    3    3    0    0 -0.52010345784E-02  0.34230118536E+01 -0.60333365719E+01  0.69367274454E+01  0.51100000000E-03 0. -1.
        -11    1    3    3    0    0  0.17264577028E+01  0.41361991549E+01 -0.53276131061E+01  0.69622023324E+01  0.51100000000E-03 0.  1.
        -12    1    3    3    0    0 -0.24556967327E+02  0.15629275892E+02 -0.17352250672E+02  0.33888338888E+02  0.00000000000E+00 0.  1.
</event>
<event>
 7    1  0.2886681E-010  0.4778727E+02  0.7816164E-02  0.1312668E+00
        -11   -1    0    0    0    0  0.00000000000E+00  0.00000000000E+00  0.45593999997E+02  0.45594000000E+02  0.51100000000E-03 0.  1.
         11   -1    0    0    0    0 -0.00000000000E+00 -0.00000000000E+00 -0.45593999997E+02  0.45594000000E+02  0.51100000000E-03 0. -1.
    9900012    2    1    2    0    0 -0.11063783030E+02 -0.22815099104E+02 -0.35223390712E+02  0.47787270797E+02  0.19999998874E+02 0.  0.
        -12    1    1    2    0    0  0.11063783030E+02  0.22815099104E+02  0.35223390712E+02  0.43400729203E+02  0.00000000000E+00 0.  1.
         11    1    3    3    0    0  0.21384079316E+01 -0.10686707690E+02 -0.79334153562E+01  0.13480266660E+02  0.51100000000E-03 0. -1.
        -11    1    3    3    0    0 -0.12994703827E+02 -0.71332518029E+01 -0.24349564129E+02  0.28506961998E+02  0.51100000000E-03 0.  1.
        -12    1    3    3    0    0 -0.20748713534E+00 -0.49951396104E+01 -0.29404112274E+01  0.58000421399E+01  0.00000000000E+00 0.  1.
</event>
<event>
 7    1  0.2886681E-010  0.4778727E+02  0.7816164E-02  0.1312668E+00
        -11   -1    0    0    0    0  0.00000000000E+00  0.00000000000E+00  0.45593999997E+02  0.45594000000E+02  0.51100000000E-03 0. -1.
         11   -1    0    0    0    0 -0.00000000000E+00 -0.00000000000E+00 -0.45593999997E+02  0.45594000000E+02  0.51100000000E-03 0.  1.
    9900012    2    1    2    0    0  0.36460513311E+02 -0.23492583468E+02 -0.15338687213E+01  0.47787271179E+02  0.20000000614E+02 0.  0.
        -12    1    1    2    0    0 -0.36460513311E+02  0.23492583468E+02  0.15338687213E+01  0.43400728821E+02  0.00000000000E+00 0.  1.
         11    1    3    3    0    0  0.12284921403E+01 -0.56185385023E+01  0.42446850206E+01  0.71480430207E+01  0.51100000000E-03 0. -1.
        -11    1    3    3    0    0  0.32997737058E+02 -0.18229748031E+02 -0.65205751241E+01  0.38258231329E+02  0.51100000000E-03 0.  1.
         12    1    3    3    0    0  0.22342841133E+01  0.35570306553E+00  0.74202138224E+00  0.23809968294E+01  0.00000000000E+00 0. -1.
</event>
<event>
 7    1  0.2886681E-010  0.4778726E+02  0.7816164E-02  0.1312668E+00
        -11   -1    0    0    0    0  0.00000000000E+00  0.00000000000E+00  0.45593999997E+02  0.45594000000E+02  0.51100000000E-03 0.  1.
         11   -1    0    0    0    0 -0.00000000000E+00 -0.00000000000E+00 -0.45593999997E+02  0.45594000000E+02  0.51100000000E-03 0. -1.
    9900012    2    1    2    0    0 -0.26802210966E+02 -0.26823479014E+02 -0.21113193730E+02  0.47787257050E+02  0.19999936195E+02 0.  0.
        -12    1    1    2    0    0  0.26802210966E+02  0.26823479014E+02  0.21113193730E+02  0.43400742950E+02  0.00000000000E+00 0.  1.
         11    1    3    3    0    0 -0.15152588769E+02 -0.59937771036E+01 -0.12445614760E+02  0.20504137080E+02  0.51100000000E-03 0. -1.
        -11    1    3    3    0    0 -0.49799006085E+01 -0.15849601001E+02 -0.91103421815E+01  0.18947495795E+02  0.51100000000E-03 0.  1.
        -12    1    3    3    0    0 -0.66697215885E+01 -0.49801009097E+01  0.44276321111E+00  0.83356241758E+01  0.00000000000E+00 0.  1.
</event>
<event>
 7    1  0.2886681E-010  0.4778727E+02  0.7816164E-02  0.1312668E+00
        -11   -1    0    0    0    0  0.00000000000E+00  0.00000000000E+00  0.45593999997E+02  0.45594000000E+02  0.51100000000E-03 0.  1.
         11   -1    0    0    0    0 -0.00000000000E+00 -0.00000000000E+00 -0.45593999997E+02  0.45594000000E+02  0.51100000000E-03 0. -1.
    9900012    2    1    2    0    0  0.14332118820E+02  0.25522104688E+02 -0.32044278487E+02  0.47787271419E+02  0.20000001709E+02 0.  0.
        -12    1    1    2    0    0 -0.14332118820E+02 -0.25522104688E+02  0.32044278487E+02  0.43400728581E+02  0.00000000000E+00 0.  1.
         11    1    3    3    0    0  0.13863056158E+02  0.16042157308E+02 -0.30136139483E+02  0.36847279959E+02  0.51100000000E-03 0. -1.
        -11    1    3    3    0    0  0.77025883453E+00  0.33952115291E+01  0.16842744496E+01  0.38674979874E+01  0.51100000000E-03 0.  1.
         12    1    3    3    0    0 -0.30119617219E+00  0.60847358508E+01 -0.35924134535E+01  0.70724934733E+01  0.00000000000E+00 0. -1.
</event>
<event>
 7    1  0.2886681E-010  0.4778727E+02  0.7816164E-02  0.1312668E+00
        -11   -1    0    0    0    0  0.00000000000E+00  0.00000000000E+00  0.45593999997E+02  0.45594000000E+02  0.51100000000E-03 0.  1.
         11   -1    0    0    0    0 -0.00000000000E+00 -0.00000000000E+00 -0.45593999997E+02  0.45594000000E+02  0.51100000000E-03 0. -1.
    9900012    2    1    2    0    0 -0.21041904767E+02  0.23605910623E+02 -0.29725785861E+02  0.47787272845E+02  0.20000008210E+02 0.  0.
        -12    1    1    2    0    0  0.21041904767E+02 -0.23605910623E+02  0.29725785861E+02  0.43400727155E+02  0.00000000000E+00 0.  1.
         11    1    3    3    0    0 -0.20854561371E+02  0.17776600382E+02 -0.26121040872E+02  0.37858011406E+02  0.51100000000E-03 0. -1.
        -11    1    3    3    0    0  0.16604828511E+01  0.18456229278E+01  0.17252488729E+01  0.30232451480E+01  0.51100000000E-03 0.  1.
        -12    1    3    3    0    0 -0.18478262466E+01  0.39836873132E+01 -0.53299938615E+01  0.69060162909E+01  0.00000000000E+00 0.  1.
</event>
<event>
 7    1  0.2886681E-010  0.4778727E+02  0.7816164E-02  0.1312668E+00
        -11   -1    0    0    0    0  0.00000000000E+00  0.00000000000E+00  0.45593999997E+02  0.45594000000E+02  0.51100000000E-03 0.  1.
         11   -1    0    0    0    0 -0.00000000000E+00 -0.00000000000E+00 -0.45593999997E+02  0.45594000000E+02  0.51100000000E-03 0. -1.
    9900012    2    1    2    0    0  0.97631216061E+00  0.63287905303E+01 -0.42925708643E+02  0.47787271463E+02  0.20000001909E+02 0.  0.
        -12    1    1    2    0    0 -0.97631216061E+00 -0.63287905303E+01  0.42925708643E+02  0.43400728537E+02  0.00000000000E+00 0.  1.
         11    1    3    3    0    0  0.21964286099E+01  0.56396846836E+01 -0.20077943746E+02  0.20970316338E+02  0.51100000000E-03 0. -1.
        -11    1    3    3    0    0 -0.42894935496E+00 -0.57433224200E+01 -0.43522889625E+01  0.72188759128E+01  0.51100000000E-03 0.  1.
        -12    1    3    3    0    0 -0.79116709430E+00  0.64324282667E+01 -0.18495475934E+02  0.19598079212E+02  0.00000000000E+00 0.  1.
</event>
<event>
 7    1  0.2886681E-010  0.4778727E+02  0.7816164E-02  0.1312668E+00
        -11   -1    0    0    0    0  0.00000000000E+00  0.00000000000E+00  0.45593999997E+02  0.45594000000E+02  0.51100000000E-03 0.  1.
         11   -1    0    0    0    0 -0.00000000000E+00 -0.00000000000E+00 -0.45593999997E+02  0.45594000000E+02  0.51100000000E-03 0. -1.
    9900012    2    1    2    0    0  0.32245845918E+02  0.18786934348E+02 -0.22155805647E+02  0.47787271837E+02  0.20000003615E+02 0.  0.
        -12    1    1    2    0    0 -0.32245845918E+02 -0.18786934348E+02  0.22155805647E+02  0.43400728163E+02  0.00000000000E+00 0.  1.
         11    1    3    3    0    0  0.49911968559E+01  0.24891253498E+01 -0.11884281830E+02  0.13127983315E+02  0.51100000000E-03 0. -1.
        -11    1    3    3    0    0  0.51691662089E+01  0.56190631294E+01  0.92943794916E+00  0.76914241145E+01  0.51100000000E-03 0.  1.
         12    1    3    3    0    0  0.22085482853E+02  0.10678745869E+02 -0.11200961767E+02  0.26967864407E+02  0.00000000000E+00 0. -1.
</event>
<event>
 7    1  0.2886681E-010  0.4778727E+02  0.7816164E-02  0.1312668E+00
        -11   -1    0    0    0    0  0.00000000000E+00  0.00000000000E+00  0.45593999997E+02  0.45594000000E+02  0.51100000000E-03 0.  1.
         11   -1    0    0    0    0 -0.00000000000E+00 -0.00000000000E+00 -0.45593999997E+02  0.45594000000E+02  0.51100000000E-03 0. -1.
    9900012    2    1    2    0    0 -0.14746101131E+02 -0.75848181809E+01 -0.40107935584E+02  0.47787268875E+02  0.19999990107E+02 0.  0.
        -12    1    1    2    0    0  0.14746101131E+02  0.75848181809E+01  0.40107935584E+02  0.43400731125E+02  0.00000000000E+00 0.  1.
         11    1    3    3    0    0 -0.13111633397E+02  0.12886258214E+01 -0.33328381130E+02  0.35837919524E+02  0.51100000000E-03 0. -1.
        -11    1    3    3    0    0 -0.16266353289E+01 -0.65588286808E+01 -0.27364337706E+01  0.72905587028E+01  0.51100000000E-03 0.  1.
         12    1    3    3    0    0 -0.78324053627E-02 -0.23146153215E+01 -0.40431206840E+01  0.46587906476E+01  0.00000000000E+00 0. -1.
</event>
<event>
 7    1  0.2886681E-010  0.4778728E+02  0.7816164E-02  0.1312668E+00
        -11   -1    0    0    0    0  0.00000000000E+00  0.00000000000E+00  0.45593999997E+02  0.45594000000E+02  0.51100000000E-03 0. -1.
         11   -1    0    0    0    0 -0.00000000000E+00 -0.00000000000E+00 -0.45593999997E+02  0.45594000000E+02  0.51100000000E-03 0.  1.
    9900012    2    1    2    0    0 -0.24813680004E+02  0.19436025510E+02  0.29835295685E+02  0.47787277983E+02  0.20000031637E+02 0.  0.
        -12    1    1    2    0    0  0.24813680004E+02 -0.19436025510E+02 -0.29835295685E+02  0.43400722017E+02  0.00000000000E+00 0.  1.
         11    1    3    3    0    0 -0.13167407967E+02  0.94803187164E+01  0.10201743039E+02  0.19165923845E+02  0.51100000000E-03 0. -1.
        -11    1    3    3    0    0 -0.26092203150E+01  0.79538812721E+01  0.17077564568E+02  0.19018818832E+02  0.51100000000E-03 0.  1.
        -12    1    3    3    0    0 -0.90370517222E+01  0.20018255213E+01  0.25559880778E+01  0.96025353059E+01  0.00000000000E+00 0.  1.
</event>
<event>
 7    1  0.2886681E-010  0.4778727E+02  0.7816164E-02  0.1312668E+00
        -11   -1    0    0    0    0  0.00000000000E+00  0.00000000000E+00  0.45593999997E+02  0.45594000000E+02  0.51100000000E-03 0.  1.
         11   -1    0    0    0    0 -0.00000000000E+00 -0.00000000000E+00 -0.45593999997E+02  0.45594000000E+02  0.51100000000E-03 0. -1.
    9900012    2    1    2    0    0 -0.45150873781E+01  0.30522349222E+02 -0.30522502568E+02  0.47787274441E+02  0.20000015485E+02 0.  0.
        -12    1    1    2    0    0  0.45150873781E+01 -0.30522349222E+02  0.30522502568E+02  0.43400725559E+02  0.00000000000E+00 0.  1.
         11    1    3    3    0    0 -0.43654644592E+01  0.26412928226E+02 -0.29629277358E+02  0.39932369507E+02  0.51100000000E-03 0. -1.
        -11    1    3    3    0    0 -0.17397480202E+01  0.38312255115E+01  0.19093415759E+01  0.46206706881E+01  0.51100000000E-03 0.  1.
        -12    1    3    3    0    0  0.15901251013E+01  0.27819548435E+00 -0.28025667864E+01  0.32342342459E+01  0.00000000000E+00 0.  1.
</event>
<event>
 7    1  0.2886681E-010  0.4778723E+02  0.7816164E-02  0.1312668E+00
        -11   -1    0    0    0    0  0.00000000000E+00  0.00000000000E+00  0.45593999997E+02  0.45594000000E+02  0.51100000000E-03 0.  1.
         11   -1    0    0    0    0 -0.00000000000E+00 -0.00000000000E+00 -0.45593999997E+02  0.45594000000E+02  0.51100000000E-03 0. -1.
    9900012    2    1    2    0    0 -0.11750667523E+02  0.35614291866E+02 -0.21844237786E+02  0.47787231611E+02  0.19999820206E+02 0.  0.
        -12    1    1    2    0    0  0.11750667523E+02 -0.35614291866E+02  0.21844237786E+02  0.43400768389E+02  0.00000000000E+00 0.  1.
         11    1    3    3    0    0 -0.87587470820E+01  0.18515085041E+02 -0.14542556935E+02  0.25119912162E+02  0.51100000000E-03 0. -1.
        -11    1    3    3    0    0 -0.26687723798E+01  0.22759780829E+01  0.29980178271E+01  0.46141665988E+01  0.51100000000E-03 0.  1.
         12    1    3    3    0    0 -0.32314806100E+00  0.14823228742E+02 -0.10299698678E+02  0.18053152850E+02  0.00000000000E+00 0. -1.
</event>
<event>
 7    1  0.2886681E-010  0.4778727E+02  0.7816164E-02  0.1312668E+00
        -11   -1    0    0    0    0  0.00000000000E+00  0.00000000000E+00  0.45593999997E+02  0.45594000000E+02  0.51100000000E-03 0.  1.
         11   -1    0    0    0    0 -0.00000000000E+00 -0.00000000000E+00 -0.45593999997E+02  0.45594000000E+02  0.51100000000E-03 0. -1.
    9900012    2    1    2    0    0 -0.30489274146E+02 -0.11678060247E+02 -0.28594588849E+02  0.47787269125E+02  0.19999991248E+02 0.  0.
        -12    1    1    2    0    0  0.30489274146E+02  0.11678060247E+02  0.28594588849E+02  0.43400730875E+02  0.00000000000E+00 0.  1.
         11    1    3    3    0    0 -0.45589122876E+01  0.99448483425E+00 -0.51086830908E+00  0.46940034110E+01  0.51100000000E-03 0.  1.
        -11    1    3    3    0    0 -0.19542850423E+02 -0.21706418458E+01 -0.12724665195E+02  0.23421182577E+02  0.51100000000E-03 0. -1.
        -12    1    3    3    0    0 -0.63875114346E+01 -0.10501903236E+02 -0.15359055344E+02  0.19672083137E+02  0.00000000000E+00 0.  1.
</event>
<event>
 7    1  0.2886681E-010  0.4778725E+02  0.7816164E-02  0.1312668E+00
        -11   -1    0    0    0    0  0.00000000000E+00  0.00000000000E+00  0.45593999997E+02  0.45594000000E+02  0.51100000000E-03 0.  1.
         11   -1    0    0    0    0 -0.00000000000E+00 -0.00000000000E+00 -0.45593999997E+02  0.45594000000E+02  0.51100000000E-03 0. -1.
    9900012    2    1    2    0    0 -0.15003175538E+02  0.19279355589E+01 -0.40679392498E+02  0.47787249018E+02  0.19999899573E+02 0.  0.
        -12    1    1    2    0    0  0.15003175538E+02 -0.19279355589E+01  0.40679392498E+02  0.43400750982E+02  0.00000000000E+00 0.  1.
         11    1    3    3    0    0 -0.48119625065E+01 -0.12261111931E+01 -0.14184036837E+02  0.15028148025E+02  0.51100000000E-03 0. -1.
        -11    1    3    3    0    0 -0.25053315452E+01 -0.58224775379E+01 -0.14949025209E+02  0.16237342325E+02  0.51100000000E-03 0.  1.
        -12    1    3    3    0    0 -0.76858814866E+01  0.89765242899E+01 -0.11546330453E+02  0.16521758668E+02  0.00000000000E+00 0.  1.
</event>
<event>
 7    1  0.2886681E-010  0.4778727E+02  0.7816164E-02  0.1312668E+00
        -11   -1    0    0    0    0  0.00000000000E+00  0.00000000000E+00  0.45593999997E+02  0.45594000000E+02  0.51100000000E-03 0.  1.
         11   -1    0    0    0    0 -0.00000000000E+00 -0.00000000000E+00 -0.45593999997E+02  0.45594000000E+02  0.51100000000E-03 0. -1.
    9900012    2    1    2    0    0 -0.14185538409E+02 -0.34151040664E+02 -0.22717846301E+02  0.47787267069E+02  0.19999981875E+02 0.  0.
        -12    1    1    2    0    0  0.14185538409E+02  0.34151040664E+02  0.22717846301E+02  0.43400732931E+02  0.00000000000E+00 0.  1.
         11    1    3    3    0    0 -0.99274606960E+01 -0.33743956748E+02 -0.19326157770E+02  0.40133645078E+02  0.51100000000E-03 0. -1.
        -11    1    3    3    0    0 -0.32841118738E+01  0.19218968226E+01 -0.34387503869E+01  0.51287505965E+01  0.51100000000E-03 0.  1.
         12    1    3    3    0    0 -0.97396583887E+00 -0.23289807391E+01  0.47061856354E-01  0.25248713941E+01  0.00000000000E+00 0. -1.
</event>
<event>
 7    1  0.2886681E-010  0.4778727E+02  0.7816164E-02  0.1312668E+00
        -11   -1    0    0    0    0  0.00000000000E+00  0.00000000000E+00  0.45593999997E+02  0.45594000000E+02  0.51100000000E-03 0. -1.
         11   -1    0    0    0    0 -0.00000000000E+00 -0.00000000000E+00 -0.45593999997E+02  0.45594000000E+02  0.51100000000E-03 0.  1.
    9900012    2    1    2    0    0 -0.20633373972E+02  0.37547135630E+02  0.69353886820E+01  0.47787272682E+02  0.20000007468E+02 0.  0.
        -12    1    1    2    0    0  0.20633373972E+02 -0.37547135630E+02 -0.69353886820E+01  0.43400727318E+02  0.00000000000E+00 0.  1.
         11    1    3    3    0    0 -0.15568334392E+02  0.16953055861E+02  0.78353175082E+01  0.24314015289E+02  0.51100000000E-03 0. -1.
        -11    1    3    3    0    0  0.13859294811E+01  0.63397328991E+01 -0.38584397634E+01  0.75498722788E+01  0.51100000000E-03 0.  1.
        -12    1    3    3    0    0 -0.64509690611E+01  0.14254346870E+02  0.29585109372E+01  0.15923385114E+02  0.00000000000E+00 0.  1.
</event>
<event>
 7    1  0.2886681E-010  0.4778727E+02  0.7816164E-02  0.1312668E+00
        -11   -1    0    0    0    0  0.00000000000E+00  0.00000000000E+00  0.45593999997E+02  0.45594000000E+02  0.51100000000E-03 0. -1.
         11   -1    0    0    0    0 -0.00000000000E+00 -0.00000000000E+00 -0.45593999997E+02  0.45594000000E+02  0.51100000000E-03 0.  1.
    9900012    2    1    2    0    0  0.34758021752E+01  0.28132523332E+02  0.32864923397E+02  0.47787271208E+02  0.20000000747E+02 0.  0.
        -12    1    1    2    0    0 -0.34758021752E+01 -0.28132523332E+02 -0.32864923397E+02  0.43400728792E+02  0.00000000000E+00 0.  1.
         11    1    3    3    0    0 -0.35087457033E+01  0.23477614664E+00  0.70016218541E+01  0.78351212562E+01  0.51100000000E-03 0. -1.
        -11    1    3    3    0    0  0.30171295069E+01  0.25710078315E+02  0.21318984898E+02  0.33535210075E+02  0.51100000000E-03 0.  1.
        -12    1    3    3    0    0  0.39674183715E+01  0.21876688702E+01  0.45443166446E+01  0.64169398772E+01  0.00000000000E+00 0.  1.
</event>
<event>
 7    1  0.2886681E-010  0.4778727E+02  0.7816164E-02  0.1312668E+00
        -11   -1    0    0    0    0  0.00000000000E+00  0.00000000000E+00  0.45593999997E+02  0.45594000000E+02  0.51100000000E-03 0. -1.
         11   -1    0    0    0    0 -0.00000000000E+00 -0.00000000000E+00 -0.45593999997E+02  0.45594000000E+02  0.51100000000E-03 0.  1.
    9900012    2    1    2    0    0  0.13213594369E+02  0.35537011099E+01  0.41187323730E+02  0.47787268396E+02  0.19999987925E+02 0.  0.
        -12    1    1    2    0    0 -0.13213594369E+02 -0.35537011099E+01 -0.41187323730E+02  0.43400731604E+02  0.00000000000E+00 0.  1.
         11    1    3    3    0    0  0.18498533163E+01  0.54313212864E+00  0.33137401606E+02  0.33193438136E+02  0.51100000000E-03 0. -1.
        -11    1    3    3    0    0  0.10431000499E+02  0.19190598435E+01  0.77267129637E+01  0.13122143711E+02  0.51100000000E-03 0.  1.
         12    1    3    3    0    0  0.93274055365E+00  0.10915091377E+01  0.32320916008E+00  0.14716865493E+01  0.00000000000E+00 0. -1.
</event>
<event>
 7    1  0.2886681E-010  0.4778727E+02  0.7816164E-02  0.1312668E+00
        -11   -1    0    0    0    0  0.00000000000E+00  0.00000000000E+00  0.45593999997E+02  0.45594000000E+02  0.51100000000E-03 0.  1.
         11   -1    0    0    0    0 -0.00000000000E+00 -0.00000000000E+00 -0.45593999997E+02  0.45594000000E+02  0.51100000000E-03 0. -1.
    9900012    2    1    2    0    0 -0.11568090411E+02  0.37932104707E+02 -0.17633994627E+02  0.47787273626E+02  0.20000011771E+02 0.  0.
        -12    1    1    2    0    0  0.11568090411E+02 -0.37932104707E+02  0.17633994627E+02  0.43400726374E+02  0.00000000000E+00 0.  1.
         11    1    3    3    0    0 -0.78206155820E+01  0.21683779838E+02  0.48746602884E+00  0.23056147977E+02  0.51100000000E-03 0. -1.
        -11    1    3    3    0    0 -0.83557072003E+00  0.77522152358E+01 -0.74619139963E+01  0.10792366758E+02  0.51100000000E-03 0.  1.
         12    1    3    3    0    0 -0.29119041090E+01  0.84961096331E+01 -0.10659546659E+02  0.13938758891E+02  0.00000000000E+00 0. -1.
</event>
<event>
 7    1  0.2886681E-010  0.4778727E+02  0.7816164E-02  0.1312668E+00
        -11   -1    0    0    0    0  0.00000000000E+00  0.00000000000E+00  0.45593999997E+02  0.45594000000E+02  0.51100000000E-03 0. -1.
         11   -1    0    0    0    0 -0.00000000000E+00 -0.00000000000E+00 -0.45593999997E+02  0.45594000000E+02  0.51100000000E-03 0.  1.
    9900012    2    1    2    0    0 -0.17128893280E+02 -0.39493616872E+02  0.55207097432E+01  0.47787274260E+02  0.20000014663E+02 0.  0.
        -12    1    1    2    0    0  0.17128893280E+02  0.39493616872E+02 -0.55207097432E+01  0.43400725740E+02  0.00000000000E+00 0.  1.
         11    1    3    3    0    0 -0.51627107724E+01 -0.28799528493E+01  0.18708691099E+01  0.62006340339E+01  0.51100000000E-03 0. -1.
        -11    1    3    3    0    0  0.55182200176E+00 -0.25050038546E+01 -0.37150134551E+01  0.45145184755E+01  0.51100000000E-03 0.  1.
        -12    1    3    3    0    0 -0.12518004509E+02 -0.34108660168E+02  0.73648540883E+01  0.37072121751E+02  0.00000000000E+00 0.  1.
</event>
<event>
 7    1  0.2886681E-010  0.4778727E+02  0.7816164E-02  0.1312668E+00
        -11   -1    0    0    0    0  0.00000000000E+00  0.00000000000E+00  0.45593999997E+02  0.45594000000E+02  0.51100000000E-03 0.  1.
         11   -1    0    0    0    0 -0.00000000000E+00 -0.00000000000E+00 -0.45593999997E+02  0.45594000000E+02  0.51100000000E-03 0. -1.
    9900012    2    1    2    0    0  0.15944506863E+02 -0.32193237425E+02 -0.24351414141E+02  0.47787271830E+02  0.20000003582E+02 0.  0.
        -12    1    1    2    0    0 -0.15944506863E+02  0.32193237425E+02  0.24351414141E+02  0.43400728170E+02  0.00000000000E+00 0.  1.
         11    1    3    3    0    0  0.65052997069E+00 -0.93073094664E+01 -0.95180035040E+01  0.13328225302E+02  0.51100000000E-03 0. -1.
        -11    1    3    3    0    0  0.11470181747E+02 -0.18117278670E+02 -0.37024820807E+01  0.21760267221E+02  0.51100000000E-03 0.  1.
        -12    1    3    3    0    0  0.38237951448E+01 -0.47686492886E+01 -0.11130928557E+02  0.12698779307E+02  0.00000000000E+00 0.  1.
</event>
<event>
 7    1  0.2886681E-010  0.4778727E+02  0.7816164E-02  0.1312668E+00
        -11   -1    0    0    0    0  0.00000000000E+00  0.00000000000E+00  0.45593999997E+02  0.45594000000E+02  0.51100000000E-03 0. -1.
         11   -1    0    0    0    0 -0.00000000000E+00 -0.00000000000E+00 -0.45593999997E+02  0.45594000000E+02  0.51100000000E-03 0.  1.
    9900012    2    1    2    0    0  0.29250132102E+02 -0.30318877028E+02  0.10431640226E+02  0.47787266711E+02  0.19999980241E+02 0.  0.
        -12    1    1    2    0    0 -0.29250132102E+02  0.30318877028E+02 -0.10431640226E+02  0.43400733289E+02  0.00000000000E+00 0.  1.
         11    1    3    3    0    0  0.72996187974E+01 -0.14973297649E+02  0.10176974460E+02  0.19520627205E+02  0.51100000000E-03 0. -1.
        -11    1    3    3    0    0  0.63312958977E+01 -0.16611146059E+00  0.12833188912E+01  0.64621829438E+01  0.51100000000E-03 0.  1.
         12    1    3    3    0    0  0.15619217407E+02 -0.15179467918E+02 -0.10286531252E+01  0.21804456562E+02  0.00000000000E+00 0. -1.
</event>
<event>
 7    1  0.2886681E-010  0.4778727E+02  0.7816164E-02  0.1312668E+00
        -11   -1    0    0    0    0  0.00000000000E+00  0.00000000000E+00  0.45593999997E+02  0.45594000000E+02  0.51100000000E-03 0. -1.
         11   -1    0    0    0    0 -0.00000000000E+00 -0.00000000000E+00 -0.45593999997E+02  0.45594000000E+02  0.51100000000E-03 0.  1.
    9900012    2    1    2    0    0 -0.11717401992E+01 -0.28478404301E+02  0.32729664300E+02  0.47787269455E+02  0.19999992754E+02 0.  0.
        -12    1    1    2    0    0  0.11717401992E+01  0.28478404301E+02 -0.32729664300E+02  0.43400730545E+02  0.00000000000E+00 0.  1.
         11    1    3    3    0    0 -0.38222467547E+01 -0.12575368275E+00  0.66420564136E+01  0.76643524127E+01  0.51100000000E-03 0. -1.
        -11    1    3    3    0    0  0.67993457983E+01 -0.19548714794E+02  0.16611209430E+02  0.26538945578E+02  0.51100000000E-03 0.  1.
         12    1    3    3    0    0 -0.41488392428E+01 -0.88039358238E+01  0.94763984562E+01  0.13583971465E+02  0.00000000000E+00 0. -1.
</event>
<event>
 7    1  0.2886681E-010  0.4778727E+02  0.7816164E-02  0.1312668E+00
        -11   -1    0    0    0    0  0.00000000000E+00  0.00000000000E+00  0.45593999997E+02  0.45594000000E+02  0.51100000000E-03 0.  1.
         11   -1    0    0    0    0 -0.00000000000E+00 -0.00000000000E+00 -0.45593999997E+02  0.45594000000E+02  0.51100000000E-03 0. -1.
    9900012    2    1    2    0    0 -0.39269750605E+02  0.84364299896E+01 -0.16441911386E+02  0.47787272891E+02  0.20000008419E+02 0.  0.
        -12    1    1    2    0    0  0.39269750605E+02 -0.84364299896E+01  0.16441911386E+02  0.43400727109E+02  0.00000000000E+00 0.  1.
         11    1    3    3    0    0 -0.15560552561E+02 -0.55650838381E+01 -0.59964467964E+01  0.17580054851E+02  0.51100000000E-03 0. -1.
        -11    1    3    3    0    0 -0.16010327882E+02  0.84581449684E+01 -0.34819381974E+01  0.18438945443E+02  0.51100000000E-03 0.  1.
         12    1    3    3    0    0 -0.76988701622E+01  0.55433688593E+01 -0.69635263923E+01  0.11768272596E+02  0.00000000000E+00 0. -1.
</event>
<event>
 7    1  0.2886681E-010  0.4778727E+02  0.7816164E-02  0.1312668E+00
        -11   -1    0    0    0    0  0.00000000000E+00  0.00000000000E+00  0.45593999997E+02  0.45594000000E+02  0.51100000000E-03 0.  1.
         11   -1    0    0    0    0 -0.00000000000E+00 -0.00000000000E+00 -0.45593999997E+02  0.45594000000E+02  0.51100000000E-03 0. -1.
    9900012    2    1    2    0    0 -0.40842438054E+01 -0.36848684387E+02 -0.22563620314E+02  0.47787267861E+02  0.19999985486E+02 0.  0.
        -12    1    1    2    0    0  0.40842438054E+01  0.36848684387E+02  0.22563620314E+02  0.43400732139E+02  0.00000000000E+00 0.  1.
         11    1    3    3    0    0 -0.64451970080E+01 -0.33604904602E+02 -0.16038436993E+02  0.37789702820E+02  0.51100000000E-03 0. -1.
        -11    1    3    3    0    0 -0.18986856549E+00 -0.85208385186E-01 -0.58835355467E+01  0.58872150743E+01  0.51100000000E-03 0.  1.
         12    1    3    3    0    0  0.25508217681E+01 -0.31585714005E+01 -0.64164777349E+00  0.41103499669E+01  0.00000000000E+00 0. -1.
</event>
<event>
 7    1  0.2886681E-010  0.4778727E+02  0.7816164E-02  0.1312668E+00
        -11   -1    0    0    0    0  0.00000000000E+00  0.00000000000E+00  0.45593999997E+02  0.45594000000E+02  0.51100000000E-03 0.  1.
         11   -1    0    0    0    0 -0.00000000000E+00 -0.00000000000E+00 -0.45593999997E+02  0.45594000000E+02  0.51100000000E-03 0. -1.
    9900012    2    1    2    0    0  0.26221417285E+02  0.23413096798E+02 -0.25453633397E+02  0.47787270983E+02  0.19999999719E+02 0.  0.
        -12    1    1    2    0    0 -0.26221417285E+02 -0.23413096798E+02  0.25453633397E+02  0.43400729017E+02  0.00000000000E+00 0.  1.
         11    1    3    3    0    0  0.16592625366E+02  0.15902372735E+02 -0.71872613594E+01  0.24080228430E+02  0.51100000000E-03 0. -1.
        -11    1    3    3    0    0  0.26292935515E+01 -0.35132314303E+00 -0.32507591365E-01  0.26528606325E+01  0.51100000000E-03 0.  1.
         12    1    3    3    0    0  0.69994983669E+01  0.78620472066E+01 -0.18233864447E+02  0.21054181920E+02  0.00000000000E+00 0. -1.
</event>
<event>
 7    1  0.2886681E-010  0.4778729E+02  0.7816164E-02  0.1312668E+00
        -11   -1    0    0    0    0  0.00000000000E+00  0.00000000000E+00  0.45593999997E+02  0.45594000000E+02  0.51100000000E-03 0. -1.
         11   -1    0    0    0    0 -0.00000000000E+00 -0.00000000000E+00 -0.45593999997E+02  0.45594000000E+02  0.51100000000E-03 0.  1.
    9900012    2    1    2    0    0  0.52690923288E+01 -0.42826938091E+02  0.46596177934E+01  0.47787285741E+02  0.20000067005E+02 0.  0.
        -12    1    1    2    0    0 -0.52690923288E+01  0.42826938091E+02 -0.46596177934E+01  0.43400714259E+02  0.00000000000E+00 0.  1.
         11    1    3    3    0    0  0.48887925723E+01 -0.18057619537E+02  0.93466570655E+01  0.20912625725E+02  0.51100000000E-03 0. -1.
        -11    1    3    3    0    0  0.11081466512E+01 -0.47882546515E+00 -0.21179774642E+01  0.24378456938E+01  0.51100000000E-03 0.  1.
         12    1    3    3    0    0 -0.72784689479E+00 -0.24290493089E+02 -0.25690618078E+01  0.24436814322E+02  0.00000000000E+00 0. -1.
</event>
<event>
 7    1  0.2886681E-010  0.4778727E+02  0.7816164E-02  0.1312668E+00
        -11   -1    0    0    0    0  0.00000000000E+00  0.00000000000E+00  0.45593999997E+02  0.45594000000E+02  0.51100000000E-03 0. -1.
         11   -1    0    0    0    0 -0.00000000000E+00 -0.00000000000E+00 -0.45593999997E+02  0.45594000000E+02  0.51100000000E-03 0.  1.
    9900012    2    1    2    0    0 -0.23876950017E+02  0.24913277603E+02  0.26321917185E+02  0.47787268816E+02  0.19999989840E+02 0.  0.
        -12    1    1    2    0    0  0.23876950017E+02 -0.24913277603E+02 -0.26321917185E+02  0.43400731184E+02  0.00000000000E+00 0.  1.
         11    1    3    3    0    0  0.26457898469E+01  0.12539016746E+01  0.25428507050E+01  0.38779586502E+01  0.51100000000E-03 0. -1.
        -11    1    3    3    0    0 -0.31577906502E+01  0.35137813346E+01  0.79176975467E+01  0.92199910933E+01  0.51100000000E-03 0.  1.
         12    1    3    3    0    0 -0.23364949213E+02  0.20145594594E+02  0.15861368933E+02  0.34689319072E+02  0.00000000000E+00 0. -1.
</event>
<event>
 7    1  0.2886681E-010  0.4778727E+02  0.7816164E-02  0.1312668E+00
        -11   -1    0    0    0    0  0.00000000000E+00  0.00000000000E+00  0.45593999997E+02  0.45594000000E+02  0.51100000000E-03 0.  1.
         11   -1    0    0    0    0 -0.00000000000E+00 -0.00000000000E+00 -0.45593999997E+02  0.45594000000E+02  0.51100000000E-03 0. -1.
    9900012    2    1    2    0    0 -0.33227652879E+02  0.34157279857E+01 -0.27710634642E+02  0.47787269755E+02  0.19999994122E+02 0.  0.
        -12    1    1    2    0    0  0.33227652879E+02 -0.34157279857E+01  0.27710634642E+02  0.43400730245E+02  0.00000000000E+00 0.  1.
         11    1    3    3    0    0 -0.26149882225E+02  0.15653550435E+01 -0.18990698687E+02  0.32356039834E+02  0.51100000000E-03 0. -1.
        -11    1    3    3    0    0 -0.84496667914E+00  0.53673191569E+01 -0.49120758256E+01  0.73246551317E+01  0.51100000000E-03 0.  1.
        -12    1    3    3    0    0 -0.62328039746E+01 -0.35169462147E+01 -0.38078601290E+01  0.81065747899E+01  0.00000000000E+00 0.  1.
</event>
<event>
 7    1  0.2886681E-010  0.4778727E+02  0.7816164E-02  0.1312668E+00
        -11   -1    0    0    0    0  0.00000000000E+00  0.00000000000E+00  0.45593999997E+02  0.45594000000E+02  0.51100000000E-03 0.  1.
         11   -1    0    0    0    0 -0.00000000000E+00 -0.00000000000E+00 -0.45593999997E+02  0.45594000000E+02  0.51100000000E-03 0. -1.
    9900012    2    1    2    0    0 -0.33733798361E+02  0.26226242742E+01 -0.27180428605E+02  0.47787274095E+02  0.20000013908E+02 0.  0.
        -12    1    1    2    0    0  0.33733798361E+02 -0.26226242742E+01  0.27180428605E+02  0.43400725905E+02  0.00000000000E+00 0.  1.
         11    1    3    3    0    0 -0.28981674150E+02  0.69075220756E+01 -0.25361481020E+02  0.39126155159E+02  0.51100000000E-03 0. -1.
        -11    1    3    3    0    0 -0.31485974512E+01 -0.22728740630E+00 -0.27653050904E+01  0.41966936961E+01  0.51100000000E-03 0.  1.
         12    1    3    3    0    0 -0.16035267603E+01 -0.40576103951E+01  0.94635750594E+00  0.44644252395E+01  0.00000000000E+00 0. -1.
</event>
<event>
 7    1  0.2886681E-010  0.4778730E+02  0.7816164E-02  0.1312668E+00
        -11   -1    0    0    0    0  0.00000000000E+00  0.00000000000E+00  0.45593999997E+02  0.45594000000E+02  0.51100000000E-03 0.  1.
         11   -1    0    0    0    0 -0.00000000000E+00 -0.00000000000E+00 -0.45593999997E+02  0.45594000000E+02  0.51100000000E-03 0. -1.
    9900012    2    1    2    0    0  0.37050205444E+02  0.84391936440E+01  0.20968625406E+02  0.47787297653E+02  0.20000121320E+02 0.  0.
        -12    1    1    2    0    0 -0.37050205444E+02 -0.84391936440E+01 -0.20968625406E+02  0.43400702347E+02  0.00000000000E+00 0.  1.
         11    1    3    3    0    0  0.21071205449E+02  0.11210035002E+01  0.23840271646E+01  0.21235252146E+02  0.51100000000E-03 0. -1.
        -11    1    3    3    0    0  0.69369486331E+01  0.65258462944E+01  0.12091671341E+02  0.15392090251E+02  0.51100000000E-03 0.  1.
         12    1    3    3    0    0  0.90420513618E+01  0.79234384931E+00  0.64929269001E+01  0.11159955257E+02  0.00000000000E+00 0. -1.
</event>
<event>
 7    1  0.2886681E-010  0.4778727E+02  0.7816164E-02  0.1312668E+00
        -11   -1    0    0    0    0  0.00000000000E+00  0.00000000000E+00  0.45593999997E+02  0.45594000000E+02  0.51100000000E-03 0.  1.
         11   -1    0    0    0    0 -0.00000000000E+00 -0.00000000000E+00 -0.45593999997E+02  0.45594000000E+02  0.51100000000E-03 0. -1.
    9900012    2    1    2    0    0 -0.18059197297E+02 -0.37142953346E+02 -0.13337534208E+02  0.47787269487E+02  0.19999992899E+02 0.  0.
        -12    1    1    2    0    0  0.18059197297E+02  0.37142953346E+02  0.13337534208E+02  0.43400730513E+02  0.00000000000E+00 0.  1.
         11    1    3    3    0    0 -0.15089619509E+02 -0.32481380261E+02 -0.76529316771E+01  0.36623817989E+02  0.51100000000E-03 0. -1.
        -11    1    3    3    0    0 -0.29890592235E+01  0.15694791570E+01 -0.19398987928E+01  0.38937061334E+01  0.51100000000E-03 0.  1.
         12    1    3    3    0    0  0.19481435547E-01 -0.62310522427E+01 -0.37447037385E+01  0.72697453647E+01  0.00000000000E+00 0. -1.
</event>
<event>
 7    1  0.2886681E-010  0.4778724E+02  0.7816164E-02  0.1312668E+00
        -11   -1    0    0    0    0  0.00000000000E+00  0.00000000000E+00  0.45593999997E+02  0.45594000000E+02  0.51100000000E-03 0. -1.
         11   -1    0    0    0    0 -0.00000000000E+00 -0.00000000000E+00 -0.45593999997E+02  0.45594000000E+02  0.51100000000E-03 0.  1.
    9900012    2    1    2    0    0  0.53161559827E+01  0.40195280362E+02  0.15482373491E+02  0.47787240021E+02  0.19999858552E+02 0.  0.
        -12    1    1    2    0    0 -0.53161559827E+01 -0.40195280362E+02 -0.15482373491E+02  0.43400759979E+02  0.00000000000E+00 0.  1.
         11    1    3    3    0    0 -0.37124659407E+01  0.11453140969E+01  0.35875727206E+01  0.52881779498E+01  0.51100000000E-03 0. -1.
        -11    1    3    3    0    0 -0.11818095755E+01  0.47278312891E+01  0.39569714918E+00  0.48893393282E+01  0.51100000000E-03 0.  1.
         12    1    3    3    0    0  0.10210431499E+02  0.34322134976E+02  0.11499103621E+02  0.37609722743E+02  0.00000000000E+00 0. -1.
</event>
<event>
 7    1  0.2886681E-010  0.4778726E+02  0.7816164E-02  0.1312668E+00
        -11   -1    0    0    0    0  0.00000000000E+00  0.00000000000E+00  0.45593999997E+02  0.45594000000E+02  0.51100000000E-03 0. -1.
         11   -1    0    0    0    0 -0.00000000000E+00 -0.00000000000E+00 -0.45593999997E+02  0.45594000000E+02  0.51100000000E-03 0.  1.
    9900012    2    1    2    0    0  0.43397720919E+02 -0.41485275570E+00  0.30031586307E+00  0.47787257226E+02  0.19999936994E+02 0.  0.
        -12    1    1    2    0    0 -0.43397720919E+02  0.41485275570E+00 -0.30031586307E+00  0.43400742774E+02  0.00000000000E+00 0.  1.
         11    1    3    3    0    0  0.28695217038E+02 -0.67304654558E+01  0.32064434721E+01  0.29647865456E+02  0.51100000000E-03 0. -1.
        -11    1    3    3    0    0  0.44977015114E+01 -0.18192471916E+01 -0.64158015310E+00  0.48939354903E+01  0.51100000000E-03 0.  1.
         12    1    3    3    0    0  0.10204802369E+02  0.81348598917E+01 -0.22645474559E+01  0.13245456279E+02  0.00000000000E+00 0. -1.
</event>
<event>
 7    1  0.2886681E-010  0.4778727E+02  0.7816164E-02  0.1312668E+00
        -11   -1    0    0    0    0  0.00000000000E+00  0.00000000000E+00  0.45593999997E+02  0.45594000000E+02  0.51100000000E-03 0.  1.
         11   -1    0    0    0    0 -0.00000000000E+00 -0.00000000000E+00 -0.45593999997E+02  0.45594000000E+02  0.51100000000E-03 0. -1.
    9900012    2    1    2    0    0 -0.30211604294E+02 -0.15346688765E+01 -0.31121174648E+02  0.47787265513E+02  0.19999974778E+02 0.  0.
        -12    1    1    2    0    0  0.30211604294E+02  0.15346688765E+01  0.31121174648E+02  0.43400734487E+02  0.00000000000E+00 0.  1.
         11    1    3    3    0    0 -0.30811101278E+02 -0.35460416386E+01 -0.27755523420E+02  0.41620517222E+02  0.51100000000E-03 0. -1.
        -11    1    3    3    0    0  0.16200054257E+01 -0.69163375786E+00 -0.26637371548E+01  0.31934731446E+01  0.51100000000E-03 0.  1.
         12    1    3    3    0    0 -0.10205084411E+01  0.27030065200E+01 -0.70191407379E+00  0.29732751458E+01  0.00000000000E+00 0. -1.
</event>
<event>
 7    1  0.2886681E-010  0.4778727E+02  0.7816164E-02  0.1312668E+00
        -11   -1    0    0    0    0  0.00000000000E+00  0.00000000000E+00  0.45593999997E+02  0.45594000000E+02  0.51100000000E-03 0.  1.
         11   -1    0    0    0    0 -0.00000000000E+00 -0.00000000000E+00 -0.45593999997E+02  0.45594000000E+02  0.51100000000E-03 0. -1.
    9900012    2    1    2    0    0 -0.19977860896E+02  0.14428086120E+01 -0.38502295325E+02  0.47787269961E+02  0.19999995058E+02 0.  0.
        -12    1    1    2    0    0  0.19977860896E+02 -0.14428086120E+01  0.38502295325E+02  0.43400730039E+02  0.00000000000E+00 0.  1.
         11    1    3    3    0    0 -0.12826277265E+02  0.46184856102E+01 -0.72154007612E+01  0.15424195480E+02  0.51100000000E-03 0. -1.
        -11    1    3    3    0    0  0.11939055300E+00 -0.46385948532E+00 -0.26714416477E+01  0.27140413528E+01  0.51100000000E-03 0.  1.
         12    1    3    3    0    0 -0.72709741843E+01 -0.27118175129E+01 -0.28615452916E+02  0.29649033127E+02  0.00000000000E+00 0. -1.
</event>
<event>
 7    1  0.2886681E-010  0.4778725E+02  0.7816164E-02  0.1312668E+00
        -11   -1    0    0    0    0  0.00000000000E+00  0.00000000000E+00  0.45593999997E+02  0.45594000000E+02  0.51100000000E-03 0.  1.
         11   -1    0    0    0    0 -0.00000000000E+00 -0.00000000000E+00 -0.45593999997E+02  0.45594000000E+02  0.51100000000E-03 0. -1.
    9900012    2    1    2    0    0 -0.48240164453E+01  0.39300106271E+02 -0.17772327160E+02  0.47787250004E+02  0.19999904068E+02 0.  0.
        -12    1    1    2    0    0  0.48240164453E+01 -0.39300106271E+02  0.17772327160E+02  0.43400749996E+02  0.00000000000E+00 0.  1.
         11    1    3    3    0    0  0.13840808323E+01  0.25309780349E+02 -0.33074711155E+01  0.25562473012E+02  0.51100000000E-03 0. -1.
        -11    1    3    3    0    0 -0.11999714358E+01  0.10360674932E+02 -0.10898540291E+02  0.15085148234E+02  0.51100000000E-03 0.  1.
         12    1    3    3    0    0 -0.50081258418E+01  0.36296509904E+01 -0.35663157529E+01  0.71396287584E+01  0.00000000000E+00 0. -1.
</event>
<event>
 7    1  0.2886681E-010  0.4778726E+02  0.7816164E-02  0.1312668E+00
        -11   -1    0    0    0    0  0.00000000000E+00  0.00000000000E+00  0.45593999997E+02  0.45594000000E+02  0.51100000000E-03 0. -1.
         11   -1    0    0    0    0 -0.00000000000E+00 -0.00000000000E+00 -0.45593999997E+02  0.45594000000E+02  0.51100000000E-03 0.  1.
    9900012    2    1    2    0    0 -0.37713675158E+02  0.12891090861E+02  0.17179135424E+02  0.47787260243E+02  0.19999950752E+02 0.  0.
        -12    1    1    2    0    0  0.37713675158E+02 -0.12891090861E+02 -0.17179135424E+02  0.43400739757E+02  0.00000000000E+00 0.  1.
         11    1    3    3    0    0 -0.15238853874E+02  0.11131134580E+02  0.13957752217E+02  0.23472189324E+02  0.51100000000E-03 0. -1.
        -11    1    3    3    0    0 -0.30200194520E+01 -0.16589683913E+01 -0.18646564030E+01  0.39178613268E+01  0.51100000000E-03 0.  1.
         12    1    3    3    0    0 -0.19454801832E+02  0.34189246719E+01  0.50860396097E+01  0.20397209592E+02  0.00000000000E+00 0. -1.
</event>
<event>
 7    1  0.2886681E-010  0.4778727E+02  0.7816164E-02  0.1312668E+00
        -11   -1    0    0    0    0  0.00000000000E+00  0.00000000000E+00  0.45593999997E+02  0.45594000000E+02  0.51100000000E-03 0.  1.
         11   -1    0    0    0    0 -0.00000000000E+00 -0.00000000000E+00 -0.45593999997E+02  0.45594000000E+02  0.51100000000E-03 0. -1.
    9900012    2    1    2    0    0 -0.20291912255E+01  0.31545458993E+02 -0.29738693081E+02  0.47787268828E+02  0.19999989896E+02 0.  0.
        -12    1    1    2    0    0  0.20291912255E+01 -0.31545458993E+02  0.29738693081E+02  0.43400731172E+02  0.00000000000E+00 0.  1.
         11    1    3    3    0    0 -0.14708268992E+01  0.26004007603E+02 -0.16312193574E+02  0.30732058224E+02  0.51100000000E-03 0. -1.
        -11    1    3    3    0    0  0.41379572856E+01  0.20001907425E+01 -0.51651456291E+01  0.69139122886E+01  0.51100000000E-03 0.  1.
         12    1    3    3    0    0 -0.46963216119E+01  0.35412606471E+01 -0.82613538772E+01  0.10141298316E+02  0.00000000000E+00 0. -1.
</event>
<event>
 7    1  0.2886681E-010  0.4778727E+02  0.7816164E-02  0.1312668E+00
        -11   -1    0    0    0    0  0.00000000000E+00  0.00000000000E+00  0.45593999997E+02  0.45594000000E+02  0.51100000000E-03 0.  1.
         11   -1    0    0    0    0 -0.00000000000E+00 -0.00000000000E+00 -0.45593999997E+02  0.45594000000E+02  0.51100000000E-03 0. -1.
    9900012    2    1    2    0    0  0.20568615722E+02  0.95483005500E+00 -0.38205282731E+02  0.47787270955E+02  0.19999999590E+02 0.  0.
        -12    1    1    2    0    0 -0.20568615722E+02 -0.95483005500E+00  0.38205282731E+02  0.43400729045E+02  0.00000000000E+00 0.  1.
         11    1    3    3    0    0  0.14821611375E+02  0.63844855851E+00 -0.12108608792E+02  0.19149574081E+02  0.51100000000E-03 0. -1.
        -11    1    3    3    0    0  0.23110017471E+01  0.51596782741E+01 -0.15372672557E+02  0.16379318386E+02  0.51100000000E-03 0.  1.
         12    1    3    3    0    0  0.34360025991E+01 -0.48432967776E+01 -0.10724001381E+02  0.12258378488E+02  0.00000000000E+00 0. -1.
</event>
<event>
 7    1  0.2886681E-010  0.4778727E+02  0.7816164E-02  0.1312668E+00
        -11   -1    0    0    0    0  0.00000000000E+00  0.00000000000E+00  0.45593999997E+02  0.45594000000E+02  0.51100000000E-03 0. -1.
         11   -1    0    0    0    0 -0.00000000000E+00 -0.00000000000E+00 -0.45593999997E+02  0.45594000000E+02  0.51100000000E-03 0.  1.
    9900012    2    1    2    0    0 -0.26676281946E+02  0.21163698474E+02  0.26909048263E+02  0.47787273854E+02  0.20000012810E+02 0.  0.
        -12    1    1    2    0    0  0.26676281946E+02 -0.21163698474E+02 -0.26909048263E+02  0.43400726146E+02  0.00000000000E+00 0.  1.
         11    1    3    3    0    0  0.83351146023E+00  0.80968116347E+01  0.31005626976E+01  0.87101428981E+01  0.51100000000E-03 0. -1.
        -11    1    3    3    0    0 -0.26155202560E+02  0.12643889390E+02  0.20734783221E+02  0.35691648818E+02  0.51100000000E-03 0.  1.
         12    1    3    3    0    0 -0.13545908457E+01  0.42299744972E+00  0.30737023443E+01  0.33854821375E+01  0.00000000000E+00 0. -1.
</event>
<event>
 7    1  0.2886681E-010  0.4778727E+02  0.7816164E-02  0.1312668E+00
        -11   -1    0    0    0    0  0.00000000000E+00  0.00000000000E+00  0.45593999997E+02  0.45594000000E+02  0.51100000000E-03 0.  1.
         11   -1    0    0    0    0 -0.00000000000E+00 -0.00000000000E+00 -0.45593999997E+02  0.45594000000E+02  0.51100000000E-03 0. -1.
    9900012    2    1    2    0    0  0.38647180421E+02  0.15083817185E+02 -0.12747450958E+02  0.47787267273E+02  0.19999982804E+02 0.  0.
        -12    1    1    2    0    0 -0.38647180421E+02 -0.15083817185E+02  0.12747450958E+02  0.43400732727E+02  0.00000000000E+00 0.  1.
         11    1    3    3    0    0  0.12789886788E+02  0.12358677011E+01  0.28946175732E+01  0.13171460973E+02  0.51100000000E-03 0. -1.
        -11    1    3    3    0    0 -0.83676166376E+00  0.19697715352E+00 -0.74143346887E+00  0.11352065587E+01  0.51100000000E-03 0.  1.
         12    1    3    3    0    0  0.26694055296E+02  0.13650972330E+02 -0.14900635062E+02  0.33480599741E+02  0.00000000000E+00 0. -1.
</event>
<event>
 7    1  0.2886681E-010  0.4778733E+02  0.7816164E-02  0.1312668E+00
        -11   -1    0    0    0    0  0.00000000000E+00  0.00000000000E+00  0.45593999997E+02  0.45594000000E+02  0.51100000000E-03 0.  1.
         11   -1    0    0    0    0 -0.00000000000E+00 -0.00000000000E+00 -0.45593999997E+02  0.45594000000E+02  0.51100000000E-03 0. -1.
    9900012    2    1    2    0    0 -0.60995901945E+01 -0.26010993387E+02 -0.34202948875E+02  0.47787326166E+02  0.20000251320E+02 0.  0.
        -12    1    1    2    0    0  0.60995901945E+01  0.26010993387E+02  0.34202948875E+02  0.43400673834E+02  0.00000000000E+00 0.  1.
         11    1    3    3    0    0 -0.10319824339E+02 -0.14827445243E+02 -0.16357740081E+02  0.24370629201E+02  0.51100000000E-03 0. -1.
        -11    1    3    3    0    0  0.54405782810E+01 -0.76215880065E+01 -0.63336730651E+01  0.11305039165E+02  0.51100000000E-03 0.  1.
         12    1    3    3    0    0 -0.12203441363E+01 -0.35619601367E+01 -0.11511535728E+02  0.12111657799E+02  0.00000000000E+00 0. -1.
</event>
<event>
 7    1  0.2886681E-010  0.4778727E+02  0.7816164E-02  0.1312668E+00
        -11   -1    0    0    0    0  0.00000000000E+00  0.00000000000E+00  0.45593999997E+02  0.45594000000E+02  0.51100000000E-03 0.  1.
         11   -1    0    0    0    0 -0.00000000000E+00 -0.00000000000E+00 -0.45593999997E+02  0.45594000000E+02  0.51100000000E-03 0. -1.
    9900012    2    1    2    0    0 -0.30430659024E+02 -0.24946632680E+02 -0.18310219975E+02  0.47787266755E+02  0.19999980441E+02 0.  0.
        -12    1    1    2    0    0  0.30430659024E+02  0.24946632680E+02  0.18310219975E+02  0.43400733245E+02  0.00000000000E+00 0.  1.
         11    1    3    3    0    0 -0.26170375748E+02 -0.14705529213E+02 -0.16425211586E+02  0.34218835926E+02  0.51100000000E-03 0. -1.
        -11    1    3    3    0    0 -0.39448310002E+01 -0.12981548447E+01  0.79261650638E+00  0.42279000471E+01  0.51100000000E-03 0.  1.
         12    1    3    3    0    0 -0.31545227578E+00 -0.89429486223E+01 -0.26776248950E+01  0.93405307814E+01  0.00000000000E+00 0. -1.
</event>
<event>
 7    1  0.2886681E-010  0.4778727E+02  0.7816164E-02  0.1312668E+00
        -11   -1    0    0    0    0  0.00000000000E+00  0.00000000000E+00  0.45593999997E+02  0.45594000000E+02  0.51100000000E-03 0.  1.
         11   -1    0    0    0    0 -0.00000000000E+00 -0.00000000000E+00 -0.45593999997E+02  0.45594000000E+02  0.51100000000E-03 0. -1.
    9900012    2    1    2    0    0  0.34199034677E+02 -0.21372741974E+00 -0.26720844134E+02  0.47787272316E+02  0.20000005799E+02 0.  0.
        -12    1    1    2    0    0 -0.34199034677E+02  0.21372741974E+00  0.26720844134E+02  0.43400727684E+02  0.00000000000E+00 0.  1.
         11    1    3    3    0    0  0.52723806894E+01  0.47141486046E+01 -0.13625851133E+01  0.72026268578E+01  0.51100000000E-03 0.  1.
        -11    1    3    3    0    0  0.29954596363E+02 -0.55740275902E+01 -0.24509493671E+02  0.39103233973E+02  0.51100000000E-03 0. -1.
        -12    1    3    3    0    0 -0.10279423750E+01  0.64615156585E+00 -0.84876534928E+00  0.14814114859E+01  0.00000000000E+00 0.  1.
</event>
<event>
 7    1  0.2886681E-010  0.4778727E+02  0.7816164E-02  0.1312668E+00
        -11   -1    0    0    0    0  0.00000000000E+00  0.00000000000E+00  0.45593999997E+02  0.45594000000E+02  0.51100000000E-03 0.  1.
         11   -1    0    0    0    0 -0.00000000000E+00 -0.00000000000E+00 -0.45593999997E+02  0.45594000000E+02  0.51100000000E-03 0. -1.
    9900012    2    1    2    0    0  0.64577880471E-01  0.32440314262E+02 -0.28831321884E+02  0.47787270958E+02  0.19999999608E+02 0.  0.
        -12    1    1    2    0    0 -0.64577880471E-01 -0.32440314262E+02  0.28831321884E+02  0.43400729042E+02  0.00000000000E+00 0.  1.
         11    1    3    3    0    0  0.27215342309E+01  0.18282673579E+02 -0.91642788724E+01  0.20631212017E+02  0.51100000000E-03 0. -1.
        -11    1    3    3    0    0 -0.45035222458E+01  0.61281231015E+00 -0.79226739406E+01  0.91337842199E+01  0.51100000000E-03 0.  1.
         12    1    3    3    0    0  0.18465658954E+01  0.13544828373E+02 -0.11744369071E+02  0.18022274722E+02  0.00000000000E+00 0. -1.
</event>
<event>
 7    1  0.2886681E-010  0.4778728E+02  0.7816164E-02  0.1312668E+00
        -11   -1    0    0    0    0  0.00000000000E+00  0.00000000000E+00  0.45593999997E+02  0.45594000000E+02  0.51100000000E-03 0.  1.
         11   -1    0    0    0    0 -0.00000000000E+00 -0.00000000000E+00 -0.45593999997E+02  0.45594000000E+02  0.51100000000E-03 0. -1.
    9900012    2    1    2    0    0 -0.13325997124E+02 -0.33304640205E+02 -0.24430330644E+02  0.47787282104E+02  0.20000050425E+02 0.  0.
        -12    1    1    2    0    0  0.13325997124E+02  0.33304640205E+02  0.24430330644E+02  0.43400717896E+02  0.00000000000E+00 0.  1.
         11    1    3    3    0    0  0.13848006321E+01 -0.15005390889E+02 -0.96204700482E+01  0.17878279356E+02  0.51100000000E-03 0. -1.
        -11    1    3    3    0    0 -0.66964703852E+01 -0.49571089621E+01 -0.11152400719E+02  0.13920908265E+02  0.51100000000E-03 0.  1.
         12    1    3    3    0    0 -0.80143273709E+01 -0.13342140354E+02 -0.36574598767E+01  0.15988094482E+02  0.00000000000E+00 0. -1.
</event>
<event>
 7    1  0.2886681E-010  0.4778728E+02  0.7816164E-02  0.1312668E+00
        -11   -1    0    0    0    0  0.00000000000E+00  0.00000000000E+00  0.45593999997E+02  0.45594000000E+02  0.51100000000E-03 0.  1.
         11   -1    0    0    0    0 -0.00000000000E+00 -0.00000000000E+00 -0.45593999997E+02  0.45594000000E+02  0.51100000000E-03 0. -1.
    9900012    2    1    2    0    0  0.30231557827E+02 -0.31134529395E+02  0.56295009338E+00  0.47787275097E+02  0.20000018478E+02 0.  0.
        -12    1    1    2    0    0 -0.30231557827E+02  0.31134529395E+02 -0.56295009338E+00  0.43400724903E+02  0.00000000000E+00 0.  1.
         11    1    3    3    0    0  0.13713855249E+02 -0.26160729209E+02  0.14606160217E+01  0.29573416745E+02  0.51100000000E-03 0. -1.
        -11    1    3    3    0    0  0.12477888741E+02 -0.11829324356E+01 -0.15761147596E+01  0.12632544264E+02  0.51100000000E-03 0.  1.
        -12    1    3    3    0    0  0.40398138361E+01 -0.37908677503E+01  0.67844883131E+00  0.55813140879E+01  0.00000000000E+00 0.  1.
</event>
<event>
 7    1  0.2886681E-010  0.4778727E+02  0.7816164E-02  0.1312668E+00
        -11   -1    0    0    0    0  0.00000000000E+00  0.00000000000E+00  0.45593999997E+02  0.45594000000E+02  0.51100000000E-03 0. -1.
         11   -1    0    0    0    0 -0.00000000000E+00 -0.00000000000E+00 -0.45593999997E+02  0.45594000000E+02  0.51100000000E-03 0.  1.
    9900012    2    1    2    0    0  0.27457217093E+02  0.28611049141E+02  0.17638951231E+02  0.47787268394E+02  0.19999987915E+02 0.  0.
        -12    1    1    2    0    0 -0.27457217093E+02 -0.28611049141E+02 -0.17638951231E+02  0.43400731606E+02  0.00000000000E+00 0.  1.
         11    1    3    3    0    0  0.79207072994E+01  0.26727046102E+01  0.43136859759E+01  0.94068507491E+01  0.51100000000E-03 0. -1.
        -11    1    3    3    0    0  0.17528499657E+02  0.15264372937E+02  0.14594383233E+02  0.27445316606E+02  0.51100000000E-03 0.  1.
        -12    1    3    3    0    0  0.20080101371E+01  0.10673971593E+02 -0.12691179784E+01  0.10935101039E+02  0.00000000000E+00 0.  1.
</event>
<event>
 7    1  0.2886681E-010  0.4778727E+02  0.7816164E-02  0.1312668E+00
        -11   -1    0    0    0    0  0.00000000000E+00  0.00000000000E+00  0.45593999997E+02  0.45594000000E+02  0.51100000000E-03 0.  1.
         11   -1    0    0    0    0 -0.00000000000E+00 -0.00000000000E+00 -0.45593999997E+02  0.45594000000E+02  0.51100000000E-03 0. -1.
    9900012    2    1    2    0    0 -0.38493119532E+02 -0.70674993684E+01 -0.18760418251E+02  0.47787273145E+02  0.20000009578E+02 0.  0.
        -12    1    1    2    0    0  0.38493119532E+02  0.70674993684E+01  0.18760418251E+02  0.43400726855E+02  0.00000000000E+00 0.  1.
         11    1    3    3    0    0 -0.65887355827E+01 -0.38041751823E+00  0.30931174039E+01  0.72885889994E+01  0.51100000000E-03 0. -1.
        -11    1    3    3    0    0 -0.29499749787E+02 -0.68682846578E+01 -0.22796981417E+02  0.37909246018E+02  0.51100000000E-03 0.  1.
        -12    1    3    3    0    0 -0.24046341623E+01  0.18120280762E+00  0.94344576307E+00  0.25894381282E+01  0.00000000000E+00 0.  1.
</event>
<event>
 7    1  0.2886681E-010  0.4778727E+02  0.7816164E-02  0.1312668E+00
        -11   -1    0    0    0    0  0.00000000000E+00  0.00000000000E+00  0.45593999997E+02  0.45594000000E+02  0.51100000000E-03 0.  1.
         11   -1    0    0    0    0 -0.00000000000E+00 -0.00000000000E+00 -0.45593999997E+02  0.45594000000E+02  0.51100000000E-03 0. -1.
    9900012    2    1    2    0    0  0.22340269097E+02  0.14659833444E+02 -0.34199782402E+02  0.47787268943E+02  0.19999990419E+02 0.  0.
        -12    1    1    2    0    0 -0.22340269097E+02 -0.14659833444E+02  0.34199782402E+02  0.43400731057E+02  0.00000000000E+00 0.  1.
         11    1    3    3    0    0  0.22948854567E+02  0.94562845295E+01 -0.28778614984E+02  0.38003683028E+02  0.51100000000E-03 0. -1.
        -11    1    3    3    0    0 -0.99918159919E+00 -0.10989435594E+01 -0.37861361518E-01  0.14857572341E+01  0.51100000000E-03 0.  1.
         12    1    3    3    0    0  0.39059612948E+00  0.63024924739E+01 -0.53833060566E+01  0.82978286810E+01  0.00000000000E+00 0. -1.
</event>
<event>
 7    1  0.2886681E-010  0.4778728E+02  0.7816164E-02  0.1312668E+00
        -11   -1    0    0    0    0  0.00000000000E+00  0.00000000000E+00  0.45593999997E+02  0.45594000000E+02  0.51100000000E-03 0.  1.
         11   -1    0    0    0    0 -0.00000000000E+00 -0.00000000000E+00 -0.45593999997E+02  0.45594000000E+02  0.51100000000E-03 0. -1.
    9900012    2    1    2    0    0 -0.96918312608E+01  0.24284825746E+02 -0.34640128711E+02  0.47787275676E+02  0.20000021119E+02 0.  0.
        -12    1    1    2    0    0  0.96918312608E+01 -0.24284825746E+02  0.34640128711E+02  0.43400724324E+02  0.00000000000E+00 0.  1.
         11    1    3    3    0    0 -0.62057761045E+01  0.19266131598E+02 -0.16061701710E+02  0.25839383621E+02  0.51100000000E-03 0. -1.
        -11    1    3    3    0    0 -0.38869217855E+01  0.38495086427E+00 -0.13972842137E+01  0.41483432319E+01  0.51100000000E-03 0.  1.
         12    1    3    3    0    0  0.40086662917E+00  0.46337432840E+01 -0.17181142787E+02  0.17799548824E+02  0.00000000000E+00 0. -1.
</event>
<event>
 7    1  0.2886681E-010  0.4778727E+02  0.7816164E-02  0.1312668E+00
        -11   -1    0    0    0    0  0.00000000000E+00  0.00000000000E+00  0.45593999997E+02  0.45594000000E+02  0.51100000000E-03 0.  1.
         11   -1    0    0    0    0 -0.00000000000E+00 -0.00000000000E+00 -0.45593999997E+02  0.45594000000E+02  0.51100000000E-03 0. -1.
    9900012    2    1    2    0    0  0.11189379665E+02 -0.22121927074E+01 -0.41875144643E+02  0.47787265528E+02  0.19999974849E+02 0.  0.
        -12    1    1    2    0    0 -0.11189379665E+02  0.22121927074E+01  0.41875144643E+02  0.43400734472E+02  0.00000000000E+00 0.  1.
         11    1    3    3    0    0  0.63023427279E+01 -0.78015330792E+01 -0.25937007630E+02  0.27808484448E+02  0.51100000000E-03 0. -1.
        -11    1    3    3    0    0  0.15248021104E+01  0.39612691235E+01 -0.71551768291E+00  0.43044907202E+01  0.51100000000E-03 0.  1.
         12    1    3    3    0    0  0.33622348261E+01  0.16280712483E+01 -0.15222619330E+02  0.15674290360E+02  0.00000000000E+00 0. -1.
</event>
<event>
 7    1  0.2886681E-010  0.4778727E+02  0.7816164E-02  0.1312668E+00
        -11   -1    0    0    0    0  0.00000000000E+00  0.00000000000E+00  0.45593999997E+02  0.45594000000E+02  0.51100000000E-03 0.  1.
         11   -1    0    0    0    0 -0.00000000000E+00 -0.00000000000E+00 -0.45593999997E+02  0.45594000000E+02  0.51100000000E-03 0. -1.
    9900012    2    1    2    0    0 -0.21402411830E+02  0.37488155460E+02 -0.44942267135E+01  0.47787272983E+02  0.20000008836E+02 0.  0.
        -12    1    1    2    0    0  0.21402411830E+02 -0.37488155460E+02  0.44942267135E+01  0.43400727017E+02  0.00000000000E+00 0.  1.
         11    1    3    3    0    0 -0.62850302791E+01  0.19275852137E+02  0.47672521165E+01  0.20827548445E+02  0.51100000000E-03 0. -1.
        -11    1    3    3    0    0 -0.15089655012E+02  0.18726038388E+02 -0.10011831647E+02  0.26049932347E+02  0.51100000000E-03 0.  1.
        -12    1    3    3    0    0 -0.27726538519E-01 -0.51373506578E+00  0.75035281748E+00  0.90979219026E+00  0.00000000000E+00 0.  1.
</event>
<event>
 7    1  0.2886681E-010  0.4778727E+02  0.7816164E-02  0.1312668E+00
        -11   -1    0    0    0    0  0.00000000000E+00  0.00000000000E+00  0.45593999997E+02  0.45594000000E+02  0.51100000000E-03 0. -1.
         11   -1    0    0    0    0 -0.00000000000E+00 -0.00000000000E+00 -0.45593999997E+02  0.45594000000E+02  0.51100000000E-03 0.  1.
    9900012    2    1    2    0    0 -0.10097841471E+02 -0.24698931397E+02  0.34228931847E+02  0.47787269708E+02  0.19999993905E+02 0.  0.
        -12    1    1    2    0    0  0.10097841471E+02  0.24698931397E+02 -0.34228931847E+02  0.43400730292E+02  0.00000000000E+00 0.  1.
         11    1    3    3    0    0 -0.68398977428E+01 -0.14462472278E+02  0.73725274675E+01  0.17615375870E+02  0.51100000000E-03 0.  1.
        -11    1    3    3    0    0 -0.61017237854E+00 -0.63833873379E+01  0.23647341426E+02  0.24501361207E+02  0.51100000000E-03 0. -1.
         12    1    3    3    0    0 -0.26477713496E+01 -0.38530717811E+01  0.32090629533E+01  0.56705326300E+01  0.00000000000E+00 0. -1.
</event>
<event>
 7    1  0.2886681E-010  0.4778727E+02  0.7816164E-02  0.1312668E+00
        -11   -1    0    0    0    0  0.00000000000E+00  0.00000000000E+00  0.45593999997E+02  0.45594000000E+02  0.51100000000E-03 0.  1.
         11   -1    0    0    0    0 -0.00000000000E+00 -0.00000000000E+00 -0.45593999997E+02  0.45594000000E+02  0.51100000000E-03 0. -1.
    9900012    2    1    2    0    0  0.30562606499E+02  0.25001727400E+02 -0.18012886402E+02  0.47787269989E+02  0.19999995188E+02 0.  0.
        -12    1    1    2    0    0 -0.30562606499E+02 -0.25001727400E+02  0.18012886402E+02  0.43400730011E+02  0.00000000000E+00 0.  1.
         11    1    3    3    0    0  0.16005633012E+02  0.39578160827E+01 -0.11683164086E+02  0.20207447132E+02  0.51100000000E-03 0. -1.
        -11    1    3    3    0    0  0.13671052918E+02  0.19265737247E+02 -0.31528111598E+01  0.23832887740E+02  0.51100000000E-03 0.  1.
        -12    1    3    3    0    0  0.88592056791E+00  0.17781740701E+01 -0.31769111556E+01  0.37469351164E+01  0.00000000000E+00 0.  1.
</event>
<event>
 7    1  0.2886681E-010  0.4778727E+02  0.7816164E-02  0.1312668E+00
        -11   -1    0    0    0    0  0.00000000000E+00  0.00000000000E+00  0.45593999997E+02  0.45594000000E+02  0.51100000000E-03 0. -1.
         11   -1    0    0    0    0 -0.00000000000E+00 -0.00000000000E+00 -0.45593999997E+02  0.45594000000E+02  0.51100000000E-03 0.  1.
    9900012    2    1    2    0    0  0.24907028814E+02  0.25095282545E+02  0.25169227135E+02  0.47787270917E+02  0.19999999419E+02 0.  0.
        -12    1    1    2    0    0 -0.24907028814E+02 -0.25095282545E+02 -0.25169227135E+02  0.43400729083E+02  0.00000000000E+00 0.  1.
         11    1    3    3    0    0  0.43250929665E+01 -0.20378267731E+01  0.19971955496E+01  0.51815014668E+01  0.51100000000E-03 0. -1.
        -11    1    3    3    0    0  0.42786900971E+01  0.24742394965E+00  0.33102534947E+01  0.54153657326E+01  0.51100000000E-03 0.  1.
         12    1    3    3    0    0  0.16303245751E+02  0.26885685369E+02  0.19861778091E+02  0.37190403717E+02  0.00000000000E+00 0. -1.
</event>
<event>
 7    1  0.2886681E-010  0.4778727E+02  0.7816164E-02  0.1312668E+00
        -11   -1    0    0    0    0  0.00000000000E+00  0.00000000000E+00  0.45593999997E+02  0.45594000000E+02  0.51100000000E-03 0.  1.
         11   -1    0    0    0    0 -0.00000000000E+00 -0.00000000000E+00 -0.45593999997E+02  0.45594000000E+02  0.51100000000E-03 0. -1.
    9900012    2    1    2    0    0 -0.37047300852E+02 -0.12876992622E+02 -0.18582351653E+02  0.47787271523E+02  0.20000002181E+02 0.  0.
        -12    1    1    2    0    0  0.37047300852E+02  0.12876992622E+02  0.18582351653E+02  0.43400728477E+02  0.00000000000E+00 0.  1.
         11    1    3    3    0    0 -0.31177038104E+02 -0.11022643885E+02 -0.20919932181E+02  0.39129911140E+02  0.51100000000E-03 0. -1.
        -11    1    3    3    0    0 -0.59458979334E+01 -0.29867444193E+01  0.30476218316E+01  0.73186298957E+01  0.51100000000E-03 0.  1.
         12    1    3    3    0    0  0.75635185511E-01  0.11323956824E+01 -0.71004130403E+00  0.13387304868E+01  0.00000000000E+00 0. -1.
</event>
<event>
 7    1  0.2886681E-010  0.4778721E+02  0.7816164E-02  0.1312668E+00
        -11   -1    0    0    0    0  0.00000000000E+00  0.00000000000E+00  0.45593999997E+02  0.45594000000E+02  0.51100000000E-03 0.  1.
         11   -1    0    0    0    0 -0.00000000000E+00 -0.00000000000E+00 -0.45593999997E+02  0.45594000000E+02  0.51100000000E-03 0. -1.
    9900012    2    1    2    0    0 -0.19721793555E+02 -0.19244403367E+02 -0.33531059731E+02  0.47787214654E+02  0.19999742890E+02 0.  0.
        -12    1    1    2    0    0  0.19721793555E+02  0.19244403367E+02  0.33531059731E+02  0.43400785346E+02  0.00000000000E+00 0.  1.
         11    1    3    3    0    0 -0.75238689759E+01 -0.71831657427E+01 -0.29038982219E+01  0.10799958315E+02  0.51100000000E-03 0. -1.
        -11    1    3    3    0    0 -0.24647082154E+01 -0.70699308727E+01 -0.21416093074E+02  0.22687171528E+02  0.51100000000E-03 0.  1.
        -12    1    3    3    0    0 -0.97332163638E+01 -0.49913067520E+01 -0.92110684355E+01  0.14300084811E+02  0.00000000000E+00 0.  1.
</event>
<event>
 7    1  0.2886681E-010  0.4778729E+02  0.7816164E-02  0.1312668E+00
        -11   -1    0    0    0    0  0.00000000000E+00  0.00000000000E+00  0.45593999997E+02  0.45594000000E+02  0.51100000000E-03 0. -1.
         11   -1    0    0    0    0 -0.00000000000E+00 -0.00000000000E+00 -0.45593999997E+02  0.45594000000E+02  0.51100000000E-03 0.  1.
    9900012    2    1    2    0    0  0.32715681965E+02 -0.25927490714E+02  0.11877346165E+02  0.47787286030E+02  0.20000068325E+02 0.  0.
        -12    1    1    2    0    0 -0.32715681965E+02  0.25927490714E+02 -0.11877346165E+02  0.43400713970E+02  0.00000000000E+00 0.  1.
         11    1    3    3    0    0  0.38280491893E+01 -0.13647311331E+02  0.56852269593E+01  0.15271701706E+02  0.51100000000E-03 0. -1.
        -11    1    3    3    0    0  0.95250840301E+01 -0.27196745010E+01 -0.47035529644E+00  0.99169092734E+01  0.51100000000E-03 0.  1.
         12    1    3    3    0    0  0.19362548746E+02 -0.95605048816E+01  0.66624745025E+01  0.22598675050E+02  0.00000000000E+00 0. -1.
</event>
<event>
 7    1  0.2886681E-010  0.4778727E+02  0.7816164E-02  0.1312668E+00
        -11   -1    0    0    0    0  0.00000000000E+00  0.00000000000E+00  0.45593999997E+02  0.45594000000E+02  0.51100000000E-03 0. -1.
         11   -1    0    0    0    0 -0.00000000000E+00 -0.00000000000E+00 -0.45593999997E+02  0.45594000000E+02  0.51100000000E-03 0.  1.
    9900012    2    1    2    0    0 -0.24426862420E+02  0.29441050509E+02  0.20498196903E+02  0.47787272598E+02  0.20000007083E+02 0.  0.
        -12    1    1    2    0    0  0.24426862420E+02 -0.29441050509E+02 -0.20498196903E+02  0.43400727402E+02  0.00000000000E+00 0.  1.
         11    1    3    3    0    0 -0.35972955278E+01 -0.10673320532E+01  0.15578855320E+01  0.40628488057E+01  0.51100000000E-03 0.  1.
        -11    1    3    3    0    0 -0.94577655382E+01  0.25077178466E+02  0.13227409878E+02  0.29887766412E+02  0.51100000000E-03 0. -1.
        -12    1    3    3    0    0 -0.11371801354E+02  0.54312040959E+01  0.57129014929E+01  0.13836657380E+02  0.00000000000E+00 0.  1.
</event>
<event>
 7    1  0.2886681E-010  0.4778727E+02  0.7816164E-02  0.1312668E+00
        -11   -1    0    0    0    0  0.00000000000E+00  0.00000000000E+00  0.45593999997E+02  0.45594000000E+02  0.51100000000E-03 0.  1.
         11   -1    0    0    0    0 -0.00000000000E+00 -0.00000000000E+00 -0.45593999997E+02  0.45594000000E+02  0.51100000000E-03 0. -1.
    9900012    2    1    2    0    0  0.25909726675E+01  0.15760855142E+01 -0.43294641986E+02  0.47787271784E+02  0.20000003374E+02 0.  0.
        -12    1    1    2    0    0 -0.25909726675E+01 -0.15760855142E+01  0.43294641986E+02  0.43400728216E+02  0.00000000000E+00 0.  1.
         11    1    3    3    0    0  0.11275853927E+01  0.62934104526E+00 -0.12579259424E+02  0.12645366222E+02  0.51100000000E-03 0. -1.
        -11    1    3    3    0    0  0.52764526383E+01 -0.47460690355E+01 -0.54058035449E+01  0.89212575325E+01  0.51100000000E-03 0.  1.
        -12    1    3    3    0    0 -0.38130653635E+01  0.56928135044E+01 -0.25309579017E+02  0.26220648030E+02  0.00000000000E+00 0.  1.
</event>
<event>
 7    1  0.2886681E-010  0.4778727E+02  0.7816164E-02  0.1312668E+00
        -11   -1    0    0    0    0  0.00000000000E+00  0.00000000000E+00  0.45593999997E+02  0.45594000000E+02  0.51100000000E-03 0.  1.
         11   -1    0    0    0    0 -0.00000000000E+00 -0.00000000000E+00 -0.45593999997E+02  0.45594000000E+02  0.51100000000E-03 0. -1.
    9900012    2    1    2    0    0  0.32675111567E+02 -0.19078714217E+02 -0.21259415734E+02  0.47787274091E+02  0.20000013890E+02 0.  0.
        -12    1    1    2    0    0 -0.32675111567E+02  0.19078714217E+02  0.21259415734E+02  0.43400725909E+02  0.00000000000E+00 0.  1.
         11    1    3    3    0    0  0.48035525536E+01 -0.90866423893E+01 -0.93445674036E+01  0.13891080853E+02  0.51100000000E-03 0. -1.
        -11    1    3    3    0    0  0.23040319805E+02 -0.31537493137E+01 -0.75246612970E+01  0.24442238019E+02  0.51100000000E-03 0.  1.
        -12    1    3    3    0    0  0.48312392080E+01 -0.68383225144E+01 -0.43901870330E+01  0.94539552189E+01  0.00000000000E+00 0.  1.
</event>
<event>
 7    1  0.2886681E-010  0.4778728E+02  0.7816164E-02  0.1312668E+00
        -11   -1    0    0    0    0  0.00000000000E+00  0.00000000000E+00  0.45593999997E+02  0.45594000000E+02  0.51100000000E-03 0. -1.
         11   -1    0    0    0    0 -0.00000000000E+00 -0.00000000000E+00 -0.45593999997E+02  0.45594000000E+02  0.51100000000E-03 0.  1.
    9900012    2    1    2    0    0 -0.23883287512E+02 -0.30203460952E+01  0.36112166540E+02  0.47787280132E+02  0.20000041432E+02 0.  0.
        -12    1    1    2    0    0  0.23883287512E+02  0.30203460952E+01 -0.36112166540E+02  0.43400719868E+02  0.00000000000E+00 0.  1.
         11    1    3    3    0    0 -0.95403994522E+00 -0.50346014258E+01  0.16033752894E+01  0.53691914023E+01  0.51100000000E-03 0. -1.
        -11    1    3    3    0    0  0.63480680314E+00 -0.60558173477E+00  0.68935991589E+00  0.11157626403E+01  0.51100000000E-03 0.  1.
         12    1    3    3    0    0 -0.23564054370E+02  0.26198370654E+01  0.33819431334E+02  0.41302326089E+02  0.00000000000E+00 0. -1.
</event>
<event>
 7    1  0.2886681E-010  0.4778727E+02  0.7816164E-02  0.1312668E+00
        -11   -1    0    0    0    0  0.00000000000E+00  0.00000000000E+00  0.45593999997E+02  0.45594000000E+02  0.51100000000E-03 0.  1.
         11   -1    0    0    0    0 -0.00000000000E+00 -0.00000000000E+00 -0.45593999997E+02  0.45594000000E+02  0.51100000000E-03 0. -1.
    9900012    2    1    2    0    0 -0.43312016414E+02 -0.19312606093E+01 -0.19905871929E+01  0.47787274536E+02  0.20000015921E+02 0.  0.
        -12    1    1    2    0    0  0.43312016414E+02  0.19312606093E+01  0.19905871929E+01  0.43400725464E+02  0.00000000000E+00 0.  1.
         11    1    3    3    0    0 -0.26841739531E+02  0.35908077814E+01 -0.60880716485E+01  0.27756755902E+02  0.51100000000E-03 0. -1.
        -11    1    3    3    0    0 -0.20353918954E+01  0.19539779851E+01  0.23666484630E+01  0.36826451557E+01  0.51100000000E-03 0.  1.
         12    1    3    3    0    0 -0.14434884988E+02 -0.74760463758E+01  0.17308359925E+01  0.16347873479E+02  0.00000000000E+00 0. -1.
</event>
<event>
 7    1  0.2886681E-010  0.4778727E+02  0.7816164E-02  0.1312668E+00
        -11   -1    0    0    0    0  0.00000000000E+00  0.00000000000E+00  0.45593999997E+02  0.45594000000E+02  0.51100000000E-03 0.  1.
         11   -1    0    0    0    0 -0.00000000000E+00 -0.00000000000E+00 -0.45593999997E+02  0.45594000000E+02  0.51100000000E-03 0. -1.
    9900012    2    1    2    0    0 -0.25876762901E+02 -0.34271919866E+02 -0.62810810611E+01  0.47787270411E+02  0.19999997114E+02 0.  0.
        -12    1    1    2    0    0  0.25876762901E+02  0.34271919866E+02  0.62810810611E+01  0.43400729589E+02  0.00000000000E+00 0.  1.
         11    1    3    3    0    0 -0.70242138448E+01 -0.32712479496E+01 -0.76671236937E+01  0.10900707742E+02  0.51100000000E-03 0. -1.
        -11    1    3    3    0    0 -0.92653639130E+00 -0.80701116556E+00  0.12772379608E+01  0.17723074720E+01  0.51100000000E-03 0.  1.
         12    1    3    3    0    0 -0.17926012665E+02 -0.30193660751E+02  0.10880467180E+00  0.35114255197E+02  0.00000000000E+00 0. -1.
</event>
<event>
 7    1  0.2886681E-010  0.4778724E+02  0.7816164E-02  0.1312668E+00
        -11   -1    0    0    0    0  0.00000000000E+00  0.00000000000E+00  0.45593999997E+02  0.45594000000E+02  0.51100000000E-03 0.  1.
         11   -1    0    0    0    0 -0.00000000000E+00 -0.00000000000E+00 -0.45593999997E+02  0.45594000000E+02  0.51100000000E-03 0. -1.
    9900012    2    1    2    0    0 -0.41722582059E+02 -0.29504728902E+01 -0.11582170776E+02  0.47787241667E+02  0.19999866058E+02 0.  0.
        -12    1    1    2    0    0  0.41722582059E+02  0.29504728902E+01  0.11582170776E+02  0.43400758333E+02  0.00000000000E+00 0.  1.
         11    1    3    3    0    0 -0.53306854362E+01  0.41998792083E-01 -0.48746172406E+01  0.72235631528E+01  0.51100000000E-03 0. -1.
        -11    1    3    3    0    0 -0.52989782553E+01  0.55082566742E+01 -0.25772495867E+01  0.80661191308E+01  0.51100000000E-03 0.  1.
        -12    1    3    3    0    0 -0.31092918368E+02 -0.85007283564E+01 -0.41303039483E+01  0.32497559384E+02  0.00000000000E+00 0.  1.
</event>
<event>
 7    1  0.2886681E-010  0.4778727E+02  0.7816164E-02  0.1312668E+00
        -11   -1    0    0    0    0  0.00000000000E+00  0.00000000000E+00  0.45593999997E+02  0.45594000000E+02  0.51100000000E-03 0. -1.
         11   -1    0    0    0    0 -0.00000000000E+00 -0.00000000000E+00 -0.45593999997E+02  0.45594000000E+02  0.51100000000E-03 0.  1.
    9900012    2    1    2    0    0  0.37353246932E+02  0.50892631721E+01 -0.21504829601E+02  0.47787270143E+02  0.19999995888E+02 0.  0.
        -12    1    1    2    0    0 -0.37353246932E+02 -0.50892631721E+01  0.21504829601E+02  0.43400729857E+02  0.00000000000E+00 0.  1.
         11    1    3    3    0    0  0.18132777103E+02  0.46722801269E+01 -0.45281536263E+01  0.19264786077E+02  0.51100000000E-03 0. -1.
        -11    1    3    3    0    0  0.76358796386E+01  0.33018021733E+01 -0.13891266486E+02  0.16191844870E+02  0.51100000000E-03 0.  1.
        -12    1    3    3    0    0  0.11584590189E+02 -0.28848191281E+01 -0.30854094894E+01  0.12330639196E+02  0.00000000000E+00 0.  1.
</event>
<event>
 7    1  0.2886681E-010  0.4778727E+02  0.7816164E-02  0.1312668E+00
        -11   -1    0    0    0    0  0.00000000000E+00  0.00000000000E+00  0.45593999997E+02  0.45594000000E+02  0.51100000000E-03 0.  1.
         11   -1    0    0    0    0 -0.00000000000E+00 -0.00000000000E+00 -0.45593999997E+02  0.45594000000E+02  0.51100000000E-03 0. -1.
    9900012    2    1    2    0    0  0.70326556296E+01  0.20034869383E+02 -0.37851935463E+02  0.47787271266E+02  0.20000001009E+02 0.  0.
        -12    1    1    2    0    0 -0.70326556296E+01 -0.20034869383E+02  0.37851935463E+02  0.43400728734E+02  0.00000000000E+00 0.  1.
         11    1    3    3    0    0  0.76230137624E+01  0.15406747736E+02 -0.35851180786E+02  0.39759091773E+02  0.51100000000E-03 0. -1.
        -11    1    3    3    0    0  0.27847035764E+01  0.22717161770E+01 -0.41762798663E+00  0.36179665274E+01  0.51100000000E-03 0.  1.
         12    1    3    3    0    0 -0.33750617093E+01  0.23564054701E+01 -0.15831266904E+01  0.44102129652E+01  0.00000000000E+00 0. -1.
</event>
<event>
 7    1  0.2886681E-010  0.4778726E+02  0.7816164E-02  0.1312668E+00
        -11   -1    0    0    0    0  0.00000000000E+00  0.00000000000E+00  0.45593999997E+02  0.45594000000E+02  0.51100000000E-03 0. -1.
         11   -1    0    0    0    0 -0.00000000000E+00 -0.00000000000E+00 -0.45593999997E+02  0.45594000000E+02  0.51100000000E-03 0.  1.
    9900012    2    1    2    0    0  0.63961524761E+01  0.25040734136E+01  0.42853737230E+02  0.47787263316E+02  0.19999964762E+02 0.  0.
        -12    1    1    2    0    0 -0.63961524761E+01 -0.25040734136E+01 -0.42853737230E+02  0.43400736684E+02  0.00000000000E+00 0.  1.
         11    1    3    3    0    0  0.28144127840E+01 -0.59801618194E+01  0.25266603667E+02  0.26116747804E+02  0.51100000000E-03 0. -1.
        -11    1    3    3    0    0  0.20001949825E+01  0.71300387900E+01  0.50538611676E+01  0.89654752288E+01  0.51100000000E-03 0.  1.
         12    1    3    3    0    0  0.15815447096E+01  0.13541964430E+01  0.12533272395E+02  0.12705040283E+02  0.00000000000E+00 0. -1.
</event>
<event>
 7    1  0.2886681E-010  0.4778727E+02  0.7816164E-02  0.1312668E+00
        -11   -1    0    0    0    0  0.00000000000E+00  0.00000000000E+00  0.45593999997E+02  0.45594000000E+02  0.51100000000E-03 0.  1.
         11   -1    0    0    0    0 -0.00000000000E+00 -0.00000000000E+00 -0.45593999997E+02  0.45594000000E+02  0.51100000000E-03 0. -1.
    9900012    2    1    2    0    0  0.17706587032E+02 -0.38805929415E+02  0.80124942830E+01  0.47787269053E+02  0.19999990920E+02 0.  0.
        -12    1    1    2    0    0 -0.17706587032E+02  0.38805929415E+02 -0.80124942830E+01  0.43400730947E+02  0.00000000000E+00 0.  1.
         11    1    3    3    0    0  0.70556041390E+01 -0.16045589195E+02  0.35483006350E+01  0.17883873183E+02  0.51100000000E-03 0. -1.
        -11    1    3    3    0    0  0.91630782122E+01 -0.12010674287E+02 -0.45699865823E+01  0.15782999613E+02  0.51100000000E-03 0.  1.
        -12    1    3    3    0    0  0.14879046811E+01 -0.10749665933E+02  0.90341802303E+01  0.14120396257E+02  0.00000000000E+00 0.  1.
</event>
<event>
 7    1  0.2886681E-010  0.4778727E+02  0.7816164E-02  0.1312668E+00
        -11   -1    0    0    0    0  0.00000000000E+00  0.00000000000E+00  0.45593999997E+02  0.45594000000E+02  0.51100000000E-03 0. -1.
         11   -1    0    0    0    0 -0.00000000000E+00 -0.00000000000E+00 -0.45593999997E+02  0.45594000000E+02  0.51100000000E-03 0.  1.
    9900012    2    1    2    0    0 -0.24601871124E+02 -0.10915672194E+02  0.34047312921E+02  0.47787268677E+02  0.19999989208E+02 0.  0.
        -12    1    1    2    0    0  0.24601871124E+02  0.10915672194E+02 -0.34047312921E+02  0.43400731323E+02  0.00000000000E+00 0.  1.
         11    1    3    3    0    0 -0.10177078074E+02 -0.23144290805E+01  0.18754795954E+02  0.21463267963E+02  0.51100000000E-03 0. -1.
        -11    1    3    3    0    0 -0.27217388957E+00 -0.61888414859E+01  0.14105387992E+01  0.63533815822E+01  0.51100000000E-03 0.  1.
        -12    1    3    3    0    0 -0.14152619160E+02 -0.24124016273E+01  0.13881978167E+02  0.19970619132E+02  0.00000000000E+00 0.  1.
</event>
<event>
 7    1  0.2886681E-010  0.4778727E+02  0.7816164E-02  0.1312668E+00
        -11   -1    0    0    0    0  0.00000000000E+00  0.00000000000E+00  0.45593999997E+02  0.45594000000E+02  0.51100000000E-03 0. -1.
         11   -1    0    0    0    0 -0.00000000000E+00 -0.00000000000E+00 -0.45593999997E+02  0.45594000000E+02  0.51100000000E-03 0.  1.
    9900012    2    1    2    0    0 -0.16644597549E+02  0.35743996962E+02  0.18136905403E+02  0.47787270928E+02  0.19999999467E+02 0.  0.
        -12    1    1    2    0    0  0.16644597549E+02 -0.35743996962E+02 -0.18136905403E+02  0.43400729072E+02  0.00000000000E+00 0.  1.
         11    1    3    3    0    0 -0.96307969505E+01  0.23756448264E+02  0.15095280873E+02  0.29748757771E+02  0.51100000000E-03 0. -1.
        -11    1    3    3    0    0  0.64755954322E-02 -0.72656922664E+00 -0.24163853475E+01  0.25232643903E+01  0.51100000000E-03 0.  1.
        -12    1    3    3    0    0 -0.70202761940E+01  0.12714117925E+02  0.54580098775E+01  0.15515248766E+02  0.00000000000E+00 0.  1.
</event>
<event>
 7    1  0.2886681E-010  0.4778727E+02  0.7816164E-02  0.1312668E+00
        -11   -1    0    0    0    0  0.00000000000E+00  0.00000000000E+00  0.45593999997E+02  0.45594000000E+02  0.51100000000E-03 0.  1.
         11   -1    0    0    0    0 -0.00000000000E+00 -0.00000000000E+00 -0.45593999997E+02  0.45594000000E+02  0.51100000000E-03 0. -1.
    9900012    2    1    2    0    0  0.12705694076E+02 -0.11941007926E+02 -0.39744199569E+02  0.47787265771E+02  0.19999975958E+02 0.  0.
        -12    1    1    2    0    0 -0.12705694076E+02  0.11941007926E+02  0.39744199569E+02  0.43400734229E+02  0.00000000000E+00 0.  1.
         11    1    3    3    0    0  0.81490831354E+01 -0.14550350797E+02 -0.23085616650E+02  0.28479219804E+02  0.51100000000E-03 0. -1.
        -11    1    3    3    0    0  0.16685445973E+00  0.48359062390E+01 -0.81313233968E+01  0.94621482765E+01  0.51100000000E-03 0.  1.
        -12    1    3    3    0    0  0.43897564807E+01 -0.22265633681E+01 -0.85272595218E+01  0.98458976911E+01  0.00000000000E+00 0.  1.
</event>
<event>
 7    1  0.2886681E-010  0.4778727E+02  0.7816164E-02  0.1312668E+00
        -11   -1    0    0    0    0  0.00000000000E+00  0.00000000000E+00  0.45593999997E+02  0.45594000000E+02  0.51100000000E-03 0. -1.
         11   -1    0    0    0    0 -0.00000000000E+00 -0.00000000000E+00 -0.45593999997E+02  0.45594000000E+02  0.51100000000E-03 0.  1.
    9900012    2    1    2    0    0 -0.18043379101E+01 -0.39161353243E+02  0.18621386649E+02  0.47787271160E+02  0.20000000528E+02 0.  0.
        -12    1    1    2    0    0  0.18043379101E+01  0.39161353243E+02 -0.18621386649E+02  0.43400728840E+02  0.00000000000E+00 0.  1.
         11    1    3    3    0    0  0.74920685831E+00 -0.49501881799E+01  0.56161966697E+01  0.75237849004E+01  0.51100000000E-03 0. -1.
        -11    1    3    3    0    0  0.32214936632E+01 -0.29788112262E+00  0.30604436728E+01  0.44534335429E+01  0.51100000000E-03 0.  1.
        -12    1    3    3    0    0 -0.57750384316E+01 -0.33913283940E+02  0.99447463066E+01  0.35810052717E+02  0.00000000000E+00 0.  1.
</event>
<event>
 7    1  0.2886681E-010  0.4778727E+02  0.7816164E-02  0.1312668E+00
        -11   -1    0    0    0    0  0.00000000000E+00  0.00000000000E+00  0.45593999997E+02  0.45594000000E+02  0.51100000000E-03 0.  1.
         11   -1    0    0    0    0 -0.00000000000E+00 -0.00000000000E+00 -0.45593999997E+02  0.45594000000E+02  0.51100000000E-03 0. -1.
    9900012    2    1    2    0    0  0.38880677354E+02  0.58928604879E+01 -0.18362744542E+02  0.47787271166E+02  0.20000000553E+02 0.  0.
        -12    1    1    2    0    0 -0.38880677354E+02 -0.58928604879E+01  0.18362744542E+02  0.43400728834E+02  0.00000000000E+00 0.  1.
         11    1    3    3    0    0  0.11906068960E+02 -0.15164461390E+01 -0.34604540221E+01  0.12491150038E+02  0.51100000000E-03 0. -1.
        -11    1    3    3    0    0  0.14861722023E+02  0.11777468747E+02 -0.71479331402E+01  0.20265056131E+02  0.51100000000E-03 0.  1.
        -12    1    3    3    0    0  0.12112886372E+02 -0.43681621202E+01 -0.77543573793E+01  0.15031064996E+02  0.00000000000E+00 0.  1.
</event>
<event>
 7    1  0.2886681E-010  0.4778727E+02  0.7816164E-02  0.1312668E+00
        -11   -1    0    0    0    0  0.00000000000E+00  0.00000000000E+00  0.45593999997E+02  0.45594000000E+02  0.51100000000E-03 0.  1.
         11   -1    0    0    0    0 -0.00000000000E+00 -0.00000000000E+00 -0.45593999997E+02  0.45594000000E+02  0.51100000000E-03 0. -1.
    9900012    2    1    2    0    0  0.23484573691E+02 -0.27903130261E+02 -0.23526867607E+02  0.47787269831E+02  0.19999994466E+02 0.  0.
        -12    1    1    2    0    0 -0.23484573691E+02  0.27903130261E+02  0.23526867607E+02  0.43400730169E+02  0.00000000000E+00 0.  1.
         11    1    3    3    0    0 -0.13860198541E+01 -0.47252535990E+01 -0.53361991056E+01  0.72611358455E+01  0.51100000000E-03 0. -1.
        -11    1    3    3    0    0  0.20531749730E+02 -0.11013440488E+02 -0.11700522443E+02  0.26072031836E+02  0.51100000000E-03 0.  1.
        -12    1    3    3    0    0  0.43388438154E+01 -0.12164436174E+02 -0.64901460586E+01  0.14454102149E+02  0.00000000000E+00 0.  1.
</event>
<event>
 7    1  0.2886681E-010  0.4778727E+02  0.7816164E-02  0.1312668E+00
        -11   -1    0    0    0    0  0.00000000000E+00  0.00000000000E+00  0.45593999997E+02  0.45594000000E+02  0.51100000000E-03 0.  1.
         11   -1    0    0    0    0 -0.00000000000E+00 -0.00000000000E+00 -0.45593999997E+02  0.45594000000E+02  0.51100000000E-03 0. -1.
    9900012    2    1    2    0    0 -0.86390458948E+01 -0.34247571027E+02 -0.25220912202E+02  0.47787266740E+02  0.19999980374E+02 0.  0.
        -12    1    1    2    0    0  0.86390458948E+01  0.34247571027E+02  0.25220912202E+02  0.43400733260E+02  0.00000000000E+00 0.  1.
         11    1    3    3    0    0 -0.65702554190E+01 -0.18058055777E+02 -0.70962317022E+01  0.20484582968E+02  0.51100000000E-03 0. -1.
        -11    1    3    3    0    0 -0.17431809895E+01 -0.15564207703E+02 -0.19940033655E+02  0.25355239770E+02  0.51100000000E-03 0.  1.
        -12    1    3    3    0    0 -0.32560948636E+00 -0.62530754619E+00  0.18153531546E+01  0.19474440020E+01  0.00000000000E+00 0.  1.
</event>
<event>
 7    1  0.2886681E-010  0.4778727E+02  0.7816164E-02  0.1312668E+00
        -11   -1    0    0    0    0  0.00000000000E+00  0.00000000000E+00  0.45593999997E+02  0.45594000000E+02  0.51100000000E-03 0.  1.
         11   -1    0    0    0    0 -0.00000000000E+00 -0.00000000000E+00 -0.45593999997E+02  0.45594000000E+02  0.51100000000E-03 0. -1.
    9900012    2    1    2    0    0 -0.29369955841E+02  0.30770180606E+02 -0.86153933667E+01  0.47787270473E+02  0.19999997394E+02 0.  0.
        -12    1    1    2    0    0  0.29369955841E+02 -0.30770180606E+02  0.86153933667E+01  0.43400729527E+02  0.00000000000E+00 0.  1.
         11    1    3    3    0    0 -0.13268991479E+02  0.99908126797E+01  0.33036012919E+01  0.16935059924E+02  0.51100000000E-03 0. -1.
        -11    1    3    3    0    0 -0.35670967066E+01  0.26160074048E+00  0.78094667840E+00  0.36609413868E+01  0.51100000000E-03 0.  1.
         12    1    3    3    0    0 -0.12533867655E+02  0.20517767186E+02 -0.12699941337E+02  0.27191269162E+02  0.00000000000E+00 0. -1.
</event>
<event>
 7    1  0.2886681E-010  0.4778727E+02  0.7816164E-02  0.1312668E+00
        -11   -1    0    0    0    0  0.00000000000E+00  0.00000000000E+00  0.45593999997E+02  0.45594000000E+02  0.51100000000E-03 0. -1.
         11   -1    0    0    0    0 -0.00000000000E+00 -0.00000000000E+00 -0.45593999997E+02  0.45594000000E+02  0.51100000000E-03 0.  1.
    9900012    2    1    2    0    0  0.13149182644E+02  0.28524299888E+01  0.41262403859E+02  0.47787270360E+02  0.19999996879E+02 0.  0.
        -12    1    1    2    0    0 -0.13149182644E+02 -0.28524299888E+01 -0.41262403859E+02  0.43400729640E+02  0.00000000000E+00 0.  1.
         11    1    3    3    0    0  0.87788082400E+01  0.13387472430E+00  0.34311834870E+02  0.35417332042E+02  0.51100000000E-03 0. -1.
        -11    1    3    3    0    0  0.19269613375E+00  0.49577512040E+01  0.55128950752E+01  0.74167675690E+01  0.51100000000E-03 0.  1.
         12    1    3    3    0    0  0.41776782699E+01 -0.22391959396E+01  0.14376739137E+01  0.49531707486E+01  0.00000000000E+00 0. -1.
</event>
<event>
 7    1  0.2886681E-010  0.4778726E+02  0.7816164E-02  0.1312668E+00
        -11   -1    0    0    0    0  0.00000000000E+00  0.00000000000E+00  0.45593999997E+02  0.45594000000E+02  0.51100000000E-03 0.  1.
         11   -1    0    0    0    0 -0.00000000000E+00 -0.00000000000E+00 -0.45593999997E+02  0.45594000000E+02  0.51100000000E-03 0. -1.
    9900012    2    1    2    0    0 -0.22665614867E+02 -0.32304656224E+02 -0.18063856115E+02  0.47787264882E+02  0.19999971903E+02 0.  0.
        -12    1    1    2    0    0  0.22665614867E+02  0.32304656224E+02  0.18063856115E+02  0.43400735118E+02  0.00000000000E+00 0.  1.
         11    1    3    3    0    0 -0.38285108980E+00 -0.38525105646E+01 -0.15031708171E+00  0.38744042243E+01  0.51100000000E-03 0. -1.
        -11    1    3    3    0    0 -0.15734666309E+02 -0.18169494359E+02 -0.23599758461E+01  0.24151184969E+02  0.51100000000E-03 0.  1.
        -12    1    3    3    0    0 -0.65480974679E+01 -0.10282651300E+02 -0.15553563188E+02  0.19761675689E+02  0.00000000000E+00 0.  1.
</event>
<event>
 7    1  0.2886681E-010  0.4778727E+02  0.7816164E-02  0.1312668E+00
        -11   -1    0    0    0    0  0.00000000000E+00  0.00000000000E+00  0.45593999997E+02  0.45594000000E+02  0.51100000000E-03 0.  1.
         11   -1    0    0    0    0 -0.00000000000E+00 -0.00000000000E+00 -0.45593999997E+02  0.45594000000E+02  0.51100000000E-03 0. -1.
    9900012    2    1    2    0    0  0.43143770528E+02  0.46924466408E+01 -0.46795540009E+00  0.47787274509E+02  0.20000015799E+02 0.  0.
        -12    1    1    2    0    0 -0.43143770528E+02 -0.46924466408E+01  0.46795540009E+00  0.43400725491E+02  0.00000000000E+00 0.  1.
         11    1    3    3    0    0  0.24891281217E+02  0.70135348383E+01 -0.12236637337E+01  0.25889436161E+02  0.51100000000E-03 0. -1.
        -11    1    3    3    0    0  0.11058588740E+02 -0.17177506893E+01  0.62568943157E+01  0.12821535754E+02  0.51100000000E-03 0.  1.
        -12    1    3    3    0    0  0.71939005710E+01 -0.60333750819E+00 -0.55011859821E+01  0.90763025944E+01  0.00000000000E+00 0.  1.
</event>
<event>
 7    1  0.2886681E-010  0.4778728E+02  0.7816164E-02  0.1312668E+00
        -11   -1    0    0    0    0  0.00000000000E+00  0.00000000000E+00  0.45593999997E+02  0.45594000000E+02  0.51100000000E-03 0.  1.
         11   -1    0    0    0    0 -0.00000000000E+00 -0.00000000000E+00 -0.45593999997E+02  0.45594000000E+02  0.51100000000E-03 0. -1.
    9900012    2    1    2    0    0 -0.23769721408E+02  0.22496715186E+02 -0.28504748017E+02  0.47787279851E+02  0.20000040151E+02 0.  0.
        -12    1    1    2    0    0  0.23769721408E+02 -0.22496715186E+02  0.28504748017E+02  0.43400720149E+02  0.00000000000E+00 0.  1.
         11    1    3    3    0    0 -0.15356356654E+02  0.16102440499E+02 -0.27031333726E+02  0.35011416466E+02  0.51100000000E-03 0. -1.
        -11    1    3    3    0    0 -0.46569616331E+01 -0.62809588215E+00 -0.95415152145E+00  0.47950184021E+01  0.51100000000E-03 0.  1.
         12    1    3    3    0    0 -0.37564031211E+01  0.70223705685E+01 -0.51926276990E+00  0.79808449825E+01  0.00000000000E+00 0. -1.
</event>
<event>
 7    1  0.2886681E-010  0.4778727E+02  0.7816164E-02  0.1312668E+00
        -11   -1    0    0    0    0  0.00000000000E+00  0.00000000000E+00  0.45593999997E+02  0.45594000000E+02  0.51100000000E-03 0.  1.
         11   -1    0    0    0    0 -0.00000000000E+00 -0.00000000000E+00 -0.45593999997E+02  0.45594000000E+02  0.51100000000E-03 0. -1.
    9900012    2    1    2    0    0 -0.12823700297E+02  0.21048762838E+02 -0.35722906336E+02  0.47787265635E+02  0.19999975337E+02 0.  0.
        -12    1    1    2    0    0  0.12823700297E+02 -0.21048762838E+02  0.35722906336E+02  0.43400734365E+02  0.00000000000E+00 0.  1.
         11    1    3    3    0    0  0.43588662727E+01  0.72506865629E+01 -0.12421220322E+02  0.15028602243E+02  0.51100000000E-03 0.  1.
        -11    1    3    3    0    0 -0.12000291496E+01  0.29758454759E+01 -0.12267432755E+01  0.34352038631E+01  0.51100000000E-03 0. -1.
         12    1    3    3    0    0 -0.15982537420E+02  0.10822230799E+02 -0.22074942739E+02  0.29323459529E+02  0.00000000000E+00 0. -1.
</event>
<event>
 7    1  0.2886681E-010  0.4778727E+02  0.7816164E-02  0.1312668E+00
        -11   -1    0    0    0    0  0.00000000000E+00  0.00000000000E+00  0.45593999997E+02  0.45594000000E+02  0.51100000000E-03 0. -1.
         11   -1    0    0    0    0 -0.00000000000E+00 -0.00000000000E+00 -0.45593999997E+02  0.45594000000E+02  0.51100000000E-03 0.  1.
    9900012    2    1    2    0    0 -0.30025608963E+02 -0.17078438396E+02  0.26275716307E+02  0.47787268220E+02  0.19999987120E+02 0.  0.
        -12    1    1    2    0    0  0.30025608963E+02  0.17078438396E+02 -0.26275716307E+02  0.43400731780E+02  0.00000000000E+00 0.  1.
         11    1    3    3    0    0 -0.18891473716E+02 -0.82729196257E+01  0.82161294155E+01  0.22199859484E+02  0.51100000000E-03 0. -1.
        -11    1    3    3    0    0 -0.50421981375E+01 -0.10805075187E+01  0.15621056397E+00  0.51590367858E+01  0.51100000000E-03 0.  1.
         12    1    3    3    0    0 -0.60919371094E+01 -0.77250112519E+01  0.17903376328E+02  0.20428371950E+02  0.00000000000E+00 0. -1.
</event>
<event>
 7    1  0.2886681E-010  0.4778727E+02  0.7816164E-02  0.1312668E+00
        -11   -1    0    0    0    0  0.00000000000E+00  0.00000000000E+00  0.45593999997E+02  0.45594000000E+02  0.51100000000E-03 0. -1.
         11   -1    0    0    0    0 -0.00000000000E+00 -0.00000000000E+00 -0.45593999997E+02  0.45594000000E+02  0.51100000000E-03 0.  1.
    9900012    2    1    2    0    0 -0.99440655013E+01 -0.66926120919E+01  0.41712680768E+02  0.47787271525E+02  0.20000002191E+02 0.  0.
        -12    1    1    2    0    0  0.99440655013E+01  0.66926120919E+01 -0.41712680768E+02  0.43400728475E+02  0.00000000000E+00 0.  1.
         11    1    3    3    0    0 -0.35421569916E+01 -0.40263628650E+01  0.25858316793E+02  0.26408540696E+02  0.51100000000E-03 0. -1.
        -11    1    3    3    0    0 -0.23517190671E+01  0.26481043484E+01 -0.62493824343E+00  0.35963296957E+01  0.51100000000E-03 0.  1.
        -12    1    3    3    0    0 -0.40501894426E+01 -0.53143535754E+01  0.16479302219E+02  0.17782401133E+02  0.00000000000E+00 0.  1.
</event>
<event>
 7    1  0.2886681E-010  0.4778731E+02  0.7816164E-02  0.1312668E+00
        -11   -1    0    0    0    0  0.00000000000E+00  0.00000000000E+00  0.45593999997E+02  0.45594000000E+02  0.51100000000E-03 0.  1.
         11   -1    0    0    0    0 -0.00000000000E+00 -0.00000000000E+00 -0.45593999997E+02  0.45594000000E+02  0.51100000000E-03 0. -1.
    9900012    2    1    2    0    0 -0.24031822500E+02 -0.17266075655E+02 -0.31748602898E+02  0.47787312826E+02  0.20000190498E+02 0.  0.
        -12    1    1    2    0    0  0.24031822500E+02  0.17266075655E+02  0.31748602898E+02  0.43400687174E+02  0.00000000000E+00 0.  1.
         11    1    3    3    0    0 -0.55367373432E+01  0.37713018076E+00 -0.23355341704E+01  0.60209972349E+01  0.51100000000E-03 0. -1.
        -11    1    3    3    0    0 -0.58612585894E+01 -0.15587395297E+02 -0.14203886789E+02  0.21887705329E+02  0.51100000000E-03 0.  1.
        -12    1    3    3    0    0 -0.12633826567E+02 -0.20558105386E+01 -0.15209181939E+02  0.19878610262E+02  0.00000000000E+00 0.  1.
</event>
<event>
 7    1  0.2886681E-010  0.4778727E+02  0.7816164E-02  0.1312668E+00
        -11   -1    0    0    0    0  0.00000000000E+00  0.00000000000E+00  0.45593999997E+02  0.45594000000E+02  0.51100000000E-03 0. -1.
         11   -1    0    0    0    0 -0.00000000000E+00 -0.00000000000E+00 -0.45593999997E+02  0.45594000000E+02  0.51100000000E-03 0.  1.
    9900012    2    1    2    0    0 -0.83901877425E+01  0.37876265420E+02  0.19458069362E+02  0.47787271944E+02  0.20000004103E+02 0.  0.
        -12    1    1    2    0    0  0.83901877425E+01 -0.37876265420E+02 -0.19458069362E+02  0.43400728056E+02  0.00000000000E+00 0.  1.
         11    1    3    3    0    0  0.17425455754E+01  0.48620517149E+01  0.87613075499E+01  0.10170374733E+02  0.51100000000E-03 0. -1.
        -11    1    3    3    0    0 -0.89021543263E+01  0.15729914684E+02  0.18714407948E+01  0.18170879410E+02  0.51100000000E-03 0.  1.
        -12    1    3    3    0    0 -0.12305789916E+01  0.17284299021E+02  0.88253210169E+01  0.19446017802E+02  0.00000000000E+00 0.  1.
</event>
<event>
 7    1  0.2886681E-010  0.4778728E+02  0.7816164E-02  0.1312668E+00
        -11   -1    0    0    0    0  0.00000000000E+00  0.00000000000E+00  0.45593999997E+02  0.45594000000E+02  0.51100000000E-03 0.  1.
         11   -1    0    0    0    0 -0.00000000000E+00 -0.00000000000E+00 -0.45593999997E+02  0.45594000000E+02  0.51100000000E-03 0. -1.
    9900012    2    1    2    0    0 -0.39283890743E+01  0.22763947333E+02 -0.36742252931E+02  0.47787277779E+02  0.20000030704E+02 0.  0.
        -12    1    1    2    0    0  0.39283890743E+01 -0.22763947333E+02  0.36742252931E+02  0.43400722221E+02  0.00000000000E+00 0.  1.
         11    1    3    3    0    0 -0.28283647891E+01  0.20799137406E+02 -0.23435692162E+02  0.31461650173E+02  0.51100000000E-03 0. -1.
        -11    1    3    3    0    0  0.37324589263E+01  0.20848529903E+01 -0.40811464141E+01  0.59104668125E+01  0.51100000000E-03 0.  1.
         12    1    3    3    0    0 -0.48324832114E+01 -0.12004306374E+00 -0.92254143553E+01  0.10415160793E+02  0.00000000000E+00 0. -1.
</event>
<event>
 7    1  0.2886681E-010  0.4778727E+02  0.7816164E-02  0.1312668E+00
        -11   -1    0    0    0    0  0.00000000000E+00  0.00000000000E+00  0.45593999997E+02  0.45594000000E+02  0.51100000000E-03 0.  1.
         11   -1    0    0    0    0 -0.00000000000E+00 -0.00000000000E+00 -0.45593999997E+02  0.45594000000E+02  0.51100000000E-03 0. -1.
    9900012    2    1    2    0    0 -0.27662353604E+02 -0.28706406299E+02 -0.17156916277E+02  0.47787270218E+02  0.19999996232E+02 0.  0.
        -12    1    1    2    0    0  0.27662353604E+02  0.28706406299E+02  0.17156916277E+02  0.43400729782E+02  0.00000000000E+00 0.  1.
         11    1    3    3    0    0 -0.39745270439E+01 -0.97521289664E+00  0.28022551017E+01  0.49598930768E+01  0.51100000000E-03 0.  1.
        -11    1    3    3    0    0 -0.23658513007E+02 -0.23728236958E+02 -0.19573878902E+02  0.38805814028E+02  0.51100000000E-03 0. -1.
         12    1    3    3    0    0 -0.29313552204E-01 -0.40029564444E+01 -0.38529247637E+00  0.40215631131E+01  0.00000000000E+00 0. -1.
</event>
<event>
 7    1  0.2886681E-010  0.4778727E+02  0.7816164E-02  0.1312668E+00
        -11   -1    0    0    0    0  0.00000000000E+00  0.00000000000E+00  0.45593999997E+02  0.45594000000E+02  0.51100000000E-03 0. -1.
         11   -1    0    0    0    0 -0.00000000000E+00 -0.00000000000E+00 -0.45593999997E+02  0.45594000000E+02  0.51100000000E-03 0.  1.
    9900012    2    1    2    0    0  0.24909544099E+02  0.35365623489E+02 -0.35228722123E+01  0.47787270276E+02  0.19999996495E+02 0.  0.
        -12    1    1    2    0    0 -0.24909544099E+02 -0.35365623489E+02  0.35228722123E+01  0.43400729724E+02  0.00000000000E+00 0.  1.
         11    1    3    3    0    0  0.44633995286E+01  0.47043700160E+01 -0.30347542083E+01  0.71598020898E+01  0.51100000000E-03 0. -1.
        -11    1    3    3    0    0  0.12715251303E+01  0.72837285753E+01 -0.64478050476E+01  0.98103857370E+01  0.51100000000E-03 0.  1.
        -12    1    3    3    0    0  0.19174619440E+02  0.23377524898E+02  0.59596870436E+01  0.30817082449E+02  0.00000000000E+00 0.  1.
</event>
<event>
 7    1  0.2886681E-010  0.4778727E+02  0.7816164E-02  0.1312668E+00
        -11   -1    0    0    0    0  0.00000000000E+00  0.00000000000E+00  0.45593999997E+02  0.45594000000E+02  0.51100000000E-03 0.  1.
         11   -1    0    0    0    0 -0.00000000000E+00 -0.00000000000E+00 -0.45593999997E+02  0.45594000000E+02  0.51100000000E-03 0. -1.
    9900012    2    1    2    0    0 -0.32935734115E+02 -0.16461339723E+02 -0.22975744746E+02  0.47787272658E+02  0.20000007357E+02 0.  0.
        -12    1    1    2    0    0  0.32935734115E+02  0.16461339723E+02  0.22975744746E+02  0.43400727342E+02  0.00000000000E+00 0.  1.
         11    1    3    3    0    0 -0.30660466176E+02 -0.10732827584E+02 -0.16325435215E+02  0.36356259561E+02  0.51100000000E-03 0. -1.
        -11    1    3    3    0    0 -0.13275561316E+01 -0.70879357316E+01 -0.38435280007E+01  0.81715326574E+01  0.51100000000E-03 0.  1.
        -12    1    3    3    0    0 -0.94771180774E+00  0.13594235930E+01 -0.28067815301E+01  0.32594804392E+01  0.00000000000E+00 0.  1.
</event>
<event>
 7    1  0.2886681E-010  0.4778727E+02  0.7816164E-02  0.1312668E+00
        -11   -1    0    0    0    0  0.00000000000E+00  0.00000000000E+00  0.45593999997E+02  0.45594000000E+02  0.51100000000E-03 0.  1.
         11   -1    0    0    0    0 -0.00000000000E+00 -0.00000000000E+00 -0.45593999997E+02  0.45594000000E+02  0.51100000000E-03 0. -1.
    9900012    2    1    2    0    0 -0.24627414612E+02 -0.20978791745E+02 -0.28931024286E+02  0.47787269363E+02  0.19999992335E+02 0.  0.
        -12    1    1    2    0    0  0.24627414612E+02  0.20978791745E+02  0.28931024286E+02  0.43400730637E+02  0.00000000000E+00 0.  1.
         11    1    3    3    0    0 -0.10456653946E+02 -0.15692592408E+02 -0.22351790217E+02  0.29243830023E+02  0.51100000000E-03 0. -1.
        -11    1    3    3    0    0 -0.59877759357E+01  0.77162443807E+00 -0.57353420306E+01  0.83272452467E+01  0.51100000000E-03 0.  1.
         12    1    3    3    0    0 -0.81829847309E+01 -0.60578237743E+01 -0.84389203824E+00  0.10216194094E+02  0.00000000000E+00 0. -1.
</event>
<event>
 7    1  0.2886681E-010  0.4778727E+02  0.7816164E-02  0.1312668E+00
        -11   -1    0    0    0    0  0.00000000000E+00  0.00000000000E+00  0.45593999997E+02  0.45594000000E+02  0.51100000000E-03 0. -1.
         11   -1    0    0    0    0 -0.00000000000E+00 -0.00000000000E+00 -0.45593999997E+02  0.45594000000E+02  0.51100000000E-03 0.  1.
    9900012    2    1    2    0    0  0.34711389079E+01 -0.38946305315E+02  0.18835064767E+02  0.47787272267E+02  0.20000005572E+02 0.  0.
        -12    1    1    2    0    0 -0.34711389079E+01  0.38946305315E+02 -0.18835064767E+02  0.43400727733E+02  0.00000000000E+00 0.  1.
         11    1    3    3    0    0  0.27105043974E+01 -0.27895364856E+02  0.53851874364E+01  0.28539419379E+02  0.51100000000E-03 0. -1.
        -11    1    3    3    0    0 -0.30123367103E+01 -0.55971166740E+01  0.97923357389E+01  0.11674404782E+02  0.51100000000E-03 0.  1.
        -12    1    3    3    0    0  0.37729712208E+01 -0.54538237854E+01  0.36575415919E+01  0.75734481058E+01  0.00000000000E+00 0.  1.
</event>
<event>
 7    1  0.2886681E-010  0.4778727E+02  0.7816164E-02  0.1312668E+00
        -11   -1    0    0    0    0  0.00000000000E+00  0.00000000000E+00  0.45593999997E+02  0.45594000000E+02  0.51100000000E-03 0.  1.
         11   -1    0    0    0    0 -0.00000000000E+00 -0.00000000000E+00 -0.45593999997E+02  0.45594000000E+02  0.51100000000E-03 0. -1.
    9900012    2    1    2    0    0  0.73511646033E+01 -0.36300520813E+02 -0.22624226392E+02  0.47787273598E+02  0.20000011645E+02 0.  0.
        -12    1    1    2    0    0 -0.73511646033E+01  0.36300520813E+02  0.22624226392E+02  0.43400726402E+02  0.00000000000E+00 0.  1.
         11    1    3    3    0    0  0.21138119852E+01 -0.30322741800E+02 -0.17607426005E+02  0.35127742913E+02  0.51100000000E-03 0. -1.
        -11    1    3    3    0    0  0.35235901568E+01 -0.41068915025E+01  0.15423135659E+01  0.56268087583E+01  0.51100000000E-03 0.  1.
        -12    1    3    3    0    0  0.17137624613E+01 -0.18708875104E+01 -0.65591139530E+01  0.70327219267E+01  0.00000000000E+00 0.  1.
</event>
<event>
 7    1  0.2886681E-010  0.4778727E+02  0.7816164E-02  0.1312668E+00
        -11   -1    0    0    0    0  0.00000000000E+00  0.00000000000E+00  0.45593999997E+02  0.45594000000E+02  0.51100000000E-03 0. -1.
         11   -1    0    0    0    0 -0.00000000000E+00 -0.00000000000E+00 -0.45593999997E+02  0.45594000000E+02  0.51100000000E-03 0.  1.
    9900012    2    1    2    0    0  0.35622216217E+02 -0.11307013971E+02 -0.22064278786E+02  0.47787271302E+02  0.20000001176E+02 0.  0.
        -12    1    1    2    0    0 -0.35622216217E+02  0.11307013971E+02  0.22064278786E+02  0.43400728698E+02  0.00000000000E+00 0.  1.
         11    1    3    3    0    0  0.27559987914E+02 -0.40818712860E+01 -0.23795368101E+02  0.36639243310E+02  0.51100000000E-03 0. -1.
        -11    1    3    3    0    0  0.74485378690E+01 -0.60720434731E+01  0.10284101231E+01  0.96647843207E+01  0.51100000000E-03 0.  1.
         12    1    3    3    0    0  0.61369043442E+00 -0.11530992118E+01  0.70267919237E+00  0.14832436715E+01  0.00000000000E+00 0. -1.
</event>
<event>
 7    1  0.2886681E-010  0.4778728E+02  0.7816164E-02  0.1312668E+00
        -11   -1    0    0    0    0  0.00000000000E+00  0.00000000000E+00  0.45593999997E+02  0.45594000000E+02  0.51100000000E-03 0.  1.
         11   -1    0    0    0    0 -0.00000000000E+00 -0.00000000000E+00 -0.45593999997E+02  0.45594000000E+02  0.51100000000E-03 0. -1.
    9900012    2    1    2    0    0  0.30378134720E+01 -0.42563625811E+02  0.79203715168E+01  0.47787276068E+02  0.20000022905E+02 0.  0.
        -12    1    1    2    0    0 -0.30378134720E+01  0.42563625811E+02 -0.79203715168E+01  0.43400723932E+02  0.00000000000E+00 0.  1.
         11    1    3    3    0    0 -0.43819988882E+01 -0.24296682915E+02  0.30064481138E+01  0.24871056380E+02  0.51100000000E-03 0. -1.
        -11    1    3    3    0    0  0.83493696008E+01 -0.19060570146E+02  0.55526073046E+01  0.21537148260E+02  0.51100000000E-03 0.  1.
        -12    1    3    3    0    0 -0.92955724048E+00  0.79362725115E+00 -0.63868390153E+00  0.13790714279E+01  0.00000000000E+00 0.  1.
</event>
<event>
 7    1  0.2886681E-010  0.4778726E+02  0.7816164E-02  0.1312668E+00
        -11   -1    0    0    0    0  0.00000000000E+00  0.00000000000E+00  0.45593999997E+02  0.45594000000E+02  0.51100000000E-03 0.  1.
         11   -1    0    0    0    0 -0.00000000000E+00 -0.00000000000E+00 -0.45593999997E+02  0.45594000000E+02  0.51100000000E-03 0. -1.
    9900012    2    1    2    0    0 -0.12109740254E+02  0.29455538644E+02 -0.29484734037E+02  0.47787261446E+02  0.19999956237E+02 0.  0.
        -12    1    1    2    0    0  0.12109740254E+02 -0.29455538644E+02  0.29484734037E+02  0.43400738554E+02  0.00000000000E+00 0.  1.
         11    1    3    3    0    0 -0.81765538339E+00  0.15639191495E+01 -0.76917972230E+01  0.78916505379E+01  0.51100000000E-03 0. -1.
        -11    1    3    3    0    0 -0.29823693337E+01  0.19961020837E+02 -0.74356701815E+01  0.21508744059E+02  0.51100000000E-03 0.  1.
        -12    1    3    3    0    0 -0.83097155366E+01  0.79305986574E+01 -0.14357266632E+02  0.18386866849E+02  0.00000000000E+00 0.  1.
</event>
<event>
 7    1  0.2886681E-010  0.4778727E+02  0.7816164E-02  0.1312668E+00
        -11   -1    0    0    0    0  0.00000000000E+00  0.00000000000E+00  0.45593999997E+02  0.45594000000E+02  0.51100000000E-03 0.  1.
         11   -1    0    0    0    0 -0.00000000000E+00 -0.00000000000E+00 -0.45593999997E+02  0.45594000000E+02  0.51100000000E-03 0. -1.
    9900012    2    1    2    0    0 -0.22820213806E+02 -0.35830805297E+02 -0.88890101258E+01  0.47787271119E+02  0.20000000340E+02 0.  0.
        -12    1    1    2    0    0  0.22820213806E+02  0.35830805297E+02  0.88890101258E+01  0.43400728881E+02  0.00000000000E+00 0.  1.
         11    1    3    3    0    0 -0.17010312198E+02 -0.33252723737E+02 -0.52854843416E+01  0.37723079169E+02  0.51100000000E-03 0. -1.
        -11    1    3    3    0    0  0.83322802979E+00  0.71190183665E+00  0.87573110350E+00  0.14028465352E+01  0.51100000000E-03 0.  1.
         12    1    3    3    0    0 -0.66431296374E+01 -0.32899833969E+01 -0.44792568876E+01  0.86613454149E+01  0.00000000000E+00 0. -1.
</event>
<event>
 7    1  0.2886681E-010  0.4778727E+02  0.7816164E-02  0.1312668E+00
        -11   -1    0    0    0    0  0.00000000000E+00  0.00000000000E+00  0.45593999997E+02  0.45594000000E+02  0.51100000000E-03 0.  1.
         11   -1    0    0    0    0 -0.00000000000E+00 -0.00000000000E+00 -0.45593999997E+02  0.45594000000E+02  0.51100000000E-03 0. -1.
    9900012    2    1    2    0    0  0.15819262686E+02 -0.35039163369E+02 -0.20140291479E+02  0.47787269795E+02  0.19999994302E+02 0.  0.
        -12    1    1    2    0    0 -0.15819262686E+02  0.35039163369E+02  0.20140291479E+02  0.43400730205E+02  0.00000000000E+00 0.  1.
         11    1    3    3    0    0  0.75571114642E+01 -0.46661972014E+01 -0.82564412750E+01  0.12126506207E+02  0.51100000000E-03 0. -1.
        -11    1    3    3    0    0  0.93399316363E+01 -0.20694784602E+02 -0.38338195458E+01  0.23026215609E+02  0.51100000000E-03 0.  1.
        -12    1    3    3    0    0 -0.10777804143E+01 -0.96781815653E+01 -0.80500306576E+01  0.12634547979E+02  0.00000000000E+00 0.  1.
</event>
<event>
 7    1  0.2886681E-010  0.4778727E+02  0.7816164E-02  0.1312668E+00
        -11   -1    0    0    0    0  0.00000000000E+00  0.00000000000E+00  0.45593999997E+02  0.45594000000E+02  0.51100000000E-03 0.  1.
         11   -1    0    0    0    0 -0.00000000000E+00 -0.00000000000E+00 -0.45593999997E+02  0.45594000000E+02  0.51100000000E-03 0. -1.
    9900012    2    1    2    0    0  0.24149690872E+02  0.16421530607E+02 -0.32105278234E+02  0.47787272734E+02  0.20000007705E+02 0.  0.
        -12    1    1    2    0    0 -0.24149690872E+02 -0.16421530607E+02  0.32105278234E+02  0.43400727266E+02  0.00000000000E+00 0.  1.
         11    1    3    3    0    0  0.48147926540E+01 -0.17930593042E+01 -0.10212300549E+02  0.11431901536E+02  0.51100000000E-03 0. -1.
        -11    1    3    3    0    0  0.37820260081E+01  0.74550983620E+01 -0.14113490940E+01  0.84778605107E+01  0.51100000000E-03 0.  1.
        -12    1    3    3    0    0  0.15552872210E+02  0.10759491549E+02 -0.20481628591E+02  0.27877510688E+02  0.00000000000E+00 0.  1.
</event>
<event>
 7    1  0.2886681E-010  0.4778727E+02  0.7816164E-02  0.1312668E+00
        -11   -1    0    0    0    0  0.00000000000E+00  0.00000000000E+00  0.45593999997E+02  0.45594000000E+02  0.51100000000E-03 0.  1.
         11   -1    0    0    0    0 -0.00000000000E+00 -0.00000000000E+00 -0.45593999997E+02  0.45594000000E+02  0.51100000000E-03 0. -1.
    9900012    2    1    2    0    0 -0.14826684017E+02  0.37152581813E+02 -0.16836818152E+02  0.47787270286E+02  0.19999996540E+02 0.  0.
        -12    1    1    2    0    0  0.14826684017E+02 -0.37152581813E+02  0.16836818152E+02  0.43400729714E+02  0.00000000000E+00 0.  1.
         11    1    3    3    0    0 -0.74099489107E+01  0.34672346519E+02 -0.15035752356E+02  0.38511722958E+02  0.51100000000E-03 0. -1.
        -11    1    3    3    0    0 -0.17759266743E+01  0.10090278015E+01  0.15385637833E+01  0.25571920994E+01  0.51100000000E-03 0.  1.
         12    1    3    3    0    0 -0.56408084316E+01  0.14712074917E+01 -0.33396295788E+01  0.67183552279E+01  0.00000000000E+00 0. -1.
</event>
<event>
 7    1  0.2886681E-010  0.4778727E+02  0.7816164E-02  0.1312668E+00
        -11   -1    0    0    0    0  0.00000000000E+00  0.00000000000E+00  0.45593999997E+02  0.45594000000E+02  0.51100000000E-03 0.  1.
         11   -1    0    0    0    0 -0.00000000000E+00 -0.00000000000E+00 -0.45593999997E+02  0.45594000000E+02  0.51100000000E-03 0. -1.
    9900012    2    1    2    0    0 -0.26389099215E+02 -0.44790987588E+01 -0.34163962182E+02  0.47787271953E+02  0.20000004140E+02 0.  0.
        -12    1    1    2    0    0  0.26389099215E+02  0.44790987588E+01  0.34163962182E+02  0.43400728047E+02  0.00000000000E+00 0.  1.
         11    1    3    3    0    0 -0.99284992103E+01 -0.13818282651E+01 -0.13725368814E+01  0.10117727199E+02  0.51100000000E-03 0. -1.
        -11    1    3    3    0    0 -0.71385404695E+00 -0.24070550823E+01 -0.70734836343E+01  0.75058425746E+01  0.51100000000E-03 0.  1.
         12    1    3    3    0    0 -0.15746745958E+02 -0.69021541145E+00 -0.25717941667E+02  0.30163702179E+02  0.00000000000E+00 0. -1.
</event>
<event>
 7    1  0.2886681E-010  0.4778727E+02  0.7816164E-02  0.1312668E+00
        -11   -1    0    0    0    0  0.00000000000E+00  0.00000000000E+00  0.45593999997E+02  0.45594000000E+02  0.51100000000E-03 0.  1.
         11   -1    0    0    0    0 -0.00000000000E+00 -0.00000000000E+00 -0.45593999997E+02  0.45594000000E+02  0.51100000000E-03 0. -1.
    9900012    2    1    2    0    0  0.67406204169E+01  0.39530145561E+02 -0.16599851952E+02  0.47787268941E+02  0.19999990409E+02 0.  0.
        -12    1    1    2    0    0 -0.67406204169E+01 -0.39530145561E+02  0.16599851952E+02  0.43400731059E+02  0.00000000000E+00 0.  1.
         11    1    3    3    0    0 -0.10883845821E+01  0.24124200644E+02 -0.75703701567E+01  0.25307551092E+02  0.51100000000E-03 0. -1.
        -11    1    3    3    0    0  0.50813162056E+01  0.45399070528E+00 -0.39474293728E+01  0.64504326100E+01  0.51100000000E-03 0.  1.
         12    1    3    3    0    0  0.27476887935E+01  0.14951954211E+02 -0.50820524223E+01  0.16029285239E+02  0.00000000000E+00 0. -1.
</event>
<event>
 7    1  0.2886681E-010  0.4778727E+02  0.7816164E-02  0.1312668E+00
        -11   -1    0    0    0    0  0.00000000000E+00  0.00000000000E+00  0.45593999997E+02  0.45594000000E+02  0.51100000000E-03 0. -1.
         11   -1    0    0    0    0 -0.00000000000E+00 -0.00000000000E+00 -0.45593999997E+02  0.45594000000E+02  0.51100000000E-03 0.  1.
    9900012    2    1    2    0    0 -0.26375150003E+02  0.27581953762E+02  0.20669069382E+02  0.47787272585E+02  0.20000007024E+02 0.  0.
        -12    1    1    2    0    0  0.26375150003E+02 -0.27581953762E+02 -0.20669069382E+02  0.43400727415E+02  0.00000000000E+00 0.  1.
         11    1    3    3    0    0 -0.12833041208E+02  0.10244480529E+02  0.78648959183E+01  0.18206946916E+02  0.51100000000E-03 0. -1.
        -11    1    3    3    0    0  0.10833108162E+01 -0.44630213855E+00 -0.19202703047E+01  0.22494857696E+01  0.51100000000E-03 0.  1.
        -12    1    3    3    0    0 -0.14625419612E+02  0.17783775372E+02  0.14724443768E+02  0.27330839899E+02  0.00000000000E+00 0.  1.
</event>
<event>
 7    1  0.2886681E-010  0.4778727E+02  0.7816164E-02  0.1312668E+00
        -11   -1    0    0    0    0  0.00000000000E+00  0.00000000000E+00  0.45593999997E+02  0.45594000000E+02  0.51100000000E-03 0.  1.
         11   -1    0    0    0    0 -0.00000000000E+00 -0.00000000000E+00 -0.45593999997E+02  0.45594000000E+02  0.51100000000E-03 0. -1.
    9900012    2    1    2    0    0 -0.18683504729E+02  0.21407007663E+01 -0.39114801462E+02  0.47787266802E+02  0.19999980657E+02 0.  0.
        -12    1    1    2    0    0  0.18683504729E+02 -0.21407007663E+01  0.39114801462E+02  0.43400733198E+02  0.00000000000E+00 0.  1.
         11    1    3    3    0    0 -0.84543066059E+01 -0.10974890644E+01 -0.29987587592E+02  0.31175875165E+02  0.51100000000E-03 0. -1.
        -11    1    3    3    0    0 -0.22062075771E+01 -0.27510128744E+01 -0.41009132652E+01  0.54085962669E+01  0.51100000000E-03 0.  1.
         12    1    3    3    0    0 -0.80229905455E+01  0.59892027051E+01 -0.50263006043E+01  0.11202795370E+02  0.00000000000E+00 0. -1.
</event>
<event>
 7    1  0.2886681E-010  0.4778728E+02  0.7816164E-02  0.1312668E+00
        -11   -1    0    0    0    0  0.00000000000E+00  0.00000000000E+00  0.45593999997E+02  0.45594000000E+02  0.51100000000E-03 0. -1.
         11   -1    0    0    0    0 -0.00000000000E+00 -0.00000000000E+00 -0.45593999997E+02  0.45594000000E+02  0.51100000000E-03 0.  1.
    9900012    2    1    2    0    0  0.26495413697E+02  0.31363422307E+02  0.14069526820E+02  0.47787276611E+02  0.20000025378E+02 0.  0.
        -12    1    1    2    0    0 -0.26495413697E+02 -0.31363422307E+02 -0.14069526820E+02  0.43400723389E+02  0.00000000000E+00 0.  1.
         11    1    3    3    0    0  0.24693800437E+02  0.30480955429E+02  0.15940917328E+02  0.42343656779E+02  0.51100000000E-03 0. -1.
        -11    1    3    3    0    0  0.17085764141E+01  0.16166328244E+01 -0.31709512940E+01  0.39481220121E+01  0.51100000000E-03 0.  1.
        -12    1    3    3    0    0  0.93036845445E-01 -0.73416594619E+00  0.12995607860E+01  0.14954978193E+01  0.00000000000E+00 0.  1.
</event>
<event>
 7    1  0.2886681E-010  0.4778727E+02  0.7816164E-02  0.1312668E+00
        -11   -1    0    0    0    0  0.00000000000E+00  0.00000000000E+00  0.45593999997E+02  0.45594000000E+02  0.51100000000E-03 0. -1.
         11   -1    0    0    0    0 -0.00000000000E+00 -0.00000000000E+00 -0.45593999997E+02  0.45594000000E+02  0.51100000000E-03 0.  1.
    9900012    2    1    2    0    0  0.24891978439E+02 -0.45824413901E+01  0.35256399907E+02  0.47787273116E+02  0.20000009445E+02 0.  0.
        -12    1    1    2    0    0 -0.24891978439E+02  0.45824413901E+01 -0.35256399907E+02  0.43400726884E+02  0.00000000000E+00 0.  1.
         11    1    3    3    0    0  0.73262032713E+01  0.53408813830E+01  0.17803904067E+02  0.19979421128E+02  0.51100000000E-03 0. -1.
        -11    1    3    3    0    0  0.61644955523E+01 -0.27602875082E+01  0.14751159455E+01  0.69134766838E+01  0.51100000000E-03 0.  1.
         12    1    3    3    0    0  0.11401279615E+02 -0.71630352649E+01  0.15977379894E+02  0.20894375304E+02  0.00000000000E+00 0. -1.
</event>
<event>
 7    1  0.2886681E-010  0.4778726E+02  0.7816164E-02  0.1312668E+00
        -11   -1    0    0    0    0  0.00000000000E+00  0.00000000000E+00  0.45593999997E+02  0.45594000000E+02  0.51100000000E-03 0.  1.
         11   -1    0    0    0    0 -0.00000000000E+00 -0.00000000000E+00 -0.45593999997E+02  0.45594000000E+02  0.51100000000E-03 0. -1.
    9900012    2    1    2    0    0  0.16263671989E+02  0.28308941184E+02 -0.28595825024E+02  0.47787258228E+02  0.19999941566E+02 0.  0.
        -12    1    1    2    0    0 -0.16263671989E+02 -0.28308941184E+02  0.28595825024E+02  0.43400741772E+02  0.00000000000E+00 0.  1.
         11    1    3    3    0    0  0.65413722532E+01  0.10664160990E+02 -0.71034848538E+01  0.14386569358E+02  0.51100000000E-03 0. -1.
        -11    1    3    3    0    0  0.44329882895E+01  0.17666203994E+02 -0.21411830988E+02  0.28110721358E+02  0.51100000000E-03 0.  1.
        -12    1    3    3    0    0  0.52893114459E+01 -0.21423799806E-01 -0.80509182414E-01  0.52899675121E+01  0.00000000000E+00 0.  1.
</event>
<event>
 7    1  0.2886681E-010  0.4778727E+02  0.7816164E-02  0.1312668E+00
        -11   -1    0    0    0    0  0.00000000000E+00  0.00000000000E+00  0.45593999997E+02  0.45594000000E+02  0.51100000000E-03 0. -1.
         11   -1    0    0    0    0 -0.00000000000E+00 -0.00000000000E+00 -0.45593999997E+02  0.45594000000E+02  0.51100000000E-03 0.  1.
    9900012    2    1    2    0    0  0.16381754691E+02 -0.31910767240E+02  0.24432853680E+02  0.47787270840E+02  0.19999999068E+02 0.  0.
        -12    1    1    2    0    0 -0.16381754691E+02  0.31910767240E+02 -0.24432853680E+02  0.43400729160E+02  0.00000000000E+00 0.  1.
         11    1    3    3    0    0 -0.10517820994E+01 -0.13057732273E+02  0.35158854354E+01  0.13563630353E+02  0.51100000000E-03 0. -1.
        -11    1    3    3    0    0  0.13522402843E+02 -0.10645605166E+02  0.95981052662E+01  0.19705530010E+02  0.51100000000E-03 0.  1.
        -12    1    3    3    0    0  0.39111339480E+01 -0.82074298016E+01  0.11318862979E+02  0.14518110478E+02  0.00000000000E+00 0.  1.
</event>
<event>
 7    1  0.2886681E-010  0.4778728E+02  0.7816164E-02  0.1312668E+00
        -11   -1    0    0    0    0  0.00000000000E+00  0.00000000000E+00  0.45593999997E+02  0.45594000000E+02  0.51100000000E-03 0.  1.
         11   -1    0    0    0    0 -0.00000000000E+00 -0.00000000000E+00 -0.45593999997E+02  0.45594000000E+02  0.51100000000E-03 0. -1.
    9900012    2    1    2    0    0 -0.36860426492E+02 -0.43616897045E+01 -0.22492374214E+02  0.47787282540E+02  0.20000052413E+02 0.  0.
        -12    1    1    2    0    0  0.36860426492E+02  0.43616897045E+01  0.22492374214E+02  0.43400717460E+02  0.00000000000E+00 0.  1.
         11    1    3    3    0    0 -0.11488267127E+02  0.34533715931E+01 -0.37339242385E+01  0.12563767246E+02  0.51100000000E-03 0.  1.
        -11    1    3    3    0    0 -0.11151970017E+02 -0.97617061783E+01 -0.13150726619E+02  0.19814109964E+02  0.51100000000E-03 0. -1.
         12    1    3    3    0    0 -0.14220189349E+02  0.19466448807E+01 -0.56077233558E+01  0.15409405331E+02  0.00000000000E+00 0. -1.
</event>
<event>
 7    1  0.2886681E-010  0.4778727E+02  0.7816164E-02  0.1312668E+00
        -11   -1    0    0    0    0  0.00000000000E+00  0.00000000000E+00  0.45593999997E+02  0.45594000000E+02  0.51100000000E-03 0. -1.
         11   -1    0    0    0    0 -0.00000000000E+00 -0.00000000000E+00 -0.45593999997E+02  0.45594000000E+02  0.51100000000E-03 0.  1.
    9900012    2    1    2    0    0  0.72479724559E+01  0.38004422737E+02  0.19666054642E+02  0.47787274689E+02  0.20000016618E+02 0.  0.
        -12    1    1    2    0    0 -0.72479724559E+01 -0.38004422737E+02 -0.19666054642E+02  0.43400725311E+02  0.00000000000E+00 0.  1.
         11    1    3    3    0    0  0.30179130189E+01  0.23955745838E+02  0.12342898942E+02  0.27117018866E+02  0.51100000000E-03 0. -1.
        -11    1    3    3    0    0  0.58445859616E+01  0.57909350024E+01 -0.16259790004E+01  0.83867706082E+01  0.51100000000E-03 0.  1.
        -12    1    3    3    0    0 -0.16145265246E+01  0.82577418973E+01  0.89491347001E+01  0.12283485215E+02  0.00000000000E+00 0.  1.
</event>
<event>
 7    1  0.2886681E-010  0.4778727E+02  0.7816164E-02  0.1312668E+00
        -11   -1    0    0    0    0  0.00000000000E+00  0.00000000000E+00  0.45593999997E+02  0.45594000000E+02  0.51100000000E-03 0.  1.
         11   -1    0    0    0    0 -0.00000000000E+00 -0.00000000000E+00 -0.45593999997E+02  0.45594000000E+02  0.51100000000E-03 0. -1.
    9900012    2    1    2    0    0 -0.23454589741E+02 -0.36318164149E+02 -0.38074282092E+01  0.47787270322E+02  0.19999996705E+02 0.  0.
        -12    1    1    2    0    0  0.23454589741E+02  0.36318164149E+02  0.38074282092E+01  0.43400729678E+02  0.00000000000E+00 0.  1.
         11    1    3    3    0    0 -0.54667540830E+01 -0.12363950993E+02 -0.16811502950E-01  0.13518615582E+02  0.51100000000E-03 0. -1.
        -11    1    3    3    0    0 -0.20017062576E+02 -0.24254392533E+02 -0.19425676470E+01  0.31507648606E+02  0.51100000000E-03 0.  1.
        -12    1    3    3    0    0  0.20292269185E+01  0.30017937778E+00 -0.18480490593E+01  0.27610061338E+01  0.00000000000E+00 0.  1.
</event>
<event>
 7    1  0.2886681E-010  0.4778727E+02  0.7816164E-02  0.1312668E+00
        -11   -1    0    0    0    0  0.00000000000E+00  0.00000000000E+00  0.45593999997E+02  0.45594000000E+02  0.51100000000E-03 0. -1.
         11   -1    0    0    0    0 -0.00000000000E+00 -0.00000000000E+00 -0.45593999997E+02  0.45594000000E+02  0.51100000000E-03 0.  1.
    9900012    2    1    2    0    0 -0.13883981180E+02  0.31302103405E+02  0.26665275777E+02  0.47787267942E+02  0.19999985853E+02 0.  0.
        -12    1    1    2    0    0  0.13883981180E+02 -0.31302103405E+02 -0.26665275777E+02  0.43400732058E+02  0.00000000000E+00 0.  1.
         11    1    3    3    0    0 -0.12520211683E+02  0.30354161927E+02  0.29320398892E+02  0.44020638777E+02  0.51100000000E-03 0. -1.
        -11    1    3    3    0    0 -0.63646380774E+00 -0.61528376152E+00 -0.13042796334E+01  0.15763267139E+01  0.51100000000E-03 0.  1.
         12    1    3    3    0    0 -0.72730568902E+00  0.15632252394E+01 -0.13508434818E+01  0.21903024510E+01  0.00000000000E+00 0. -1.
</event>
<event>
 7    1  0.2886681E-010  0.4778728E+02  0.7816164E-02  0.1312668E+00
        -11   -1    0    0    0    0  0.00000000000E+00  0.00000000000E+00  0.45593999997E+02  0.45594000000E+02  0.51100000000E-03 0. -1.
         11   -1    0    0    0    0 -0.00000000000E+00 -0.00000000000E+00 -0.45593999997E+02  0.45594000000E+02  0.51100000000E-03 0.  1.
    9900012    2    1    2    0    0 -0.30048058476E+01  0.41263660929E+02  0.13111227095E+02  0.47787275958E+02  0.20000022401E+02 0.  0.
        -12    1    1    2    0    0  0.30048058476E+01 -0.41263660929E+02 -0.13111227095E+02  0.43400724042E+02  0.00000000000E+00 0.  1.
         11    1    3    3    0    0  0.16433600758E+01  0.12988723997E+02  0.87076843592E+01  0.15723592165E+02  0.51100000000E-03 0. -1.
        -11    1    3    3    0    0 -0.67348973586E+01  0.17707057790E+02 -0.27350954743E+01  0.19141041913E+02  0.51100000000E-03 0.  1.
        -12    1    3    3    0    0  0.20867314352E+01  0.10567879142E+02  0.71386382098E+01  0.12922641879E+02  0.00000000000E+00 0.  1.
</event>
<event>
 7    1  0.2886681E-010  0.4778728E+02  0.7816164E-02  0.1312668E+00
        -11   -1    0    0    0    0  0.00000000000E+00  0.00000000000E+00  0.45593999997E+02  0.45594000000E+02  0.51100000000E-03 0.  1.
         11   -1    0    0    0    0 -0.00000000000E+00 -0.00000000000E+00 -0.45593999997E+02  0.45594000000E+02  0.51100000000E-03 0. -1.
    9900012    2    1    2    0    0 -0.20276205256E+02 -0.17764978941E+02 -0.34013283538E+02  0.47787280727E+02  0.20000044148E+02 0.  0.
        -12    1    1    2    0    0  0.20276205256E+02  0.17764978941E+02  0.34013283538E+02  0.43400719273E+02  0.00000000000E+00 0.  1.
         11    1    3    3    0    0 -0.49195215335E+01 -0.32212577960E+01 -0.50168723671E+01  0.77296314605E+01  0.51100000000E-03 0. -1.
        -11    1    3    3    0    0 -0.87298939159E+01 -0.13472283761E+02 -0.29221741975E+02  0.33341021008E+02  0.51100000000E-03 0.  1.
        -12    1    3    3    0    0 -0.66267898061E+01 -0.10714373842E+01  0.22533080387E+00  0.67166282593E+01  0.00000000000E+00 0.  1.
</event>
<event>
 7    1  0.2886681E-010  0.4778732E+02  0.7816164E-02  0.1312668E+00
        -11   -1    0    0    0    0  0.00000000000E+00  0.00000000000E+00  0.45593999997E+02  0.45594000000E+02  0.51100000000E-03 0.  1.
         11   -1    0    0    0    0 -0.00000000000E+00 -0.00000000000E+00 -0.45593999997E+02  0.45594000000E+02  0.51100000000E-03 0. -1.
    9900012    2    1    2    0    0 -0.36115182111E+02 -0.16949915097E+02 -0.17088394776E+02  0.47787317555E+02  0.20000212059E+02 0.  0.
        -12    1    1    2    0    0  0.36115182111E+02  0.16949915097E+02  0.17088394776E+02  0.43400682445E+02  0.00000000000E+00 0.  1.
         11    1    3    3    0    0 -0.68231810808E+00 -0.43491784864E+01 -0.57844614048E+01  0.72691750228E+01  0.51100000000E-03 0. -1.
        -11    1    3    3    0    0 -0.34553694615E+02 -0.12449240219E+02 -0.12699722303E+02  0.38861604964E+02  0.51100000000E-03 0.  1.
        -12    1    3    3    0    0 -0.87916938826E+00 -0.15149639176E+00  0.13957889327E+01  0.16565375681E+01  0.00000000000E+00 0.  1.
</event>
<event>
 7    1  0.2886681E-010  0.4778728E+02  0.7816164E-02  0.1312668E+00
        -11   -1    0    0    0    0  0.00000000000E+00  0.00000000000E+00  0.45593999997E+02  0.45594000000E+02  0.51100000000E-03 0. -1.
         11   -1    0    0    0    0 -0.00000000000E+00 -0.00000000000E+00 -0.45593999997E+02  0.45594000000E+02  0.51100000000E-03 0.  1.
    9900012    2    1    2    0    0 -0.67957297603E+01 -0.35416169105E+02  0.24148207881E+02  0.47787275111E+02  0.20000018541E+02 0.  0.
        -12    1    1    2    0    0  0.67957297603E+01  0.35416169105E+02 -0.24148207881E+02  0.43400724889E+02  0.00000000000E+00 0.  1.
         11    1    3    3    0    0  0.45109336899E+00  0.20403333566E+00  0.64498687568E+01  0.64688424058E+01  0.51100000000E-03 0.  1.
        -11    1    3    3    0    0 -0.20922483274E+01 -0.26852798136E+02  0.10745403839E+02  0.28998516768E+02  0.51100000000E-03 0. -1.
         12    1    3    3    0    0 -0.51545748019E+01 -0.87674043043E+01  0.69529352855E+01  0.12319915938E+02  0.00000000000E+00 0. -1.
</event>
<event>
 7    1  0.2886681E-010  0.4778727E+02  0.7816164E-02  0.1312668E+00
        -11   -1    0    0    0    0  0.00000000000E+00  0.00000000000E+00  0.45593999997E+02  0.45594000000E+02  0.51100000000E-03 0.  1.
         11   -1    0    0    0    0 -0.00000000000E+00 -0.00000000000E+00 -0.45593999997E+02  0.45594000000E+02  0.51100000000E-03 0. -1.
    9900012    2    1    2    0    0  0.91184989736E+01  0.32734275216E+02 -0.26998962794E+02  0.47787265105E+02  0.19999972920E+02 0.  0.
        -12    1    1    2    0    0 -0.91184989736E+01 -0.32734275216E+02  0.26998962794E+02  0.43400734895E+02  0.00000000000E+00 0.  1.
         11    1    3    3    0    0  0.10316630202E+02  0.13797823294E+02 -0.16050841368E+02  0.23546598380E+02  0.51100000000E-03 0.  1.
        -11    1    3    3    0    0  0.30591976265E+01  0.12397472689E+02 -0.10309824790E+02  0.16411840441E+02  0.51100000000E-03 0. -1.
         12    1    3    3    0    0 -0.42573288553E+01  0.65389792330E+01 -0.63829663612E+00  0.78288262841E+01  0.00000000000E+00 0. -1.
</event>
<event>
 7    1  0.2886681E-010  0.4778727E+02  0.7816164E-02  0.1312668E+00
        -11   -1    0    0    0    0  0.00000000000E+00  0.00000000000E+00  0.45593999997E+02  0.45594000000E+02  0.51100000000E-03 0.  1.
         11   -1    0    0    0    0 -0.00000000000E+00 -0.00000000000E+00 -0.45593999997E+02  0.45594000000E+02  0.51100000000E-03 0. -1.
    9900012    2    1    2    0    0 -0.28229417036E+02  0.96660048438E+01 -0.31516537240E+02  0.47787265497E+02  0.19999974705E+02 0.  0.
        -12    1    1    2    0    0  0.28229417036E+02 -0.96660048438E+01  0.31516537240E+02  0.43400734503E+02  0.00000000000E+00 0.  1.
         11    1    3    3    0    0 -0.22284444507E+02  0.53808114945E+01 -0.14623960701E+02  0.27192091243E+02  0.51100000000E-03 0. -1.
        -11    1    3    3    0    0 -0.41981934204E+01  0.51578331080E+01 -0.44536934346E+01  0.80039650071E+01  0.51100000000E-03 0.  1.
         12    1    3    3    0    0 -0.17467791090E+01 -0.87263975865E+00 -0.12438883104E+02  0.12591209247E+02  0.00000000000E+00 0. -1.
</event>
<event>
 7    1  0.2886681E-010  0.4778727E+02  0.7816164E-02  0.1312668E+00
        -11   -1    0    0    0    0  0.00000000000E+00  0.00000000000E+00  0.45593999997E+02  0.45594000000E+02  0.51100000000E-03 0. -1.
         11   -1    0    0    0    0 -0.00000000000E+00 -0.00000000000E+00 -0.45593999997E+02  0.45594000000E+02  0.51100000000E-03 0.  1.
    9900012    2    1    2    0    0  0.22266855188E+01 -0.43018767880E+02 -0.52963103677E+01  0.47787269340E+02  0.19999992231E+02 0.  0.
        -12    1    1    2    0    0 -0.22266855188E+01  0.43018767880E+02  0.52963103677E+01  0.43400730660E+02  0.00000000000E+00 0.  1.
         11    1    3    3    0    0  0.61737424128E+01 -0.13644516325E+02  0.57942460065E+01  0.16058057422E+02  0.51100000000E-03 0. -1.
        -11    1    3    3    0    0 -0.17972413077E+01 -0.19786501526E+02 -0.81306413736E+01  0.21467255259E+02  0.51100000000E-03 0.  1.
        -12    1    3    3    0    0 -0.21498155863E+01 -0.95877500291E+01 -0.29599150007E+01  0.10261956660E+02  0.00000000000E+00 0.  1.
</event>
<event>
 7    1  0.2886681E-010  0.4778727E+02  0.7816164E-02  0.1312668E+00
        -11   -1    0    0    0    0  0.00000000000E+00  0.00000000000E+00  0.45593999997E+02  0.45594000000E+02  0.51100000000E-03 0.  1.
         11   -1    0    0    0    0 -0.00000000000E+00 -0.00000000000E+00 -0.45593999997E+02  0.45594000000E+02  0.51100000000E-03 0. -1.
    9900012    2    1    2    0    0  0.30304228040E+02 -0.21930766891E+02 -0.22007246598E+02  0.47787266407E+02  0.19999978858E+02 0.  0.
        -12    1    1    2    0    0 -0.30304228040E+02  0.21930766891E+02  0.22007246598E+02  0.43400733593E+02  0.00000000000E+00 0.  1.
         11    1    3    3    0    0  0.20732350857E+02 -0.13247612800E+02 -0.17181867058E+02  0.30009101499E+02  0.51100000000E-03 0. -1.
        -11    1    3    3    0    0  0.61378530406E+01 -0.34497979646E+00  0.20044127572E+01  0.64660592148E+01  0.51100000000E-03 0.  1.
        -12    1    3    3    0    0  0.34340241424E+01 -0.83381742950E+01 -0.68297922977E+01  0.11312105693E+02  0.00000000000E+00 0.  1.
</event>
<event>
 7    1  0.2886681E-010  0.4778727E+02  0.7816164E-02  0.1312668E+00
        -11   -1    0    0    0    0  0.00000000000E+00  0.00000000000E+00  0.45593999997E+02  0.45594000000E+02  0.51100000000E-03 0. -1.
         11   -1    0    0    0    0 -0.00000000000E+00 -0.00000000000E+00 -0.45593999997E+02  0.45594000000E+02  0.51100000000E-03 0.  1.
    9900012    2    1    2    0    0  0.35414133603E+02  0.23112768082E+02  0.97602555960E+01  0.47787268478E+02  0.19999988300E+02 0.  0.
        -12    1    1    2    0    0 -0.35414133603E+02 -0.23112768082E+02 -0.97602555960E+01  0.43400731522E+02  0.00000000000E+00 0.  1.
         11    1    3    3    0    0  0.29613615352E+02  0.16629548046E+02  0.12371846634E+02  0.36146516732E+02  0.51100000000E-03 0. -1.
        -11    1    3    3    0    0  0.33589882801E+01  0.67110571258E+01  0.68077663613E+00  0.75355522094E+01  0.51100000000E-03 0.  1.
         12    1    3    3    0    0  0.24415299712E+01 -0.22783708968E+00 -0.32923676739E+01  0.41051995372E+01  0.00000000000E+00 0. -1.
</event>
<event>
 7    1  0.2886681E-010  0.4778727E+02  0.7816164E-02  0.1312668E+00
        -11   -1    0    0    0    0  0.00000000000E+00  0.00000000000E+00  0.45593999997E+02  0.45594000000E+02  0.51100000000E-03 0.  1.
         11   -1    0    0    0    0 -0.00000000000E+00 -0.00000000000E+00 -0.45593999997E+02  0.45594000000E+02  0.51100000000E-03 0. -1.
    9900012    2    1    2    0    0  0.13854044035E+02 -0.20803957809E+02 -0.35480759643E+02  0.47787268422E+02  0.19999988042E+02 0.  0.
        -12    1    1    2    0    0 -0.13854044035E+02  0.20803957809E+02  0.35480759643E+02  0.43400731578E+02  0.00000000000E+00 0.  1.
         11    1    3    3    0    0  0.61908243859E+01 -0.81072623020E+01 -0.18852696978E+02  0.21435442431E+02  0.51100000000E-03 0. -1.
        -11    1    3    3    0    0  0.90550032875E+01 -0.76426201242E+01 -0.37191937210E+01  0.12419143654E+02  0.51100000000E-03 0.  1.
        -12    1    3    3    0    0 -0.13917836382E+01 -0.50540753832E+01 -0.12908868944E+02  0.13932682336E+02  0.00000000000E+00 0.  1.
</event>
<event>
 7    1  0.2886681E-010  0.4778727E+02  0.7816164E-02  0.1312668E+00
        -11   -1    0    0    0    0  0.00000000000E+00  0.00000000000E+00  0.45593999997E+02  0.45594000000E+02  0.51100000000E-03 0. -1.
         11   -1    0    0    0    0 -0.00000000000E+00 -0.00000000000E+00 -0.45593999997E+02  0.45594000000E+02  0.51100000000E-03 0.  1.
    9900012    2    1    2    0    0  0.24584969738E+02  0.30058330024E+02  0.19382967754E+02  0.47787269824E+02  0.19999994435E+02 0.  0.
        -12    1    1    2    0    0 -0.24584969738E+02 -0.30058330024E+02 -0.19382967754E+02  0.43400730176E+02  0.00000000000E+00 0.  1.
         11    1    3    3    0    0  0.13945612318E+02  0.42391322144E+01  0.80781614023E+01  0.16664544301E+02  0.51100000000E-03 0.  1.
        -11    1    3    3    0    0  0.11885292705E+02  0.22917043062E+02  0.96790069888E+01  0.27570531768E+02  0.51100000000E-03 0. -1.
        -12    1    3    3    0    0 -0.12459352841E+01  0.29021547471E+01  0.16257993633E+01  0.35521937557E+01  0.00000000000E+00 0.  1.
</event>
<event>
 7    1  0.2886681E-010  0.4778727E+02  0.7816164E-02  0.1312668E+00
        -11   -1    0    0    0    0  0.00000000000E+00  0.00000000000E+00  0.45593999997E+02  0.45594000000E+02  0.51100000000E-03 0.  1.
         11   -1    0    0    0    0 -0.00000000000E+00 -0.00000000000E+00 -0.45593999997E+02  0.45594000000E+02  0.51100000000E-03 0. -1.
    9900012    2    1    2    0    0  0.11371784996E+02 -0.66482275208E+01 -0.41353437465E+02  0.47787271742E+02  0.20000003181E+02 0.  0.
        -12    1    1    2    0    0 -0.11371784996E+02  0.66482275208E+01  0.41353437465E+02  0.43400728258E+02  0.00000000000E+00 0.  1.
         11    1    3    3    0    0  0.76647804587E+01 -0.11185381043E+02 -0.22868766333E+02  0.26586501884E+02  0.51100000000E-03 0. -1.
        -11    1    3    3    0    0  0.39888575405E+01  0.68608834897E+01 -0.12904729063E+02  0.15149743865E+02  0.51100000000E-03 0.  1.
        -12    1    3    3    0    0 -0.28185300314E+00 -0.23237299674E+01 -0.55799420692E+01  0.60510259934E+01  0.00000000000E+00 0.  1.
</event>
<event>
 7    1  0.2886681E-010  0.4778728E+02  0.7816164E-02  0.1312668E+00
        -11   -1    0    0    0    0  0.00000000000E+00  0.00000000000E+00  0.45593999997E+02  0.45594000000E+02  0.51100000000E-03 0. -1.
         11   -1    0    0    0    0 -0.00000000000E+00 -0.00000000000E+00 -0.45593999997E+02  0.45594000000E+02  0.51100000000E-03 0.  1.
    9900012    2    1    2    0    0  0.41932400952E+02  0.10644848552E+02 -0.34616650161E+01  0.47787283705E+02  0.20000057723E+02 0.  0.
        -12    1    1    2    0    0 -0.41932400952E+02 -0.10644848552E+02  0.34616650161E+01  0.43400716295E+02  0.00000000000E+00 0.  1.
         11    1    3    3    0    0  0.84992498771E+01  0.90270778037E+00 -0.10252275093E+01  0.86083228051E+01  0.51100000000E-03 0. -1.
        -11    1    3    3    0    0  0.13700966853E+02 -0.36211375111E+01 -0.53970664110E+01  0.15164348179E+02  0.51100000000E-03 0.  1.
        -12    1    3    3    0    0  0.19732184222E+02  0.13363278283E+02  0.29606289042E+01  0.24014612721E+02  0.00000000000E+00 0.  1.
</event>
<event>
 7    1  0.2886681E-010  0.4778724E+02  0.7816164E-02  0.1312668E+00
        -11   -1    0    0    0    0  0.00000000000E+00  0.00000000000E+00  0.45593999997E+02  0.45594000000E+02  0.51100000000E-03 0.  1.
         11   -1    0    0    0    0 -0.00000000000E+00 -0.00000000000E+00 -0.45593999997E+02  0.45594000000E+02  0.51100000000E-03 0. -1.
    9900012    2    1    2    0    0  0.21251512537E+02  0.27772827374E+02 -0.25703487009E+02  0.47787239985E+02  0.19999858387E+02 0.  0.
        -12    1    1    2    0    0 -0.21251512537E+02 -0.27772827374E+02  0.25703487009E+02  0.43400760015E+02  0.00000000000E+00 0.  1.
         11    1    3    3    0    0  0.13485550024E+02  0.14278861704E+02 -0.22960823284E+02  0.30214985639E+02  0.51100000000E-03 0. -1.
        -11    1    3    3    0    0  0.87316243949E+01  0.91825141340E+01 -0.66179150273E+00  0.12688490795E+02  0.51100000000E-03 0.  1.
        -12    1    3    3    0    0 -0.96566188204E+00  0.43114515363E+01 -0.20808722224E+01  0.48837635515E+01  0.00000000000E+00 0.  1.
</event>
<event>
 7    1  0.2886681E-010  0.4778727E+02  0.7816164E-02  0.1312668E+00
        -11   -1    0    0    0    0  0.00000000000E+00  0.00000000000E+00  0.45593999997E+02  0.45594000000E+02  0.51100000000E-03 0.  1.
         11   -1    0    0    0    0 -0.00000000000E+00 -0.00000000000E+00 -0.45593999997E+02  0.45594000000E+02  0.51100000000E-03 0. -1.
    9900012    2    1    2    0    0 -0.16750977935E+02  0.29781854043E+02 -0.26759467107E+02  0.47787272220E+02  0.20000005358E+02 0.  0.
        -12    1    1    2    0    0  0.16750977935E+02 -0.29781854043E+02  0.26759467107E+02  0.43400727780E+02  0.00000000000E+00 0.  1.
         11    1    3    3    0    0 -0.11754883355E+01  0.44300785257E+01 -0.14120772219E+02  0.14845995315E+02  0.51100000000E-03 0. -1.
        -11    1    3    3    0    0 -0.45600985418E+01  0.54172703486E+01 -0.41589532747E+00  0.70932563696E+01  0.51100000000E-03 0.  1.
         12    1    3    3    0    0 -0.11015391058E+02  0.19934505169E+02 -0.12222799560E+02  0.25848020535E+02  0.00000000000E+00 0. -1.
</event>
<event>
 7    1  0.2886681E-010  0.4778727E+02  0.7816164E-02  0.1312668E+00
        -11   -1    0    0    0    0  0.00000000000E+00  0.00000000000E+00  0.45593999997E+02  0.45594000000E+02  0.51100000000E-03 0.  1.
         11   -1    0    0    0    0 -0.00000000000E+00 -0.00000000000E+00 -0.45593999997E+02  0.45594000000E+02  0.51100000000E-03 0. -1.
    9900012    2    1    2    0    0 -0.14801456838E+02 -0.34607802204E+02 -0.21606482607E+02  0.47787272028E+02  0.20000004482E+02 0.  0.
        -12    1    1    2    0    0  0.14801456838E+02  0.34607802204E+02  0.21606482607E+02  0.43400727972E+02  0.00000000000E+00 0.  1.
         11    1    3    3    0    0 -0.14022653991E+02 -0.13285706868E+02 -0.13902317206E+02  0.23799564196E+02  0.51100000000E-03 0. -1.
        -11    1    3    3    0    0  0.23849108123E+01 -0.26193778804E+01 -0.76996915606E-01  0.35432850364E+01  0.51100000000E-03 0.  1.
         12    1    3    3    0    0 -0.31637136588E+01 -0.18702717456E+02 -0.76271684845E+01  0.20444422796E+02  0.00000000000E+00 0. -1.
</event>
<event>
 7    1  0.2886681E-010  0.4778728E+02  0.7816164E-02  0.1312668E+00
        -11   -1    0    0    0    0  0.00000000000E+00  0.00000000000E+00  0.45593999997E+02  0.45594000000E+02  0.51100000000E-03 0. -1.
         11   -1    0    0    0    0 -0.00000000000E+00 -0.00000000000E+00 -0.45593999997E+02  0.45594000000E+02  0.51100000000E-03 0.  1.
    9900012    2    1    2    0    0 -0.11447574070E+02 -0.41858595696E+02  0.65855673999E+00  0.47787277855E+02  0.20000031051E+02 0.  0.
        -12    1    1    2    0    0  0.11447574070E+02  0.41858595696E+02 -0.65855673999E+00  0.43400722145E+02  0.00000000000E+00 0.  1.
         11    1    3    3    0    0 -0.35110546988E+01 -0.34772695241E+02  0.17528879271E+01  0.34993434467E+02  0.51100000000E-03 0. -1.
        -11    1    3    3    0    0 -0.50128237810E+01 -0.50829877656E+01 -0.40246653668E+01  0.81953095403E+01  0.51100000000E-03 0.  1.
        -12    1    3    3    0    0 -0.29236955902E+01 -0.20029126895E+01  0.29303341796E+01  0.45985338479E+01  0.00000000000E+00 0.  1.
</event>
<event>
 7    1  0.2886681E-010  0.4778727E+02  0.7816164E-02  0.1312668E+00
        -11   -1    0    0    0    0  0.00000000000E+00  0.00000000000E+00  0.45593999997E+02  0.45594000000E+02  0.51100000000E-03 0.  1.
         11   -1    0    0    0    0 -0.00000000000E+00 -0.00000000000E+00 -0.45593999997E+02  0.45594000000E+02  0.51100000000E-03 0. -1.
    9900012    2    1    2    0    0 -0.67265877788E+01 -0.42474892431E+01 -0.42665386164E+02  0.47787270461E+02  0.19999997338E+02 0.  0.
        -12    1    1    2    0    0  0.67265877788E+01  0.42474892431E+01  0.42665386164E+02  0.43400729539E+02  0.00000000000E+00 0.  1.
         11    1    3    3    0    0 -0.18998605196E+01 -0.28534895510E+01 -0.13848753093E+02  0.14266738769E+02  0.51100000000E-03 0. -1.
        -11    1    3    3    0    0 -0.67216006130E-03  0.24977797586E+01 -0.26922189897E+02  0.27037810808E+02  0.51100000000E-03 0.  1.
        -12    1    3    3    0    0 -0.48260550992E+01 -0.38917794507E+01 -0.18944431739E+01  0.64827208834E+01  0.00000000000E+00 0.  1.
</event>
<event>
 7    1  0.2886681E-010  0.4778727E+02  0.7816164E-02  0.1312668E+00
        -11   -1    0    0    0    0  0.00000000000E+00  0.00000000000E+00  0.45593999997E+02  0.45594000000E+02  0.51100000000E-03 0.  1.
         11   -1    0    0    0    0 -0.00000000000E+00 -0.00000000000E+00 -0.45593999997E+02  0.45594000000E+02  0.51100000000E-03 0. -1.
    9900012    2    1    2    0    0  0.12225342722E+02  0.16153708387E+02 -0.38382571004E+02  0.47787273553E+02  0.20000011435E+02 0.  0.
        -12    1    1    2    0    0 -0.12225342722E+02 -0.16153708387E+02  0.38382571004E+02  0.43400726447E+02  0.00000000000E+00 0.  1.
         11    1    3    3    0    0  0.36326409622E+01 -0.64898528696E+00 -0.57154311890E+01  0.68031916186E+01  0.51100000000E-03 0. -1.
        -11    1    3    3    0    0  0.32031664515E+01  0.15030983642E+01  0.94515129844E+00  0.36623614303E+01  0.51100000000E-03 0.  1.
        -12    1    3    3    0    0  0.53895353085E+01  0.15299595309E+02 -0.33612291113E+02  0.37321720504E+02  0.00000000000E+00 0.  1.
</event>
<event>
 7    1  0.2886681E-010  0.4778726E+02  0.7816164E-02  0.1312668E+00
        -11   -1    0    0    0    0  0.00000000000E+00  0.00000000000E+00  0.45593999997E+02  0.45594000000E+02  0.51100000000E-03 0. -1.
         11   -1    0    0    0    0 -0.00000000000E+00 -0.00000000000E+00 -0.45593999997E+02  0.45594000000E+02  0.51100000000E-03 0.  1.
    9900012    2    1    2    0    0 -0.25349908213E+02 -0.33392338963E+02  0.11223088314E+02  0.47787264302E+02  0.19999969258E+02 0.  0.
        -12    1    1    2    0    0  0.25349908213E+02  0.33392338963E+02 -0.11223088314E+02  0.43400735698E+02  0.00000000000E+00 0.  1.
         11    1    3    3    0    0 -0.19334599854E+02 -0.14343973278E+02  0.19628063996E+01  0.24154273538E+02  0.51100000000E-03 0. -1.
        -11    1    3    3    0    0  0.33266408202E+00 -0.78156187658E+01  0.12448601260E+00  0.78236857754E+01  0.51100000000E-03 0.  1.
        -12    1    3    3    0    0 -0.63479724407E+01 -0.11232746919E+02  0.91357959014E+01  0.15809304988E+02  0.00000000000E+00 0.  1.
</event>
<event>
 7    1  0.2886681E-010  0.4778727E+02  0.7816164E-02  0.1312668E+00
        -11   -1    0    0    0    0  0.00000000000E+00  0.00000000000E+00  0.45593999997E+02  0.45594000000E+02  0.51100000000E-03 0.  1.
         11   -1    0    0    0    0 -0.00000000000E+00 -0.00000000000E+00 -0.45593999997E+02  0.45594000000E+02  0.51100000000E-03 0. -1.
    9900012    2    1    2    0    0  0.10652709084E+01 -0.71472078550E+01 -0.42794925596E+02  0.47787273750E+02  0.20000012336E+02 0.  0.
        -12    1    1    2    0    0 -0.10652709084E+01  0.71472078550E+01  0.42794925596E+02  0.43400726250E+02  0.00000000000E+00 0.  1.
         11    1    3    3    0    0 -0.10986370476E+00 -0.10032266652E+02 -0.11148813242E+02  0.14998482629E+02  0.51100000000E-03 0. -1.
        -11    1    3    3    0    0 -0.23349891467E+01  0.41211036934E+01 -0.20411293283E+02  0.20953676616E+02  0.51100000000E-03 0.  1.
        -12    1    3    3    0    0  0.35101237599E+01 -0.12360448968E+01 -0.11234819071E+02  0.11835114505E+02  0.00000000000E+00 0.  1.
</event>
<event>
 7    1  0.2886681E-010  0.4778727E+02  0.7816164E-02  0.1312668E+00
        -11   -1    0    0    0    0  0.00000000000E+00  0.00000000000E+00  0.45593999997E+02  0.45594000000E+02  0.51100000000E-03 0. -1.
         11   -1    0    0    0    0 -0.00000000000E+00 -0.00000000000E+00 -0.45593999997E+02  0.45594000000E+02  0.51100000000E-03 0.  1.
    9900012    2    1    2    0    0 -0.32744798362E+02  0.99673065057E+01  0.26684345996E+02  0.47787270282E+02  0.19999996525E+02 0.  0.
        -12    1    1    2    0    0  0.32744798362E+02 -0.99673065057E+01 -0.26684345996E+02  0.43400729718E+02  0.00000000000E+00 0.  1.
         11    1    3    3    0    0 -0.32587337784E+02  0.10670459721E+02  0.18931407152E+02  0.39168756319E+02  0.51100000000E-03 0. -1.
        -11    1    3    3    0    0 -0.15381969597E+00 -0.10286852416E+00  0.79759765273E+01  0.79781228530E+01  0.51100000000E-03 0.  1.
        -12    1    3    3    0    0 -0.36408820525E-02 -0.60028469135E+00 -0.22303768295E+00  0.64039111073E+00  0.00000000000E+00 0.  1.
</event>
<event>
 7    1  0.2886681E-010  0.4778726E+02  0.7816164E-02  0.1312668E+00
        -11   -1    0    0    0    0  0.00000000000E+00  0.00000000000E+00  0.45593999997E+02  0.45594000000E+02  0.51100000000E-03 0.  1.
         11   -1    0    0    0    0 -0.00000000000E+00 -0.00000000000E+00 -0.45593999997E+02  0.45594000000E+02  0.51100000000E-03 0. -1.
    9900012    2    1    2    0    0 -0.29800051676E+01  0.38264331840E+02 -0.20262891429E+02  0.47787259327E+02  0.19999946574E+02 0.  0.
        -12    1    1    2    0    0  0.29800051676E+01 -0.38264331840E+02  0.20262891429E+02  0.43400740673E+02  0.00000000000E+00 0.  1.
         11    1    3    3    0    0  0.18849073466E+01  0.17357122248E+02 -0.61530144726E+01  0.18511676202E+02  0.51100000000E-03 0. -1.
        -11    1    3    3    0    0 -0.83893191984E+01  0.61486095324E+01 -0.68533591576E+01  0.12456107249E+02  0.51100000000E-03 0.  1.
         12    1    3    3    0    0  0.35244066841E+01  0.14758600059E+02 -0.72565177985E+01  0.16819475876E+02  0.00000000000E+00 0. -1.
</event>
<event>
 7    1  0.2886681E-010  0.4778727E+02  0.7816164E-02  0.1312668E+00
        -11   -1    0    0    0    0  0.00000000000E+00  0.00000000000E+00  0.45593999997E+02  0.45594000000E+02  0.51100000000E-03 0.  1.
         11   -1    0    0    0    0 -0.00000000000E+00 -0.00000000000E+00 -0.45593999997E+02  0.45594000000E+02  0.51100000000E-03 0. -1.
    9900012    2    1    2    0    0 -0.81817587593E+01  0.31326243629E+02 -0.28902399512E+02  0.47787269432E+02  0.19999992647E+02 0.  0.
        -12    1    1    2    0    0  0.81817587593E+01 -0.31326243629E+02  0.28902399512E+02  0.43400730568E+02  0.00000000000E+00 0.  1.
         11    1    3    3    0    0  0.44514873868E+00  0.22435739944E+02 -0.23932353564E+02  0.32807287782E+02  0.51100000000E-03 0. -1.
        -11    1    3    3    0    0 -0.57854177576E+01  0.63668817972E+01  0.14943720331E+00  0.86041021721E+01  0.51100000000E-03 0.  1.
         12    1    3    3    0    0 -0.28414897404E+01  0.25236218878E+01 -0.51194831519E+01  0.63758794782E+01  0.00000000000E+00 0. -1.
</event>
<event>
 7    1  0.2886681E-010  0.4778727E+02  0.7816164E-02  0.1312668E+00
        -11   -1    0    0    0    0  0.00000000000E+00  0.00000000000E+00  0.45593999997E+02  0.45594000000E+02  0.51100000000E-03 0. -1.
         11   -1    0    0    0    0 -0.00000000000E+00 -0.00000000000E+00 -0.45593999997E+02  0.45594000000E+02  0.51100000000E-03 0.  1.
    9900012    2    1    2    0    0 -0.14378128959E+02  0.13117518474E+02  0.38792053585E+02  0.47787270690E+02  0.19999998386E+02 0.  0.
        -12    1    1    2    0    0  0.14378128959E+02 -0.13117518474E+02 -0.38792053585E+02  0.43400729310E+02  0.00000000000E+00 0.  1.
         11    1    3    3    0    0 -0.76578097264E+01  0.95079110315E+01  0.10052194979E+02  0.15814203936E+02  0.51100000000E-03 0. -1.
        -11    1    3    3    0    0  0.16696223914E+01 -0.17271695981E+01  0.13924654855E+02  0.14130349141E+02  0.51100000000E-03 0.  1.
         12    1    3    3    0    0 -0.83899416244E+01  0.53367770407E+01  0.14815203751E+02  0.17842717614E+02  0.00000000000E+00 0. -1.
</event>
<event>
 7    1  0.2886681E-010  0.4778728E+02  0.7816164E-02  0.1312668E+00
        -11   -1    0    0    0    0  0.00000000000E+00  0.00000000000E+00  0.45593999997E+02  0.45594000000E+02  0.51100000000E-03 0.  1.
         11   -1    0    0    0    0 -0.00000000000E+00 -0.00000000000E+00 -0.45593999997E+02  0.45594000000E+02  0.51100000000E-03 0. -1.
    9900012    2    1    2    0    0 -0.22612163831E+02 -0.35621768264E+01 -0.36873076826E+02  0.47787275911E+02  0.20000022187E+02 0.  0.
        -12    1    1    2    0    0  0.22612163831E+02  0.35621768264E+01  0.36873076826E+02  0.43400724089E+02  0.00000000000E+00 0.  1.
         11    1    3    3    0    0 -0.13398417662E+02  0.25142015865E+01 -0.63277608012E+01  0.15029283498E+02  0.51100000000E-03 0.  1.
        -11    1    3    3    0    0 -0.80735172509E+01 -0.66464236988E+01 -0.25659305086E+02  0.27708420499E+02  0.51100000000E-03 0. -1.
        -12    1    3    3    0    0 -0.11402289184E+01  0.57004528591E+00 -0.48860109385E+01  0.50495719131E+01  0.00000000000E+00 0.  1.
</event>
<event>
 7    1  0.2886681E-010  0.4778723E+02  0.7816164E-02  0.1312668E+00
        -11   -1    0    0    0    0  0.00000000000E+00  0.00000000000E+00  0.45593999997E+02  0.45594000000E+02  0.51100000000E-03 0.  1.
         11   -1    0    0    0    0 -0.00000000000E+00 -0.00000000000E+00 -0.45593999997E+02  0.45594000000E+02  0.51100000000E-03 0. -1.
    9900012    2    1    2    0    0 -0.23109963902E+02 -0.36508983022E+02 -0.40805156449E+01  0.47787229490E+02  0.19999810538E+02 0.  0.
        -12    1    1    2    0    0  0.23109963902E+02  0.36508983022E+02  0.40805156449E+01  0.43400770510E+02  0.00000000000E+00 0.  1.
         11    1    3    3    0    0 -0.66848832698E+01 -0.17188230763E+02 -0.11415556659E+01  0.18477718763E+02  0.51100000000E-03 0. -1.
        -11    1    3    3    0    0 -0.10459279260E+02 -0.27095584049E+01  0.19853664866E+01  0.10985440807E+02  0.51100000000E-03 0.  1.
        -12    1    3    3    0    0 -0.59658013727E+01 -0.16611193855E+02 -0.49243264656E+01  0.18324069920E+02  0.00000000000E+00 0.  1.
</event>
<event>
 7    1  0.2886681E-010  0.4778727E+02  0.7816164E-02  0.1312668E+00
        -11   -1    0    0    0    0  0.00000000000E+00  0.00000000000E+00  0.45593999997E+02  0.45594000000E+02  0.51100000000E-03 0.  1.
         11   -1    0    0    0    0 -0.00000000000E+00 -0.00000000000E+00 -0.45593999997E+02  0.45594000000E+02  0.51100000000E-03 0. -1.
    9900012    2    1    2    0    0 -0.22666569723E+02 -0.31653244744E+01 -0.36875885171E+02  0.47787267643E+02  0.19999984491E+02 0.  0.
        -12    1    1    2    0    0  0.22666569723E+02  0.31653244744E+01  0.36875885171E+02  0.43400732357E+02  0.00000000000E+00 0.  1.
         11    1    3    3    0    0 -0.36732087362E+01 -0.80901986163E+01 -0.11449037709E+02  0.14492213109E+02  0.51100000000E-03 0. -1.
        -11    1    3    3    0    0 -0.57076534124E+01  0.58105762280E+01 -0.10580603887E+02  0.13352500982E+02  0.51100000000E-03 0.  1.
         12    1    3    3    0    0 -0.13285707574E+02 -0.88570208606E+00 -0.14846243574E+02  0.19942553552E+02  0.00000000000E+00 0. -1.
</event>
<event>
 7    1  0.2886681E-010  0.4778728E+02  0.7816164E-02  0.1312668E+00
        -11   -1    0    0    0    0  0.00000000000E+00  0.00000000000E+00  0.45593999997E+02  0.45594000000E+02  0.51100000000E-03 0. -1.
         11   -1    0    0    0    0 -0.00000000000E+00 -0.00000000000E+00 -0.45593999997E+02  0.45594000000E+02  0.51100000000E-03 0.  1.
    9900012    2    1    2    0    0  0.22822889063E+02  0.30796961310E+02  0.20354011483E+02  0.47787275645E+02  0.20000020976E+02 0.  0.
        -12    1    1    2    0    0 -0.22822889063E+02 -0.30796961310E+02 -0.20354011483E+02  0.43400724355E+02  0.00000000000E+00 0.  1.
         11    1    3    3    0    0  0.15650672057E+02  0.25742759890E+02  0.12495244962E+02  0.32615400803E+02  0.51100000000E-03 0. -1.
        -11    1    3    3    0    0  0.72159683710E+01  0.10561383723E+01  0.11798968709E+01  0.73876778950E+01  0.51100000000E-03 0.  1.
         12    1    3    3    0    0 -0.43751365068E-01  0.39980630473E+01  0.66788696502E+01  0.77841969474E+01  0.00000000000E+00 0. -1.
</event>
<event>
 7    1  0.2886681E-010  0.4778727E+02  0.7816164E-02  0.1312668E+00
        -11   -1    0    0    0    0  0.00000000000E+00  0.00000000000E+00  0.45593999997E+02  0.45594000000E+02  0.51100000000E-03 0.  1.
         11   -1    0    0    0    0 -0.00000000000E+00 -0.00000000000E+00 -0.45593999997E+02  0.45594000000E+02  0.51100000000E-03 0. -1.
    9900012    2    1    2    0    0  0.39881515079E+02  0.91378344342E+01 -0.14477152658E+02  0.47787271754E+02  0.20000003237E+02 0.  0.
        -12    1    1    2    0    0 -0.39881515079E+02 -0.91378344342E+01  0.14477152658E+02  0.43400728246E+02  0.00000000000E+00 0.  1.
         11    1    3    3    0    0  0.27703175743E+02  0.38786702530E+01 -0.25522324824E+01  0.28089569596E+02  0.51100000000E-03 0. -1.
        -11    1    3    3    0    0  0.93036405475E+01  0.53269223430E+01 -0.43041278397E+01  0.11552460595E+02  0.51100000000E-03 0.  1.
         12    1    3    3    0    0  0.28746987889E+01 -0.67758161797E-01 -0.76207923363E+01  0.81452415635E+01  0.00000000000E+00 0. -1.
</event>
<event>
 7    1  0.2886681E-010  0.4778727E+02  0.7816164E-02  0.1312668E+00
        -11   -1    0    0    0    0  0.00000000000E+00  0.00000000000E+00  0.45593999997E+02  0.45594000000E+02  0.51100000000E-03 0.  1.
         11   -1    0    0    0    0 -0.00000000000E+00 -0.00000000000E+00 -0.45593999997E+02  0.45594000000E+02  0.51100000000E-03 0. -1.
    9900012    2    1    2    0    0 -0.14479025382E+02  0.12553992609E+01 -0.40895049851E+02  0.47787270679E+02  0.19999998334E+02 0.  0.
        -12    1    1    2    0    0  0.14479025382E+02 -0.12553992609E+01  0.40895049851E+02  0.43400729321E+02  0.00000000000E+00 0.  1.
         11    1    3    3    0    0 -0.88524186641E+01 -0.67624574578E+00 -0.23536397675E+02  0.25155210997E+02  0.51100000000E-03 0. -1.
        -11    1    3    3    0    0 -0.61887805831E+00  0.44937006712E+01 -0.16223649037E+00  0.45390171528E+01  0.51100000000E-03 0.  1.
        -12    1    3    3    0    0 -0.50077286594E+01 -0.25620556645E+01 -0.17196415685E+02  0.18093042529E+02  0.00000000000E+00 0.  1.
</event>
<event>
 7    1  0.2886681E-010  0.4778727E+02  0.7816164E-02  0.1312668E+00
        -11   -1    0    0    0    0  0.00000000000E+00  0.00000000000E+00  0.45593999997E+02  0.45594000000E+02  0.51100000000E-03 0. -1.
         11   -1    0    0    0    0 -0.00000000000E+00 -0.00000000000E+00 -0.45593999997E+02  0.45594000000E+02  0.51100000000E-03 0.  1.
    9900012    2    1    2    0    0  0.12972110472E+02 -0.23630197858E+02  0.34014132524E+02  0.47787272906E+02  0.20000008488E+02 0.  0.
        -12    1    1    2    0    0 -0.12972110472E+02  0.23630197858E+02 -0.34014132524E+02  0.43400727094E+02  0.00000000000E+00 0.  1.
         11    1    3    3    0    0  0.15478369077E+01 -0.38418464586E+01  0.42680783323E+00  0.41638622086E+01  0.51100000000E-03 0. -1.
        -11    1    3    3    0    0 -0.23384180185E+01 -0.11547843410E+02  0.13552887742E+02  0.17958331010E+02  0.51100000000E-03 0.  1.
        -12    1    3    3    0    0  0.13762691583E+02 -0.82405079897E+01  0.20034436948E+02  0.25665079688E+02  0.00000000000E+00 0.  1.
</event>
<event>
 7    1  0.2886681E-010  0.4778727E+02  0.7816164E-02  0.1312668E+00
        -11   -1    0    0    0    0  0.00000000000E+00  0.00000000000E+00  0.45593999997E+02  0.45594000000E+02  0.51100000000E-03 0.  1.
         11   -1    0    0    0    0 -0.00000000000E+00 -0.00000000000E+00 -0.45593999997E+02  0.45594000000E+02  0.51100000000E-03 0. -1.
    9900012    2    1    2    0    0 -0.41223748293E+02  0.15612269977E+01 -0.13482889211E+02  0.47787272419E+02  0.20000006267E+02 0.  0.
        -12    1    1    2    0    0  0.41223748293E+02 -0.15612269977E+01  0.13482889211E+02  0.43400727581E+02  0.00000000000E+00 0.  1.
         11    1    3    3    0    0 -0.14957544622E+01  0.45309525823E+01 -0.61825991224E+00  0.48113468275E+01  0.51100000000E-03 0. -1.
        -11    1    3    3    0    0 -0.88312246653E+01  0.32286917895E+01 -0.17737109666E+01  0.95687528244E+01  0.51100000000E-03 0.  1.
         12    1    3    3    0    0 -0.30896769166E+02 -0.61984173741E+01 -0.11090918332E+02  0.33407172767E+02  0.00000000000E+00 0. -1.
</event>
<event>
 7    1  0.3121140E-010  0.4778727E+02  0.7816164E-02  0.1312668E+00
        -11   -1    0    0    0    0  0.00000000000E+00  0.00000000000E+00  0.45593999997E+02  0.45594000000E+02  0.51100000000E-03 0. -1.
         11   -1    0    0    0    0 -0.00000000000E+00 -0.00000000000E+00 -0.45593999997E+02  0.45594000000E+02  0.51100000000E-03 0.  1.
    9900012    2    1    2    0    0 -0.36937081841E+02 -0.11160467279E+02  0.19867544430E+02  0.47787269977E+02  0.19999995134E+02 0.  0.
        -12    1    1    2    0    0  0.36937081841E+02  0.11160467279E+02 -0.19867544430E+02  0.43400730023E+02  0.00000000000E+00 0.  1.
         11    1    3    3    0    0 -0.33935168804E+02 -0.79555542331E+01  0.10914798641E+02  0.36524229691E+02  0.51100000000E-03 0. -1.
        -11    1    3    3    0    0  0.14700488210E+01 -0.43174915898E+00  0.15383550388E+01  0.21711718861E+01  0.51100000000E-03 0.  1.
         12    1    3    3    0    0 -0.44719618586E+01 -0.27731638873E+01  0.74143907502E+01  0.90918684002E+01  0.00000000000E+00 0. -1.
</event>
<event>
 7    1  0.2886681E-010  0.4778727E+02  0.7816164E-02  0.1312668E+00
        -11   -1    0    0    0    0  0.00000000000E+00  0.00000000000E+00  0.45593999997E+02  0.45594000000E+02  0.51100000000E-03 0.  1.
         11   -1    0    0    0    0 -0.00000000000E+00 -0.00000000000E+00 -0.45593999997E+02  0.45594000000E+02  0.51100000000E-03 0. -1.
    9900012    2    1    2    0    0  0.29003322098E+02  0.21462770977E+02 -0.24120110234E+02  0.47787274794E+02  0.20000017094E+02 0.  0.
        -12    1    1    2    0    0 -0.29003322098E+02 -0.21462770977E+02  0.24120110234E+02  0.43400725206E+02  0.00000000000E+00 0.  1.
         11    1    3    3    0    0  0.23848687666E+02  0.81224271400E+01 -0.10824764781E+02  0.27420963858E+02  0.51100000000E-03 0. -1.
        -11    1    3    3    0    0  0.12399562738E+01  0.10415076547E+02 -0.82720473311E+01  0.13358071655E+02  0.51100000000E-03 0.  1.
         12    1    3    3    0    0  0.39146781579E+01  0.29252672905E+01 -0.50232981215E+01  0.70082392809E+01  0.00000000000E+00 0. -1.
</event>
<event>
 7    1  0.2886681E-010  0.4778728E+02  0.7816164E-02  0.1312668E+00
        -11   -1    0    0    0    0  0.00000000000E+00  0.00000000000E+00  0.45593999997E+02  0.45594000000E+02  0.51100000000E-03 0.  1.
         11   -1    0    0    0    0 -0.00000000000E+00 -0.00000000000E+00 -0.45593999997E+02  0.45594000000E+02  0.51100000000E-03 0. -1.
    9900012    2    1    2    0    0  0.27402771150E+02  0.13094000380E+02 -0.31004158738E+02  0.47787279134E+02  0.20000036885E+02 0.  0.
        -12    1    1    2    0    0 -0.27402771150E+02 -0.13094000380E+02  0.31004158738E+02  0.43400720866E+02  0.00000000000E+00 0.  1.
         11    1    3    3    0    0  0.73962031820E+01  0.82448306859E+01 -0.11032856574E+02  0.15633457039E+02  0.51100000000E-03 0. -1.
        -11    1    3    3    0    0  0.38945793348E+01 -0.27711576600E+00  0.20344237961E+01  0.44026607620E+01  0.51100000000E-03 0.  1.
        -12    1    3    3    0    0  0.16111988633E+02  0.51262854602E+01 -0.22005725960E+02  0.27751161333E+02  0.00000000000E+00 0.  1.
</event>
<event>
 7    1  0.2886681E-010  0.4778733E+02  0.7816164E-02  0.1312668E+00
        -11   -1    0    0    0    0  0.00000000000E+00  0.00000000000E+00  0.45593999997E+02  0.45594000000E+02  0.51100000000E-03 0.  1.
         11   -1    0    0    0    0 -0.00000000000E+00 -0.00000000000E+00 -0.45593999997E+02  0.45594000000E+02  0.51100000000E-03 0. -1.
    9900012    2    1    2    0    0 -0.30937867176E+02 -0.19247388654E+02 -0.23579756843E+02  0.47787325718E+02  0.20000249275E+02 0.  0.
        -12    1    1    2    0    0  0.30937867176E+02  0.19247388654E+02  0.23579756843E+02  0.43400674282E+02  0.00000000000E+00 0.  1.
         11    1    3    3    0    0 -0.15980700977E+02  0.81309269792E+00 -0.93783882890E+01  0.18547185518E+02  0.51100000000E-03 0. -1.
        -11    1    3    3    0    0 -0.14170611246E+02 -0.17749368057E+02 -0.11060967115E+02  0.25262448086E+02  0.51100000000E-03 0.  1.
         12    1    3    3    0    0 -0.78655495210E+00 -0.23111132956E+01 -0.31404014389E+01  0.39776921142E+01  0.00000000000E+00 0. -1.
</event>
<event>
 7    1  0.2886681E-010  0.4778727E+02  0.7816164E-02  0.1312668E+00
        -11   -1    0    0    0    0  0.00000000000E+00  0.00000000000E+00  0.45593999997E+02  0.45594000000E+02  0.51100000000E-03 0.  1.
         11   -1    0    0    0    0 -0.00000000000E+00 -0.00000000000E+00 -0.45593999997E+02  0.45594000000E+02  0.51100000000E-03 0. -1.
    9900012    2    1    2    0    0  0.15468519736E+02 -0.21192442650E+02 -0.34572075330E+02  0.47787272806E+02  0.20000008034E+02 0.  0.
        -12    1    1    2    0    0 -0.15468519736E+02  0.21192442650E+02  0.34572075330E+02  0.43400727194E+02  0.00000000000E+00 0.  1.
         11    1    3    3    0    0  0.15126944085E+02 -0.11168122667E+02 -0.13431987926E+02  0.23107784427E+02  0.51100000000E-03 0. -1.
        -11    1    3    3    0    0  0.20859256685E+01 -0.16382375097E+00 -0.13213265179E+01  0.24746369721E+01  0.51100000000E-03 0.  1.
         12    1    3    3    0    0 -0.17443500172E+01 -0.98604962324E+01 -0.19818760887E+02  0.22204851407E+02  0.00000000000E+00 0. -1.
</event>
<event>
 7    1  0.2886681E-010  0.4778727E+02  0.7816164E-02  0.1312668E+00
        -11   -1    0    0    0    0  0.00000000000E+00  0.00000000000E+00  0.45593999997E+02  0.45594000000E+02  0.51100000000E-03 0.  1.
         11   -1    0    0    0    0 -0.00000000000E+00 -0.00000000000E+00 -0.45593999997E+02  0.45594000000E+02  0.51100000000E-03 0. -1.
    9900012    2    1    2    0    0 -0.13669982672E+02  0.40685476315E+02  0.64379154261E+01  0.47787272307E+02  0.20000005756E+02 0.  0.
        -12    1    1    2    0    0  0.13669982672E+02 -0.40685476315E+02 -0.64379154261E+01  0.43400727693E+02  0.00000000000E+00 0.  1.
         11    1    3    3    0    0 -0.30661166214E+01  0.71478036608E+01  0.64443739873E+00  0.78043236818E+01  0.51100000000E-03 0. -1.
        -11    1    3    3    0    0 -0.10772481325E+02  0.11202314670E+02  0.81044849414E+01  0.17527717600E+02  0.51100000000E-03 0.  1.
        -12    1    3    3    0    0  0.16861527397E+00  0.22335357985E+02 -0.23110069141E+01  0.22455231025E+02  0.00000000000E+00 0.  1.
</event>
<event>
 7    1  0.2886681E-010  0.4778727E+02  0.7816164E-02  0.1312668E+00
        -11   -1    0    0    0    0  0.00000000000E+00  0.00000000000E+00  0.45593999997E+02  0.45594000000E+02  0.51100000000E-03 0. -1.
         11   -1    0    0    0    0 -0.00000000000E+00 -0.00000000000E+00 -0.45593999997E+02  0.45594000000E+02  0.51100000000E-03 0.  1.
    9900012    2    1    2    0    0  0.29161554047E+02 -0.17610804974E+01  0.32095566710E+02  0.47787273723E+02  0.20000012213E+02 0.  0.
        -12    1    1    2    0    0 -0.29161554047E+02  0.17610804974E+01 -0.32095566710E+02  0.43400726277E+02  0.00000000000E+00 0.  1.
         11    1    3    3    0    0  0.54941223362E+01  0.48346273693E+01  0.48010517042E+01  0.87526624391E+01  0.51100000000E-03 0. -1.
        -11    1    3    3    0    0  0.64194227407E+01 -0.83686387743E+01  0.96239676741E+01  0.14278090114E+02  0.51100000000E-03 0.  1.
        -12    1    3    3    0    0  0.17248008970E+02  0.17729309076E+01  0.17670547332E+02  0.24756521170E+02  0.00000000000E+00 0.  1.
</event>
<event>
 7    1  0.2886681E-010  0.4778728E+02  0.7816164E-02  0.1312668E+00
        -11   -1    0    0    0    0  0.00000000000E+00  0.00000000000E+00  0.45593999997E+02  0.45594000000E+02  0.51100000000E-03 0.  1.
         11   -1    0    0    0    0 -0.00000000000E+00 -0.00000000000E+00 -0.45593999997E+02  0.45594000000E+02  0.51100000000E-03 0. -1.
    9900012    2    1    2    0    0 -0.28035275924E+02  0.32453405059E+02  0.66650254960E+01  0.47787276954E+02  0.20000026943E+02 0.  0.
        -12    1    1    2    0    0  0.28035275924E+02 -0.32453405059E+02 -0.66650254960E+01  0.43400723046E+02  0.00000000000E+00 0.  1.
         11    1    3    3    0    0 -0.26493693782E+02  0.28983307405E+02  0.65415267319E+01  0.39808786601E+02  0.51100000000E-03 0. -1.
        -11    1    3    3    0    0  0.15728170817E+01  0.22244135917E+01  0.26334889947E+01  0.37890676882E+01  0.51100000000E-03 0.  1.
         12    1    3    3    0    0 -0.31143992241E+01  0.12456840619E+01 -0.25099902305E+01  0.41894226651E+01  0.00000000000E+00 0. -1.
</event>
<event>
 7    1  0.2886681E-010  0.4778728E+02  0.7816164E-02  0.1312668E+00
        -11   -1    0    0    0    0  0.00000000000E+00  0.00000000000E+00  0.45593999997E+02  0.45594000000E+02  0.51100000000E-03 0.  1.
         11   -1    0    0    0    0 -0.00000000000E+00 -0.00000000000E+00 -0.45593999997E+02  0.45594000000E+02  0.51100000000E-03 0. -1.
    9900012    2    1    2    0    0 -0.73310064845E+01  0.15192457131E+02 -0.39988354588E+02  0.47787275208E+02  0.20000018984E+02 0.  0.
        -12    1    1    2    0    0  0.73310064845E+01 -0.15192457131E+02  0.39988354588E+02  0.43400724792E+02  0.00000000000E+00 0.  1.
         11    1    3    3    0    0  0.14293887278E+01  0.47677495972E+00 -0.20615818572E+02  0.20670811357E+02  0.51100000000E-03 0.  1.
        -11    1    3    3    0    0 -0.54392224967E+01  0.81982851998E+01 -0.51074461147E+01  0.11085261732E+02  0.51100000000E-03 0. -1.
         12    1    3    3    0    0 -0.33211727156E+01  0.65173969718E+01 -0.14265089902E+02  0.16031202120E+02  0.00000000000E+00 0. -1.
</event>
<event>
 7    1  0.2886681E-010  0.4778727E+02  0.7816164E-02  0.1312668E+00
        -11   -1    0    0    0    0  0.00000000000E+00  0.00000000000E+00  0.45593999997E+02  0.45594000000E+02  0.51100000000E-03 0. -1.
         11   -1    0    0    0    0 -0.00000000000E+00 -0.00000000000E+00 -0.45593999997E+02  0.45594000000E+02  0.51100000000E-03 0.  1.
    9900012    2    1    2    0    0 -0.22427394283E+02  0.28840769976E+02  0.23427440059E+02  0.47787274490E+02  0.20000015709E+02 0.  0.
        -12    1    1    2    0    0  0.22427394283E+02 -0.28840769976E+02 -0.23427440059E+02  0.43400725510E+02  0.00000000000E+00 0.  1.
         11    1    3    3    0    0 -0.10525819103E+01  0.96607819377E+00  0.29829479479E+01  0.33074483330E+01  0.51100000000E-03 0. -1.
        -11    1    3    3    0    0 -0.21295001800E+02  0.23762081349E+02  0.23267956199E+02  0.39490649496E+02  0.51100000000E-03 0.  1.
        -12    1    3    3    0    0 -0.79810572807E-01  0.41126104330E+01 -0.28234640878E+01  0.49891766612E+01  0.00000000000E+00 0.  1.
</event>
<event>
 7    1  0.2886681E-010  0.4778728E+02  0.7816164E-02  0.1312668E+00
        -11   -1    0    0    0    0  0.00000000000E+00  0.00000000000E+00  0.45593999997E+02  0.45594000000E+02  0.51100000000E-03 0. -1.
         11   -1    0    0    0    0 -0.00000000000E+00 -0.00000000000E+00 -0.45593999997E+02  0.45594000000E+02  0.51100000000E-03 0.  1.
    9900012    2    1    2    0    0  0.28525912133E+02  0.21784648446E+02  0.24399252162E+02  0.47787284833E+02  0.20000062867E+02 0.  0.
        -12    1    1    2    0    0 -0.28525912133E+02 -0.21784648446E+02 -0.24399252162E+02  0.43400715167E+02  0.00000000000E+00 0.  1.
         11    1    3    3    0    0  0.18102223482E+00 -0.27061391990E+00  0.60855650731E+01  0.60942680827E+01  0.51100000000E-03 0.  1.
        -11    1    3    3    0    0  0.19346219847E+02  0.15992451811E+02  0.70914516534E+01  0.26083010258E+02  0.51100000000E-03 0. -1.
         12    1    3    3    0    0  0.89986700512E+01  0.60628105547E+01  0.11222235436E+02  0.15610006492E+02  0.00000000000E+00 0. -1.
</event>
<event>
 7    1  0.2886681E-010  0.4778727E+02  0.7816164E-02  0.1312668E+00
        -11   -1    0    0    0    0  0.00000000000E+00  0.00000000000E+00  0.45593999997E+02  0.45594000000E+02  0.51100000000E-03 0.  1.
         11   -1    0    0    0    0 -0.00000000000E+00 -0.00000000000E+00 -0.45593999997E+02  0.45594000000E+02  0.51100000000E-03 0. -1.
    9900012    2    1    2    0    0  0.30833154510E+01  0.36290621302E+02 -0.23603119732E+02  0.47787270862E+02  0.19999999168E+02 0.  0.
        -12    1    1    2    0    0 -0.30833154510E+01 -0.36290621302E+02  0.23603119732E+02  0.43400729138E+02  0.00000000000E+00 0.  1.
         11    1    3    3    0    0 -0.62895792393E+00  0.57152248678E+00  0.27178197762E+01  0.28475903182E+01  0.51100000000E-03 0. -1.
        -11    1    3    3    0    0  0.40348287890E+01  0.12063688728E+02 -0.10300933543E+02  0.16368312717E+02  0.51100000000E-03 0.  1.
         12    1    3    3    0    0 -0.32255541415E+00  0.23655410087E+02 -0.16020005965E+02  0.28571367827E+02  0.00000000000E+00 0. -1.
</event>
<event>
 7    1  0.2886681E-010  0.4778729E+02  0.7816164E-02  0.1312668E+00
        -11   -1    0    0    0    0  0.00000000000E+00  0.00000000000E+00  0.45593999997E+02  0.45594000000E+02  0.51100000000E-03 0.  1.
         11   -1    0    0    0    0 -0.00000000000E+00 -0.00000000000E+00 -0.45593999997E+02  0.45594000000E+02  0.51100000000E-03 0. -1.
    9900012    2    1    2    0    0 -0.25176900410E+02 -0.11185381509E+02 -0.33535545061E+02  0.47787287376E+02  0.20000074463E+02 0.  0.
        -12    1    1    2    0    0  0.25176900410E+02  0.11185381509E+02  0.33535545061E+02  0.43400712624E+02  0.00000000000E+00 0.  1.
         11    1    3    3    0    0 -0.17924239091E+02 -0.57286299243E+01 -0.14713062088E+02  0.23886601769E+02  0.51100000000E-03 0.  1.
        -11    1    3    3    0    0 -0.50927171042E+01 -0.10898647930E+00 -0.17157474178E+02  0.17897669289E+02  0.51100000000E-03 0. -1.
         12    1    3    3    0    0 -0.21599442144E+01 -0.53477651051E+01 -0.16650087952E+01  0.60030163183E+01  0.00000000000E+00 0. -1.
</event>
<event>
 7    1  0.2886681E-010  0.4778727E+02  0.7816164E-02  0.1312668E+00
        -11   -1    0    0    0    0  0.00000000000E+00  0.00000000000E+00  0.45593999997E+02  0.45594000000E+02  0.51100000000E-03 0.  1.
         11   -1    0    0    0    0 -0.00000000000E+00 -0.00000000000E+00 -0.45593999997E+02  0.45594000000E+02  0.51100000000E-03 0. -1.
    9900012    2    1    2    0    0 -0.10288549387E+02  0.29249046808E+00 -0.42162582815E+02  0.47787272024E+02  0.20000004468E+02 0.  0.
        -12    1    1    2    0    0  0.10288549387E+02 -0.29249046808E+00  0.42162582815E+02  0.43400727976E+02  0.00000000000E+00 0.  1.
         11    1    3    3    0    0 -0.16283040003E+01  0.55936785820E+01 -0.22404660676E+02  0.23149717801E+02  0.51100000000E-03 0. -1.
        -11    1    3    3    0    0 -0.64025280649E+01 -0.82592776521E+01 -0.11268586165E+02  0.15368443882E+02  0.51100000000E-03 0.  1.
        -12    1    3    3    0    0 -0.22577173218E+01  0.29580895382E+01 -0.84893359752E+01  0.92691103414E+01  0.00000000000E+00 0.  1.
</event>
<event>
 7    1  0.2886681E-010  0.4778727E+02  0.7816164E-02  0.1312668E+00
        -11   -1    0    0    0    0  0.00000000000E+00  0.00000000000E+00  0.45593999997E+02  0.45594000000E+02  0.51100000000E-03 0. -1.
         11   -1    0    0    0    0 -0.00000000000E+00 -0.00000000000E+00 -0.45593999997E+02  0.45594000000E+02  0.51100000000E-03 0.  1.
    9900012    2    1    2    0    0  0.45717427191E+01  0.19373587621E+02  0.38566650661E+02  0.47787271066E+02  0.20000000096E+02 0.  0.
        -12    1    1    2    0    0 -0.45717427191E+01 -0.19373587621E+02 -0.38566650661E+02  0.43400728934E+02  0.00000000000E+00 0.  1.
         11    1    3    3    0    0  0.69225228503E+00  0.11181996801E+01 -0.14864516058E+01  0.19847222446E+01  0.51100000000E-03 0.  1.
        -11    1    3    3    0    0 -0.26587728949E+01  0.81992726782E+01  0.25646436685E+02  0.27056179713E+02  0.51100000000E-03 0. -1.
         12    1    3    3    0    0  0.65382633290E+01  0.10056115263E+02  0.14406665582E+02  0.18746369108E+02  0.00000000000E+00 0. -1.
</event>
<event>
 7    1  0.2886681E-010  0.4778727E+02  0.7816164E-02  0.1312668E+00
        -11   -1    0    0    0    0  0.00000000000E+00  0.00000000000E+00  0.45593999997E+02  0.45594000000E+02  0.51100000000E-03 0.  1.
         11   -1    0    0    0    0 -0.00000000000E+00 -0.00000000000E+00 -0.45593999997E+02  0.45594000000E+02  0.51100000000E-03 0. -1.
    9900012    2    1    2    0    0  0.27089245654E+02 -0.19099571039E+02 -0.28017892768E+02  0.47787272367E+02  0.20000006029E+02 0.  0.
        -12    1    1    2    0    0 -0.27089245654E+02  0.19099571039E+02  0.28017892768E+02  0.43400727633E+02  0.00000000000E+00 0.  1.
         11    1    3    3    0    0  0.14076116785E+02 -0.10922419777E+02 -0.22357780212E+02  0.28588575582E+02  0.51100000000E-03 0. -1.
        -11    1    3    3    0    0  0.82916838050E+01 -0.20649061734E+01  0.14897969297E+01  0.86738315051E+01  0.51100000000E-03 0.  1.
        -12    1    3    3    0    0  0.47214450640E+01 -0.61122450878E+01 -0.71499094857E+01  0.10524865280E+02  0.00000000000E+00 0.  1.
</event>
<event>
 7    1  0.2886681E-010  0.4778727E+02  0.7816164E-02  0.1312668E+00
        -11   -1    0    0    0    0  0.00000000000E+00  0.00000000000E+00  0.45593999997E+02  0.45594000000E+02  0.51100000000E-03 0.  1.
         11   -1    0    0    0    0 -0.00000000000E+00 -0.00000000000E+00 -0.45593999997E+02  0.45594000000E+02  0.51100000000E-03 0. -1.
    9900012    2    1    2    0    0 -0.19004069323E+02 -0.25868503623E+02 -0.29211117622E+02  0.47787268171E+02  0.19999986900E+02 0.  0.
        -12    1    1    2    0    0  0.19004069323E+02  0.25868503623E+02  0.29211117622E+02  0.43400731829E+02  0.00000000000E+00 0.  1.
         11    1    3    3    0    0 -0.60563152071E+01 -0.53493325977E+01 -0.91283389971E+01  0.12191016620E+02  0.51100000000E-03 0. -1.
        -11    1    3    3    0    0 -0.16836533661E+02 -0.18062747402E+02 -0.15825512004E+02  0.29328800519E+02  0.51100000000E-03 0.  1.
        -12    1    3    3    0    0  0.38887795444E+01 -0.24564236231E+01 -0.42572666207E+01  0.62674510322E+01  0.00000000000E+00 0.  1.
</event>
<event>
 7    1  0.2886681E-010  0.4778727E+02  0.7816164E-02  0.1312668E+00
        -11   -1    0    0    0    0  0.00000000000E+00  0.00000000000E+00  0.45593999997E+02  0.45594000000E+02  0.51100000000E-03 0. -1.
         11   -1    0    0    0    0 -0.00000000000E+00 -0.00000000000E+00 -0.45593999997E+02  0.45594000000E+02  0.51100000000E-03 0.  1.
    9900012    2    1    2    0    0 -0.87081331509E+01  0.26453325706E+02  0.33286834566E+02  0.47787269830E+02  0.19999994463E+02 0.  0.
        -12    1    1    2    0    0  0.87081331509E+01 -0.26453325706E+02 -0.33286834566E+02  0.43400730170E+02  0.00000000000E+00 0.  1.
         11    1    3    3    0    0  0.33394584645E+01  0.13553287886E+02  0.91101075331E+01  0.16668462883E+02  0.51100000000E-03 0. -1.
        -11    1    3    3    0    0 -0.93709005010E+01  0.77636198167E+01  0.21572776417E+02  0.24768371999E+02  0.51100000000E-03 0.  1.
        -12    1    3    3    0    0 -0.26766911143E+01  0.51364180028E+01  0.26039506158E+01  0.63504349482E+01  0.00000000000E+00 0.  1.
</event>
<event>
 7    1  0.2886681E-010  0.4778728E+02  0.7816164E-02  0.1312668E+00
        -11   -1    0    0    0    0  0.00000000000E+00  0.00000000000E+00  0.45593999997E+02  0.45594000000E+02  0.51100000000E-03 0. -1.
         11   -1    0    0    0    0 -0.00000000000E+00 -0.00000000000E+00 -0.45593999997E+02  0.45594000000E+02  0.51100000000E-03 0.  1.
    9900012    2    1    2    0    0 -0.23681606670E+02 -0.17044799888E+01  0.36330408804E+02  0.47787281683E+02  0.20000048507E+02 0.  0.
        -12    1    1    2    0    0  0.23681606670E+02  0.17044799888E+01 -0.36330408804E+02  0.43400718317E+02  0.00000000000E+00 0.  1.
         11    1    3    3    0    0 -0.48787203441E+01 -0.53963939175E+01  0.14149198110E+01  0.74111387682E+01  0.51100000000E-03 0.  1.
        -11    1    3    3    0    0 -0.11132737462E+02  0.31537003073E+01  0.14436331163E+02  0.18501116905E+02  0.51100000000E-03 0. -1.
         12    1    3    3    0    0 -0.76701488640E+01  0.53821362147E+00  0.20479157830E+02  0.21875026010E+02  0.00000000000E+00 0. -1.
</event>
<event>
 7    1  0.2886681E-010  0.4778727E+02  0.7816164E-02  0.1312668E+00
        -11   -1    0    0    0    0  0.00000000000E+00  0.00000000000E+00  0.45593999997E+02  0.45594000000E+02  0.51100000000E-03 0.  1.
         11   -1    0    0    0    0 -0.00000000000E+00 -0.00000000000E+00 -0.45593999997E+02  0.45594000000E+02  0.51100000000E-03 0. -1.
    9900012    2    1    2    0    0 -0.23501182352E+02 -0.15897822985E+01 -0.36452582462E+02  0.47787265584E+02  0.19999975102E+02 0.  0.
        -12    1    1    2    0    0  0.23501182352E+02  0.15897822985E+01  0.36452582462E+02  0.43400734416E+02  0.00000000000E+00 0.  1.
         11    1    3    3    0    0 -0.42900132114E+01 -0.84124474529E+01 -0.11807355499E+02  0.15119098176E+02  0.51100000000E-03 0. -1.
        -11    1    3    3    0    0  0.45018603349E-01  0.10161976914E+01 -0.27763797278E+01  0.29568512097E+01  0.51100000000E-03 0.  1.
         12    1    3    3    0    0 -0.19256187744E+02  0.58064674630E+01 -0.21868847235E+02  0.29711316198E+02  0.00000000000E+00 0. -1.
</event>
<event>
 7    1  0.2886681E-010  0.4778727E+02  0.7816164E-02  0.1312668E+00
        -11   -1    0    0    0    0  0.00000000000E+00  0.00000000000E+00  0.45593999997E+02  0.45594000000E+02  0.51100000000E-03 0.  1.
         11   -1    0    0    0    0 -0.00000000000E+00 -0.00000000000E+00 -0.45593999997E+02  0.45594000000E+02  0.51100000000E-03 0. -1.
    9900012    2    1    2    0    0  0.37700430526E+02 -0.16883110744E+02 -0.13313959611E+02  0.47787269467E+02  0.19999992809E+02 0.  0.
        -12    1    1    2    0    0 -0.37700430526E+02  0.16883110744E+02  0.13313959611E+02  0.43400730533E+02  0.00000000000E+00 0.  1.
         11    1    3    3    0    0  0.27232178846E+01 -0.49758624345E+01 -0.43633545408E+01  0.71563947435E+01  0.51100000000E-03 0. -1.
        -11    1    3    3    0    0  0.35985688433E+01 -0.55804165209E+01 -0.51353199636E+01  0.83941799871E+01  0.51100000000E-03 0.  1.
         12    1    3    3    0    0  0.31378643798E+02 -0.63268317885E+01 -0.38152851067E+01  0.32236694737E+02  0.00000000000E+00 0. -1.
</event>
<event>
 7    1  0.2886681E-010  0.4778727E+02  0.7816164E-02  0.1312668E+00
        -11   -1    0    0    0    0  0.00000000000E+00  0.00000000000E+00  0.45593999997E+02  0.45594000000E+02  0.51100000000E-03 0.  1.
         11   -1    0    0    0    0 -0.00000000000E+00 -0.00000000000E+00 -0.45593999997E+02  0.45594000000E+02  0.51100000000E-03 0. -1.
    9900012    2    1    2    0    0 -0.27432124575E+02 -0.32769614472E+02 -0.75666441801E+01  0.47787271948E+02  0.20000004119E+02 0.  0.
        -12    1    1    2    0    0  0.27432124575E+02  0.32769614472E+02  0.75666441801E+01  0.43400728052E+02  0.00000000000E+00 0.  1.
         11    1    3    3    0    0 -0.16545729502E+02 -0.14629098351E+02 -0.10213634543E+02  0.24332899831E+02  0.51100000000E-03 0. -1.
        -11    1    3    3    0    0 -0.64365870406E+01 -0.17584821500E+02  0.29634838912E+01  0.18958845876E+02  0.51100000000E-03 0.  1.
         12    1    3    3    0    0 -0.44498080319E+01 -0.55569462108E+00 -0.31649352801E+00  0.44955262412E+01  0.00000000000E+00 0. -1.
</event>
<event>
 7    1  0.2886681E-010  0.4778727E+02  0.7816164E-02  0.1312668E+00
        -11   -1    0    0    0    0  0.00000000000E+00  0.00000000000E+00  0.45593999997E+02  0.45594000000E+02  0.51100000000E-03 0.  1.
         11   -1    0    0    0    0 -0.00000000000E+00 -0.00000000000E+00 -0.45593999997E+02  0.45594000000E+02  0.51100000000E-03 0. -1.
    9900012    2    1    2    0    0  0.19519418959E+02 -0.87035422571E+01 -0.37773852106E+02  0.47787271121E+02  0.20000000348E+02 0.  0.
        -12    1    1    2    0    0 -0.19519418959E+02  0.87035422571E+01  0.37773852106E+02  0.43400728879E+02  0.00000000000E+00 0.  1.
         11    1    3    3    0    0  0.65350262109E+01  0.28854151959E+01 -0.52802422819E+01  0.88833072246E+01  0.51100000000E-03 0. -1.
        -11    1    3    3    0    0  0.72156277343E+01  0.12361138367E+01 -0.10563464060E+02  0.12852238491E+02  0.51100000000E-03 0.  1.
         12    1    3    3    0    0  0.57687650141E+01 -0.12825071290E+02 -0.21930145764E+02  0.26051725405E+02  0.00000000000E+00 0. -1.
</event>
<event>
 7    1  0.2886681E-010  0.4778727E+02  0.7816164E-02  0.1312668E+00
        -11   -1    0    0    0    0  0.00000000000E+00  0.00000000000E+00  0.45593999997E+02  0.45594000000E+02  0.51100000000E-03 0. -1.
         11   -1    0    0    0    0 -0.00000000000E+00 -0.00000000000E+00 -0.45593999997E+02  0.45594000000E+02  0.51100000000E-03 0.  1.
    9900012    2    1    2    0    0  0.20440692904E+02 -0.31950454959E+02  0.21094306569E+02  0.47787271111E+02  0.20000000302E+02 0.  0.
        -12    1    1    2    0    0 -0.20440692904E+02  0.31950454959E+02 -0.21094306569E+02  0.43400728889E+02  0.00000000000E+00 0.  1.
         11    1    3    3    0    0  0.15994462152E+02 -0.15885451543E+02  0.16944876721E+02  0.28201050293E+02  0.51100000000E-03 0. -1.
        -11    1    3    3    0    0  0.20330190117E+01 -0.16543335445E+02  0.38617000955E+01  0.17109291097E+02  0.51100000000E-03 0.  1.
        -12    1    3    3    0    0  0.24132117399E+01  0.47833202865E+00  0.28772975247E+00  0.24769297208E+01  0.00000000000E+00 0.  1.
</event>
<event>
 7    1  0.2886681E-010  0.4778727E+02  0.7816164E-02  0.1312668E+00
        -11   -1    0    0    0    0  0.00000000000E+00  0.00000000000E+00  0.45593999997E+02  0.45594000000E+02  0.51100000000E-03 0.  1.
         11   -1    0    0    0    0 -0.00000000000E+00 -0.00000000000E+00 -0.45593999997E+02  0.45594000000E+02  0.51100000000E-03 0. -1.
    9900012    2    1    2    0    0 -0.19524291701E+02 -0.73877261871E+01 -0.38050582304E+02  0.47787270993E+02  0.19999999764E+02 0.  0.
        -12    1    1    2    0    0  0.19524291701E+02  0.73877261871E+01  0.38050582304E+02  0.43400729007E+02  0.00000000000E+00 0.  1.
         11    1    3    3    0    0 -0.23697313552E+01 -0.78879307393E+01 -0.14449655631E+02  0.16632126327E+02  0.51100000000E-03 0. -1.
        -11    1    3    3    0    0 -0.18516061019E+02 -0.14494180009E+00 -0.23013914576E+02  0.29538208953E+02  0.51100000000E-03 0.  1.
        -12    1    3    3    0    0  0.13615006725E+01  0.64514635221E+00 -0.58701209730E+00  0.16169357128E+01  0.00000000000E+00 0.  1.
</event>
<event>
 7    1  0.2886681E-010  0.4778727E+02  0.7816164E-02  0.1312668E+00
        -11   -1    0    0    0    0  0.00000000000E+00  0.00000000000E+00  0.45593999997E+02  0.45594000000E+02  0.51100000000E-03 0.  1.
         11   -1    0    0    0    0 -0.00000000000E+00 -0.00000000000E+00 -0.45593999997E+02  0.45594000000E+02  0.51100000000E-03 0. -1.
    9900012    2    1    2    0    0 -0.15597571879E+02  0.35645037526E+02 -0.19229415932E+02  0.47787269754E+02  0.19999994118E+02 0.  0.
        -12    1    1    2    0    0  0.15597571879E+02 -0.35645037526E+02  0.19229415932E+02  0.43400730246E+02  0.00000000000E+00 0.  1.
         11    1    3    3    0    0 -0.97321799540E+00  0.18194440822E+02 -0.14519793589E+02  0.23298266807E+02  0.51100000000E-03 0. -1.
        -11    1    3    3    0    0 -0.10733972072E+01  0.62520236474E+01 -0.22940191851E+00  0.63476457647E+01  0.51100000000E-03 0.  1.
         12    1    3    3    0    0 -0.13550956677E+02  0.11198573057E+02 -0.44802204239E+01  0.18141357182E+02  0.00000000000E+00 0. -1.
</event>
<event>
 7    1  0.2886681E-010  0.4778728E+02  0.7816164E-02  0.1312668E+00
        -11   -1    0    0    0    0  0.00000000000E+00  0.00000000000E+00  0.45593999997E+02  0.45594000000E+02  0.51100000000E-03 0.  1.
         11   -1    0    0    0    0 -0.00000000000E+00 -0.00000000000E+00 -0.45593999997E+02  0.45594000000E+02  0.51100000000E-03 0. -1.
    9900012    2    1    2    0    0 -0.27211917833E+02 -0.13071444333E+02 -0.31181272342E+02  0.47787275651E+02  0.20000021005E+02 0.  0.
        -12    1    1    2    0    0  0.27211917833E+02  0.13071444333E+02  0.31181272342E+02  0.43400724349E+02  0.00000000000E+00 0.  1.
         11    1    3    3    0    0 -0.15576610033E+02 -0.44603701475E+01 -0.53188591113E+01  0.17053326493E+02  0.51100000000E-03 0. -1.
        -11    1    3    3    0    0 -0.89867842624E+01 -0.97951893789E+01 -0.23471946960E+02  0.26974809002E+02  0.51100000000E-03 0.  1.
        -12    1    3    3    0    0 -0.26485235376E+01  0.11841151937E+01 -0.23904662707E+01  0.37591401560E+01  0.00000000000E+00 0.  1.
</event>
<event>
 7    1  0.2886681E-010  0.4778727E+02  0.7816164E-02  0.1312668E+00
        -11   -1    0    0    0    0  0.00000000000E+00  0.00000000000E+00  0.45593999997E+02  0.45594000000E+02  0.51100000000E-03 0.  1.
         11   -1    0    0    0    0 -0.00000000000E+00 -0.00000000000E+00 -0.45593999997E+02  0.45594000000E+02  0.51100000000E-03 0. -1.
    9900012    2    1    2    0    0 -0.54889269694E+00  0.25942328792E+02 -0.34789617549E+02  0.47787271947E+02  0.20000004114E+02 0.  0.
        -12    1    1    2    0    0  0.54889269694E+00 -0.25942328792E+02  0.34789617549E+02  0.43400728053E+02  0.00000000000E+00 0.  1.
         11    1    3    3    0    0  0.49544325318E+01  0.15402313540E+01 -0.10145109086E+02  0.11394821322E+02  0.51100000000E-03 0. -1.
        -11    1    3    3    0    0 -0.96892577122E+00  0.20537189519E+02 -0.21096190187E+02  0.29457837856E+02  0.51100000000E-03 0.  1.
        -12    1    3    3    0    0 -0.45343994575E+01  0.38649079195E+01 -0.35483182760E+01  0.69346127689E+01  0.00000000000E+00 0.  1.
</event>
<event>
 7    1  0.2886681E-010  0.4778727E+02  0.7816164E-02  0.1312668E+00
        -11   -1    0    0    0    0  0.00000000000E+00  0.00000000000E+00  0.45593999997E+02  0.45594000000E+02  0.51100000000E-03 0.  1.
         11   -1    0    0    0    0 -0.00000000000E+00 -0.00000000000E+00 -0.45593999997E+02  0.45594000000E+02  0.51100000000E-03 0. -1.
    9900012    2    1    2    0    0 -0.10892908451E+02 -0.17414147551E+02 -0.38232387348E+02  0.47787269226E+02  0.19999991708E+02 0.  0.
        -12    1    1    2    0    0  0.10892908451E+02  0.17414147551E+02  0.38232387348E+02  0.43400730774E+02  0.00000000000E+00 0.  1.
         11    1    3    3    0    0 -0.10980022736E+02 -0.15230505494E+02 -0.20541505963E+02  0.27829528640E+02  0.51100000000E-03 0. -1.
        -11    1    3    3    0    0  0.45026245619E+01 -0.16109022800E+01 -0.88836395660E+01  0.10088988369E+02  0.51100000000E-03 0.  1.
        -12    1    3    3    0    0 -0.44155102769E+01 -0.57273977730E+00 -0.88072418191E+01  0.98687522168E+01  0.00000000000E+00 0.  1.
</event>
<event>
 7    1  0.2886681E-010  0.4778727E+02  0.7816164E-02  0.1312668E+00
        -11   -1    0    0    0    0  0.00000000000E+00  0.00000000000E+00  0.45593999997E+02  0.45594000000E+02  0.51100000000E-03 0. -1.
         11   -1    0    0    0    0 -0.00000000000E+00 -0.00000000000E+00 -0.45593999997E+02  0.45594000000E+02  0.51100000000E-03 0.  1.
    9900012    2    1    2    0    0  0.24598305957E+02 -0.24936299427E+02 -0.25626697067E+02  0.47787270886E+02  0.19999999277E+02 0.  0.
        -12    1    1    2    0    0 -0.24598305957E+02  0.24936299427E+02  0.25626697067E+02  0.43400729114E+02  0.00000000000E+00 0.  1.
         11    1    3    3    0    0  0.12316364159E+02  0.10207185337E+00 -0.64624545886E+01  0.13909225871E+02  0.51100000000E-03 0. -1.
        -11    1    3    3    0    0  0.10835246418E+02 -0.20718499574E+02 -0.16084765899E+02  0.28379191035E+02  0.51100000000E-03 0.  1.
         12    1    3    3    0    0  0.14466953804E+01 -0.43198717058E+01 -0.30794765798E+01  0.54988539791E+01  0.00000000000E+00 0. -1.
</event>
<event>
 7    1  0.2886681E-010  0.4778727E+02  0.7816164E-02  0.1312668E+00
        -11   -1    0    0    0    0  0.00000000000E+00  0.00000000000E+00  0.45593999997E+02  0.45594000000E+02  0.51100000000E-03 0.  1.
         11   -1    0    0    0    0 -0.00000000000E+00 -0.00000000000E+00 -0.45593999997E+02  0.45594000000E+02  0.51100000000E-03 0. -1.
    9900012    2    1    2    0    0  0.42685200110E+02  0.36620271413E+01 -0.69416490066E+01  0.47787271410E+02  0.20000001666E+02 0.  0.
        -12    1    1    2    0    0 -0.42685200110E+02 -0.36620271413E+01  0.69416490066E+01  0.43400728590E+02  0.00000000000E+00 0.  1.
         11    1    3    3    0    0  0.63570808612E+00  0.42286543162E+01  0.61579547303E+00  0.43202831414E+01  0.51100000000E-03 0. -1.
        -11    1    3    3    0    0  0.96295061356E+01 -0.30004976922E+01 -0.36296645105E+01  0.10719367497E+02  0.51100000000E-03 0.  1.
         12    1    3    3    0    0  0.32419985888E+02  0.24338705174E+01 -0.39277799691E+01  0.32747620771E+02  0.00000000000E+00 0. -1.
</event>
<event>
 7    1  0.2886681E-010  0.4778728E+02  0.7816164E-02  0.1312668E+00
        -11   -1    0    0    0    0  0.00000000000E+00  0.00000000000E+00  0.45593999997E+02  0.45594000000E+02  0.51100000000E-03 0.  1.
         11   -1    0    0    0    0 -0.00000000000E+00 -0.00000000000E+00 -0.45593999997E+02  0.45594000000E+02  0.51100000000E-03 0. -1.
    9900012    2    1    2    0    0 -0.26006264189E+02 -0.32462107818E+02 -0.12389854013E+02  0.47787277615E+02  0.20000029959E+02 0.  0.
        -12    1    1    2    0    0  0.26006264189E+02  0.32462107818E+02  0.12389854013E+02  0.43400722385E+02  0.00000000000E+00 0.  1.
         11    1    3    3    0    0 -0.13015908041E+02 -0.57613909460E+01 -0.67359750111E+01  0.15747407640E+02  0.51100000000E-03 0. -1.
        -11    1    3    3    0    0 -0.75212986993E+01 -0.13530397461E+02  0.23949660473E+01  0.15664528471E+02  0.51100000000E-03 0.  1.
        -12    1    3    3    0    0 -0.54690574487E+01 -0.13170319411E+02 -0.80488450491E+01  0.16375341504E+02  0.00000000000E+00 0.  1.
</event>
<event>
 7    1  0.2886681E-010  0.4778723E+02  0.7816164E-02  0.1312668E+00
        -11   -1    0    0    0    0  0.00000000000E+00  0.00000000000E+00  0.45593999997E+02  0.45594000000E+02  0.51100000000E-03 0.  1.
         11   -1    0    0    0    0 -0.00000000000E+00 -0.00000000000E+00 -0.45593999997E+02  0.45594000000E+02  0.51100000000E-03 0. -1.
    9900012    2    1    2    0    0  0.15127634379E+02  0.85178789089E+01 -0.39777225550E+02  0.47787225175E+02  0.19999790860E+02 0.  0.
        -12    1    1    2    0    0 -0.15127634379E+02 -0.85178789089E+01  0.39777225550E+02  0.43400774825E+02  0.00000000000E+00 0.  1.
         11    1    3    3    0    0 -0.28908239951E+01 -0.18506384233E+01 -0.88716957144E+01  0.95125554429E+01  0.51100000000E-03 0. -1.
        -11    1    3    3    0    0  0.13528892491E+02  0.80575884067E+01 -0.28759419753E+02  0.32788105889E+02  0.51100000000E-03 0.  1.
        -12    1    3    3    0    0  0.44895658832E+01  0.23109289255E+01 -0.21461100819E+01  0.54865638429E+01  0.00000000000E+00 0.  1.
</event>
<event>
 7    1  0.2886681E-010  0.4778727E+02  0.7816164E-02  0.1312668E+00
        -11   -1    0    0    0    0  0.00000000000E+00  0.00000000000E+00  0.45593999997E+02  0.45594000000E+02  0.51100000000E-03 0.  1.
         11   -1    0    0    0    0 -0.00000000000E+00 -0.00000000000E+00 -0.45593999997E+02  0.45594000000E+02  0.51100000000E-03 0. -1.
    9900012    2    1    2    0    0  0.24717805057E+02 -0.75835814776E+01 -0.34858897958E+02  0.47787270032E+02  0.19999995385E+02 0.  0.
        -12    1    1    2    0    0 -0.24717805057E+02  0.75835814776E+01  0.34858897958E+02  0.43400729968E+02  0.00000000000E+00 0.  1.
         11    1    3    3    0    0  0.12036873715E+01 -0.25880035096E+00  0.91551984084E+00  0.15342808576E+01  0.51100000000E-03 0. -1.
        -11    1    3    3    0    0  0.55235378841E+01  0.37415981994E+01 -0.31250126508E+01  0.73671386693E+01  0.51100000000E-03 0.  1.
        -12    1    3    3    0    0  0.17990579801E+02 -0.11066379326E+02 -0.32649405148E+02  0.38885850505E+02  0.00000000000E+00 0.  1.
</event>
<event>
 7    1  0.2886681E-010  0.4778728E+02  0.7816164E-02  0.1312668E+00
        -11   -1    0    0    0    0  0.00000000000E+00  0.00000000000E+00  0.45593999997E+02  0.45594000000E+02  0.51100000000E-03 0.  1.
         11   -1    0    0    0    0 -0.00000000000E+00 -0.00000000000E+00 -0.45593999997E+02  0.45594000000E+02  0.51100000000E-03 0. -1.
    9900012    2    1    2    0    0 -0.23184533019E+02 -0.24045376877E+02 -0.27711366144E+02  0.47787279567E+02  0.20000038859E+02 0.  0.
        -12    1    1    2    0    0  0.23184533019E+02  0.24045376877E+02  0.27711366144E+02  0.43400720433E+02  0.00000000000E+00 0.  1.
         11    1    3    3    0    0 -0.15264879899E+02 -0.11696487221E+02 -0.99275383761E+01  0.21642097637E+02  0.51100000000E-03 0. -1.
        -11    1    3    3    0    0  0.14384632658E+01 -0.61112488064E+01 -0.11895193557E+02  0.13450359422E+02  0.51100000000E-03 0.  1.
        -12    1    3    3    0    0 -0.93581163862E+01 -0.62376408496E+01 -0.58886342110E+01  0.12694822509E+02  0.00000000000E+00 0.  1.
</event>
<event>
 7    1  0.2886681E-010  0.4778727E+02  0.7816164E-02  0.1312668E+00
        -11   -1    0    0    0    0  0.00000000000E+00  0.00000000000E+00  0.45593999997E+02  0.45594000000E+02  0.51100000000E-03 0. -1.
         11   -1    0    0    0    0 -0.00000000000E+00 -0.00000000000E+00 -0.45593999997E+02  0.45594000000E+02  0.51100000000E-03 0.  1.
    9900012    2    1    2    0    0 -0.29105360214E+02  0.16505865203E+02 -0.27641587897E+02  0.47787274652E+02  0.20000016446E+02 0.  0.
        -12    1    1    2    0    0  0.29105360214E+02 -0.16505865203E+02  0.27641587897E+02  0.43400725348E+02  0.00000000000E+00 0.  1.
         11    1    3    3    0    0 -0.11358702086E+02  0.82989246839E+01 -0.16105315932E+02  0.21383953459E+02  0.51100000000E-03 0. -1.
        -11    1    3    3    0    0 -0.17636234352E+02  0.85920961596E+01 -0.55281956155E+01  0.20381899459E+02  0.51100000000E-03 0.  1.
        -12    1    3    3    0    0 -0.11042377681E+00 -0.38515564092E+00 -0.60080763495E+01  0.60214217341E+01  0.00000000000E+00 0.  1.
</event>
<event>
 7    1  0.2886681E-010  0.4778727E+02  0.7816164E-02  0.1312668E+00
        -11   -1    0    0    0    0  0.00000000000E+00  0.00000000000E+00  0.45593999997E+02  0.45594000000E+02  0.51100000000E-03 0.  1.
         11   -1    0    0    0    0 -0.00000000000E+00 -0.00000000000E+00 -0.45593999997E+02  0.45594000000E+02  0.51100000000E-03 0. -1.
    9900012    2    1    2    0    0  0.16483978062E+01 -0.13647367736E+02 -0.41166192573E+02  0.47787271061E+02  0.20000000075E+02 0.  0.
        -12    1    1    2    0    0 -0.16483978062E+01  0.13647367736E+02  0.41166192573E+02  0.43400728939E+02  0.00000000000E+00 0.  1.
         11    1    3    3    0    0 -0.54650811236E+01 -0.10258830641E+02 -0.31056429969E+02  0.33160406519E+02  0.51100000000E-03 0. -1.
        -11    1    3    3    0    0  0.21958404820E+01  0.14821152104E+01 -0.36511061437E+00  0.26742638129E+01  0.51100000000E-03 0.  1.
         12    1    3    3    0    0  0.49176384477E+01 -0.48706523053E+01 -0.97446519895E+01  0.11952600729E+02  0.00000000000E+00 0. -1.
</event>
<event>
 7    1  0.2886681E-010  0.4778727E+02  0.7816164E-02  0.1312668E+00
        -11   -1    0    0    0    0  0.00000000000E+00  0.00000000000E+00  0.45593999997E+02  0.45594000000E+02  0.51100000000E-03 0.  1.
         11   -1    0    0    0    0 -0.00000000000E+00 -0.00000000000E+00 -0.45593999997E+02  0.45594000000E+02  0.51100000000E-03 0. -1.
    9900012    2    1    2    0    0 -0.20726672501E+02  0.74735417998E+01 -0.37392173951E+02  0.47787268983E+02  0.19999990603E+02 0.  0.
        -12    1    1    2    0    0  0.20726672501E+02 -0.74735417998E+01  0.37392173951E+02  0.43400731017E+02  0.00000000000E+00 0.  1.
         11    1    3    3    0    0 -0.13212341122E+01  0.65443575478E+01 -0.42984029480E+01  0.79404372334E+01  0.51100000000E-03 0. -1.
        -11    1    3    3    0    0 -0.20365820485E+02  0.17882923611E+01 -0.32572358252E+02  0.38456769963E+02  0.51100000000E-03 0.  1.
        -12    1    3    3    0    0  0.96038209693E+00 -0.85910810910E+00 -0.52141275104E+00  0.13900617872E+01  0.00000000000E+00 0.  1.
</event>
<event>
 7    1  0.2886681E-010  0.4778728E+02  0.7816164E-02  0.1312668E+00
        -11   -1    0    0    0    0  0.00000000000E+00  0.00000000000E+00  0.45593999997E+02  0.45594000000E+02  0.51100000000E-03 0.  1.
         11   -1    0    0    0    0 -0.00000000000E+00 -0.00000000000E+00 -0.45593999997E+02  0.45594000000E+02  0.51100000000E-03 0. -1.
    9900012    2    1    2    0    0  0.23606957345E+02 -0.23208377396E+02 -0.28066081780E+02  0.47787283843E+02  0.20000058353E+02 0.  0.
        -12    1    1    2    0    0 -0.23606957345E+02  0.23208377396E+02  0.28066081780E+02  0.43400716157E+02  0.00000000000E+00 0.  1.
         11    1    3    3    0    0  0.70522664007E+01 -0.13329210362E+02 -0.13657216214E+02  0.20345069802E+02  0.51100000000E-03 0. -1.
        -11    1    3    3    0    0  0.15212353819E+02 -0.29795193177E+01 -0.13093460748E+02  0.20291179332E+02  0.51100000000E-03 0.  1.
        -12    1    3    3    0    0  0.13423371259E+01 -0.68996477165E+01 -0.13154048179E+01  0.71510347088E+01  0.00000000000E+00 0.  1.
</event>
<event>
 7    1  0.2886681E-010  0.4778729E+02  0.7816164E-02  0.1312668E+00
        -11   -1    0    0    0    0  0.00000000000E+00  0.00000000000E+00  0.45593999997E+02  0.45594000000E+02  0.51100000000E-03 0.  1.
         11   -1    0    0    0    0 -0.00000000000E+00 -0.00000000000E+00 -0.45593999997E+02  0.45594000000E+02  0.51100000000E-03 0. -1.
    9900012    2    1    2    0    0  0.28111972131E+02  0.21345987362E+02  0.25252483076E+02  0.47787285086E+02  0.20000064021E+02 0.  0.
        -12    1    1    2    0    0 -0.28111972131E+02 -0.21345987362E+02 -0.25252483076E+02  0.43400714914E+02  0.00000000000E+00 0.  1.
         11    1    3    3    0    0  0.18624379157E+02  0.98117670186E+01  0.12190436288E+02  0.24325809507E+02  0.51100000000E-03 0. -1.
        -11    1    3    3    0    0  0.42688562741E+01  0.41827284427E+01  0.13151215504E+02  0.14445512127E+02  0.51100000000E-03 0.  1.
        -12    1    3    3    0    0  0.52187367003E+01  0.73514919004E+01 -0.89168716843E-01  0.90159634521E+01  0.00000000000E+00 0.  1.
</event>
<event>
 7    1  0.2886681E-010  0.4778727E+02  0.7816164E-02  0.1312668E+00
        -11   -1    0    0    0    0  0.00000000000E+00  0.00000000000E+00  0.45593999997E+02  0.45594000000E+02  0.51100000000E-03 0. -1.
         11   -1    0    0    0    0 -0.00000000000E+00 -0.00000000000E+00 -0.45593999997E+02  0.45594000000E+02  0.51100000000E-03 0.  1.
    9900012    2    1    2    0    0  0.32227299617E+02  0.20781681832E+02  0.20326005466E+02  0.47787266843E+02  0.19999980842E+02 0.  0.
        -12    1    1    2    0    0 -0.32227299617E+02 -0.20781681832E+02 -0.20326005466E+02  0.43400733157E+02  0.00000000000E+00 0.  1.
         11    1    3    3    0    0  0.11148090535E+02  0.78997788316E+01  0.12779405084E+02  0.18708276851E+02  0.51100000000E-03 0. -1.
        -11    1    3    3    0    0  0.11640119731E+01  0.60146525926E+00 -0.31059489691E+01  0.33709944514E+01  0.51100000000E-03 0.  1.
        -12    1    3    3    0    0  0.19915197109E+02  0.12280437741E+02  0.10652549351E+02  0.25707995540E+02  0.00000000000E+00 0.  1.
</event>
<event>
 7    1  0.2886681E-010  0.4778727E+02  0.7816164E-02  0.1312668E+00
        -11   -1    0    0    0    0  0.00000000000E+00  0.00000000000E+00  0.45593999997E+02  0.45594000000E+02  0.51100000000E-03 0.  1.
         11   -1    0    0    0    0 -0.00000000000E+00 -0.00000000000E+00 -0.45593999997E+02  0.45594000000E+02  0.51100000000E-03 0. -1.
    9900012    2    1    2    0    0 -0.30272741372E+02  0.20167244379E+02 -0.23674185099E+02  0.47787266641E+02  0.19999979921E+02 0.  0.
        -12    1    1    2    0    0  0.30272741372E+02 -0.20167244379E+02  0.23674185099E+02  0.43400733359E+02  0.00000000000E+00 0.  1.
         11    1    3    3    0    0 -0.14392404593E+02  0.12130849560E+02 -0.13867433354E+02  0.23379575042E+02  0.51100000000E-03 0. -1.
        -11    1    3    3    0    0 -0.76403883602E+01  0.42879724181E+01  0.25176085333E+01  0.91159527610E+01  0.51100000000E-03 0.  1.
        -12    1    3    3    0    0 -0.82399484185E+01  0.37484224013E+01 -0.12324360278E+02  0.15291738838E+02  0.00000000000E+00 0.  1.
</event>
<event>
 7    1  0.2886681E-010  0.4778727E+02  0.7816164E-02  0.1312668E+00
        -11   -1    0    0    0    0  0.00000000000E+00  0.00000000000E+00  0.45593999997E+02  0.45594000000E+02  0.51100000000E-03 0.  1.
         11   -1    0    0    0    0 -0.00000000000E+00 -0.00000000000E+00 -0.45593999997E+02  0.45594000000E+02  0.51100000000E-03 0. -1.
    9900012    2    1    2    0    0 -0.33032195007E+02 -0.26441647732E+02 -0.96610957231E+01  0.47787269449E+02  0.19999992724E+02 0.  0.
        -12    1    1    2    0    0  0.33032195007E+02  0.26441647732E+02  0.96610957231E+01  0.43400730551E+02  0.00000000000E+00 0.  1.
         11    1    3    3    0    0 -0.45857568009E+01 -0.12721673603E+02 -0.19168279971E+01  0.13658124854E+02  0.51100000000E-03 0.  1.
        -11    1    3    3    0    0 -0.15665703107E+02 -0.73122779571E+01 -0.94970452684E+01  0.19725048336E+02  0.51100000000E-03 0. -1.
         12    1    3    3    0    0 -0.12780735099E+02 -0.64076961727E+01  0.17527775424E+01  0.14404096259E+02  0.00000000000E+00 0. -1.
</event>
<event>
 7    1  0.2886681E-010  0.4778728E+02  0.7816164E-02  0.1312668E+00
        -11   -1    0    0    0    0  0.00000000000E+00  0.00000000000E+00  0.45593999997E+02  0.45594000000E+02  0.51100000000E-03 0. -1.
         11   -1    0    0    0    0 -0.00000000000E+00 -0.00000000000E+00 -0.45593999997E+02  0.45594000000E+02  0.51100000000E-03 0.  1.
    9900012    2    1    2    0    0 -0.37168054560E+02  0.21760681270E+02  0.53507548591E+01  0.47787284491E+02  0.20000061308E+02 0.  0.
        -12    1    1    2    0    0  0.37168054560E+02 -0.21760681270E+02 -0.53507548591E+01  0.43400715509E+02  0.00000000000E+00 0.  1.
         11    1    3    3    0    0 -0.60439021438E+01  0.10707579866E+02 -0.17169813815E+01  0.12414871930E+02  0.51100000000E-03 0. -1.
        -11    1    3    3    0    0 -0.10422908137E+01  0.33706292125E+01  0.14813274027E+01  0.38264660672E+01  0.51100000000E-03 0.  1.
         12    1    3    3    0    0 -0.30081861603E+02  0.76824721913E+01  0.55864088380E+01  0.31545946494E+02  0.00000000000E+00 0. -1.
</event>
<event>
 7    1  0.2886681E-010  0.4778727E+02  0.7816164E-02  0.1312668E+00
        -11   -1    0    0    0    0  0.00000000000E+00  0.00000000000E+00  0.45593999997E+02  0.45594000000E+02  0.51100000000E-03 0. -1.
         11   -1    0    0    0    0 -0.00000000000E+00 -0.00000000000E+00 -0.45593999997E+02  0.45594000000E+02  0.51100000000E-03 0.  1.
    9900012    2    1    2    0    0  0.77200849800E+01 -0.36059734878E+02 -0.22884904172E+02  0.47787273848E+02  0.20000012783E+02 0.  0.
        -12    1    1    2    0    0 -0.77200849800E+01  0.36059734878E+02  0.22884904172E+02  0.43400726152E+02  0.00000000000E+00 0.  1.
         11    1    3    3    0    0  0.23436488663E+01 -0.20464458708E+02 -0.10289092518E+02  0.23025033884E+02  0.51100000000E-03 0. -1.
        -11    1    3    3    0    0  0.74463224455E+01 -0.25636952765E+01 -0.65722342565E+01  0.10257412677E+02  0.51100000000E-03 0.  1.
        -12    1    3    3    0    0 -0.20698863318E+01 -0.13031580893E+02 -0.60235773969E+01  0.14504827288E+02  0.00000000000E+00 0.  1.
</event>
<event>
 7    1  0.2886681E-010  0.4778727E+02  0.7816164E-02  0.1312668E+00
        -11   -1    0    0    0    0  0.00000000000E+00  0.00000000000E+00  0.45593999997E+02  0.45594000000E+02  0.51100000000E-03 0.  1.
         11   -1    0    0    0    0 -0.00000000000E+00 -0.00000000000E+00 -0.45593999997E+02  0.45594000000E+02  0.51100000000E-03 0. -1.
    9900012    2    1    2    0    0 -0.10046358841E+02  0.25004441196E+02 -0.34021637468E+02  0.47787271648E+02  0.20000002752E+02 0.  0.
        -12    1    1    2    0    0  0.10046358841E+02 -0.25004441196E+02  0.34021637468E+02  0.43400728352E+02  0.00000000000E+00 0.  1.
         11    1    3    3    0    0 -0.10999554832E+02  0.48538570559E+01 -0.70279623366E+01  0.13926320034E+02  0.51100000000E-03 0. -1.
        -11    1    3    3    0    0 -0.33259472379E+00  0.98827870462E+01 -0.10797487060E+02  0.14641237179E+02  0.51100000000E-03 0.  1.
         12    1    3    3    0    0  0.12857907150E+01  0.10267797094E+02 -0.16196188071E+02  0.19219714435E+02  0.00000000000E+00 0. -1.
</event>
<event>
 7    1  0.2886681E-010  0.4778726E+02  0.7816164E-02  0.1312668E+00
        -11   -1    0    0    0    0  0.00000000000E+00  0.00000000000E+00  0.45593999997E+02  0.45594000000E+02  0.51100000000E-03 0.  1.
         11   -1    0    0    0    0 -0.00000000000E+00 -0.00000000000E+00 -0.45593999997E+02  0.45594000000E+02  0.51100000000E-03 0. -1.
    9900012    2    1    2    0    0 -0.25793545187E+02  0.14669355727E+02 -0.31672181414E+02  0.47787262146E+02  0.19999959430E+02 0.  0.
        -12    1    1    2    0    0  0.25793545187E+02 -0.14669355727E+02  0.31672181414E+02  0.43400737854E+02  0.00000000000E+00 0.  1.
         11    1    3    3    0    0 -0.14157993827E+02  0.16435775654E+01 -0.50420462233E+01  0.15118609949E+02  0.51100000000E-03 0. -1.
        -11    1    3    3    0    0 -0.31184320505E+01  0.12023722692E+01 -0.15989825128E+01  0.37050051099E+01  0.51100000000E-03 0.  1.
         12    1    3    3    0    0 -0.85171193095E+01  0.11823405892E+02 -0.25031152677E+02  0.28963647087E+02  0.00000000000E+00 0. -1.
</event>
<event>
 7    1  0.2886681E-010  0.4778727E+02  0.7816164E-02  0.1312668E+00
        -11   -1    0    0    0    0  0.00000000000E+00  0.00000000000E+00  0.45593999997E+02  0.45594000000E+02  0.51100000000E-03 0. -1.
         11   -1    0    0    0    0 -0.00000000000E+00 -0.00000000000E+00 -0.45593999997E+02  0.45594000000E+02  0.51100000000E-03 0.  1.
    9900012    2    1    2    0    0  0.56851503729E+01  0.29732868622E+02  0.31100786707E+02  0.47787270224E+02  0.19999996259E+02 0.  0.
        -12    1    1    2    0    0 -0.56851503729E+01 -0.29732868622E+02 -0.31100786707E+02  0.43400729776E+02  0.00000000000E+00 0.  1.
         11    1    3    3    0    0  0.99830391724E+01  0.85707107599E+01  0.15180173384E+02  0.20088698770E+02  0.51100000000E-03 0. -1.
        -11    1    3    3    0    0 -0.15104487427E+01  0.32135078173E+00  0.17953031759E+01  0.23680868827E+01  0.51100000000E-03 0.  1.
         12    1    3    3    0    0 -0.27874400568E+01  0.20840807081E+02  0.14125310147E+02  0.25330484571E+02  0.00000000000E+00 0. -1.
</event>
<event>
 7    1  0.2886681E-010  0.4778728E+02  0.7816164E-02  0.1312668E+00
        -11   -1    0    0    0    0  0.00000000000E+00  0.00000000000E+00  0.45593999997E+02  0.45594000000E+02  0.51100000000E-03 0.  1.
         11   -1    0    0    0    0 -0.00000000000E+00 -0.00000000000E+00 -0.45593999997E+02  0.45594000000E+02  0.51100000000E-03 0. -1.
    9900012    2    1    2    0    0  0.19380694137E+02  0.38793283937E+02  0.17586128257E+01  0.47787275319E+02  0.20000019488E+02 0.  0.
        -12    1    1    2    0    0 -0.19380694137E+02 -0.38793283937E+02 -0.17586128257E+01  0.43400724681E+02  0.00000000000E+00 0.  1.
         11    1    3    3    0    0  0.15654212562E+02  0.16199991620E+02 -0.42774818656E+01  0.22930131940E+02  0.51100000000E-03 0. -1.
        -11    1    3    3    0    0 -0.16498779779E+01  0.77844947067E+01  0.41947591789E+01  0.89953576922E+01  0.51100000000E-03 0.  1.
        -12    1    3    3    0    0  0.53763595527E+01  0.14808797610E+02  0.18413355124E+01  0.15861785687E+02  0.00000000000E+00 0.  1.
</event>
<event>
 7    1  0.2886681E-010  0.4778729E+02  0.7816164E-02  0.1312668E+00
        -11   -1    0    0    0    0  0.00000000000E+00  0.00000000000E+00  0.45593999997E+02  0.45594000000E+02  0.51100000000E-03 0. -1.
         11   -1    0    0    0    0 -0.00000000000E+00 -0.00000000000E+00 -0.45593999997E+02  0.45594000000E+02  0.51100000000E-03 0.  1.
    9900012    2    1    2    0    0  0.34922825635E+02  0.82947180294E+01  0.24397030893E+02  0.47787294776E+02  0.20000108203E+02 0.  0.
        -12    1    1    2    0    0 -0.34922825635E+02 -0.82947180294E+01 -0.24397030893E+02  0.43400705224E+02  0.00000000000E+00 0.  1.
         11    1    3    3    0    0  0.27646013815E+01  0.73098552493E+01  0.77803303421E+01  0.11027717128E+02  0.51100000000E-03 0. -1.
        -11    1    3    3    0    0  0.26736924456E+02  0.17102299779E+01  0.16120436843E+02  0.31267499104E+02  0.51100000000E-03 0.  1.
        -12    1    3    3    0    0  0.54212997980E+01 -0.72536719771E+00  0.49626370722E+00  0.54920785444E+01  0.00000000000E+00 0.  1.
</event>
<event>
 7    1  0.2886681E-010  0.4778725E+02  0.7816164E-02  0.1312668E+00
        -11   -1    0    0    0    0  0.00000000000E+00  0.00000000000E+00  0.45593999997E+02  0.45594000000E+02  0.51100000000E-03 0.  1.
         11   -1    0    0    0    0 -0.00000000000E+00 -0.00000000000E+00 -0.45593999997E+02  0.45594000000E+02  0.51100000000E-03 0. -1.
    9900012    2    1    2    0    0 -0.28471830277E+02 -0.32753722695E+02 -0.41644098207E+00  0.47787252394E+02  0.19999914964E+02 0.  0.
        -12    1    1    2    0    0  0.28471830277E+02  0.32753722695E+02  0.41644098207E+00  0.43400747606E+02  0.00000000000E+00 0.  1.
         11    1    3    3    0    0 -0.16737683235E+02 -0.25272680698E+02  0.49910978810E+01  0.30720831500E+02  0.51100000000E-03 0. -1.
        -11    1    3    3    0    0 -0.11348764060E+02 -0.31461925101E+01 -0.32963829975E+01  0.12229436378E+02  0.51100000000E-03 0.  1.
         12    1    3    3    0    0 -0.38538298196E+00 -0.43348494866E+01 -0.21111558655E+01  0.48369845155E+01  0.00000000000E+00 0. -1.
</event>
<event>
 7    1  0.2886681E-010  0.4778727E+02  0.7816164E-02  0.1312668E+00
        -11   -1    0    0    0    0  0.00000000000E+00  0.00000000000E+00  0.45593999997E+02  0.45594000000E+02  0.51100000000E-03 0.  1.
         11   -1    0    0    0    0 -0.00000000000E+00 -0.00000000000E+00 -0.45593999997E+02  0.45594000000E+02  0.51100000000E-03 0. -1.
    9900012    2    1    2    0    0  0.90602429997E+01 -0.12864923938E+02 -0.40447858446E+02  0.47787268162E+02  0.19999986860E+02 0.  0.
        -12    1    1    2    0    0 -0.90602429997E+01  0.12864923938E+02  0.40447858446E+02  0.43400731838E+02  0.00000000000E+00 0.  1.
         11    1    3    3    0    0 -0.22183189032E+01  0.75418930886E+00 -0.48600853896E+01  0.53953841870E+01  0.51100000000E-03 0. -1.
        -11    1    3    3    0    0  0.10340555101E+02 -0.12621984327E+01 -0.13341107796E+02  0.16926469868E+02  0.51100000000E-03 0.  1.
        -12    1    3    3    0    0  0.93800680202E+00 -0.12356914814E+02 -0.22246665260E+02  0.25465414108E+02  0.00000000000E+00 0.  1.
</event>
<event>
 7    1  0.2886681E-010  0.4778727E+02  0.7816164E-02  0.1312668E+00
        -11   -1    0    0    0    0  0.00000000000E+00  0.00000000000E+00  0.45593999997E+02  0.45594000000E+02  0.51100000000E-03 0.  1.
         11   -1    0    0    0    0 -0.00000000000E+00 -0.00000000000E+00 -0.45593999997E+02  0.45594000000E+02  0.51100000000E-03 0. -1.
    9900012    2    1    2    0    0 -0.20057980868E+02 -0.35677965340E+02 -0.14435495148E+02  0.47787270427E+02  0.19999997184E+02 0.  0.
        -12    1    1    2    0    0  0.20057980868E+02  0.35677965340E+02  0.14435495148E+02  0.43400729573E+02  0.00000000000E+00 0.  1.
         11    1    3    3    0    0 -0.43544562304E+01 -0.20623556412E+02 -0.66667459505E+01  0.22107416628E+02  0.51100000000E-03 0. -1.
        -11    1    3    3    0    0  0.72072776555E+00 -0.30268821476E+01  0.13274118954E+01  0.33828222904E+01  0.51100000000E-03 0.  1.
         12    1    3    3    0    0 -0.16424252403E+02 -0.12027526781E+02 -0.90961610927E+01  0.22297031509E+02  0.00000000000E+00 0. -1.
</event>
<event>
 7    1  0.2886681E-010  0.4778728E+02  0.7816164E-02  0.1312668E+00
        -11   -1    0    0    0    0  0.00000000000E+00  0.00000000000E+00  0.45593999997E+02  0.45594000000E+02  0.51100000000E-03 0.  1.
         11   -1    0    0    0    0 -0.00000000000E+00 -0.00000000000E+00 -0.45593999997E+02  0.45594000000E+02  0.51100000000E-03 0. -1.
    9900012    2    1    2    0    0 -0.18804101156E+02 -0.14360788532E+02  0.36384003190E+02  0.47787283926E+02  0.20000058734E+02 0.  0.
        -12    1    1    2    0    0  0.18804101156E+02  0.14360788532E+02 -0.36384003190E+02  0.43400716074E+02  0.00000000000E+00 0.  1.
         11    1    3    3    0    0 -0.16489369266E+02 -0.35729144688E+01  0.29831039206E+02  0.34271794773E+02  0.51100000000E-03 0. -1.
        -11    1    3    3    0    0  0.12563140594E+01 -0.26739279267E+01  0.15531492578E+01  0.33377370255E+01  0.51100000000E-03 0.  1.
         12    1    3    3    0    0 -0.35710459489E+01 -0.81139461368E+01  0.49998147269E+01  0.10177752128E+02  0.00000000000E+00 0. -1.
</event>
<event>
 7    1  0.2886681E-010  0.4778727E+02  0.7816164E-02  0.1312668E+00
        -11   -1    0    0    0    0  0.00000000000E+00  0.00000000000E+00  0.45593999997E+02  0.45594000000E+02  0.51100000000E-03 0. -1.
         11   -1    0    0    0    0 -0.00000000000E+00 -0.00000000000E+00 -0.45593999997E+02  0.45594000000E+02  0.51100000000E-03 0.  1.
    9900012    2    1    2    0    0  0.15834688759E+02 -0.78773708947E+00  0.40401304571E+02  0.47787270641E+02  0.19999998162E+02 0.  0.
        -12    1    1    2    0    0 -0.15834688759E+02  0.78773708947E+00 -0.40401304571E+02  0.43400729359E+02  0.00000000000E+00 0.  1.
         11    1    3    3    0    0 -0.30125827549E+01  0.34101681634E+01  0.33402022155E+01  0.56446304449E+01  0.51100000000E-03 0. -1.
        -11    1    3    3    0    0  0.46914757047E+00  0.60535115830E+00  0.42758473508E+00  0.87714219744E+00  0.51100000000E-03 0.  1.
         12    1    3    3    0    0  0.18378123944E+02 -0.48032564112E+01  0.36633517620E+02  0.41265497999E+02  0.00000000000E+00 0. -1.
</event>
<event>
 7    1  0.2886681E-010  0.4778727E+02  0.7816164E-02  0.1312668E+00
        -11   -1    0    0    0    0  0.00000000000E+00  0.00000000000E+00  0.45593999997E+02  0.45594000000E+02  0.51100000000E-03 0. -1.
         11   -1    0    0    0    0 -0.00000000000E+00 -0.00000000000E+00 -0.45593999997E+02  0.45594000000E+02  0.51100000000E-03 0.  1.
    9900012    2    1    2    0    0 -0.36171350204E+01 -0.35979299885E+02  0.24000615281E+02  0.47787271668E+02  0.20000002841E+02 0.  0.
        -12    1    1    2    0    0  0.36171350204E+01  0.35979299885E+02 -0.24000615281E+02  0.43400728332E+02  0.00000000000E+00 0.  1.
         11    1    3    3    0    0 -0.32997026444E+01 -0.33985611921E+01  0.47919381141E+01  0.67380209905E+01  0.51100000000E-03 0. -1.
        -11    1    3    3    0    0 -0.30385567614E+01 -0.30358019857E+02  0.21065183238E+02  0.37075384582E+02  0.51100000000E-03 0.  1.
        -12    1    3    3    0    0  0.27211243854E+01 -0.22227188357E+01 -0.18565060717E+01  0.39738660945E+01  0.00000000000E+00 0.  1.
</event>
<event>
 7    1  0.2886681E-010  0.4778727E+02  0.7816164E-02  0.1312668E+00
        -11   -1    0    0    0    0  0.00000000000E+00  0.00000000000E+00  0.45593999997E+02  0.45594000000E+02  0.51100000000E-03 0.  1.
         11   -1    0    0    0    0 -0.00000000000E+00 -0.00000000000E+00 -0.45593999997E+02  0.45594000000E+02  0.51100000000E-03 0. -1.
    9900012    2    1    2    0    0 -0.23124584784E+02 -0.36196696462E+02 -0.62190350770E+01  0.47787266671E+02  0.19999980060E+02 0.  0.
        -12    1    1    2    0    0  0.23124584784E+02  0.36196696462E+02  0.62190350770E+01  0.43400733329E+02  0.00000000000E+00 0.  1.
         11    1    3    3    0    0 -0.12207673888E+02 -0.12018553802E+02  0.25662661381E+01  0.17322201344E+02  0.51100000000E-03 0. -1.
        -11    1    3    3    0    0 -0.48446704750E+01 -0.21600565425E+02 -0.89206996849E+01  0.23867009486E+02  0.51100000000E-03 0.  1.
        -12    1    3    3    0    0 -0.60722404215E+01 -0.25775772357E+01  0.13539846988E+00  0.65980558415E+01  0.00000000000E+00 0.  1.
</event>
<event>
 7    1  0.2886681E-010  0.4778727E+02  0.7816164E-02  0.1312668E+00
        -11   -1    0    0    0    0  0.00000000000E+00  0.00000000000E+00  0.45593999997E+02  0.45594000000E+02  0.51100000000E-03 0.  1.
         11   -1    0    0    0    0 -0.00000000000E+00 -0.00000000000E+00 -0.45593999997E+02  0.45594000000E+02  0.51100000000E-03 0. -1.
    9900012    2    1    2    0    0  0.11021607247E+02  0.41945013101E+02  0.16622782021E+01  0.47787272827E+02  0.20000008126E+02 0.  0.
        -12    1    1    2    0    0 -0.11021607247E+02 -0.41945013101E+02 -0.16622782021E+01  0.43400727173E+02  0.00000000000E+00 0.  1.
         11    1    3    3    0    0  0.10894300434E+02  0.16672971020E+02  0.23198784018E+01  0.20051323663E+02  0.51100000000E-03 0. -1.
        -11    1    3    3    0    0 -0.46294163073E+01  0.20365270011E+02 -0.80639975392E+00  0.20900382743E+02  0.51100000000E-03 0.  1.
        -12    1    3    3    0    0  0.47567231201E+01  0.49067720701E+01  0.14879955419E+00  0.68355664211E+01  0.00000000000E+00 0.  1.
</event>
<event>
 7    1  0.2886681E-010  0.4778727E+02  0.7816164E-02  0.1312668E+00
        -11   -1    0    0    0    0  0.00000000000E+00  0.00000000000E+00  0.45593999997E+02  0.45594000000E+02  0.51100000000E-03 0.  1.
         11   -1    0    0    0    0 -0.00000000000E+00 -0.00000000000E+00 -0.45593999997E+02  0.45594000000E+02  0.51100000000E-03 0. -1.
    9900012    2    1    2    0    0 -0.18204857214E+01 -0.20291270528E+02 -0.38321975659E+02  0.47787266754E+02  0.19999980438E+02 0.  0.
        -12    1    1    2    0    0  0.18204857214E+01  0.20291270528E+02  0.38321975659E+02  0.43400733246E+02  0.00000000000E+00 0.  1.
         11    1    3    3    0    0  0.23920340946E+01 -0.14817453336E+02 -0.23970033045E+02  0.28281464512E+02  0.51100000000E-03 0. -1.
        -11    1    3    3    0    0 -0.22802908703E+01  0.20377476739E+01  0.14809269853E+00  0.30617109178E+01  0.51100000000E-03 0.  1.
        -12    1    3    3    0    0 -0.19322289457E+01 -0.75115648651E+01 -0.14500035312E+02  0.16444091324E+02  0.00000000000E+00 0.  1.
</event>
<event>
 7    1  0.2886681E-010  0.4778726E+02  0.7816164E-02  0.1312668E+00
        -11   -1    0    0    0    0  0.00000000000E+00  0.00000000000E+00  0.45593999997E+02  0.45594000000E+02  0.51100000000E-03 0. -1.
         11   -1    0    0    0    0 -0.00000000000E+00 -0.00000000000E+00 -0.45593999997E+02  0.45594000000E+02  0.51100000000E-03 0.  1.
    9900012    2    1    2    0    0  0.26804790389E+02  0.30902716038E+02  0.14496527994E+02  0.47787263022E+02  0.19999963424E+02 0.  0.
        -12    1    1    2    0    0 -0.26804790389E+02 -0.30902716038E+02 -0.14496527994E+02  0.43400736978E+02  0.00000000000E+00 0.  1.
         11    1    3    3    0    0  0.84263313965E+01  0.17483065833E+02 -0.49769783785E+00  0.19414127720E+02  0.51100000000E-03 0. -1.
        -11    1    3    3    0    0  0.11735663677E+02  0.62652900905E+01  0.45094920071E+01  0.14046892193E+02  0.51100000000E-03 0.  1.
         12    1    3    3    0    0  0.66427953152E+01  0.71543601143E+01  0.10484733825E+02  0.14326243109E+02  0.00000000000E+00 0. -1.
</event>
<event>
 7    1  0.2886681E-010  0.4778727E+02  0.7816164E-02  0.1312668E+00
        -11   -1    0    0    0    0  0.00000000000E+00  0.00000000000E+00  0.45593999997E+02  0.45594000000E+02  0.51100000000E-03 0.  1.
         11   -1    0    0    0    0 -0.00000000000E+00 -0.00000000000E+00 -0.45593999997E+02  0.45594000000E+02  0.51100000000E-03 0. -1.
    9900012    2    1    2    0    0 -0.32744265321E+02 -0.70489318578E+01  0.27599802001E+02  0.47787269335E+02  0.19999992205E+02 0.  0.
        -12    1    1    2    0    0  0.32744265321E+02  0.70489318578E+01 -0.27599802001E+02  0.43400730665E+02  0.00000000000E+00 0.  1.
         11    1    3    3    0    0 -0.44019319974E+01  0.23179434521E+01  0.60569620367E+00  0.50116599355E+01  0.51100000000E-03 0. -1.
        -11    1    3    3    0    0 -0.27630394590E+02 -0.63278149345E+01  0.18816748606E+02  0.34022786120E+02  0.51100000000E-03 0.  1.
        -12    1    3    3    0    0 -0.71193873454E+00 -0.30390603754E+01  0.81773571909E+01  0.87528232790E+01  0.00000000000E+00 0.  1.
</event>
<event>
 7    1  0.2886681E-010  0.4778728E+02  0.7816164E-02  0.1312668E+00
        -11   -1    0    0    0    0  0.00000000000E+00  0.00000000000E+00  0.45593999997E+02  0.45594000000E+02  0.51100000000E-03 0.  1.
         11   -1    0    0    0    0 -0.00000000000E+00 -0.00000000000E+00 -0.45593999997E+02  0.45594000000E+02  0.51100000000E-03 0. -1.
    9900012    2    1    2    0    0  0.82639035799E+01  0.41660687979E+02 -0.89284772420E+01  0.47787277297E+02  0.20000028507E+02 0.  0.
        -12    1    1    2    0    0 -0.82639035799E+01 -0.41660687979E+02  0.89284772420E+01  0.43400722703E+02  0.00000000000E+00 0.  1.
         11    1    3    3    0    0  0.37249070702E+01  0.13749285632E+02 -0.68311525319E+01  0.15798178163E+02  0.51100000000E-03 0. -1.
        -11    1    3    3    0    0  0.73312421374E+01  0.18069125474E+02  0.42389413428E+01  0.19955175535E+02  0.51100000000E-03 0.  1.
        -12    1    3    3    0    0 -0.27922456277E+01  0.98422768729E+01 -0.63362660529E+01  0.12033923599E+02  0.00000000000E+00 0.  1.
</event>
<event>
 7    1  0.2886681E-010  0.4778726E+02  0.7816164E-02  0.1312668E+00
        -11   -1    0    0    0    0  0.00000000000E+00  0.00000000000E+00  0.45593999997E+02  0.45594000000E+02  0.51100000000E-03 0. -1.
         11   -1    0    0    0    0 -0.00000000000E+00 -0.00000000000E+00 -0.45593999997E+02  0.45594000000E+02  0.51100000000E-03 0.  1.
    9900012    2    1    2    0    0  0.38719109828E+02  0.19199399231E+02 -0.39796279192E+01  0.47787264579E+02  0.19999970521E+02 0.  0.
        -12    1    1    2    0    0 -0.38719109828E+02 -0.19199399231E+02  0.39796279192E+01  0.43400735421E+02  0.00000000000E+00 0.  1.
         11    1    3    3    0    0  0.13147970992E+01  0.43103302786E+01  0.30445287976E+01  0.54384551468E+01  0.51100000000E-03 0. -1.
        -11    1    3    3    0    0  0.37995317550E+02  0.14952530179E+02 -0.61507089165E+01  0.41292293892E+02  0.51100000000E-03 0.  1.
        -12    1    3    3    0    0 -0.59100482082E+00 -0.63461226645E-01 -0.87344780037E+00  0.10565155396E+01  0.00000000000E+00 0.  1.
</event>
<event>
 7    1  0.2886681E-010  0.4778726E+02  0.7816164E-02  0.1312668E+00
        -11   -1    0    0    0    0  0.00000000000E+00  0.00000000000E+00  0.45593999997E+02  0.45594000000E+02  0.51100000000E-03 0.  1.
         11   -1    0    0    0    0 -0.00000000000E+00 -0.00000000000E+00 -0.45593999997E+02  0.45594000000E+02  0.51100000000E-03 0. -1.
    9900012    2    1    2    0    0  0.39903637373E+02  0.11041655630E+02 -0.13015592990E+02  0.47787261579E+02  0.19999956842E+02 0.  0.
        -12    1    1    2    0    0 -0.39903637373E+02 -0.11041655630E+02  0.13015592990E+02  0.43400738421E+02  0.00000000000E+00 0.  1.
         11    1    3    3    0    0  0.24136286940E+02  0.48597886688E+01 -0.33410104436E+01  0.24846332611E+02  0.51100000000E-03 0. -1.
        -11    1    3    3    0    0  0.50125403666E+01 -0.27468930646E+01 -0.64067399832E+01  0.85858779346E+01  0.51100000000E-03 0.  1.
        -12    1    3    3    0    0  0.10754810066E+02  0.89287600257E+01 -0.32678425633E+01  0.14355051033E+02  0.00000000000E+00 0.  1.
</event>
<event>
 7    1  0.2886681E-010  0.4778727E+02  0.7816164E-02  0.1312668E+00
        -11   -1    0    0    0    0  0.00000000000E+00  0.00000000000E+00  0.45593999997E+02  0.45594000000E+02  0.51100000000E-03 0.  1.
         11   -1    0    0    0    0 -0.00000000000E+00 -0.00000000000E+00 -0.45593999997E+02  0.45594000000E+02  0.51100000000E-03 0. -1.
    9900012    2    1    2    0    0  0.17670940592E+02  0.21729630035E+01 -0.39580794230E+02  0.47787272109E+02  0.20000004854E+02 0.  0.
        -12    1    1    2    0    0 -0.17670940592E+02 -0.21729630035E+01  0.39580794230E+02  0.43400727891E+02  0.00000000000E+00 0.  1.
         11    1    3    3    0    0  0.92354138416E+01  0.63318267059E+01 -0.35622679313E+02  0.37341132548E+02  0.51100000000E-03 0. -1.
        -11    1    3    3    0    0  0.63068301577E+01 -0.23400436046E+01 -0.19609709791E+01  0.70069478485E+01  0.51100000000E-03 0.  1.
         12    1    3    3    0    0  0.21286965922E+01 -0.18188200978E+01 -0.19971439378E+01  0.34391917129E+01  0.00000000000E+00 0. -1.
</event>
<event>
 7    1  0.2886681E-010  0.4778729E+02  0.7816164E-02  0.1312668E+00
        -11   -1    0    0    0    0  0.00000000000E+00  0.00000000000E+00  0.45593999997E+02  0.45594000000E+02  0.51100000000E-03 0.  1.
         11   -1    0    0    0    0 -0.00000000000E+00 -0.00000000000E+00 -0.45593999997E+02  0.45594000000E+02  0.51100000000E-03 0. -1.
    9900012    2    1    2    0    0  0.15630372773E+02  0.36283391915E+02 -0.17967429787E+02  0.47787290155E+02  0.20000087134E+02 0.  0.
        -12    1    1    2    0    0 -0.15630372773E+02 -0.36283391915E+02  0.17967429787E+02  0.43400709845E+02  0.00000000000E+00 0.  1.
         11    1    3    3    0    0  0.36253592298E+01  0.14441289877E+02 -0.14833963737E+02  0.21017625062E+02  0.51100000000E-03 0. -1.
        -11    1    3    3    0    0  0.77788057550E+01  0.60103301154E+01  0.96863262143E+00  0.98778609267E+01  0.51100000000E-03 0.  1.
        -12    1    3    3    0    0  0.42262077885E+01  0.15831771923E+02 -0.41020986712E+01  0.16891804166E+02  0.00000000000E+00 0.  1.
</event>
<event>
 7    1  0.2886681E-010  0.4778727E+02  0.7816164E-02  0.1312668E+00
        -11   -1    0    0    0    0  0.00000000000E+00  0.00000000000E+00  0.45593999997E+02  0.45594000000E+02  0.51100000000E-03 0.  1.
         11   -1    0    0    0    0 -0.00000000000E+00 -0.00000000000E+00 -0.45593999997E+02  0.45594000000E+02  0.51100000000E-03 0. -1.
    9900012    2    1    2    0    0  0.29568968859E+01 -0.13942150200E+02 -0.40993859574E+02  0.47787270581E+02  0.19999997885E+02 0.  0.
        -12    1    1    2    0    0 -0.29568968859E+01  0.13942150200E+02  0.40993859574E+02  0.43400729419E+02  0.00000000000E+00 0.  1.
         11    1    3    3    0    0  0.40545031845E+01 -0.95480698240E+01 -0.10491435670E+02  0.14753808190E+02  0.51100000000E-03 0. -1.
        -11    1    3    3    0    0 -0.38015796026E+01  0.25766898574E+01 -0.70142862166E+01  0.83840055752E+01  0.51100000000E-03 0.  1.
         12    1    3    3    0    0  0.27039733040E+01 -0.69707702330E+01 -0.23488137687E+02  0.24649456815E+02  0.00000000000E+00 0. -1.
</event>
<event>
 7    1  0.2886681E-010  0.4778727E+02  0.7816164E-02  0.1312668E+00
        -11   -1    0    0    0    0  0.00000000000E+00  0.00000000000E+00  0.45593999997E+02  0.45594000000E+02  0.51100000000E-03 0. -1.
         11   -1    0    0    0    0 -0.00000000000E+00 -0.00000000000E+00 -0.45593999997E+02  0.45594000000E+02  0.51100000000E-03 0.  1.
    9900012    2    1    2    0    0 -0.39473034706E+02 -0.16072677367E+02  0.81958550520E+01  0.47787268823E+02  0.19999989874E+02 0.  0.
        -12    1    1    2    0    0  0.39473034706E+02  0.16072677367E+02 -0.81958550520E+01  0.43400731177E+02  0.00000000000E+00 0.  1.
         11    1    3    3    0    0 -0.38747842599E+02 -0.12918060177E+02  0.95756657999E+01  0.41951936315E+02  0.51100000000E-03 0. -1.
        -11    1    3    3    0    0 -0.22279872887E+01 -0.27367724075E+01  0.30156264375E+00  0.35418626255E+01  0.51100000000E-03 0.  1.
         12    1    3    3    0    0  0.15027951820E+01 -0.41784478202E+00 -0.16813733916E+01  0.22934698827E+01  0.00000000000E+00 0. -1.
</event>
<event>
 7    1  0.2886681E-010  0.4778727E+02  0.7816164E-02  0.1312668E+00
        -11   -1    0    0    0    0  0.00000000000E+00  0.00000000000E+00  0.45593999997E+02  0.45594000000E+02  0.51100000000E-03 0.  1.
         11   -1    0    0    0    0 -0.00000000000E+00 -0.00000000000E+00 -0.45593999997E+02  0.45594000000E+02  0.51100000000E-03 0. -1.
    9900012    2    1    2    0    0 -0.66508469268E+01  0.10399373786E+02 -0.41608203320E+02  0.47787270472E+02  0.19999997392E+02 0.  0.
        -12    1    1    2    0    0  0.66508469268E+01 -0.10399373786E+02  0.41608203320E+02  0.43400729528E+02  0.00000000000E+00 0.  1.
         11    1    3    3    0    0 -0.39207017804E+01  0.12036376953E+02 -0.33400481002E+02  0.35718880218E+02  0.51100000000E-03 0. -1.
        -11    1    3    3    0    0 -0.37060330583E+00  0.32118279122E+01 -0.44299385957E+01  0.54842995515E+01  0.51100000000E-03 0.  1.
         12    1    3    3    0    0 -0.23595418406E+01 -0.48488310792E+01 -0.37777837231E+01  0.65840907034E+01  0.00000000000E+00 0. -1.
</event>
<event>
 7    1  0.2886681E-010  0.4778727E+02  0.7816164E-02  0.1312668E+00
        -11   -1    0    0    0    0  0.00000000000E+00  0.00000000000E+00  0.45593999997E+02  0.45594000000E+02  0.51100000000E-03 0. -1.
         11   -1    0    0    0    0 -0.00000000000E+00 -0.00000000000E+00 -0.45593999997E+02  0.45594000000E+02  0.51100000000E-03 0.  1.
    9900012    2    1    2    0    0  0.28358325610E+02 -0.20418765354E+02  0.25739135066E+02  0.47787266320E+02  0.19999978461E+02 0.  0.
        -12    1    1    2    0    0 -0.28358325610E+02  0.20418765354E+02 -0.25739135066E+02  0.43400733680E+02  0.00000000000E+00 0.  1.
         11    1    3    3    0    0  0.65151161630E+00  0.11072191663E+01  0.11102128454E+01  0.16979324167E+01  0.51100000000E-03 0. -1.
        -11    1    3    3    0    0 -0.18532459328E+01 -0.63326083355E+00 -0.50316538809E+00  0.20220572296E+01  0.51100000000E-03 0.  1.
        -12    1    3    3    0    0  0.29560059926E+02 -0.20892723687E+02  0.25132087609E+02  0.44067276674E+02  0.00000000000E+00 0.  1.
</event>
<event>
 7    1  0.2886681E-010  0.4778727E+02  0.7816164E-02  0.1312668E+00
        -11   -1    0    0    0    0  0.00000000000E+00  0.00000000000E+00  0.45593999997E+02  0.45594000000E+02  0.51100000000E-03 0.  1.
         11   -1    0    0    0    0 -0.00000000000E+00 -0.00000000000E+00 -0.45593999997E+02  0.45594000000E+02  0.51100000000E-03 0. -1.
    9900012    2    1    2    0    0 -0.21553801973E+02  0.34791095829E+02  0.14444268497E+02  0.47787267047E+02  0.19999981774E+02 0.  0.
        -12    1    1    2    0    0  0.21553801973E+02 -0.34791095829E+02 -0.14444268497E+02  0.43400732953E+02  0.00000000000E+00 0.  1.
         11    1    3    3    0    0 -0.13856660794E+02  0.12147427609E+02 -0.14193681005E+01  0.18481927712E+02  0.51100000000E-03 0. -1.
        -11    1    3    3    0    0 -0.15265342567E+01  0.96447583226E+01  0.93181222103E+01  0.13497372771E+02  0.51100000000E-03 0.  1.
         12    1    3    3    0    0 -0.61706069219E+01  0.12998909897E+02  0.65455143869E+01  0.15807966564E+02  0.00000000000E+00 0. -1.
</event>
<event>
 7    1  0.2886681E-010  0.4778730E+02  0.7816164E-02  0.1312668E+00
        -11   -1    0    0    0    0  0.00000000000E+00  0.00000000000E+00  0.45593999997E+02  0.45594000000E+02  0.51100000000E-03 0. -1.
         11   -1    0    0    0    0 -0.00000000000E+00 -0.00000000000E+00 -0.45593999997E+02  0.45594000000E+02  0.51100000000E-03 0.  1.
    9900012    2    1    2    0    0  0.12008320802E+02  0.12537242942E+02  0.39777356654E+02  0.47787304943E+02  0.20000154555E+02 0.  0.
        -12    1    1    2    0    0 -0.12008320802E+02 -0.12537242942E+02 -0.39777356654E+02  0.43400695057E+02  0.00000000000E+00 0.  1.
         11    1    3    3    0    0  0.10435346797E+02  0.15799427607E+02  0.38343766208E+02  0.42764036090E+02  0.51100000000E-03 0. -1.
        -11    1    3    3    0    0 -0.23999020696E+00 -0.25965965170E+01  0.16407577457E+01  0.30809081474E+01  0.51100000000E-03 0.  1.
         12    1    3    3    0    0  0.18129642123E+01 -0.66558814835E+00 -0.20716729939E+00  0.19423607050E+01  0.00000000000E+00 0. -1.
</event>
<event>
 7    1  0.2886681E-010  0.4778727E+02  0.7816164E-02  0.1312668E+00
        -11   -1    0    0    0    0  0.00000000000E+00  0.00000000000E+00  0.45593999997E+02  0.45594000000E+02  0.51100000000E-03 0.  1.
         11   -1    0    0    0    0 -0.00000000000E+00 -0.00000000000E+00 -0.45593999997E+02  0.45594000000E+02  0.51100000000E-03 0. -1.
    9900012    2    1    2    0    0  0.72164806035E+01 -0.42858622161E+01 -0.42581416591E+02  0.47787271364E+02  0.20000001457E+02 0.  0.
        -12    1    1    2    0    0 -0.72164806035E+01  0.42858622161E+01  0.42581416591E+02  0.43400728636E+02  0.00000000000E+00 0.  1.
         11    1    3    3    0    0 -0.46177880941E+01 -0.21640499220E+01 -0.11857557966E+02  0.12907701581E+02  0.51100000000E-03 0. -1.
        -11    1    3    3    0    0  0.11137238919E+02 -0.48592272960E+01 -0.29292649446E+02  0.31712923115E+02  0.51100000000E-03 0.  1.
        -12    1    3    3    0    0  0.69702977850E+00  0.27374150019E+01 -0.14312091796E+01  0.31666466681E+01  0.00000000000E+00 0.  1.
</event>
<event>
 7    1  0.2886681E-010  0.4778727E+02  0.7816164E-02  0.1312668E+00
        -11   -1    0    0    0    0  0.00000000000E+00  0.00000000000E+00  0.45593999997E+02  0.45594000000E+02  0.51100000000E-03 0. -1.
         11   -1    0    0    0    0 -0.00000000000E+00 -0.00000000000E+00 -0.45593999997E+02  0.45594000000E+02  0.51100000000E-03 0.  1.
    9900012    2    1    2    0    0  0.12581091010E+02 -0.40933941110E+02  0.70534902158E+01  0.47787272932E+02  0.20000008608E+02 0.  0.
        -12    1    1    2    0    0 -0.12581091010E+02  0.40933941110E+02 -0.70534902158E+01  0.43400727068E+02  0.00000000000E+00 0.  1.
         11    1    3    3    0    0 -0.62146976740E+00 -0.23071536707E+02 -0.20449663388E+01  0.23170324087E+02  0.51100000000E-03 0. -1.
        -11    1    3    3    0    0  0.10511649500E+02 -0.15446192343E+02  0.95317187931E+01  0.20974586922E+02  0.51100000000E-03 0.  1.
        -12    1    3    3    0    0  0.26909112773E+01 -0.24162120590E+01 -0.43326223853E+00  0.36423619238E+01  0.00000000000E+00 0.  1.
</event>
<event>
 7    1  0.2886681E-010  0.4778727E+02  0.7816164E-02  0.1312668E+00
        -11   -1    0    0    0    0  0.00000000000E+00  0.00000000000E+00  0.45593999997E+02  0.45594000000E+02  0.51100000000E-03 0.  1.
         11   -1    0    0    0    0 -0.00000000000E+00 -0.00000000000E+00 -0.45593999997E+02  0.45594000000E+02  0.51100000000E-03 0. -1.
    9900012    2    1    2    0    0 -0.29742784105E+02 -0.21047226888E+02 -0.23579745837E+02  0.47787269825E+02  0.19999994440E+02 0.  0.
        -12    1    1    2    0    0  0.29742784105E+02  0.21047226888E+02  0.23579745837E+02  0.43400730175E+02  0.00000000000E+00 0.  1.
         11    1    3    3    0    0 -0.68498643735E+01 -0.15153683788E+02 -0.15569495131E+02  0.22780780346E+02  0.51100000000E-03 0. -1.
        -11    1    3    3    0    0 -0.16360835638E+02 -0.49162918679E+01 -0.58507886429E+01  0.18057646483E+02  0.51100000000E-03 0.  1.
         12    1    3    3    0    0 -0.65320840937E+01 -0.97725123130E+00 -0.21594620636E+01  0.69488429958E+01  0.00000000000E+00 0. -1.
</event>
<event>
 7    1  0.2886681E-010  0.4778727E+02  0.7816164E-02  0.1312668E+00
        -11   -1    0    0    0    0  0.00000000000E+00  0.00000000000E+00  0.45593999997E+02  0.45594000000E+02  0.51100000000E-03 0.  1.
         11   -1    0    0    0    0 -0.00000000000E+00 -0.00000000000E+00 -0.45593999997E+02  0.45594000000E+02  0.51100000000E-03 0. -1.
    9900012    2    1    2    0    0  0.35580983083E+02  0.14204463738E+02 -0.20392407127E+02  0.47787269411E+02  0.19999992553E+02 0.  0.
        -12    1    1    2    0    0 -0.35580983083E+02 -0.14204463738E+02  0.20392407127E+02  0.43400730589E+02  0.00000000000E+00 0.  1.
         11    1    3    3    0    0  0.28957125732E+02  0.78019609949E+01 -0.10309546643E+02  0.31712339527E+02  0.51100000000E-03 0. -1.
        -11    1    3    3    0    0 -0.10868238637E+01  0.35225927749E+01 -0.10047177908E+01  0.38209035670E+01  0.51100000000E-03 0.  1.
        -12    1    3    3    0    0  0.77106812140E+01  0.28799099682E+01 -0.90781426939E+01  0.12254026317E+02  0.00000000000E+00 0.  1.
</event>
<event>
 7    1  0.2886681E-010  0.4778727E+02  0.7816164E-02  0.1312668E+00
        -11   -1    0    0    0    0  0.00000000000E+00  0.00000000000E+00  0.45593999997E+02  0.45594000000E+02  0.51100000000E-03 0.  1.
         11   -1    0    0    0    0 -0.00000000000E+00 -0.00000000000E+00 -0.45593999997E+02  0.45594000000E+02  0.51100000000E-03 0. -1.
    9900012    2    1    2    0    0 -0.31565283210E+02 -0.95366482272E+01 -0.28218940005E+02  0.47787270299E+02  0.19999996601E+02 0.  0.
        -12    1    1    2    0    0  0.31565283210E+02  0.95366482272E+01  0.28218940005E+02  0.43400729701E+02  0.00000000000E+00 0.  1.
         11    1    3    3    0    0 -0.12017366754E+02 -0.12344881710E+02 -0.18164431332E+02  0.25035170741E+02  0.51100000000E-03 0. -1.
        -11    1    3    3    0    0 -0.39407675967E+01  0.27451022335E+01 -0.23535334825E+01  0.53483039964E+01  0.51100000000E-03 0.  1.
         12    1    3    3    0    0 -0.15607148859E+02  0.63131249377E-01 -0.77009751912E+01  0.17403795562E+02  0.00000000000E+00 0. -1.
</event>
<event>
 7    1  0.2886681E-010  0.4778727E+02  0.7816164E-02  0.1312668E+00
        -11   -1    0    0    0    0  0.00000000000E+00  0.00000000000E+00  0.45593999997E+02  0.45594000000E+02  0.51100000000E-03 0. -1.
         11   -1    0    0    0    0 -0.00000000000E+00 -0.00000000000E+00 -0.45593999997E+02  0.45594000000E+02  0.51100000000E-03 0.  1.
    9900012    2    1    2    0    0 -0.11276293599E+02  0.15583454836E+02  0.38905330968E+02  0.47787266830E+02  0.19999980786E+02 0.  0.
        -12    1    1    2    0    0  0.11276293599E+02 -0.15583454836E+02 -0.38905330968E+02  0.43400733170E+02  0.00000000000E+00 0.  1.
         11    1    3    3    0    0 -0.56909694131E+01  0.16285116734E+02  0.15041362781E+02  0.22887436607E+02  0.51100000000E-03 0.  1.
        -11    1    3    3    0    0 -0.56529277706E+01  0.35295307112E+00  0.16162499346E+02  0.17126194955E+02  0.51100000000E-03 0. -1.
        -12    1    3    3    0    0  0.67603584578E-01 -0.10546149692E+01  0.77014688407E+01  0.77736352682E+01  0.00000000000E+00 0.  1.
</event>
<event>
 7    1  0.2886681E-010  0.4778727E+02  0.7816164E-02  0.1312668E+00
        -11   -1    0    0    0    0  0.00000000000E+00  0.00000000000E+00  0.45593999997E+02  0.45594000000E+02  0.51100000000E-03 0.  1.
         11   -1    0    0    0    0 -0.00000000000E+00 -0.00000000000E+00 -0.45593999997E+02  0.45594000000E+02  0.51100000000E-03 0. -1.
    9900012    2    1    2    0    0  0.41786050197E+01 -0.34335377383E+01 -0.43062431850E+02  0.47787274682E+02  0.20000016586E+02 0.  0.
        -12    1    1    2    0    0 -0.41786050197E+01  0.34335377383E+01  0.43062431850E+02  0.43400725318E+02  0.00000000000E+00 0.  1.
         11    1    3    3    0    0  0.23944389613E+01  0.22647492915E+01 -0.16700825661E+02  0.17022925874E+02  0.51100000000E-03 0. -1.
        -11    1    3    3    0    0 -0.46820096866E+01  0.25420608510E+01 -0.76858713390E+01  0.93517862774E+01  0.51100000000E-03 0.  1.
        -12    1    3    3    0    0  0.64661757450E+01 -0.82403478809E+01 -0.18675734850E+02  0.21412562531E+02  0.00000000000E+00 0.  1.
</event>
<event>
 7    1  0.2886681E-010  0.4778726E+02  0.7816164E-02  0.1312668E+00
        -11   -1    0    0    0    0  0.00000000000E+00  0.00000000000E+00  0.45593999997E+02  0.45594000000E+02  0.51100000000E-03 0. -1.
         11   -1    0    0    0    0 -0.00000000000E+00 -0.00000000000E+00 -0.45593999997E+02  0.45594000000E+02  0.51100000000E-03 0.  1.
    9900012    2    1    2    0    0 -0.36746388979E+02 -0.80099772056E+01  0.21660272190E+02  0.47787260039E+02  0.19999949822E+02 0.  0.
        -12    1    1    2    0    0  0.36746388979E+02  0.80099772056E+01 -0.21660272190E+02  0.43400739961E+02  0.00000000000E+00 0.  1.
         11    1    3    3    0    0 -0.92824986634E+01  0.25663477082E+01  0.50060003454E+01  0.10854075811E+02  0.51100000000E-03 0. -1.
        -11    1    3    3    0    0 -0.21034170160E+02 -0.12438470344E+02  0.17679061106E+02  0.30161250980E+02  0.51100000000E-03 0.  1.
        -12    1    3    3    0    0 -0.64297201551E+01  0.18621454304E+01 -0.10247892619E+01  0.67719332475E+01  0.00000000000E+00 0.  1.
</event>
<event>
 7    1  0.2886681E-010  0.4778727E+02  0.7816164E-02  0.1312668E+00
        -11   -1    0    0    0    0  0.00000000000E+00  0.00000000000E+00  0.45593999997E+02  0.45594000000E+02  0.51100000000E-03 0.  1.
         11   -1    0    0    0    0 -0.00000000000E+00 -0.00000000000E+00 -0.45593999997E+02  0.45594000000E+02  0.51100000000E-03 0. -1.
    9900012    2    1    2    0    0  0.34783629439E+02 -0.12225378185E+01 -0.25927355435E+02  0.47787271486E+02  0.20000002014E+02 0.  0.
        -12    1    1    2    0    0 -0.34783629439E+02  0.12225378185E+01  0.25927355435E+02  0.43400728514E+02  0.00000000000E+00 0.  1.
         11    1    3    3    0    0  0.77405883870E+01  0.66754322956E+01 -0.97176713415E+01  0.14103589666E+02  0.51100000000E-03 0. -1.
        -11    1    3    3    0    0  0.16406510424E+01 -0.21442722249E+00 -0.42761426212E+01  0.45850966026E+01  0.51100000000E-03 0.  1.
         12    1    3    3    0    0  0.25402390010E+02 -0.76835428916E+01 -0.11933541472E+02  0.29098585217E+02  0.00000000000E+00 0. -1.
</event>
<event>
 7    1  0.2886681E-010  0.4778726E+02  0.7816164E-02  0.1312668E+00
        -11   -1    0    0    0    0  0.00000000000E+00  0.00000000000E+00  0.45593999997E+02  0.45594000000E+02  0.51100000000E-03 0.  1.
         11   -1    0    0    0    0 -0.00000000000E+00 -0.00000000000E+00 -0.45593999997E+02  0.45594000000E+02  0.51100000000E-03 0. -1.
    9900012    2    1    2    0    0  0.96968548982E+01  0.40406454129E+02 -0.12526511745E+02  0.47787262372E+02  0.19999960458E+02 0.  0.
        -12    1    1    2    0    0 -0.96968548982E+01 -0.40406454129E+02  0.12526511745E+02  0.43400737628E+02  0.00000000000E+00 0.  1.
         11    1    3    3    0    0  0.36373810052E+00  0.24120148919E+02 -0.81301503679E+01  0.25456104073E+02  0.51100000000E-03 0. -1.
        -11    1    3    3    0    0  0.69811188198E+01  0.73776730264E+01  0.29169781358E+01  0.10567631758E+02  0.51100000000E-03 0.  1.
        -12    1    3    3    0    0  0.23519979778E+01  0.89086321832E+01 -0.73133395128E+01  0.11763526542E+02  0.00000000000E+00 0.  1.
</event>
<event>
 7    1  0.2886681E-010  0.4778727E+02  0.7816164E-02  0.1312668E+00
        -11   -1    0    0    0    0  0.00000000000E+00  0.00000000000E+00  0.45593999997E+02  0.45594000000E+02  0.51100000000E-03 0.  1.
         11   -1    0    0    0    0 -0.00000000000E+00 -0.00000000000E+00 -0.45593999997E+02  0.45594000000E+02  0.51100000000E-03 0. -1.
    9900012    2    1    2    0    0 -0.38905564470E+02 -0.22996466993E+01 -0.19096908947E+02  0.47787271285E+02  0.20000001096E+02 0.  0.
        -12    1    1    2    0    0  0.38905564470E+02  0.22996466993E+01  0.19096908947E+02  0.43400728715E+02  0.00000000000E+00 0.  1.
         11    1    3    3    0    0 -0.13470745923E+02 -0.30913099554E+01 -0.10273479635E+02  0.17220963301E+02  0.51100000000E-03 0. -1.
        -11    1    3    3    0    0  0.16728530905E+01 -0.45829388716E-01  0.71142901547E+00  0.18184249504E+01  0.51100000000E-03 0.  1.
        -12    1    3    3    0    0 -0.27107671638E+02  0.83749264479E+00 -0.95348583278E+01  0.28747883033E+02  0.00000000000E+00 0.  1.
</event>
<event>
 7    1  0.2886681E-010  0.4778728E+02  0.7816164E-02  0.1312668E+00
        -11   -1    0    0    0    0  0.00000000000E+00  0.00000000000E+00  0.45593999997E+02  0.45594000000E+02  0.51100000000E-03 0. -1.
         11   -1    0    0    0    0 -0.00000000000E+00 -0.00000000000E+00 -0.45593999997E+02  0.45594000000E+02  0.51100000000E-03 0.  1.
    9900012    2    1    2    0    0  0.39300511166E+02  0.16287646568E+02 -0.85909948225E+01  0.47787276497E+02  0.20000024858E+02 0.  0.
        -12    1    1    2    0    0 -0.39300511166E+02 -0.16287646568E+02  0.85909948225E+01  0.43400723503E+02  0.00000000000E+00 0.  1.
         11    1    3    3    0    0  0.15313167978E+02  0.72560751491E+01 -0.46690203363E+01  0.17576788423E+02  0.51100000000E-03 0. -1.
        -11    1    3    3    0    0  0.24658236504E+02  0.43142155442E+01 -0.44188717467E+01  0.25419825158E+02  0.51100000000E-03 0.  1.
        -12    1    3    3    0    0 -0.67089331716E+00  0.47173558743E+01  0.49689726044E+00  0.47906629161E+01  0.00000000000E+00 0.  1.
</event>
<event>
 7    1  0.2886681E-010  0.4778727E+02  0.7816164E-02  0.1312668E+00
        -11   -1    0    0    0    0  0.00000000000E+00  0.00000000000E+00  0.45593999997E+02  0.45594000000E+02  0.51100000000E-03 0.  1.
         11   -1    0    0    0    0 -0.00000000000E+00 -0.00000000000E+00 -0.45593999997E+02  0.45594000000E+02  0.51100000000E-03 0. -1.
    9900012    2    1    2    0    0  0.34391873954E+01 -0.14011846543E+01 -0.43241554860E+02  0.47787269648E+02  0.19999993635E+02 0.  0.
        -12    1    1    2    0    0 -0.34391873954E+01  0.14011846543E+01  0.43241554860E+02  0.43400730352E+02  0.00000000000E+00 0.  1.
         11    1    3    3    0    0 -0.19437066561E+01 -0.14480535189E+01 -0.35706094986E+02  0.35788267267E+02  0.51100000000E-03 0. -1.
        -11    1    3    3    0    0  0.53074625154E+01  0.28088379117E+01 -0.69313488937E+01  0.91707320598E+01  0.51100000000E-03 0.  1.
         12    1    3    3    0    0  0.75431536151E-01 -0.27619690471E+01 -0.60411097958E+00  0.28282703211E+01  0.00000000000E+00 0. -1.
</event>
<event>
 7    1  0.2886681E-010  0.4778727E+02  0.7816164E-02  0.1312668E+00
        -11   -1    0    0    0    0  0.00000000000E+00  0.00000000000E+00  0.45593999997E+02  0.45594000000E+02  0.51100000000E-03 0.  1.
         11   -1    0    0    0    0 -0.00000000000E+00 -0.00000000000E+00 -0.45593999997E+02  0.45594000000E+02  0.51100000000E-03 0. -1.
    9900012    2    1    2    0    0 -0.12971285310E+02  0.40227727618E+02 -0.98538689641E+01  0.47787273675E+02  0.20000011996E+02 0.  0.
        -12    1    1    2    0    0  0.12971285310E+02 -0.40227727618E+02  0.98538689641E+01  0.43400726325E+02  0.00000000000E+00 0.  1.
         11    1    3    3    0    0 -0.38116313546E+01  0.68724401763E+01 -0.33004395373E+01  0.85236065701E+01  0.51100000000E-03 0. -1.
        -11    1    3    3    0    0 -0.14043557259E+02  0.27862911050E+02 -0.38776671245E+01  0.31442003996E+02  0.51100000000E-03 0.  1.
        -12    1    3    3    0    0  0.48839033030E+01  0.54923763919E+01 -0.26757623023E+01  0.78216631097E+01  0.00000000000E+00 0.  1.
</event>
<event>
 7    1  0.2886681E-010  0.4778728E+02  0.7816164E-02  0.1312668E+00
        -11   -1    0    0    0    0  0.00000000000E+00  0.00000000000E+00  0.45593999997E+02  0.45594000000E+02  0.51100000000E-03 0.  1.
         11   -1    0    0    0    0 -0.00000000000E+00 -0.00000000000E+00 -0.45593999997E+02  0.45594000000E+02  0.51100000000E-03 0. -1.
    9900012    2    1    2    0    0 -0.18781079997E+02 -0.37982144371E+02  0.93941397426E+01  0.47787284357E+02  0.20000060696E+02 0.  0.
        -12    1    1    2    0    0  0.18781079997E+02  0.37982144371E+02 -0.93941397426E+01  0.43400715643E+02  0.00000000000E+00 0.  1.
         11    1    3    3    0    0 -0.93468703697E+01 -0.16311310892E+02  0.11455228485E+02  0.22014656677E+02  0.51100000000E-03 0.  1.
        -11    1    3    3    0    0 -0.11148770897E+02 -0.20738171667E+02 -0.27449808220E+01  0.23704467439E+02  0.51100000000E-03 0. -1.
        -12    1    3    3    0    0  0.17145612699E+01 -0.93266181216E+00  0.68389207970E+00  0.20681602406E+01  0.00000000000E+00 0.  1.
</event>
<event>
 7    1  0.2886681E-010  0.4778727E+02  0.7816164E-02  0.1312668E+00
        -11   -1    0    0    0    0  0.00000000000E+00  0.00000000000E+00  0.45593999997E+02  0.45594000000E+02  0.51100000000E-03 0.  1.
         11   -1    0    0    0    0 -0.00000000000E+00 -0.00000000000E+00 -0.45593999997E+02  0.45594000000E+02  0.51100000000E-03 0. -1.
    9900012    2    1    2    0    0 -0.25251523825E+02  0.31624686480E+02 -0.15680024364E+02  0.47787269424E+02  0.19999992614E+02 0.  0.
        -12    1    1    2    0    0  0.25251523825E+02 -0.31624686480E+02  0.15680024364E+02  0.43400730576E+02  0.00000000000E+00 0.  1.
         11    1    3    3    0    0 -0.11106834989E+02  0.71469733106E+01 -0.96119792104E+01  0.16334967266E+02  0.51100000000E-03 0. -1.
        -11    1    3    3    0    0 -0.34177442243E+01  0.10128434382E+02  0.33628807169E+01  0.11206030768E+02  0.51100000000E-03 0.  1.
         12    1    3    3    0    0 -0.10726944612E+02  0.14349278788E+02 -0.94309258707E+01  0.20246271390E+02  0.00000000000E+00 0. -1.
</event>
<event>
 7    1  0.2886681E-010  0.4778727E+02  0.7816164E-02  0.1312668E+00
        -11   -1    0    0    0    0  0.00000000000E+00  0.00000000000E+00  0.45593999997E+02  0.45594000000E+02  0.51100000000E-03 0. -1.
         11   -1    0    0    0    0 -0.00000000000E+00 -0.00000000000E+00 -0.45593999997E+02  0.45594000000E+02  0.51100000000E-03 0.  1.
    9900012    2    1    2    0    0 -0.14082135383E+02 -0.39977282828E+02  0.93345232580E+01  0.47787274157E+02  0.20000014192E+02 0.  0.
        -12    1    1    2    0    0  0.14082135383E+02  0.39977282828E+02 -0.93345232580E+01  0.43400725843E+02  0.00000000000E+00 0.  1.
         11    1    3    3    0    0 -0.50652304146E+00  0.23210012555E+01  0.22528416622E-01  0.23757357198E+01  0.51100000000E-03 0. -1.
        -11    1    3    3    0    0 -0.60906760546E+01 -0.20933099875E+02  0.41652539417E+01  0.22195502829E+02  0.51100000000E-03 0.  1.
         12    1    3    3    0    0 -0.74849362874E+01 -0.21365184208E+02  0.51467408996E+01  0.23216035608E+02  0.00000000000E+00 0. -1.
</event>
<event>
 7    1  0.2886681E-010  0.4778727E+02  0.7816164E-02  0.1312668E+00
        -11   -1    0    0    0    0  0.00000000000E+00  0.00000000000E+00  0.45593999997E+02  0.45594000000E+02  0.51100000000E-03 0. -1.
         11   -1    0    0    0    0 -0.00000000000E+00 -0.00000000000E+00 -0.45593999997E+02  0.45594000000E+02  0.51100000000E-03 0.  1.
    9900012    2    1    2    0    0 -0.15162083049E+02  0.37704494684E+02  0.15235010477E+02  0.47787271596E+02  0.20000002514E+02 0.  0.
        -12    1    1    2    0    0  0.15162083049E+02 -0.37704494684E+02 -0.15235010477E+02  0.43400728404E+02  0.00000000000E+00 0.  1.
         11    1    3    3    0    0 -0.33765748003E+01  0.15564396337E+02  0.66684728957E+01  0.17266158280E+02  0.51100000000E-03 0. -1.
        -11    1    3    3    0    0 -0.51007356513E+01 -0.93448797156E+00  0.24277864364E+01  0.57258116626E+01  0.51100000000E-03 0.  1.
        -12    1    3    3    0    0 -0.66847725975E+01  0.23074586319E+02  0.61387511452E+01  0.24795301653E+02  0.00000000000E+00 0.  1.
</event>
<event>
 7    1  0.2886681E-010  0.4778727E+02  0.7816164E-02  0.1312668E+00
        -11   -1    0    0    0    0  0.00000000000E+00  0.00000000000E+00  0.45593999997E+02  0.45594000000E+02  0.51100000000E-03 0.  1.
         11   -1    0    0    0    0 -0.00000000000E+00 -0.00000000000E+00 -0.45593999997E+02  0.45594000000E+02  0.51100000000E-03 0. -1.
    9900012    2    1    2    0    0  0.26215023811E+02  0.32445826606E+02 -0.11985994813E+02  0.47787271789E+02  0.20000003397E+02 0.  0.
        -12    1    1    2    0    0 -0.26215023811E+02 -0.32445826606E+02  0.11985994813E+02  0.43400728211E+02  0.00000000000E+00 0.  1.
         11    1    3    3    0    0  0.70946996682E+01  0.72441574753E+01 -0.11960108426E+02  0.15679820622E+02  0.51100000000E-03 0. -1.
        -11    1    3    3    0    0  0.74328212133E+01  0.14340711775E+02 -0.47914316332E-01  0.16152558356E+02  0.51100000000E-03 0.  1.
         12    1    3    3    0    0  0.11687502930E+02  0.10860957356E+02  0.22027928818E-01  0.15954892812E+02  0.00000000000E+00 0. -1.
</event>
<event>
 7    1  0.2886681E-010  0.4778727E+02  0.7816164E-02  0.1312668E+00
        -11   -1    0    0    0    0  0.00000000000E+00  0.00000000000E+00  0.45593999997E+02  0.45594000000E+02  0.51100000000E-03 0.  1.
         11   -1    0    0    0    0 -0.00000000000E+00 -0.00000000000E+00 -0.45593999997E+02  0.45594000000E+02  0.51100000000E-03 0. -1.
    9900012    2    1    2    0    0  0.25392265316E+02 -0.33016151029E+02 -0.12197935343E+02  0.47787274277E+02  0.20000014741E+02 0.  0.
        -12    1    1    2    0    0 -0.25392265316E+02  0.33016151029E+02  0.12197935343E+02  0.43400725723E+02  0.00000000000E+00 0.  1.
         11    1    3    3    0    0  0.15298121505E+02 -0.31242313833E+02 -0.12698730730E+02  0.37032046360E+02  0.51100000000E-03 0. -1.
        -11    1    3    3    0    0  0.89855861611E+01 -0.88835566439E+00 -0.46101110819E+00  0.90411540164E+01  0.51100000000E-03 0.  1.
         12    1    3    3    0    0  0.11085576498E+01 -0.88548153108E+00  0.96180649447E+00  0.17140739008E+01  0.00000000000E+00 0. -1.
</event>
<event>
 7    1  0.2886681E-010  0.4778727E+02  0.7816164E-02  0.1312668E+00
        -11   -1    0    0    0    0  0.00000000000E+00  0.00000000000E+00  0.45593999997E+02  0.45594000000E+02  0.51100000000E-03 0.  1.
         11   -1    0    0    0    0 -0.00000000000E+00 -0.00000000000E+00 -0.45593999997E+02  0.45594000000E+02  0.51100000000E-03 0. -1.
    9900012    2    1    2    0    0 -0.10637732370E+02  0.25753377130E+02 -0.33274997572E+02  0.47787271354E+02  0.20000001412E+02 0.  0.
        -12    1    1    2    0    0  0.10637732370E+02 -0.25753377130E+02  0.33274997572E+02  0.43400728646E+02  0.00000000000E+00 0.  1.
         11    1    3    3    0    0 -0.45479674658E+01  0.23891132713E+02 -0.24942336149E+02  0.34836623878E+02  0.51100000000E-03 0. -1.
        -11    1    3    3    0    0 -0.59284155613E+01 -0.76017533709E+00 -0.23606826636E+01  0.64262586713E+01  0.51100000000E-03 0.  1.
        -12    1    3    3    0    0 -0.16134934299E+00  0.26224197539E+01 -0.59719787590E+01  0.65243888047E+01  0.00000000000E+00 0.  1.
</event>
<event>
 7    1  0.2886681E-010  0.4778727E+02  0.7816164E-02  0.1312668E+00
        -11   -1    0    0    0    0  0.00000000000E+00  0.00000000000E+00  0.45593999997E+02  0.45594000000E+02  0.51100000000E-03 0.  1.
         11   -1    0    0    0    0 -0.00000000000E+00 -0.00000000000E+00 -0.45593999997E+02  0.45594000000E+02  0.51100000000E-03 0. -1.
    9900012    2    1    2    0    0 -0.29150885612E+02  0.70520733505E+01 -0.31370645705E+02  0.47787270946E+02  0.19999999549E+02 0.  0.
        -12    1    1    2    0    0  0.29150885612E+02 -0.70520733505E+01  0.31370645705E+02  0.43400729054E+02  0.00000000000E+00 0.  1.
         11    1    3    3    0    0 -0.97443169980E+01 -0.21264987217E+01 -0.18243688765E+01  0.10139133722E+02  0.51100000000E-03 0. -1.
        -11    1    3    3    0    0 -0.27645499540E+01  0.40608056966E+00 -0.21531849823E+00  0.28024989196E+01  0.51100000000E-03 0.  1.
         12    1    3    3    0    0 -0.16642018660E+02  0.87724915026E+01 -0.29330958330E+02  0.34845638304E+02  0.00000000000E+00 0. -1.
</event>
<event>
 7    1  0.2886681E-010  0.4778727E+02  0.7816164E-02  0.1312668E+00
        -11   -1    0    0    0    0  0.00000000000E+00  0.00000000000E+00  0.45593999997E+02  0.45594000000E+02  0.51100000000E-03 0. -1.
         11   -1    0    0    0    0 -0.00000000000E+00 -0.00000000000E+00 -0.45593999997E+02  0.45594000000E+02  0.51100000000E-03 0.  1.
    9900012    2    1    2    0    0 -0.18755144863E+02 -0.13664210276E+02  0.36676385819E+02  0.47787269845E+02  0.19999994530E+02 0.  0.
        -12    1    1    2    0    0  0.18755144863E+02  0.13664210276E+02 -0.36676385819E+02  0.43400730155E+02  0.00000000000E+00 0.  1.
         11    1    3    3    0    0 -0.76131956284E+01 -0.11629293349E+02  0.98548552411E+01  0.17038761210E+02  0.51100000000E-03 0. -1.
        -11    1    3    3    0    0 -0.10223492553E+02  0.23737267927E+01  0.17752313348E+02  0.20622778870E+02  0.51100000000E-03 0.  1.
        -12    1    3    3    0    0 -0.91845668223E+00 -0.44086437194E+01  0.90692172290E+01  0.10125729765E+02  0.00000000000E+00 0.  1.
</event>
<event>
 7    1  0.2886681E-010  0.4778727E+02  0.7816164E-02  0.1312668E+00
        -11   -1    0    0    0    0  0.00000000000E+00  0.00000000000E+00  0.45593999997E+02  0.45594000000E+02  0.51100000000E-03 0. -1.
         11   -1    0    0    0    0 -0.00000000000E+00 -0.00000000000E+00 -0.45593999997E+02  0.45594000000E+02  0.51100000000E-03 0.  1.
    9900012    2    1    2    0    0 -0.27797678487E+02 -0.65398185661E+01  0.32682457545E+02  0.47787272041E+02  0.20000004545E+02 0.  0.
        -12    1    1    2    0    0  0.27797678487E+02  0.65398185661E+01 -0.32682457545E+02  0.43400727959E+02  0.00000000000E+00 0.  1.
         11    1    3    3    0    0 -0.13898666940E+02 -0.98331727038E+01  0.11770261730E+02  0.20697905440E+02  0.51100000000E-03 0. -1.
        -11    1    3    3    0    0 -0.76305800214E+01  0.44330785700E+01  0.54653571190E+01  0.10380176577E+02  0.51100000000E-03 0.  1.
         12    1    3    3    0    0 -0.62684315254E+01 -0.11397244323E+01  0.15446838696E+02  0.16709190025E+02  0.00000000000E+00 0. -1.
</event>
<event>
 7    1  0.2886681E-010  0.4778728E+02  0.7816164E-02  0.1312668E+00
        -11   -1    0    0    0    0  0.00000000000E+00  0.00000000000E+00  0.45593999997E+02  0.45594000000E+02  0.51100000000E-03 0.  1.
         11   -1    0    0    0    0 -0.00000000000E+00 -0.00000000000E+00 -0.45593999997E+02  0.45594000000E+02  0.51100000000E-03 0. -1.
    9900012    2    1    2    0    0  0.35201734672E+02 -0.21014679650E+02 -0.14242324865E+02  0.47787277630E+02  0.20000030025E+02 0.  0.
        -12    1    1    2    0    0 -0.35201734672E+02  0.21014679650E+02  0.14242324865E+02  0.43400722370E+02  0.00000000000E+00 0.  1.
         11    1    3    3    0    0  0.22398479837E+02 -0.63817341431E+01 -0.12500826398E+02  0.26432727642E+02  0.51100000000E-03 0. -1.
        -11    1    3    3    0    0  0.24542441824E+01 -0.92154482110E+01  0.49666505913E-01  0.95367849540E+01  0.51100000000E-03 0.  1.
        -12    1    3    3    0    0  0.10349010653E+02 -0.54174972958E+01 -0.17911649723E+01  0.11817765034E+02  0.00000000000E+00 0.  1.
</event>
<event>
 7    1  0.2886681E-010  0.4778727E+02  0.7816164E-02  0.1312668E+00
        -11   -1    0    0    0    0  0.00000000000E+00  0.00000000000E+00  0.45593999997E+02  0.45594000000E+02  0.51100000000E-03 0. -1.
         11   -1    0    0    0    0 -0.00000000000E+00 -0.00000000000E+00 -0.45593999997E+02  0.45594000000E+02  0.51100000000E-03 0.  1.
    9900012    2    1    2    0    0  0.85029749228E+01 -0.25418160581E+02  0.34135607187E+02  0.47787272496E+02  0.20000006618E+02 0.  0.
        -12    1    1    2    0    0 -0.85029749228E+01  0.25418160581E+02 -0.34135607187E+02  0.43400727504E+02  0.00000000000E+00 0.  1.
         11    1    3    3    0    0  0.21771778874E+01 -0.75110375741E+01  0.15494441780E+02  0.17356080068E+02  0.51100000000E-03 0. -1.
        -11    1    3    3    0    0 -0.20422709333E+01  0.14428179506E+01  0.35870023146E+00  0.25261156587E+01  0.51100000000E-03 0.  1.
        -12    1    3    3    0    0  0.83680679688E+01 -0.19349940958E+02  0.18282465175E+02  0.27905076769E+02  0.00000000000E+00 0.  1.
</event>
<event>
 7    1  0.2886681E-010  0.4778727E+02  0.7816164E-02  0.1312668E+00
        -11   -1    0    0    0    0  0.00000000000E+00  0.00000000000E+00  0.45593999997E+02  0.45594000000E+02  0.51100000000E-03 0.  1.
         11   -1    0    0    0    0 -0.00000000000E+00 -0.00000000000E+00 -0.45593999997E+02  0.45594000000E+02  0.51100000000E-03 0. -1.
    9900012    2    1    2    0    0 -0.21479637068E+02 -0.12583248791E+02 -0.35551515135E+02  0.47787272043E+02  0.20000004555E+02 0.  0.
        -12    1    1    2    0    0  0.21479637068E+02  0.12583248791E+02  0.35551515135E+02  0.43400727957E+02  0.00000000000E+00 0.  1.
         11    1    3    3    0    0 -0.24819000125E+01 -0.53301270716E+00 -0.34064325793E+01  0.42482600434E+01  0.51100000000E-03 0. -1.
        -11    1    3    3    0    0 -0.14581711072E+02 -0.17186763907E+02 -0.25785084328E+02  0.34247360854E+02  0.51100000000E-03 0.  1.
        -12    1    3    3    0    0 -0.44160259836E+01  0.51365278226E+01 -0.63599982277E+01  0.92916511459E+01  0.00000000000E+00 0.  1.
</event>
<event>
 7    1  0.2886681E-010  0.4778726E+02  0.7816164E-02  0.1312668E+00
        -11   -1    0    0    0    0  0.00000000000E+00  0.00000000000E+00  0.45593999997E+02  0.45594000000E+02  0.51100000000E-03 0.  1.
         11   -1    0    0    0    0 -0.00000000000E+00 -0.00000000000E+00 -0.45593999997E+02  0.45594000000E+02  0.51100000000E-03 0. -1.
    9900012    2    1    2    0    0  0.96799348680E+00 -0.38283627854E+02 -0.20421819531E+02  0.47787263992E+02  0.19999967846E+02 0.  0.
        -12    1    1    2    0    0 -0.96799348680E+00  0.38283627854E+02  0.20421819531E+02  0.43400736008E+02  0.00000000000E+00 0.  1.
         11    1    3    3    0    0  0.28866733595E+01 -0.10796068801E+02  0.62154708787E+00  0.11192600488E+02  0.51100000000E-03 0. -1.
        -11    1    3    3    0    0 -0.60698679768E+01 -0.19579400992E+02 -0.17616077518E+02  0.27028178404E+02  0.51100000000E-03 0.  1.
        -12    1    3    3    0    0  0.41511881041E+01 -0.79081580611E+01 -0.34272891009E+01  0.95664851004E+01  0.00000000000E+00 0.  1.
</event>
<event>
 7    1  0.2886681E-010  0.4778727E+02  0.7816164E-02  0.1312668E+00
        -11   -1    0    0    0    0  0.00000000000E+00  0.00000000000E+00  0.45593999997E+02  0.45594000000E+02  0.51100000000E-03 0.  1.
         11   -1    0    0    0    0 -0.00000000000E+00 -0.00000000000E+00 -0.45593999997E+02  0.45594000000E+02  0.51100000000E-03 0. -1.
    9900012    2    1    2    0    0  0.31847686953E+02 -0.25206198320E+02  0.15296911082E+02  0.47787273201E+02  0.20000009833E+02 0.  0.
        -12    1    1    2    0    0 -0.31847686953E+02  0.25206198320E+02 -0.15296911082E+02  0.43400726799E+02  0.00000000000E+00 0.  1.
         11    1    3    3    0    0  0.12035053686E+02 -0.16373735037E+02  0.50803080622E+01  0.20946389822E+02  0.51100000000E-03 0.  1.
        -11    1    3    3    0    0  0.38181145103E+01  0.29142201901E+01  0.77731878240E+00  0.48656862292E+01  0.51100000000E-03 0. -1.
        -12    1    3    3    0    0  0.15994518757E+02 -0.11746683473E+02  0.94392842371E+01  0.21975197150E+02  0.00000000000E+00 0.  1.
</event>
<event>
 7    1  0.2886681E-010  0.4778727E+02  0.7816164E-02  0.1312668E+00
        -11   -1    0    0    0    0  0.00000000000E+00  0.00000000000E+00  0.45593999997E+02  0.45594000000E+02  0.51100000000E-03 0. -1.
         11   -1    0    0    0    0 -0.00000000000E+00 -0.00000000000E+00 -0.45593999997E+02  0.45594000000E+02  0.51100000000E-03 0.  1.
    9900012    2    1    2    0    0 -0.29348905636E+02 -0.31739822911E+02 -0.38534077316E+01  0.47787269919E+02  0.19999994867E+02 0.  0.
        -12    1    1    2    0    0  0.29348905636E+02  0.31739822911E+02  0.38534077316E+01  0.43400730081E+02  0.00000000000E+00 0.  1.
         11    1    3    3    0    0 -0.21478715247E+02 -0.28880420309E+02 -0.45974018516E+01  0.36284293984E+02  0.51100000000E-03 0. -1.
        -11    1    3    3    0    0  0.21962000508E+00 -0.51518660726E+00 -0.24363742770E+01  0.24999140117E+01  0.51100000000E-03 0.  1.
         12    1    3    3    0    0 -0.80898103943E+01 -0.23442159944E+01  0.31803683970E+01  0.90030619228E+01  0.00000000000E+00 0. -1.
</event>
<event>
 7    1  0.2886681E-010  0.4778728E+02  0.7816164E-02  0.1312668E+00
        -11   -1    0    0    0    0  0.00000000000E+00  0.00000000000E+00  0.45593999997E+02  0.45594000000E+02  0.51100000000E-03 0. -1.
         11   -1    0    0    0    0 -0.00000000000E+00 -0.00000000000E+00 -0.45593999997E+02  0.45594000000E+02  0.51100000000E-03 0.  1.
    9900012    2    1    2    0    0 -0.24820749753E+02 -0.35224561460E+02  0.51752554088E+01  0.47787278613E+02  0.20000034509E+02 0.  0.
        -12    1    1    2    0    0  0.24820749753E+02  0.35224561460E+02 -0.51752554088E+01  0.43400721387E+02  0.00000000000E+00 0.  1.
         11    1    3    3    0    0 -0.17249614096E+02 -0.20238588760E+02  0.95741563593E+01  0.28263300085E+02  0.51100000000E-03 0. -1.
        -11    1    3    3    0    0 -0.67589586715E+01 -0.16158200029E+02 -0.45319279209E+01  0.18091692056E+02  0.51100000000E-03 0.  1.
        -12    1    3    3    0    0 -0.81217698548E+00  0.11722273284E+01  0.13302697036E+00  0.14322864728E+01  0.00000000000E+00 0.  1.
</event>
<event>
 7    1  0.2886681E-010  0.4778729E+02  0.7816164E-02  0.1312668E+00
        -11   -1    0    0    0    0  0.00000000000E+00  0.00000000000E+00  0.45593999997E+02  0.45594000000E+02  0.51100000000E-03 0.  1.
         11   -1    0    0    0    0 -0.00000000000E+00 -0.00000000000E+00 -0.45593999997E+02  0.45594000000E+02  0.51100000000E-03 0. -1.
    9900012    2    1    2    0    0 -0.34955203560E+02 -0.14809428399E+02  0.21034175029E+02  0.47787286359E+02  0.20000069824E+02 0.  0.
        -12    1    1    2    0    0  0.34955203560E+02  0.14809428399E+02 -0.21034175029E+02  0.43400713641E+02  0.00000000000E+00 0.  1.
         11    1    3    3    0    0 -0.13886355877E+02 -0.10052653597E+02  0.18039188169E+02  0.24885719478E+02  0.51100000000E-03 0.  1.
        -11    1    3    3    0    0 -0.15975856299E+02 -0.66006348532E+01  0.24298351166E+01  0.17455671397E+02  0.51100000000E-03 0. -1.
        -12    1    3    3    0    0 -0.50929913835E+01  0.18438600518E+01  0.56515174333E+00  0.54458954834E+01  0.00000000000E+00 0.  1.
</event>
<event>
 7    1  0.2886681E-010  0.4778727E+02  0.7816164E-02  0.1312668E+00
        -11   -1    0    0    0    0  0.00000000000E+00  0.00000000000E+00  0.45593999997E+02  0.45594000000E+02  0.51100000000E-03 0. -1.
         11   -1    0    0    0    0 -0.00000000000E+00 -0.00000000000E+00 -0.45593999997E+02  0.45594000000E+02  0.51100000000E-03 0.  1.
    9900012    2    1    2    0    0  0.32077895313E+02  0.28252536358E+02  0.75117276710E+01  0.47787271539E+02  0.20000002254E+02 0.  0.
        -12    1    1    2    0    0 -0.32077895313E+02 -0.28252536358E+02 -0.75117276710E+01  0.43400728461E+02  0.00000000000E+00 0.  1.
         11    1    3    3    0    0  0.18883116603E+02  0.13297713482E+02 -0.51277691394E+01  0.23657880148E+02  0.51100000000E-03 0. -1.
        -11    1    3    3    0    0  0.64093789140E+01  0.99562722066E+01  0.53788858686E+01  0.13005379955E+02  0.51100000000E-03 0.  1.
         12    1    3    3    0    0  0.67853997958E+01  0.49985506693E+01  0.72606109418E+01  0.11124011436E+02  0.00000000000E+00 0. -1.
</event>
<event>
 7    1  0.2886681E-010  0.4778727E+02  0.7816164E-02  0.1312668E+00
        -11   -1    0    0    0    0  0.00000000000E+00  0.00000000000E+00  0.45593999997E+02  0.45594000000E+02  0.51100000000E-03 0. -1.
         11   -1    0    0    0    0 -0.00000000000E+00 -0.00000000000E+00 -0.45593999997E+02  0.45594000000E+02  0.51100000000E-03 0.  1.
    9900012    2    1    2    0    0  0.12879837139E+02 -0.41367124245E+02 -0.25482997067E+01  0.47787274148E+02  0.20000014152E+02 0.  0.
        -12    1    1    2    0    0 -0.12879837139E+02  0.41367124245E+02  0.25482997067E+01  0.43400725852E+02  0.00000000000E+00 0.  1.
         11    1    3    3    0    0  0.96571290819E+01 -0.21414432839E+02  0.36934099760E+01  0.23779809786E+02  0.51100000000E-03 0. -1.
        -11    1    3    3    0    0 -0.14248183910E+01 -0.16304683938E+02 -0.74406853943E+01  0.17978782638E+02  0.51100000000E-03 0.  1.
        -12    1    3    3    0    0  0.46475264480E+01 -0.36480074684E+01  0.11989757116E+01  0.60286817242E+01  0.00000000000E+00 0.  1.
</event>
<event>
 7    1  0.2886681E-010  0.4778727E+02  0.7816164E-02  0.1312668E+00
        -11   -1    0    0    0    0  0.00000000000E+00  0.00000000000E+00  0.45593999997E+02  0.45594000000E+02  0.51100000000E-03 0. -1.
         11   -1    0    0    0    0 -0.00000000000E+00 -0.00000000000E+00 -0.45593999997E+02  0.45594000000E+02  0.51100000000E-03 0.  1.
    9900012    2    1    2    0    0  0.17619379205E+02 -0.21871469638E+02  0.33088057273E+02  0.47787271414E+02  0.20000001684E+02 0.  0.
        -12    1    1    2    0    0 -0.17619379205E+02  0.21871469638E+02 -0.33088057273E+02  0.43400728586E+02  0.00000000000E+00 0.  1.
         11    1    3    3    0    0  0.71796260127E+01  0.36107372931E+00  0.59102526553E+01  0.93063682836E+01  0.51100000000E-03 0. -1.
        -11    1    3    3    0    0 -0.15426375924E+01 -0.92990032621E+01  0.11659809830E+02  0.14993410484E+02  0.51100000000E-03 0.  1.
        -12    1    3    3    0    0  0.11982390785E+02 -0.12933540105E+02  0.15517994789E+02  0.23487492647E+02  0.00000000000E+00 0.  1.
</event>
<event>
 7    1  0.2886681E-010  0.4778727E+02  0.7816164E-02  0.1312668E+00
        -11   -1    0    0    0    0  0.00000000000E+00  0.00000000000E+00  0.45593999997E+02  0.45594000000E+02  0.51100000000E-03 0. -1.
         11   -1    0    0    0    0 -0.00000000000E+00 -0.00000000000E+00 -0.45593999997E+02  0.45594000000E+02  0.51100000000E-03 0.  1.
    9900012    2    1    2    0    0 -0.12471814949E+02 -0.24117151347E+02  0.33859116689E+02  0.47787274888E+02  0.20000017526E+02 0.  0.
        -12    1    1    2    0    0  0.12471814949E+02  0.24117151347E+02 -0.33859116689E+02  0.43400725112E+02  0.00000000000E+00 0.  1.
         11    1    3    3    0    0 -0.84424356231E+01 -0.15136905663E+02  0.23810881445E+02  0.29450954275E+02  0.51100000000E-03 0. -1.
        -11    1    3    3    0    0  0.36675914170E+01 -0.24455495715E+01  0.49421646024E+00  0.44357851254E+01  0.51100000000E-03 0.  1.
        -12    1    3    3    0    0 -0.76969707432E+01 -0.65346961134E+01  0.95540187839E+01  0.13900535487E+02  0.00000000000E+00 0.  1.
</event>
<event>
 7    1  0.2886681E-010  0.4778726E+02  0.7816164E-02  0.1312668E+00
        -11   -1    0    0    0    0  0.00000000000E+00  0.00000000000E+00  0.45593999997E+02  0.45594000000E+02  0.51100000000E-03 0.  1.
         11   -1    0    0    0    0 -0.00000000000E+00 -0.00000000000E+00 -0.45593999997E+02  0.45594000000E+02  0.51100000000E-03 0. -1.
    9900012    2    1    2    0    0 -0.26165134180E+02 -0.91299315228E+01 -0.33401416243E+02  0.47787256881E+02  0.19999935421E+02 0.  0.
        -12    1    1    2    0    0  0.26165134180E+02  0.91299315228E+01  0.33401416243E+02  0.43400743119E+02  0.00000000000E+00 0.  1.
         11    1    3    3    0    0 -0.12661926261E+02  0.27647417086E+01 -0.14623785756E+02  0.19540298960E+02  0.51100000000E-03 0. -1.
        -11    1    3    3    0    0  0.11536320703E+00 -0.63943537999E+01 -0.62560840442E+01  0.89464885300E+01  0.51100000000E-03 0.  1.
        -12    1    3    3    0    0 -0.13618571127E+02 -0.55003194315E+01 -0.12521546443E+02  0.19300469391E+02  0.00000000000E+00 0.  1.
</event>
<event>
 7    1  0.2886681E-010  0.4778727E+02  0.7816164E-02  0.1312668E+00
        -11   -1    0    0    0    0  0.00000000000E+00  0.00000000000E+00  0.45593999997E+02  0.45594000000E+02  0.51100000000E-03 0.  1.
         11   -1    0    0    0    0 -0.00000000000E+00 -0.00000000000E+00 -0.45593999997E+02  0.45594000000E+02  0.51100000000E-03 0. -1.
    9900012    2    1    2    0    0 -0.40755462014E+02 -0.14373232835E+02  0.40032247771E+01  0.47787270574E+02  0.19999997854E+02 0.  0.
        -12    1    1    2    0    0  0.40755462014E+02  0.14373232835E+02 -0.40032247771E+01  0.43400729426E+02  0.00000000000E+00 0.  1.
         11    1    3    3    0    0 -0.24777890100E+02  0.49120731478E+00  0.46404467474E+01  0.25213466019E+02  0.51100000000E-03 0.  1.
        -11    1    3    3    0    0 -0.10867047747E+02 -0.12510942357E+02  0.13019097445E+01  0.16622616360E+02  0.51100000000E-03 0. -1.
        -12    1    3    3    0    0 -0.51105241669E+01 -0.23534977922E+01 -0.19391317147E+01  0.59511881944E+01  0.00000000000E+00 0.  1.
</event>
<event>
 7    1  0.2886681E-010  0.4778726E+02  0.7816164E-02  0.1312668E+00
        -11   -1    0    0    0    0  0.00000000000E+00  0.00000000000E+00  0.45593999997E+02  0.45594000000E+02  0.51100000000E-03 0.  1.
         11   -1    0    0    0    0 -0.00000000000E+00 -0.00000000000E+00 -0.45593999997E+02  0.45594000000E+02  0.51100000000E-03 0. -1.
    9900012    2    1    2    0    0 -0.33142284828E+02 -0.23591375637E+02 -0.15121499675E+02  0.47787264978E+02  0.19999972339E+02 0.  0.
        -12    1    1    2    0    0  0.33142284828E+02  0.23591375637E+02  0.15121499675E+02  0.43400735022E+02  0.00000000000E+00 0.  1.
         11    1    3    3    0    0 -0.12982116176E+02 -0.15266567439E+02 -0.89043798707E+00  0.20059818091E+02  0.51100000000E-03 0. -1.
        -11    1    3    3    0    0 -0.20645485099E+02 -0.83309345008E+01 -0.11699787113E+02  0.25150060505E+02  0.51100000000E-03 0.  1.
        -12    1    3    3    0    0  0.48531644757E+00  0.61263026220E-02 -0.25312745753E+01  0.25773863818E+01  0.00000000000E+00 0.  1.
</event>
<event>
 7    1  0.2886681E-010  0.4778727E+02  0.7816164E-02  0.1312668E+00
        -11   -1    0    0    0    0  0.00000000000E+00  0.00000000000E+00  0.45593999997E+02  0.45594000000E+02  0.51100000000E-03 0.  1.
         11   -1    0    0    0    0 -0.00000000000E+00 -0.00000000000E+00 -0.45593999997E+02  0.45594000000E+02  0.51100000000E-03 0. -1.
    9900012    2    1    2    0    0  0.13673610907E+00 -0.23534225624E+02 -0.36465665918E+02  0.47787271166E+02  0.20000000553E+02 0.  0.
        -12    1    1    2    0    0 -0.13673610907E+00  0.23534225624E+02  0.36465665918E+02  0.43400728834E+02  0.00000000000E+00 0.  1.
         11    1    3    3    0    0  0.18444662804E+00 -0.19552316235E+00  0.19272248446E+01  0.19458791660E+01  0.51100000000E-03 0. -1.
        -11    1    3    3    0    0  0.20247879653E+01 -0.16521571933E+01 -0.15468116564E+01  0.30367772815E+01  0.51100000000E-03 0.  1.
         12    1    3    3    0    0 -0.20724984843E+01 -0.21686545269E+02 -0.36846079106E+02  0.42804614718E+02  0.00000000000E+00 0. -1.
</event>
<event>
 7    1  0.2886681E-010  0.4778728E+02  0.7816164E-02  0.1312668E+00
        -11   -1    0    0    0    0  0.00000000000E+00  0.00000000000E+00  0.45593999997E+02  0.45594000000E+02  0.51100000000E-03 0.  1.
         11   -1    0    0    0    0 -0.00000000000E+00 -0.00000000000E+00 -0.45593999997E+02  0.45594000000E+02  0.51100000000E-03 0. -1.
    9900012    2    1    2    0    0  0.14596339540E+02  0.52021472700E+01 -0.40540190742E+02  0.47787279619E+02  0.20000039095E+02 0.  0.
        -12    1    1    2    0    0 -0.14596339540E+02 -0.52021472700E+01  0.40540190742E+02  0.43400720381E+02  0.00000000000E+00 0.  1.
         11    1    3    3    0    0  0.45737817884E+01  0.12852698380E+01 -0.66246385719E+01  0.81521306953E+01  0.51100000000E-03 0. -1.
        -11    1    3    3    0    0  0.13853997783E+02 -0.81958382766E+00 -0.19045779099E+02  0.23565794576E+02  0.51100000000E-03 0.  1.
        -12    1    3    3    0    0 -0.38314400315E+01  0.47364612596E+01 -0.14869773071E+02  0.16069354348E+02  0.00000000000E+00 0.  1.
</event>
<event>
 7    1  0.2886681E-010  0.4778727E+02  0.7816164E-02  0.1312668E+00
        -11   -1    0    0    0    0  0.00000000000E+00  0.00000000000E+00  0.45593999997E+02  0.45594000000E+02  0.51100000000E-03 0.  1.
         11   -1    0    0    0    0 -0.00000000000E+00 -0.00000000000E+00 -0.45593999997E+02  0.45594000000E+02  0.51100000000E-03 0. -1.
    9900012    2    1    2    0    0  0.18305524109E+02  0.31484373705E+02 -0.23606463052E+02  0.47787273067E+02  0.20000009222E+02 0.  0.
        -12    1    1    2    0    0 -0.18305524109E+02 -0.31484373705E+02  0.23606463052E+02  0.43400726933E+02  0.00000000000E+00 0.  1.
         11    1    3    3    0    0  0.11900833046E+02  0.10334931304E+02 -0.97718783814E+01  0.18545356282E+02  0.51100000000E-03 0. -1.
        -11    1    3    3    0    0 -0.52783728190E-01  0.14464793584E+02 -0.26602157740E+01  0.14707473875E+02  0.51100000000E-03 0.  1.
        -12    1    3    3    0    0  0.64574747905E+01  0.66846488163E+01 -0.11174368897E+02  0.14534442910E+02  0.00000000000E+00 0.  1.
</event>
<event>
 7    1  0.2886681E-010  0.4778727E+02  0.7816164E-02  0.1312668E+00
        -11   -1    0    0    0    0  0.00000000000E+00  0.00000000000E+00  0.45593999997E+02  0.45594000000E+02  0.51100000000E-03 0.  1.
         11   -1    0    0    0    0 -0.00000000000E+00 -0.00000000000E+00 -0.45593999997E+02  0.45594000000E+02  0.51100000000E-03 0. -1.
    9900012    2    1    2    0    0 -0.29576500263E+02  0.24936077914E+02 -0.19673487028E+02  0.47787269114E+02  0.19999991200E+02 0.  0.
        -12    1    1    2    0    0  0.29576500263E+02 -0.24936077914E+02  0.19673487028E+02  0.43400730886E+02  0.00000000000E+00 0.  1.
         11    1    3    3    0    0 -0.93405312942E+01  0.11060799097E+02 -0.10929526092E+02  0.18139496751E+02  0.51100000000E-03 0. -1.
        -11    1    3    3    0    0 -0.13270056414E+02  0.14572509572E+02 -0.18063761387E+01  0.19791802027E+02  0.51100000000E-03 0.  1.
        -12    1    3    3    0    0 -0.69659125552E+01 -0.69723075496E+00 -0.69375847971E+01  0.98559703363E+01  0.00000000000E+00 0.  1.
</event>
<event>
 7    1  0.2886681E-010  0.4778726E+02  0.7816164E-02  0.1312668E+00
        -11   -1    0    0    0    0  0.00000000000E+00  0.00000000000E+00  0.45593999997E+02  0.45594000000E+02  0.51100000000E-03 0.  1.
         11   -1    0    0    0    0 -0.00000000000E+00 -0.00000000000E+00 -0.45593999997E+02  0.45594000000E+02  0.51100000000E-03 0. -1.
    9900012    2    1    2    0    0 -0.16965618123E+02  0.21549883970E+02 -0.33636212938E+02  0.47787256709E+02  0.19999934639E+02 0.  0.
        -12    1    1    2    0    0  0.16965618123E+02 -0.21549883970E+02  0.33636212938E+02  0.43400743291E+02  0.00000000000E+00 0.  1.
         11    1    3    3    0    0 -0.42653831520E+01  0.30262081120E+01 -0.73329017443E+01  0.90068239254E+01  0.51100000000E-03 0. -1.
        -11    1    3    3    0    0  0.11890571249E+00  0.11675977560E+02 -0.19510945716E+02  0.22738064859E+02  0.51100000000E-03 0.  1.
        -12    1    3    3    0    0 -0.12819140683E+02  0.68476982985E+01 -0.67923654775E+01  0.16042367925E+02  0.00000000000E+00 0.  1.
</event>
<event>
 7    1  0.2886681E-010  0.4778727E+02  0.7816164E-02  0.1312668E+00
        -11   -1    0    0    0    0  0.00000000000E+00  0.00000000000E+00  0.45593999997E+02  0.45594000000E+02  0.51100000000E-03 0.  1.
         11   -1    0    0    0    0 -0.00000000000E+00 -0.00000000000E+00 -0.45593999997E+02  0.45594000000E+02  0.51100000000E-03 0. -1.
    9900012    2    1    2    0    0  0.62379197725E+01 -0.34290108699E+02 -0.25863105141E+02  0.47787269531E+02  0.19999993100E+02 0.  0.
        -12    1    1    2    0    0 -0.62379197725E+01  0.34290108699E+02  0.25863105141E+02  0.43400730469E+02  0.00000000000E+00 0.  1.
         11    1    3    3    0    0  0.18701215037E+01 -0.30757596101E+01  0.23239290647E+01  0.42846584667E+01  0.51100000000E-03 0. -1.
        -11    1    3    3    0    0  0.56076084164E+01 -0.18715962062E+02 -0.22248814569E+02  0.29609833806E+02  0.51100000000E-03 0.  1.
         12    1    3    3    0    0 -0.12398101476E+01 -0.12498387027E+02 -0.59382196372E+01  0.13892777258E+02  0.00000000000E+00 0. -1.
</event>
<event>
 7    1  0.2886681E-010  0.4778727E+02  0.7816164E-02  0.1312668E+00
        -11   -1    0    0    0    0  0.00000000000E+00  0.00000000000E+00  0.45593999997E+02  0.45594000000E+02  0.51100000000E-03 0.  1.
         11   -1    0    0    0    0 -0.00000000000E+00 -0.00000000000E+00 -0.45593999997E+02  0.45594000000E+02  0.51100000000E-03 0. -1.
    9900012    2    1    2    0    0 -0.40063485117E+02  0.14992725930E+02  0.73320096641E+01  0.47787273782E+02  0.20000012482E+02 0.  0.
        -12    1    1    2    0    0  0.40063485117E+02 -0.14992725930E+02 -0.73320096641E+01  0.43400726218E+02  0.00000000000E+00 0.  1.
         11    1    3    3    0    0 -0.86457165320E+01  0.34237740372E+01  0.93547954107E+01  0.13190255511E+02  0.51100000000E-03 0. -1.
        -11    1    3    3    0    0 -0.21780442186E+02  0.11922367742E+02 -0.50990319708E+00  0.24835267583E+02  0.51100000000E-03 0.  1.
         12    1    3    3    0    0 -0.96373263993E+01 -0.35341584957E+00 -0.15128825495E+01  0.97617506882E+01  0.00000000000E+00 0. -1.
</event>
<event>
 7    1  0.2886681E-010  0.4778727E+02  0.7816164E-02  0.1312668E+00
        -11   -1    0    0    0    0  0.00000000000E+00  0.00000000000E+00  0.45593999997E+02  0.45594000000E+02  0.51100000000E-03 0.  1.
         11   -1    0    0    0    0 -0.00000000000E+00 -0.00000000000E+00 -0.45593999997E+02  0.45594000000E+02  0.51100000000E-03 0. -1.
    9900012    2    1    2    0    0  0.95834942766E+01  0.29359555121E+00 -0.42328406531E+02  0.47787267744E+02  0.19999984953E+02 0.  0.
        -12    1    1    2    0    0 -0.95834942766E+01 -0.29359555121E+00  0.42328406531E+02  0.43400732256E+02  0.00000000000E+00 0.  1.
         11    1    3    3    0    0  0.10295620988E+02 -0.58062175683E+01 -0.16983792130E+02  0.20692055706E+02  0.51100000000E-03 0. -1.
        -11    1    3    3    0    0 -0.33026733917E+01  0.14004640884E+01 -0.15213593860E+02  0.15630815385E+02  0.51100000000E-03 0.  1.
         12    1    3    3    0    0  0.25905466804E+01  0.46993490311E+01 -0.10131020541E+02  0.11464396653E+02  0.00000000000E+00 0. -1.
</event>
<event>
 7    1  0.2886681E-010  0.4778728E+02  0.7816164E-02  0.1312668E+00
        -11   -1    0    0    0    0  0.00000000000E+00  0.00000000000E+00  0.45593999997E+02  0.45594000000E+02  0.51100000000E-03 0.  1.
         11   -1    0    0    0    0 -0.00000000000E+00 -0.00000000000E+00 -0.45593999997E+02  0.45594000000E+02  0.51100000000E-03 0. -1.
    9900012    2    1    2    0    0  0.11515267117E+02 -0.29337124300E+01 -0.41742239903E+02  0.47787278376E+02  0.20000033425E+02 0.  0.
        -12    1    1    2    0    0 -0.11515267117E+02  0.29337124300E+01  0.41742239903E+02  0.43400721624E+02  0.00000000000E+00 0.  1.
         11    1    3    3    0    0  0.38755215210E+01  0.20686791341E+01 -0.33673904227E+01  0.55351981843E+01  0.51100000000E-03 0.  1.
        -11    1    3    3    0    0  0.81181336698E+00 -0.28239177163E+01 -0.33396859592E+02  0.33525867372E+02  0.51100000000E-03 0. -1.
        -12    1    3    3    0    0  0.68279322292E+01 -0.21784738478E+01 -0.49779898888E+01  0.87262128192E+01  0.00000000000E+00 0.  1.
</event>
<event>
 7    1  0.2886681E-010  0.4778726E+02  0.7816164E-02  0.1312668E+00
        -11   -1    0    0    0    0  0.00000000000E+00  0.00000000000E+00  0.45593999997E+02  0.45594000000E+02  0.51100000000E-03 0.  1.
         11   -1    0    0    0    0 -0.00000000000E+00 -0.00000000000E+00 -0.45593999997E+02  0.45594000000E+02  0.51100000000E-03 0. -1.
    9900012    2    1    2    0    0 -0.10772849194E+02  0.15216251590E+02 -0.39192289735E+02  0.47787260757E+02  0.19999953094E+02 0.  0.
        -12    1    1    2    0    0  0.10772849194E+02 -0.15216251590E+02  0.39192289735E+02  0.43400739243E+02  0.00000000000E+00 0.  1.
         11    1    3    3    0    0 -0.58536252775E+01  0.78996520933E+01 -0.32849464894E+02  0.34289309940E+02  0.51100000000E-03 0. -1.
        -11    1    3    3    0    0 -0.17303135905E+01  0.94270352439E+00  0.18054508087E+01  0.26725134126E+01  0.51100000000E-03 0.  1.
        -12    1    3    3    0    0 -0.31889103264E+01  0.63738959719E+01 -0.81482756498E+01  0.10825437404E+02  0.00000000000E+00 0.  1.
</event>
<event>
 7    1  0.2886681E-010  0.4778728E+02  0.7816164E-02  0.1312668E+00
        -11   -1    0    0    0    0  0.00000000000E+00  0.00000000000E+00  0.45593999997E+02  0.45594000000E+02  0.51100000000E-03 0.  1.
         11   -1    0    0    0    0 -0.00000000000E+00 -0.00000000000E+00 -0.45593999997E+02  0.45594000000E+02  0.51100000000E-03 0. -1.
    9900012    2    1    2    0    0 -0.14904649438E+02 -0.28796513888E+02 -0.28848484653E+02  0.47787275884E+02  0.20000022068E+02 0.  0.
        -12    1    1    2    0    0  0.14904649438E+02  0.28796513888E+02  0.28848484653E+02  0.43400724116E+02  0.00000000000E+00 0.  1.
         11    1    3    3    0    0 -0.54583826762E+01 -0.12710086939E+02 -0.10551697312E+02  0.17397659838E+02  0.51100000000E-03 0. -1.
        -11    1    3    3    0    0  0.20711984837E+01 -0.95181014661E+01 -0.31007738530E+01  0.10222471200E+02  0.51100000000E-03 0.  1.
        -12    1    3    3    0    0 -0.11517465245E+02 -0.65683254837E+01 -0.15196013488E+02  0.20167144847E+02  0.00000000000E+00 0.  1.
</event>
<event>
 7    1  0.2886681E-010  0.4778727E+02  0.7816164E-02  0.1312668E+00
        -11   -1    0    0    0    0  0.00000000000E+00  0.00000000000E+00  0.45593999997E+02  0.45594000000E+02  0.51100000000E-03 0. -1.
         11   -1    0    0    0    0 -0.00000000000E+00 -0.00000000000E+00 -0.45593999997E+02  0.45594000000E+02  0.51100000000E-03 0.  1.
    9900012    2    1    2    0    0 -0.20351552426E+02  0.18709703217E+02  0.33457204341E+02  0.47787271862E+02  0.20000003726E+02 0.  0.
        -12    1    1    2    0    0  0.20351552426E+02 -0.18709703217E+02 -0.33457204341E+02  0.43400728138E+02  0.00000000000E+00 0.  1.
         11    1    3    3    0    0 -0.20511582954E+01 -0.12890451839E+01  0.11390007843E+02  0.11644791400E+02  0.51100000000E-03 0. -1.
        -11    1    3    3    0    0 -0.73000434423E+01  0.38694389573E+01  0.28287352922E+01  0.87329797732E+01  0.51100000000E-03 0.  1.
         12    1    3    3    0    0 -0.11000350688E+02  0.16129309444E+02  0.19238461206E+02  0.27409500688E+02  0.00000000000E+00 0. -1.
</event>
<event>
 7    1  0.2886681E-010  0.4778727E+02  0.7816164E-02  0.1312668E+00
        -11   -1    0    0    0    0  0.00000000000E+00  0.00000000000E+00  0.45593999997E+02  0.45594000000E+02  0.51100000000E-03 0. -1.
         11   -1    0    0    0    0 -0.00000000000E+00 -0.00000000000E+00 -0.45593999997E+02  0.45594000000E+02  0.51100000000E-03 0.  1.
    9900012    2    1    2    0    0 -0.60169733724E+01  0.33703745929E+02  0.26673521898E+02  0.47787271565E+02  0.20000002375E+02 0.  0.
        -12    1    1    2    0    0  0.60169733724E+01 -0.33703745929E+02 -0.26673521898E+02  0.43400728435E+02  0.00000000000E+00 0.  1.
         11    1    3    3    0    0  0.49666233678E+01  0.34128679821E+01  0.27437685079E+01  0.66214259361E+01  0.51100000000E-03 0. -1.
        -11    1    3    3    0    0 -0.10897730204E+02  0.19202991499E+02  0.13137460373E+02  0.25692572301E+02  0.51100000000E-03 0.  1.
         12    1    3    3    0    0 -0.85866536444E-01  0.11087886448E+02  0.10792293017E+02  0.15473273329E+02  0.00000000000E+00 0. -1.
</event>
<event>
 7    1  0.2886681E-010  0.4778727E+02  0.7816164E-02  0.1312668E+00
        -11   -1    0    0    0    0  0.00000000000E+00  0.00000000000E+00  0.45593999997E+02  0.45594000000E+02  0.51100000000E-03 0.  1.
         11   -1    0    0    0    0 -0.00000000000E+00 -0.00000000000E+00 -0.45593999997E+02  0.45594000000E+02  0.51100000000E-03 0. -1.
    9900012    2    1    2    0    0  0.29305561503E+02 -0.11534853091E+01 -0.31991826302E+02  0.47787269436E+02  0.19999992667E+02 0.  0.
        -12    1    1    2    0    0 -0.29305561503E+02  0.11534853091E+01  0.31991826302E+02  0.43400730564E+02  0.00000000000E+00 0.  1.
         11    1    3    3    0    0  0.23860325211E+02 -0.16183812409E+01 -0.26901290503E+02  0.35994634434E+02  0.51100000000E-03 0. -1.
        -11    1    3    3    0    0  0.27193033556E+00  0.42216169135E+01 -0.17373594716E+01  0.45732279264E+01  0.51100000000E-03 0.  1.
         12    1    3    3    0    0  0.51733059561E+01 -0.37567209818E+01 -0.33531763272E+01  0.72194070761E+01  0.00000000000E+00 0. -1.
</event>
<event>
 7    1  0.2886681E-010  0.4778727E+02  0.7816164E-02  0.1312668E+00
        -11   -1    0    0    0    0  0.00000000000E+00  0.00000000000E+00  0.45593999997E+02  0.45594000000E+02  0.51100000000E-03 0. -1.
         11   -1    0    0    0    0 -0.00000000000E+00 -0.00000000000E+00 -0.45593999997E+02  0.45594000000E+02  0.51100000000E-03 0.  1.
    9900012    2    1    2    0    0  0.98213302711E+01  0.16602740425E+01  0.42242256395E+02  0.47787271164E+02  0.20000000545E+02 0.  0.
        -12    1    1    2    0    0 -0.98213302711E+01 -0.16602740425E+01 -0.42242256395E+02  0.43400728836E+02  0.00000000000E+00 0.  1.
         11    1    3    3    0    0  0.45944419607E+01  0.99281848126E+01  0.21294461420E+02  0.23940172055E+02  0.51100000000E-03 0. -1.
        -11    1    3    3    0    0  0.17861484053E+01 -0.41878278431E+01  0.39380574541E+01  0.60196781427E+01  0.51100000000E-03 0.  1.
         12    1    3    3    0    0  0.34407399051E+01 -0.40800829271E+01  0.17009737521E+02  0.17827420966E+02  0.00000000000E+00 0. -1.
</event>
<event>
 7    1  0.2886681E-010  0.4778727E+02  0.7816164E-02  0.1312668E+00
        -11   -1    0    0    0    0  0.00000000000E+00  0.00000000000E+00  0.45593999997E+02  0.45594000000E+02  0.51100000000E-03 0. -1.
         11   -1    0    0    0    0 -0.00000000000E+00 -0.00000000000E+00 -0.45593999997E+02  0.45594000000E+02  0.51100000000E-03 0.  1.
    9900012    2    1    2    0    0 -0.21363819865E+02 -0.21768571713E+02  0.30876201815E+02  0.47787270142E+02  0.19999995888E+02 0.  0.
        -12    1    1    2    0    0  0.21363819865E+02  0.21768571713E+02 -0.30876201815E+02  0.43400729858E+02  0.00000000000E+00 0.  1.
         11    1    3    3    0    0 -0.14133754990E+02 -0.16792680829E+02  0.17433005947E+02  0.28029749484E+02  0.51100000000E-03 0. -1.
        -11    1    3    3    0    0 -0.66371328670E+01  0.83419932932E+00  0.21206040261E+01  0.70174342114E+01  0.51100000000E-03 0.  1.
         12    1    3    3    0    0 -0.59293200792E+00 -0.58100902132E+01  0.11322591842E+02  0.12740086447E+02  0.00000000000E+00 0. -1.
</event>
<event>
 7    1  0.2886681E-010  0.4778728E+02  0.7816164E-02  0.1312668E+00
        -11   -1    0    0    0    0  0.00000000000E+00  0.00000000000E+00  0.45593999997E+02  0.45594000000E+02  0.51100000000E-03 0.  1.
         11   -1    0    0    0    0 -0.00000000000E+00 -0.00000000000E+00 -0.45593999997E+02  0.45594000000E+02  0.51100000000E-03 0. -1.
    9900012    2    1    2    0    0 -0.23323068954E+02  0.33096957687E+01 -0.36451379450E+02  0.47787277709E+02  0.20000030389E+02 0.  0.
        -12    1    1    2    0    0  0.23323068954E+02 -0.33096957687E+01  0.36451379450E+02  0.43400722291E+02  0.00000000000E+00 0.  1.
         11    1    3    3    0    0 -0.12596335701E+02  0.97981658892E+01 -0.18088240838E+02  0.24121695312E+02  0.51100000000E-03 0. -1.
        -11    1    3    3    0    0 -0.55137240347E+01 -0.33207478002E+01 -0.15778102275E+02  0.17040452763E+02  0.51100000000E-03 0.  1.
         12    1    3    3    0    0 -0.52130092182E+01 -0.31677223204E+01 -0.25850363374E+01  0.66251296345E+01  0.00000000000E+00 0. -1.
</event>
<event>
 7    1  0.2886681E-010  0.4778727E+02  0.7816164E-02  0.1312668E+00
        -11   -1    0    0    0    0  0.00000000000E+00  0.00000000000E+00  0.45593999997E+02  0.45594000000E+02  0.51100000000E-03 0.  1.
         11   -1    0    0    0    0 -0.00000000000E+00 -0.00000000000E+00 -0.45593999997E+02  0.45594000000E+02  0.51100000000E-03 0. -1.
    9900012    2    1    2    0    0 -0.13737502952E+01  0.22503243770E+02 -0.37085580244E+02  0.47787269222E+02  0.19999991689E+02 0.  0.
        -12    1    1    2    0    0  0.13737502952E+01 -0.22503243770E+02  0.37085580244E+02  0.43400730778E+02  0.00000000000E+00 0.  1.
         11    1    3    3    0    0  0.10794817391E+01  0.65691661791E+00 -0.55546056061E+01  0.56965308713E+01  0.51100000000E-03 0. -1.
        -11    1    3    3    0    0 -0.45355702505E+01  0.88044446856E+01 -0.25907944406E+02  0.27736460252E+02  0.51100000000E-03 0.  1.
        -12    1    3    3    0    0  0.20823382162E+01  0.13041882466E+02 -0.56230302321E+01  0.14354278098E+02  0.00000000000E+00 0.  1.
</event>
<event>
 7    1  0.2886681E-010  0.4778726E+02  0.7816164E-02  0.1312668E+00
        -11   -1    0    0    0    0  0.00000000000E+00  0.00000000000E+00  0.45593999997E+02  0.45594000000E+02  0.51100000000E-03 0.  1.
         11   -1    0    0    0    0 -0.00000000000E+00 -0.00000000000E+00 -0.45593999997E+02  0.45594000000E+02  0.51100000000E-03 0. -1.
    9900012    2    1    2    0    0  0.14926808194E+02  0.40224673407E+02 -0.65414553583E+01  0.47787255861E+02  0.19999930774E+02 0.  0.
        -12    1    1    2    0    0 -0.14926808194E+02 -0.40224673407E+02  0.65414553583E+01  0.43400744139E+02  0.00000000000E+00 0.  1.
         11    1    3    3    0    0  0.90186276112E+01  0.18456833322E+02 -0.45076606539E+01  0.21031151778E+02  0.51100000000E-03 0. -1.
        -11    1    3    3    0    0 -0.27405951585E+01  0.10822097246E+02  0.35725459229E+01  0.11721422067E+02  0.51100000000E-03 0.  1.
        -12    1    3    3    0    0  0.86487757413E+01  0.10945742839E+02 -0.56063406273E+01  0.15034682017E+02  0.00000000000E+00 0.  1.
</event>
<event>
 7    1  0.2886681E-010  0.4778727E+02  0.7816164E-02  0.1312668E+00
        -11   -1    0    0    0    0  0.00000000000E+00  0.00000000000E+00  0.45593999997E+02  0.45594000000E+02  0.51100000000E-03 0.  1.
         11   -1    0    0    0    0 -0.00000000000E+00 -0.00000000000E+00 -0.45593999997E+02  0.45594000000E+02  0.51100000000E-03 0. -1.
    9900012    2    1    2    0    0 -0.61495555701E+01  0.21418382856E+02 -0.37243241305E+02  0.47787272117E+02  0.20000004891E+02 0.  0.
        -12    1    1    2    0    0  0.61495555701E+01 -0.21418382856E+02  0.37243241305E+02  0.43400727883E+02  0.00000000000E+00 0.  1.
         11    1    3    3    0    0 -0.74512636920E+01  0.29346148570E+01 -0.15523511723E+02  0.17467475818E+02  0.51100000000E-03 0. -1.
        -11    1    3    3    0    0  0.52500492408E+01  0.57264816640E+01 -0.88011375349E+01  0.11739490255E+02  0.51100000000E-03 0.  1.
         12    1    3    3    0    0 -0.39483411189E+01  0.12757286335E+02 -0.12918592047E+02  0.18580306044E+02  0.00000000000E+00 0. -1.
</event>
<event>
 7    1  0.2886681E-010  0.4778726E+02  0.7816164E-02  0.1312668E+00
        -11   -1    0    0    0    0  0.00000000000E+00  0.00000000000E+00  0.45593999997E+02  0.45594000000E+02  0.51100000000E-03 0.  1.
         11   -1    0    0    0    0 -0.00000000000E+00 -0.00000000000E+00 -0.45593999997E+02  0.45594000000E+02  0.51100000000E-03 0. -1.
    9900012    2    1    2    0    0 -0.28605672283E+02 -0.24622453720E+01 -0.32546540433E+02  0.47787257689E+02  0.19999939105E+02 0.  0.
        -12    1    1    2    0    0  0.28605672283E+02  0.24622453720E+01  0.32546540433E+02  0.43400742311E+02  0.00000000000E+00 0.  1.
         11    1    3    3    0    0 -0.60631199362E+01 -0.14217579724E+01 -0.16302079782E+02  0.17451092360E+02  0.51100000000E-03 0. -1.
        -11    1    3    3    0    0 -0.22342620358E+02 -0.12316161701E+01 -0.10732473787E+02  0.24817243133E+02  0.51100000000E-03 0.  1.
        -12    1    3    3    0    0 -0.19993198792E+00  0.19112877056E+00 -0.55119868643E+01  0.55189221955E+01  0.00000000000E+00 0.  1.
</event>
<event>
 7    1  0.2886681E-010  0.4778728E+02  0.7816164E-02  0.1312668E+00
        -11   -1    0    0    0    0  0.00000000000E+00  0.00000000000E+00  0.45593999997E+02  0.45594000000E+02  0.51100000000E-03 0.  1.
         11   -1    0    0    0    0 -0.00000000000E+00 -0.00000000000E+00 -0.45593999997E+02  0.45594000000E+02  0.51100000000E-03 0. -1.
    9900012    2    1    2    0    0 -0.40308815453E+02 -0.16043943088E+02 -0.11891349174E+01  0.47787277023E+02  0.20000027260E+02 0.  0.
        -12    1    1    2    0    0  0.40308815453E+02  0.16043943088E+02  0.11891349174E+01  0.43400722977E+02  0.00000000000E+00 0.  1.
         11    1    3    3    0    0 -0.23347962104E+02 -0.91934458421E+01  0.45081018015E+01  0.25494504564E+02  0.51100000000E-03 0. -1.
        -11    1    3    3    0    0 -0.13642158851E+02 -0.25901387377E+01  0.72127250061E+00  0.13904587411E+02  0.51100000000E-03 0.  1.
         12    1    3    3    0    0 -0.33186944981E+01 -0.42603585087E+01 -0.64185092196E+01  0.83881850478E+01  0.00000000000E+00 0. -1.
</event>
<event>
 7    1  0.2886681E-010  0.4778727E+02  0.7816164E-02  0.1312668E+00
        -11   -1    0    0    0    0  0.00000000000E+00  0.00000000000E+00  0.45593999997E+02  0.45594000000E+02  0.51100000000E-03 0.  1.
         11   -1    0    0    0    0 -0.00000000000E+00 -0.00000000000E+00 -0.45593999997E+02  0.45594000000E+02  0.51100000000E-03 0. -1.
    9900012    2    1    2    0    0  0.33961760137E+02  0.23602353600E+02 -0.13158683265E+02  0.47787271984E+02  0.20000004282E+02 0.  0.
        -12    1    1    2    0    0 -0.33961760137E+02 -0.23602353600E+02  0.13158683265E+02  0.43400728016E+02  0.00000000000E+00 0.  1.
         11    1    3    3    0    0 -0.13514452720E+00  0.24603925292E+01 -0.43702979864E+01  0.50171007756E+01  0.51100000000E-03 0.  1.
        -11    1    3    3    0    0  0.54436503990E+01 -0.89860317986E+00  0.19604936366E+00  0.55208018399E+01  0.51100000000E-03 0. -1.
         12    1    3    3    0    0  0.28653254265E+02  0.22040564251E+02 -0.89844346427E+01  0.37249369368E+02  0.00000000000E+00 0. -1.
</event>
<event>
 7    1  0.2886681E-010  0.4778727E+02  0.7816164E-02  0.1312668E+00
        -11   -1    0    0    0    0  0.00000000000E+00  0.00000000000E+00  0.45593999997E+02  0.45594000000E+02  0.51100000000E-03 0.  1.
         11   -1    0    0    0    0 -0.00000000000E+00 -0.00000000000E+00 -0.45593999997E+02  0.45594000000E+02  0.51100000000E-03 0. -1.
    9900012    2    1    2    0    0  0.31092525855E+02 -0.30157560427E+02 -0.27201951460E+01  0.47787273317E+02  0.20000010361E+02 0.  0.
        -12    1    1    2    0    0 -0.31092525855E+02  0.30157560427E+02  0.27201951460E+01  0.43400726683E+02  0.00000000000E+00 0.  1.
         11    1    3    3    0    0  0.11223592131E+02 -0.81517887294E+01 -0.10015444724E+02  0.17109348705E+02  0.51100000000E-03 0. -1.
        -11    1    3    3    0    0  0.10132497215E+02 -0.98524026720E+01  0.46785506113E+01  0.14887114371E+02  0.51100000000E-03 0.  1.
         12    1    3    3    0    0  0.97364365094E+01 -0.12153369026E+02  0.26166989672E+01  0.15790810241E+02  0.00000000000E+00 0. -1.
</event>
<event>
 7    1  0.2886681E-010  0.4778726E+02  0.7816164E-02  0.1312668E+00
        -11   -1    0    0    0    0  0.00000000000E+00  0.00000000000E+00  0.45593999997E+02  0.45594000000E+02  0.51100000000E-03 0. -1.
         11   -1    0    0    0    0 -0.00000000000E+00 -0.00000000000E+00 -0.45593999997E+02  0.45594000000E+02  0.51100000000E-03 0.  1.
    9900012    2    1    2    0    0  0.33926127803E+01  0.38717258762E+02  0.19315489607E+02  0.47787261685E+02  0.19999957325E+02 0.  0.
        -12    1    1    2    0    0 -0.33926127803E+01 -0.38717258762E+02 -0.19315489607E+02  0.43400738315E+02  0.00000000000E+00 0.  1.
         11    1    3    3    0    0  0.19000698198E+01  0.27952787073E+01  0.85983818143E+01  0.92388320938E+01  0.51100000000E-03 0. -1.
        -11    1    3    3    0    0  0.33501397729E+01  0.19398457440E+02  0.20348084795E+01  0.19790503615E+02  0.51100000000E-03 0.  1.
        -12    1    3    3    0    0 -0.18575968125E+01  0.16523522615E+02  0.86822993136E+01  0.18757925976E+02  0.00000000000E+00 0.  1.
</event>
<event>
 7    1  0.2886681E-010  0.4778727E+02  0.7816164E-02  0.1312668E+00
        -11   -1    0    0    0    0  0.00000000000E+00  0.00000000000E+00  0.45593999997E+02  0.45594000000E+02  0.51100000000E-03 0. -1.
         11   -1    0    0    0    0 -0.00000000000E+00 -0.00000000000E+00 -0.45593999997E+02  0.45594000000E+02  0.51100000000E-03 0.  1.
    9900012    2    1    2    0    0  0.27151846533E+02 -0.40124164160E+00  0.33856158877E+02  0.47787271217E+02  0.20000000786E+02 0.  0.
        -12    1    1    2    0    0 -0.27151846533E+02  0.40124164160E+00 -0.33856158877E+02  0.43400728783E+02  0.00000000000E+00 0.  1.
         11    1    3    3    0    0  0.18769478190E+02  0.91286287243E+01  0.22330169335E+02  0.30565693788E+02  0.51100000000E-03 0. -1.
        -11    1    3    3    0    0  0.32165057571E+01 -0.44903099116E+01  0.57978292112E+01  0.80077222861E+01  0.51100000000E-03 0.  1.
         12    1    3    3    0    0  0.51658625862E+01 -0.50395604544E+01  0.57281603301E+01  0.92138551432E+01  0.00000000000E+00 0. -1.
</event>
<event>
 7    1  0.2886681E-010  0.4778727E+02  0.7816164E-02  0.1312668E+00
        -11   -1    0    0    0    0  0.00000000000E+00  0.00000000000E+00  0.45593999997E+02  0.45594000000E+02  0.51100000000E-03 0. -1.
         11   -1    0    0    0    0 -0.00000000000E+00 -0.00000000000E+00 -0.45593999997E+02  0.45594000000E+02  0.51100000000E-03 0.  1.
    9900012    2    1    2    0    0 -0.10072822578E+02  0.37872197350E+02 -0.18650955866E+02  0.47787271418E+02  0.20000001702E+02 0.  0.
        -12    1    1    2    0    0  0.10072822578E+02 -0.37872197350E+02  0.18650955866E+02  0.43400728582E+02  0.00000000000E+00 0.  1.
         11    1    3    3    0    0 -0.11778934846E+01  0.92095714886E+00  0.23038018631E+01  0.27464701740E+01  0.51100000000E-03 0. -1.
        -11    1    3    3    0    0 -0.43267786249E+01  0.30863149573E+02 -0.20723026766E+02  0.37425911524E+02  0.51100000000E-03 0.  1.
        -12    1    3    3    0    0 -0.45681504686E+01  0.60880906280E+01 -0.23173096223E+00  0.76148897193E+01  0.00000000000E+00 0.  1.
</event>
<event>
 7    1  0.2886681E-010  0.4778727E+02  0.7816164E-02  0.1312668E+00
        -11   -1    0    0    0    0  0.00000000000E+00  0.00000000000E+00  0.45593999997E+02  0.45594000000E+02  0.51100000000E-03 0.  1.
         11   -1    0    0    0    0 -0.00000000000E+00 -0.00000000000E+00 -0.45593999997E+02  0.45594000000E+02  0.51100000000E-03 0. -1.
    9900012    2    1    2    0    0 -0.26717550999E+02 -0.32940894794E+02  0.92028907474E+01  0.47787270982E+02  0.19999999715E+02 0.  0.
        -12    1    1    2    0    0  0.26717550999E+02  0.32940894794E+02 -0.92028907474E+01  0.43400729018E+02  0.00000000000E+00 0.  1.
         11    1    3    3    0    0 -0.13401943274E+02 -0.11915771452E+02 -0.20904717543E+01  0.18054577403E+02  0.51100000000E-03 0. -1.
        -11    1    3    3    0    0 -0.13318862734E+02 -0.19117247972E+02  0.13410179396E+02  0.26882972051E+02  0.51100000000E-03 0.  1.
        -12    1    3    3    0    0  0.32550089477E-02 -0.19078753697E+01 -0.21168168945E+01  0.28497215278E+01  0.00000000000E+00 0.  1.
</event>
<event>
 7    1  0.2886681E-010  0.4778728E+02  0.7816164E-02  0.1312668E+00
        -11   -1    0    0    0    0  0.00000000000E+00  0.00000000000E+00  0.45593999997E+02  0.45594000000E+02  0.51100000000E-03 0.  1.
         11   -1    0    0    0    0 -0.00000000000E+00 -0.00000000000E+00 -0.45593999997E+02  0.45594000000E+02  0.51100000000E-03 0. -1.
    9900012    2    1    2    0    0  0.74583811549E+01 -0.37322803936E+02 -0.20856741257E+02  0.47787276516E+02  0.20000024947E+02 0.  0.
        -12    1    1    2    0    0 -0.74583811549E+01  0.37322803936E+02  0.20856741257E+02  0.43400723484E+02  0.00000000000E+00 0.  1.
         11    1    3    3    0    0  0.13878914971E+02 -0.23103518723E+02 -0.10107204335E+02  0.28784586811E+02  0.51100000000E-03 0.  1.
        -11    1    3    3    0    0 -0.42557027727E+01 -0.78034311518E+01 -0.57586154331E+01  0.10590854347E+02  0.51100000000E-03 0. -1.
        -12    1    3    3    0    0 -0.21648310436E+01 -0.64158540612E+01 -0.49909214891E+01  0.84118353581E+01  0.00000000000E+00 0.  1.
</event>
<event>
 7    1  0.2886681E-010  0.4778727E+02  0.7816164E-02  0.1312668E+00
        -11   -1    0    0    0    0  0.00000000000E+00  0.00000000000E+00  0.45593999997E+02  0.45594000000E+02  0.51100000000E-03 0. -1.
         11   -1    0    0    0    0 -0.00000000000E+00 -0.00000000000E+00 -0.45593999997E+02  0.45594000000E+02  0.51100000000E-03 0.  1.
    9900012    2    1    2    0    0 -0.15055593589E+02 -0.37639647601E+02 -0.15498695438E+02  0.47787268092E+02  0.19999986540E+02 0.  0.
        -12    1    1    2    0    0  0.15055593589E+02  0.37639647601E+02  0.15498695438E+02  0.43400731908E+02  0.00000000000E+00 0.  1.
         11    1    3    3    0    0 -0.54993578824E+01 -0.47139040388E+00 -0.22774188167E+01  0.59709113844E+01  0.51100000000E-03 0. -1.
        -11    1    3    3    0    0 -0.25701403274E+00  0.54774410482E+00  0.31224809396E+00  0.68086632366E+00  0.51100000000E-03 0.  1.
         12    1    3    3    0    0 -0.92992216734E+01 -0.37716001302E+02 -0.13533524715E+02  0.41135490384E+02  0.00000000000E+00 0. -1.
</event>
<event>
 7    1  0.2886681E-010  0.4778727E+02  0.7816164E-02  0.1312668E+00
        -11   -1    0    0    0    0  0.00000000000E+00  0.00000000000E+00  0.45593999997E+02  0.45594000000E+02  0.51100000000E-03 0.  1.
         11   -1    0    0    0    0 -0.00000000000E+00 -0.00000000000E+00 -0.45593999997E+02  0.45594000000E+02  0.51100000000E-03 0. -1.
    9900012    2    1    2    0    0  0.15254794079E+02  0.40324748704E+02 -0.49828733137E+01  0.47787272738E+02  0.20000007720E+02 0.  0.
        -12    1    1    2    0    0 -0.15254794079E+02 -0.40324748704E+02  0.49828733137E+01  0.43400727262E+02  0.00000000000E+00 0.  1.
         11    1    3    3    0    0  0.15504440375E+02  0.27834586272E+02 -0.93287971844E+01  0.33199071093E+02  0.51100000000E-03 0. -1.
        -11    1    3    3    0    0  0.63147291500E+00  0.34237990643E+00  0.20786616546E+01  0.21992763760E+01  0.51100000000E-03 0.  1.
         12    1    3    3    0    0 -0.88111921058E+00  0.12147782526E+02  0.22672622161E+01  0.12388925269E+02  0.00000000000E+00 0. -1.
</event>
<event>
 7    1  0.2886681E-010  0.4778727E+02  0.7816164E-02  0.1312668E+00
        -11   -1    0    0    0    0  0.00000000000E+00  0.00000000000E+00  0.45593999997E+02  0.45594000000E+02  0.51100000000E-03 0. -1.
         11   -1    0    0    0    0 -0.00000000000E+00 -0.00000000000E+00 -0.45593999997E+02  0.45594000000E+02  0.51100000000E-03 0.  1.
    9900012    2    1    2    0    0 -0.18319031628E+02 -0.21199730316E+02  0.33145256226E+02  0.47787268491E+02  0.19999988358E+02 0.  0.
        -12    1    1    2    0    0  0.18319031628E+02  0.21199730316E+02 -0.33145256226E+02  0.43400731509E+02  0.00000000000E+00 0.  1.
         11    1    3    3    0    0 -0.17019966539E+02 -0.10883511898E+02  0.21193317191E+02  0.29279460139E+02  0.51100000000E-03 0. -1.
        -11    1    3    3    0    0  0.20810247400E+01 -0.10354811200E+02  0.76732217456E+01  0.13054926701E+02  0.51100000000E-03 0.  1.
        -12    1    3    3    0    0 -0.33800898295E+01  0.38592782064E-01  0.42787172887E+01  0.54528816505E+01  0.00000000000E+00 0.  1.
</event>
<event>
 7    1  0.2886681E-010  0.4778727E+02  0.7816164E-02  0.1312668E+00
        -11   -1    0    0    0    0  0.00000000000E+00  0.00000000000E+00  0.45593999997E+02  0.45594000000E+02  0.51100000000E-03 0.  1.
         11   -1    0    0    0    0 -0.00000000000E+00 -0.00000000000E+00 -0.45593999997E+02  0.45594000000E+02  0.51100000000E-03 0. -1.
    9900012    2    1    2    0    0 -0.34320273112E+02  0.21247480779E+01 -0.26480697459E+02  0.47787273753E+02  0.20000012349E+02 0.  0.
        -12    1    1    2    0    0  0.34320273112E+02 -0.21247480779E+01  0.26480697459E+02  0.43400726247E+02  0.00000000000E+00 0.  1.
         11    1    3    3    0    0 -0.36098096580E+02  0.13082778540E+01 -0.20705073430E+02  0.41635132204E+02  0.51100000000E-03 0. -1.
        -11    1    3    3    0    0  0.63131576601E+00  0.73147905931E+00 -0.28093890029E+01  0.29709069392E+01  0.51100000000E-03 0.  1.
         12    1    3    3    0    0  0.11465077024E+01  0.84991164576E-01 -0.29662350264E+01  0.31812346097E+01  0.00000000000E+00 0. -1.
</event>
<event>
 7    1  0.2886681E-010  0.4778727E+02  0.7816164E-02  0.1312668E+00
        -11   -1    0    0    0    0  0.00000000000E+00  0.00000000000E+00  0.45593999997E+02  0.45594000000E+02  0.51100000000E-03 0.  1.
         11   -1    0    0    0    0 -0.00000000000E+00 -0.00000000000E+00 -0.45593999997E+02  0.45594000000E+02  0.51100000000E-03 0. -1.
    9900012    2    1    2    0    0  0.23548696818E+02 -0.15291407213E+02 -0.33094634779E+02  0.47787272960E+02  0.20000008735E+02 0.  0.
        -12    1    1    2    0    0 -0.23548696818E+02  0.15291407213E+02  0.33094634779E+02  0.43400727040E+02  0.00000000000E+00 0.  1.
         11    1    3    3    0    0  0.36236958092E+01 -0.82849095024E+01 -0.56459836472E+01  0.10660582929E+02  0.51100000000E-03 0. -1.
        -11    1    3    3    0    0  0.18835164518E+02 -0.20404177389E+01 -0.25299578963E+02  0.31606888853E+02  0.51100000000E-03 0.  1.
        -12    1    3    3    0    0  0.10898364916E+01 -0.49660799720E+01 -0.21490721686E+01  0.55198011787E+01  0.00000000000E+00 0.  1.
</event>
<event>
 7    1  0.2886681E-010  0.4778727E+02  0.7816164E-02  0.1312668E+00
        -11   -1    0    0    0    0  0.00000000000E+00  0.00000000000E+00  0.45593999997E+02  0.45594000000E+02  0.51100000000E-03 0.  1.
         11   -1    0    0    0    0 -0.00000000000E+00 -0.00000000000E+00 -0.45593999997E+02  0.45594000000E+02  0.51100000000E-03 0. -1.
    9900012    2    1    2    0    0 -0.22450993715E+02  0.18843513692E+02 -0.32007783715E+02  0.47787270221E+02  0.19999996243E+02 0.  0.
        -12    1    1    2    0    0  0.22450993715E+02 -0.18843513692E+02  0.32007783715E+02  0.43400729779E+02  0.00000000000E+00 0.  1.
         11    1    3    3    0    0 -0.76602943314E+01  0.11661535462E+02 -0.11812359054E+02  0.18281229315E+02  0.51100000000E-03 0. -1.
        -11    1    3    3    0    0 -0.44105847495E+01 -0.48706088376E+00 -0.14916092106E+02  0.15562142851E+02  0.51100000000E-03 0.  1.
        -12    1    3    3    0    0 -0.10380114634E+02  0.76690391139E+01 -0.52793325551E+01  0.13943898055E+02  0.00000000000E+00 0.  1.
</event>
<event>
 7    1  0.2886681E-010  0.4778727E+02  0.7816164E-02  0.1312668E+00
        -11   -1    0    0    0    0  0.00000000000E+00  0.00000000000E+00  0.45593999997E+02  0.45594000000E+02  0.51100000000E-03 0.  1.
         11   -1    0    0    0    0 -0.00000000000E+00 -0.00000000000E+00 -0.45593999997E+02  0.45594000000E+02  0.51100000000E-03 0. -1.
    9900012    2    1    2    0    0  0.39065612998E+02 -0.16097714787E+02  0.99178993605E+01  0.47787271112E+02  0.20000000308E+02 0.  0.
        -12    1    1    2    0    0 -0.39065612998E+02  0.16097714787E+02 -0.99178993605E+01  0.43400728888E+02  0.00000000000E+00 0.  1.
         11    1    3    3    0    0 -0.14144305926E+01 -0.14928660795E+01  0.90596527516E+00  0.22472285984E+01  0.51100000000E-03 0.  1.
        -11    1    3    3    0    0  0.28972599385E+02 -0.14026862159E+02  0.10642684026E+02  0.33903260915E+02  0.51100000000E-03 0. -1.
        -12    1    3    3    0    0  0.11507444206E+02 -0.57798654895E+00 -0.16307499407E+01  0.11636781599E+02  0.00000000000E+00 0.  1.
</event>
<event>
 7    1  0.2886681E-010  0.4778727E+02  0.7816164E-02  0.1312668E+00
        -11   -1    0    0    0    0  0.00000000000E+00  0.00000000000E+00  0.45593999997E+02  0.45594000000E+02  0.51100000000E-03 0. -1.
         11   -1    0    0    0    0 -0.00000000000E+00 -0.00000000000E+00 -0.45593999997E+02  0.45594000000E+02  0.51100000000E-03 0.  1.
    9900012    2    1    2    0    0  0.28098527206E+02  0.18161951270E+01  0.33027223973E+02  0.47787270522E+02  0.19999997617E+02 0.  0.
        -12    1    1    2    0    0 -0.28098527206E+02 -0.18161951270E+01 -0.33027223973E+02  0.43400729478E+02  0.00000000000E+00 0.  1.
         11    1    3    3    0    0  0.23348059789E+02  0.74505918802E+01  0.19978186535E+02  0.31619158002E+02  0.51100000000E-03 0. -1.
        -11    1    3    3    0    0  0.92482216496E+00 -0.32195471820E+00 -0.51533337107E+00  0.11065801470E+01  0.51100000000E-03 0.  1.
         12    1    3    3    0    0  0.38256452521E+01 -0.53124420349E+01  0.13564370809E+02  0.15061532373E+02  0.00000000000E+00 0. -1.
</event>
<event>
 7    1  0.2886681E-010  0.4778727E+02  0.7816164E-02  0.1312668E+00
        -11   -1    0    0    0    0  0.00000000000E+00  0.00000000000E+00  0.45593999997E+02  0.45594000000E+02  0.51100000000E-03 0.  1.
         11   -1    0    0    0    0 -0.00000000000E+00 -0.00000000000E+00 -0.45593999997E+02  0.45594000000E+02  0.51100000000E-03 0. -1.
    9900012    2    1    2    0    0 -0.41743290252E+01 -0.39805503735E+02 -0.16784524818E+02  0.47787269317E+02  0.19999992125E+02 0.  0.
        -12    1    1    2    0    0  0.41743290252E+01  0.39805503735E+02  0.16784524818E+02  0.43400730683E+02  0.00000000000E+00 0.  1.
         11    1    3    3    0    0 -0.88798862252E+01 -0.34385980142E+02 -0.16374593991E+02  0.39107228722E+02  0.51100000000E-03 0. -1.
        -11    1    3    3    0    0  0.48868399855E+01 -0.43173402691E+01 -0.19238391009E+01  0.67986608381E+01  0.51100000000E-03 0.  1.
         12    1    3    3    0    0 -0.18128278557E+00 -0.11021833239E+01  0.15139082739E+01  0.18813797568E+01  0.00000000000E+00 0. -1.
</event>
<event>
 7    1  0.2886681E-010  0.4778729E+02  0.7816164E-02  0.1312668E+00
        -11   -1    0    0    0    0  0.00000000000E+00  0.00000000000E+00  0.45593999997E+02  0.45594000000E+02  0.51100000000E-03 0. -1.
         11   -1    0    0    0    0 -0.00000000000E+00 -0.00000000000E+00 -0.45593999997E+02  0.45594000000E+02  0.51100000000E-03 0.  1.
    9900012    2    1    2    0    0  0.32039443102E+01 -0.43164529501E+02  0.31905337457E+01  0.47787292958E+02  0.20000099912E+02 0.  0.
        -12    1    1    2    0    0 -0.32039443102E+01  0.43164529501E+02 -0.31905337457E+01  0.43400707042E+02  0.00000000000E+00 0.  1.
         11    1    3    3    0    0 -0.51590113074E+01 -0.10052417447E+02  0.26767890111E+01  0.11611705037E+02  0.51100000000E-03 0. -1.
        -11    1    3    3    0    0  0.99983239897E+01 -0.16181777515E+02 -0.13238124714E+01  0.19067482420E+02  0.51100000000E-03 0.  1.
         12    1    3    3    0    0 -0.16353683722E+01 -0.16930334539E+02  0.18375572061E+01  0.17108105500E+02  0.00000000000E+00 0. -1.
</event>
<event>
 7    1  0.2886681E-010  0.4778727E+02  0.7816164E-02  0.1312668E+00
        -11   -1    0    0    0    0  0.00000000000E+00  0.00000000000E+00  0.45593999997E+02  0.45594000000E+02  0.51100000000E-03 0.  1.
         11   -1    0    0    0    0 -0.00000000000E+00 -0.00000000000E+00 -0.45593999997E+02  0.45594000000E+02  0.51100000000E-03 0. -1.
    9900012    2    1    2    0    0  0.20434707160E+02 -0.61452712372E+01 -0.37792613773E+02  0.47787271076E+02  0.20000000144E+02 0.  0.
        -12    1    1    2    0    0 -0.20434707160E+02  0.61452712372E+01  0.37792613773E+02  0.43400728924E+02  0.00000000000E+00 0.  1.
         11    1    3    3    0    0  0.98105823882E+01  0.16313890280E+00 -0.25107676336E+02  0.26956809017E+02  0.51100000000E-03 0. -1.
        -11    1    3    3    0    0  0.10108657590E+02 -0.29875785314E+01 -0.35915614774E+01  0.11135973144E+02  0.51100000000E-03 0.  1.
        -12    1    3    3    0    0  0.51546718206E+00 -0.33208316086E+01 -0.90933759595E+01  0.96944889153E+01  0.00000000000E+00 0.  1.
</event>
<event>
 7    1  0.2886681E-010  0.4778727E+02  0.7816164E-02  0.1312668E+00
        -11   -1    0    0    0    0  0.00000000000E+00  0.00000000000E+00  0.45593999997E+02  0.45594000000E+02  0.51100000000E-03 0.  1.
         11   -1    0    0    0    0 -0.00000000000E+00 -0.00000000000E+00 -0.45593999997E+02  0.45594000000E+02  0.51100000000E-03 0. -1.
    9900012    2    1    2    0    0  0.27134270273E+02 -0.78603044638E+01 -0.32947991288E+02  0.47787272593E+02  0.20000007062E+02 0.  0.
        -12    1    1    2    0    0 -0.27134270273E+02  0.78603044638E+01  0.32947991288E+02  0.43400727407E+02  0.00000000000E+00 0.  1.
         11    1    3    3    0    0  0.79904535673E+01  0.46034286288E+01 -0.45362273723E+01  0.10276977298E+02  0.51100000000E-03 0. -1.
        -11    1    3    3    0    0  0.13637656369E+02 -0.10306059917E+02 -0.14579702933E+02  0.22467048763E+02  0.51100000000E-03 0.  1.
         12    1    3    3    0    0  0.55061603364E+01 -0.21576731757E+01 -0.13832060983E+02  0.15043246532E+02  0.00000000000E+00 0. -1.
</event>
<event>
 7    1  0.2886681E-010  0.4778727E+02  0.7816164E-02  0.1312668E+00
        -11   -1    0    0    0    0  0.00000000000E+00  0.00000000000E+00  0.45593999997E+02  0.45594000000E+02  0.51100000000E-03 0.  1.
         11   -1    0    0    0    0 -0.00000000000E+00 -0.00000000000E+00 -0.45593999997E+02  0.45594000000E+02  0.51100000000E-03 0. -1.
    9900012    2    1    2    0    0  0.84505511173E+01 -0.40270862932E+02 -0.13801056003E+02  0.47787270026E+02  0.19999995356E+02 0.  0.
        -12    1    1    2    0    0 -0.84505511173E+01  0.40270862932E+02  0.13801056003E+02  0.43400729974E+02  0.00000000000E+00 0.  1.
         11    1    3    3    0    0 -0.41606146657E+00 -0.20578950813E+02 -0.12361090458E+02  0.24009641423E+02  0.51100000000E-03 0. -1.
        -11    1    3    3    0    0  0.17148180573E+01 -0.39791648334E+01  0.37714414478E+01  0.57443994113E+01  0.51100000000E-03 0.  1.
        -12    1    3    3    0    0  0.71517945266E+01 -0.15712747286E+02 -0.52114069933E+01  0.18033229192E+02  0.00000000000E+00 0.  1.
</event>
<event>
 7    1  0.2886681E-010  0.4778727E+02  0.7816164E-02  0.1312668E+00
        -11   -1    0    0    0    0  0.00000000000E+00  0.00000000000E+00  0.45593999997E+02  0.45594000000E+02  0.51100000000E-03 0. -1.
         11   -1    0    0    0    0 -0.00000000000E+00 -0.00000000000E+00 -0.45593999997E+02  0.45594000000E+02  0.51100000000E-03 0.  1.
    9900012    2    1    2    0    0 -0.22464756132E+02  0.37015435084E+02 -0.29691436061E+01  0.47787268252E+02  0.19999987267E+02 0.  0.
        -12    1    1    2    0    0  0.22464756132E+02 -0.37015435084E+02  0.29691436061E+01  0.43400731748E+02  0.00000000000E+00 0.  1.
         11    1    3    3    0    0 -0.14299049576E+02  0.80123202842E+01  0.49869521635E+00  0.16398438715E+02  0.51100000000E-03 0. -1.
        -11    1    3    3    0    0 -0.86164818781E+01  0.20572973074E+02 -0.48726939376E+01  0.22830552501E+02  0.51100000000E-03 0.  1.
        -12    1    3    3    0    0  0.45077532230E+00  0.84301417263E+01  0.14048551151E+01  0.85582770352E+01  0.00000000000E+00 0.  1.
</event>
<event>
 7    1  0.2886681E-010  0.4778727E+02  0.7816164E-02  0.1312668E+00
        -11   -1    0    0    0    0  0.00000000000E+00  0.00000000000E+00  0.45593999997E+02  0.45594000000E+02  0.51100000000E-03 0.  1.
         11   -1    0    0    0    0 -0.00000000000E+00 -0.00000000000E+00 -0.45593999997E+02  0.45594000000E+02  0.51100000000E-03 0. -1.
    9900012    2    1    2    0    0 -0.38514726152E+02  0.16904191972E+02  0.10699873304E+02  0.47787272754E+02  0.20000007794E+02 0.  0.
        -12    1    1    2    0    0  0.38514726152E+02 -0.16904191972E+02 -0.10699873304E+02  0.43400727246E+02  0.00000000000E+00 0.  1.
         11    1    3    3    0    0 -0.15885246931E+02  0.19807335556E-01  0.24777600944E+01  0.16077336774E+02  0.51100000000E-03 0. -1.
        -11    1    3    3    0    0 -0.10075562110E+01  0.65852687311E+01  0.13956585485E+01  0.68065260467E+01  0.51100000000E-03 0.  1.
        -12    1    3    3    0    0 -0.21621923009E+02  0.10299115905E+02  0.68264546609E+01  0.24903409933E+02  0.00000000000E+00 0.  1.
</event>
<event>
 7    1  0.2886681E-010  0.4778727E+02  0.7816164E-02  0.1312668E+00
        -11   -1    0    0    0    0  0.00000000000E+00  0.00000000000E+00  0.45593999997E+02  0.45594000000E+02  0.51100000000E-03 0.  1.
         11   -1    0    0    0    0 -0.00000000000E+00 -0.00000000000E+00 -0.45593999997E+02  0.45594000000E+02  0.51100000000E-03 0. -1.
    9900012    2    1    2    0    0 -0.10752450025E+02 -0.36809397297E+02 -0.20324279977E+02  0.47787271118E+02  0.20000000334E+02 0.  0.
        -12    1    1    2    0    0  0.10752450025E+02  0.36809397297E+02  0.20324279977E+02  0.43400728882E+02  0.00000000000E+00 0.  1.
         11    1    3    3    0    0 -0.12894697164E+02 -0.16424091646E+02 -0.85534912352E+01  0.22565154862E+02  0.51100000000E-03 0. -1.
        -11    1    3    3    0    0 -0.54013472070E-01 -0.19176469699E+02 -0.12128011462E+02  0.22689834064E+02  0.51100000000E-03 0.  1.
        -12    1    3    3    0    0  0.21962606106E+01 -0.12088359522E+01  0.35722272054E+00  0.25322821922E+01  0.00000000000E+00 0.  1.
</event>
<event>
 7    1  0.2886681E-010  0.4778726E+02  0.7816164E-02  0.1312668E+00
        -11   -1    0    0    0    0  0.00000000000E+00  0.00000000000E+00  0.45593999997E+02  0.45594000000E+02  0.51100000000E-03 0.  1.
         11   -1    0    0    0    0 -0.00000000000E+00 -0.00000000000E+00 -0.45593999997E+02  0.45594000000E+02  0.51100000000E-03 0. -1.
    9900012    2    1    2    0    0  0.24093292258E+02 -0.15044255317E+02 -0.32814754664E+02  0.47787257224E+02  0.19999936986E+02 0.  0.
        -12    1    1    2    0    0 -0.24093292258E+02  0.15044255317E+02  0.32814754664E+02  0.43400742776E+02  0.00000000000E+00 0.  1.
         11    1    3    3    0    0 -0.12562112752E+01 -0.57246303614E+00 -0.11432877645E+01  0.17924530312E+01  0.51100000000E-03 0. -1.
        -11    1    3    3    0    0 -0.22972958370E+01 -0.75755221559E+00 -0.31547783030E+01  0.39754345579E+01  0.51100000000E-03 0.  1.
         12    1    3    3    0    0  0.27646799370E+02 -0.13714240065E+02 -0.28516688597E+02  0.42019369635E+02  0.00000000000E+00 0. -1.
</event>
<event>
 7    1  0.2886681E-010  0.4778726E+02  0.7816164E-02  0.1312668E+00
        -11   -1    0    0    0    0  0.00000000000E+00  0.00000000000E+00  0.45593999997E+02  0.45594000000E+02  0.51100000000E-03 0. -1.
         11   -1    0    0    0    0 -0.00000000000E+00 -0.00000000000E+00 -0.45593999997E+02  0.45594000000E+02  0.51100000000E-03 0.  1.
    9900012    2    1    2    0    0  0.40572815716E+02  0.51731303186E+00  0.15401410720E+02  0.47787257610E+02  0.19999938745E+02 0.  0.
        -12    1    1    2    0    0 -0.40572815716E+02 -0.51731303186E+00 -0.15401410720E+02  0.43400742390E+02  0.00000000000E+00 0.  1.
         11    1    3    3    0    0  0.20587750089E+02 -0.70160675250E+01  0.39742381827E+01  0.22110522984E+02  0.51100000000E-03 0. -1.
        -11    1    3    3    0    0 -0.86228495694E+00  0.43923234620E+00  0.58811725329E+00  0.11324056542E+01  0.51100000000E-03 0.  1.
         12    1    3    3    0    0  0.20847350584E+02  0.70941482106E+01  0.10839055284E+02  0.24544328972E+02  0.00000000000E+00 0. -1.
</event>
<event>
 7    1  0.2886681E-010  0.4778728E+02  0.7816164E-02  0.1312668E+00
        -11   -1    0    0    0    0  0.00000000000E+00  0.00000000000E+00  0.45593999997E+02  0.45594000000E+02  0.51100000000E-03 0.  1.
         11   -1    0    0    0    0 -0.00000000000E+00 -0.00000000000E+00 -0.45593999997E+02  0.45594000000E+02  0.51100000000E-03 0. -1.
    9900012    2    1    2    0    0  0.31477683663E+02 -0.28369921157E+02 -0.93768793135E+01  0.47787275802E+02  0.20000021692E+02 0.  0.
        -12    1    1    2    0    0 -0.31477683663E+02  0.28369921157E+02  0.93768793135E+01  0.43400724198E+02  0.00000000000E+00 0.  1.
         11    1    3    3    0    0  0.22513214211E+02 -0.22638397316E+02 -0.11995911700E+02  0.34106359303E+02  0.51100000000E-03 0. -1.
        -11    1    3    3    0    0  0.10410324335E+02 -0.57918946798E+01  0.18951780287E+01  0.12062860223E+02  0.51100000000E-03 0.  1.
         12    1    3    3    0    0 -0.14458548827E+01  0.60370839334E-01  0.72385435748E+00  0.16180562756E+01  0.00000000000E+00 0. -1.
</event>
<event>
 7    1  0.2886681E-010  0.4778727E+02  0.7816164E-02  0.1312668E+00
        -11   -1    0    0    0    0  0.00000000000E+00  0.00000000000E+00  0.45593999997E+02  0.45594000000E+02  0.51100000000E-03 0. -1.
         11   -1    0    0    0    0 -0.00000000000E+00 -0.00000000000E+00 -0.45593999997E+02  0.45594000000E+02  0.51100000000E-03 0.  1.
    9900012    2    1    2    0    0 -0.30034173707E+02 -0.31240691987E+02 -0.23644897170E+01  0.47787271461E+02  0.20000001899E+02 0.  0.
        -12    1    1    2    0    0  0.30034173707E+02  0.31240691987E+02  0.23644897170E+01  0.43400728539E+02  0.00000000000E+00 0.  1.
         11    1    3    3    0    0 -0.20221489566E+02 -0.31401116826E+02 -0.32215335221E+01  0.37487558692E+02  0.51100000000E-03 0. -1.
        -11    1    3    3    0    0 -0.88133076770E+01 -0.75878985137E+00  0.35824817288E+00  0.88531630654E+01  0.51100000000E-03 0.  1.
         12    1    3    3    0    0 -0.99937646337E+00  0.91921468999E+00  0.49879563220E+00  0.14465497034E+01  0.00000000000E+00 0. -1.
</event>
<event>
 7    1  0.2886681E-010  0.4778727E+02  0.7816164E-02  0.1312668E+00
        -11   -1    0    0    0    0  0.00000000000E+00  0.00000000000E+00  0.45593999997E+02  0.45594000000E+02  0.51100000000E-03 0.  1.
         11   -1    0    0    0    0 -0.00000000000E+00 -0.00000000000E+00 -0.45593999997E+02  0.45594000000E+02  0.51100000000E-03 0. -1.
    9900012    2    1    2    0    0  0.60040616709E+00 -0.15032885057E+02 -0.40709644792E+02  0.47787270746E+02  0.19999998640E+02 0.  0.
        -12    1    1    2    0    0 -0.60040616709E+00  0.15032885057E+02  0.40709644792E+02  0.43400729254E+02  0.00000000000E+00 0.  1.
         11    1    3    3    0    0  0.55573102614E+01 -0.13413320696E+02 -0.20862995536E+02  0.25417817617E+02  0.51100000000E-03 0. -1.
        -11    1    3    3    0    0 -0.50402300126E+01  0.13394264747E+01 -0.49800951427E+01  0.72110560774E+01  0.51100000000E-03 0.  1.
         12    1    3    3    0    0  0.83325918259E-01 -0.29589908361E+01 -0.14866554113E+02  0.15158397051E+02  0.00000000000E+00 0. -1.
</event>
<event>
 7    1  0.2886681E-010  0.4778727E+02  0.7816164E-02  0.1312668E+00
        -11   -1    0    0    0    0  0.00000000000E+00  0.00000000000E+00  0.45593999997E+02  0.45594000000E+02  0.51100000000E-03 0. -1.
         11   -1    0    0    0    0 -0.00000000000E+00 -0.00000000000E+00 -0.45593999997E+02  0.45594000000E+02  0.51100000000E-03 0.  1.
    9900012    2    1    2    0    0  0.10064994039E+02 -0.24898657846E+02  0.34093633259E+02  0.47787273090E+02  0.20000009326E+02 0.  0.
        -12    1    1    2    0    0 -0.10064994039E+02  0.24898657846E+02 -0.34093633259E+02  0.43400726910E+02  0.00000000000E+00 0.  1.
         11    1    3    3    0    0  0.11929350293E+02 -0.19046529867E+02  0.27109878853E+02  0.35213991965E+02  0.51100000000E-03 0. -1.
        -11    1    3    3    0    0 -0.26515566559E+01 -0.73787509189E+01  0.74264833819E+01  0.10799508021E+02  0.51100000000E-03 0.  1.
         12    1    3    3    0    0  0.78720040234E+00  0.15266229408E+01 -0.44272897584E+00  0.17737731036E+01  0.00000000000E+00 0. -1.
</event>
<event>
 7    1  0.2886681E-010  0.4778727E+02  0.7816164E-02  0.1312668E+00
        -11   -1    0    0    0    0  0.00000000000E+00  0.00000000000E+00  0.45593999997E+02  0.45594000000E+02  0.51100000000E-03 0.  1.
         11   -1    0    0    0    0 -0.00000000000E+00 -0.00000000000E+00 -0.45593999997E+02  0.45594000000E+02  0.51100000000E-03 0. -1.
    9900012    2    1    2    0    0  0.11825641998E+02 -0.19407745275E+02 -0.36974543764E+02  0.47787271067E+02  0.20000000104E+02 0.  0.
        -12    1    1    2    0    0 -0.11825641998E+02  0.19407745275E+02  0.36974543764E+02  0.43400728933E+02  0.00000000000E+00 0.  1.
         11    1    3    3    0    0  0.14402056509E+02 -0.18728317397E+02 -0.24163638065E+02  0.33794237808E+02  0.51100000000E-03 0. -1.
        -11    1    3    3    0    0 -0.19475598138E+01  0.19728390165E+01 -0.49564046355E+01  0.56789990478E+01  0.51100000000E-03 0.  1.
         12    1    3    3    0    0 -0.62885469704E+00 -0.26522668942E+01 -0.78545010633E+01  0.83140342110E+01  0.00000000000E+00 0. -1.
</event>
<event>
 7    1  0.2886681E-010  0.4778727E+02  0.7816164E-02  0.1312668E+00
        -11   -1    0    0    0    0  0.00000000000E+00  0.00000000000E+00  0.45593999997E+02  0.45594000000E+02  0.51100000000E-03 0.  1.
         11   -1    0    0    0    0 -0.00000000000E+00 -0.00000000000E+00 -0.45593999997E+02  0.45594000000E+02  0.51100000000E-03 0. -1.
    9900012    2    1    2    0    0  0.31950350401E+02  0.27540072589E+02 -0.10214832869E+02  0.47787270749E+02  0.19999998653E+02 0.  0.
        -12    1    1    2    0    0 -0.31950350401E+02 -0.27540072589E+02  0.10214832869E+02  0.43400729251E+02  0.00000000000E+00 0.  1.
         11    1    3    3    0    0  0.29247695925E+02  0.21683210225E+02 -0.75119059017E+01  0.37175503401E+02  0.51100000000E-03 0. -1.
        -11    1    3    3    0    0 -0.34690011766E+00  0.53307964089E+01  0.13523716856E+01  0.55105933875E+01  0.51100000000E-03 0.  1.
         12    1    3    3    0    0  0.30495545933E+01  0.52606595549E+00 -0.40552986529E+01  0.51011739601E+01  0.00000000000E+00 0. -1.
</event>
<event>
 7    1  0.2886681E-010  0.4778727E+02  0.7816164E-02  0.1312668E+00
        -11   -1    0    0    0    0  0.00000000000E+00  0.00000000000E+00  0.45593999997E+02  0.45594000000E+02  0.51100000000E-03 0.  1.
         11   -1    0    0    0    0 -0.00000000000E+00 -0.00000000000E+00 -0.45593999997E+02  0.45594000000E+02  0.51100000000E-03 0. -1.
    9900012    2    1    2    0    0  0.21379282907E+02 -0.26438934281E+02 -0.26972809245E+02  0.47787269337E+02  0.19999992215E+02 0.  0.
        -12    1    1    2    0    0 -0.21379282907E+02  0.26438934281E+02  0.26972809245E+02  0.43400730663E+02  0.00000000000E+00 0.  1.
         11    1    3    3    0    0  0.51502174334E+01 -0.18974512145E+02 -0.14201257532E+02  0.24253506272E+02  0.51100000000E-03 0. -1.
        -11    1    3    3    0    0  0.70652308408E+01 -0.30862669531E+01 -0.67539405025E+00  0.77394242631E+01  0.51100000000E-03 0.  1.
        -12    1    3    3    0    0  0.91638346329E+01 -0.43781551829E+01 -0.12096157663E+02  0.15794338802E+02  0.00000000000E+00 0.  1.
</event>
<event>
 7    1  0.2886681E-010  0.4778726E+02  0.7816164E-02  0.1312668E+00
        -11   -1    0    0    0    0  0.00000000000E+00  0.00000000000E+00  0.45593999997E+02  0.45594000000E+02  0.51100000000E-03 0.  1.
         11   -1    0    0    0    0 -0.00000000000E+00 -0.00000000000E+00 -0.45593999997E+02  0.45594000000E+02  0.51100000000E-03 0. -1.
    9900012    2    1    2    0    0 -0.15500540579E+02 -0.28652910168E+02 -0.28676956567E+02  0.47787264323E+02  0.19999969356E+02 0.  0.
        -12    1    1    2    0    0  0.15500540579E+02  0.28652910168E+02  0.28676956567E+02  0.43400735677E+02  0.00000000000E+00 0.  1.
         11    1    3    3    0    0 -0.74797340437E+01 -0.68978650170E+01 -0.16550045162E+02  0.19427582410E+02  0.51100000000E-03 0. -1.
        -11    1    3    3    0    0 -0.93186365976E+01 -0.22161978549E+02 -0.12270903330E+02  0.26991949726E+02  0.51100000000E-03 0.  1.
        -12    1    3    3    0    0  0.12978300625E+01  0.40693339770E+00  0.14399192498E+00  0.13677321872E+01  0.00000000000E+00 0.  1.
</event>
<event>
 7    1  0.2886681E-010  0.4778728E+02  0.7816164E-02  0.1312668E+00
        -11   -1    0    0    0    0  0.00000000000E+00  0.00000000000E+00  0.45593999997E+02  0.45594000000E+02  0.51100000000E-03 0.  1.
         11   -1    0    0    0    0 -0.00000000000E+00 -0.00000000000E+00 -0.45593999997E+02  0.45594000000E+02  0.51100000000E-03 0. -1.
    9900012    2    1    2    0    0 -0.22869143258E+01  0.42309475484E+02 -0.93968704944E+01  0.47787275721E+02  0.20000021323E+02 0.  0.
        -12    1    1    2    0    0  0.22869143258E+01 -0.42309475484E+02  0.93968704944E+01  0.43400724279E+02  0.00000000000E+00 0.  1.
         11    1    3    3    0    0 -0.38557547752E+01  0.19916105188E+02  0.14722687024E+01  0.20339264149E+02  0.51100000000E-03 0. -1.
        -11    1    3    3    0    0  0.38554358611E+01  0.22527479028E+02 -0.10399739824E+02  0.25109884223E+02  0.51100000000E-03 0.  1.
        -12    1    3    3    0    0 -0.22865954117E+01 -0.13410873161E+00 -0.46939937244E+00  0.23381273489E+01  0.00000000000E+00 0.  1.
</event>
<event>
 7    1  0.2886681E-010  0.4778729E+02  0.7816164E-02  0.1312668E+00
        -11   -1    0    0    0    0  0.00000000000E+00  0.00000000000E+00  0.45593999997E+02  0.45594000000E+02  0.51100000000E-03 0. -1.
         11   -1    0    0    0    0 -0.00000000000E+00 -0.00000000000E+00 -0.45593999997E+02  0.45594000000E+02  0.51100000000E-03 0.  1.
    9900012    2    1    2    0    0 -0.90505738696E+01  0.26639735141E+02  0.33045927704E+02  0.47787289020E+02  0.20000081957E+02 0.  0.
        -12    1    1    2    0    0  0.90505738696E+01 -0.26639735141E+02 -0.33045927704E+02  0.43400710980E+02  0.00000000000E+00 0.  1.
         11    1    3    3    0    0 -0.11100917911E+02  0.10352340008E+02  0.13359323879E+02  0.20220604760E+02  0.51100000000E-03 0. -1.
        -11    1    3    3    0    0  0.20125177023E+01  0.17676734573E+02  0.17364815546E+02  0.24860691701E+02  0.51100000000E-03 0.  1.
        -12    1    3    3    0    0  0.37826338975E-01 -0.13893394401E+01  0.23217882798E+01  0.27059925587E+01  0.00000000000E+00 0.  1.
</event>
<event>
 7    1  0.3083339E-010  0.4778727E+02  0.7816164E-02  0.1312668E+00
        -11   -1    0    0    0    0  0.00000000000E+00  0.00000000000E+00  0.45593999997E+02  0.45594000000E+02  0.51100000000E-03 0. -1.
         11   -1    0    0    0    0 -0.00000000000E+00 -0.00000000000E+00 -0.45593999997E+02  0.45594000000E+02  0.51100000000E-03 0.  1.
    9900012    2    1    2    0    0  0.16716305981E+02  0.11873804483E+02  0.38251808545E+02  0.47787274482E+02  0.20000015672E+02 0.  0.
        -12    1    1    2    0    0 -0.16716305981E+02 -0.11873804483E+02 -0.38251808545E+02  0.43400725518E+02  0.00000000000E+00 0.  1.
         11    1    3    3    0    0  0.41974422728E+01  0.10913551348E+02  0.17327099247E+02  0.20903408652E+02  0.51100000000E-03 0. -1.
        -11    1    3    3    0    0  0.10984589522E+01 -0.33357607556E+01  0.12404393885E+01  0.37245942095E+01  0.51100000000E-03 0.  1.
         12    1    3    3    0    0  0.11420404756E+02  0.42960138897E+01  0.19684269909E+02  0.23159271621E+02  0.00000000000E+00 0. -1.
</event>
<event>
 7    1  0.2886681E-010  0.4778728E+02  0.7816164E-02  0.1312668E+00
        -11   -1    0    0    0    0  0.00000000000E+00  0.00000000000E+00  0.45593999997E+02  0.45594000000E+02  0.51100000000E-03 0.  1.
         11   -1    0    0    0    0 -0.00000000000E+00 -0.00000000000E+00 -0.45593999997E+02  0.45594000000E+02  0.51100000000E-03 0. -1.
    9900012    2    1    2    0    0  0.13591195778E+02  0.34917629986E+02 -0.21901164755E+02  0.47787279912E+02  0.20000040432E+02 0.  0.
        -12    1    1    2    0    0 -0.13591195778E+02 -0.34917629986E+02  0.21901164755E+02  0.43400720088E+02  0.00000000000E+00 0.  1.
         11    1    3    3    0    0  0.28678944533E+01  0.46524883707E+01 -0.35887473359E+01  0.65383158640E+01  0.51100000000E-03 0. -1.
        -11    1    3    3    0    0 -0.45146066474E+01  0.13332525122E+02 -0.54926036474E+01  0.15109817815E+02  0.51100000000E-03 0.  1.
        -12    1    3    3    0    0  0.15237907973E+02  0.16932616493E+02 -0.12819813772E+02  0.26139146234E+02  0.00000000000E+00 0.  1.
</event>
<event>
 7    1  0.2886681E-010  0.4778729E+02  0.7816164E-02  0.1312668E+00
        -11   -1    0    0    0    0  0.00000000000E+00  0.00000000000E+00  0.45593999997E+02  0.45594000000E+02  0.51100000000E-03 0.  1.
         11   -1    0    0    0    0 -0.00000000000E+00 -0.00000000000E+00 -0.45593999997E+02  0.45594000000E+02  0.51100000000E-03 0. -1.
    9900012    2    1    2    0    0  0.10823246100E+02 -0.33368907664E+02 -0.25553767879E+02  0.47787289088E+02  0.20000082269E+02 0.  0.
        -12    1    1    2    0    0 -0.10823246100E+02  0.33368907664E+02  0.25553767879E+02  0.43400710912E+02  0.00000000000E+00 0.  1.
         11    1    3    3    0    0  0.64764983107E+01 -0.18517614561E+02 -0.39403919941E+01  0.20009342036E+02  0.51100000000E-03 0. -1.
        -11    1    3    3    0    0  0.24960248741E+00  0.34849207517E+00  0.48399482011E+00  0.64652871181E+00  0.51100000000E-03 0.  1.
         12    1    3    3    0    0  0.40971453022E+01 -0.15199785178E+02 -0.22097370705E+02  0.27131418340E+02  0.00000000000E+00 0. -1.
</event>
<event>
 7    1  0.2886681E-010  0.4778727E+02  0.7816164E-02  0.1312668E+00
        -11   -1    0    0    0    0  0.00000000000E+00  0.00000000000E+00  0.45593999997E+02  0.45594000000E+02  0.51100000000E-03 0.  1.
         11   -1    0    0    0    0 -0.00000000000E+00 -0.00000000000E+00 -0.45593999997E+02  0.45594000000E+02  0.51100000000E-03 0. -1.
    9900012    2    1    2    0    0 -0.11744213126E+02 -0.29090118569E+02 -0.29991024832E+02  0.47787272923E+02  0.20000008566E+02 0.  0.
        -12    1    1    2    0    0  0.11744213126E+02  0.29090118569E+02  0.29991024832E+02  0.43400727077E+02  0.00000000000E+00 0.  1.
         11    1    3    3    0    0 -0.64322266503E+00 -0.10461947823E+02 -0.81312937587E+01  0.13265897109E+02  0.51100000000E-03 0. -1.
        -11    1    3    3    0    0 -0.83667789919E+01 -0.29670610941E+01 -0.14501881483E+02  0.17003264658E+02  0.51100000000E-03 0.  1.
        -12    1    3    3    0    0 -0.27342114692E+01 -0.15661109651E+02 -0.73578495911E+01  0.17518111156E+02  0.00000000000E+00 0.  1.
</event>
<event>
 7    1  0.2886681E-010  0.4778727E+02  0.7816164E-02  0.1312668E+00
        -11   -1    0    0    0    0  0.00000000000E+00  0.00000000000E+00  0.45593999997E+02  0.45594000000E+02  0.51100000000E-03 0.  1.
         11   -1    0    0    0    0 -0.00000000000E+00 -0.00000000000E+00 -0.45593999997E+02  0.45594000000E+02  0.51100000000E-03 0. -1.
    9900012    2    1    2    0    0  0.20749375040E+02  0.18157140621E+02 -0.33517233443E+02  0.47787271230E+02  0.20000000848E+02 0.  0.
        -12    1    1    2    0    0 -0.20749375040E+02 -0.18157140621E+02  0.33517233443E+02  0.43400728770E+02  0.00000000000E+00 0.  1.
         11    1    3    3    0    0  0.13207751730E+02  0.27396190212E+01 -0.78115937281E+01  0.15587533961E+02  0.51100000000E-03 0. -1.
        -11    1    3    3    0    0  0.88674673474E+01  0.12588834133E+02 -0.24313815761E+02  0.28779721318E+02  0.51100000000E-03 0.  1.
        -12    1    3    3    0    0 -0.13258440375E+01  0.28286874665E+01 -0.13918239532E+01  0.34200159520E+01  0.00000000000E+00 0.  1.
</event>
<event>
 7    1  0.2886681E-010  0.4778727E+02  0.7816164E-02  0.1312668E+00
        -11   -1    0    0    0    0  0.00000000000E+00  0.00000000000E+00  0.45593999997E+02  0.45594000000E+02  0.51100000000E-03 0.  1.
         11   -1    0    0    0    0 -0.00000000000E+00 -0.00000000000E+00 -0.45593999997E+02  0.45594000000E+02  0.51100000000E-03 0. -1.
    9900012    2    1    2    0    0 -0.42251224263E+02 -0.76268867726E+01  0.63472833767E+01  0.47787270054E+02  0.19999995485E+02 0.  0.
        -12    1    1    2    0    0  0.42251224263E+02  0.76268867726E+01 -0.63472833767E+01  0.43400729946E+02  0.00000000000E+00 0.  1.
         11    1    3    3    0    0 -0.82860887452E+01  0.11808452273E+01  0.71816124557E+01  0.11028563817E+02  0.51100000000E-03 0. -1.
        -11    1    3    3    0    0 -0.54549956274E+01 -0.20224222648E+01  0.39944318082E+01  0.70570996056E+01  0.51100000000E-03 0.  1.
         12    1    3    3    0    0 -0.28510139890E+02 -0.67853097351E+01 -0.48287608872E+01  0.29701606631E+02  0.00000000000E+00 0. -1.
</event>
<event>
 7    1  0.2886681E-010  0.4778728E+02  0.7816164E-02  0.1312668E+00
        -11   -1    0    0    0    0  0.00000000000E+00  0.00000000000E+00  0.45593999997E+02  0.45594000000E+02  0.51100000000E-03 0. -1.
         11   -1    0    0    0    0 -0.00000000000E+00 -0.00000000000E+00 -0.45593999997E+02  0.45594000000E+02  0.51100000000E-03 0.  1.
    9900012    2    1    2    0    0  0.30834881226E+02  0.28883808602E+02 -0.99276691139E+01  0.47787275194E+02  0.20000018921E+02 0.  0.
        -12    1    1    2    0    0 -0.30834881226E+02 -0.28883808602E+02  0.99276691139E+01  0.43400724806E+02  0.00000000000E+00 0.  1.
         11    1    3    3    0    0  0.18876417427E+02  0.95458595609E+01  0.24114705505E+01  0.21289851106E+02  0.51100000000E-03 0. -1.
        -11    1    3    3    0    0  0.10434625039E+02  0.12485387200E+02 -0.99959383043E+01  0.19096729460E+02  0.51100000000E-03 0.  1.
        -12    1    3    3    0    0  0.15238387600E+01  0.68525618418E+01 -0.23432013601E+01  0.74006946280E+01  0.00000000000E+00 0.  1.
</event>
<event>
 7    1  0.2886681E-010  0.4778727E+02  0.7816164E-02  0.1312668E+00
        -11   -1    0    0    0    0  0.00000000000E+00  0.00000000000E+00  0.45593999997E+02  0.45594000000E+02  0.51100000000E-03 0. -1.
         11   -1    0    0    0    0 -0.00000000000E+00 -0.00000000000E+00 -0.45593999997E+02  0.45594000000E+02  0.51100000000E-03 0.  1.
    9900012    2    1    2    0    0  0.37080837154E+02  0.22547351606E+02 -0.50184008563E+00  0.47787269684E+02  0.19999993798E+02 0.  0.
        -12    1    1    2    0    0 -0.37080837154E+02 -0.22547351606E+02  0.50184008563E+00  0.43400730316E+02  0.00000000000E+00 0.  1.
         11    1    3    3    0    0  0.38194179120E+01  0.27109053550E+01  0.18146763812E+01  0.50229485027E+01  0.51100000000E-03 0. -1.
        -11    1    3    3    0    0  0.53928463999E+01  0.63603801708E+01  0.65050996736E+01  0.10576083880E+02  0.51100000000E-03 0.  1.
        -12    1    3    3    0    0  0.27868572842E+02  0.13476066080E+02 -0.88216161404E+01  0.32188237301E+02  0.00000000000E+00 0.  1.
</event>
<event>
 7    1  0.2886681E-010  0.4778727E+02  0.7816164E-02  0.1312668E+00
        -11   -1    0    0    0    0  0.00000000000E+00  0.00000000000E+00  0.45593999997E+02  0.45594000000E+02  0.51100000000E-03 0.  1.
         11   -1    0    0    0    0 -0.00000000000E+00 -0.00000000000E+00 -0.45593999997E+02  0.45594000000E+02  0.51100000000E-03 0. -1.
    9900012    2    1    2    0    0 -0.35880429950E+02 -0.14138565458E+02 -0.19907760987E+02  0.47787271503E+02  0.20000002090E+02 0.  0.
        -12    1    1    2    0    0  0.35880429950E+02  0.14138565458E+02  0.19907760987E+02  0.43400728497E+02  0.00000000000E+00 0.  1.
         11    1    3    3    0    0  0.21144804441E+00 -0.40937943833E+01 -0.61489639709E+00  0.41451128535E+01  0.51100000000E-03 0. -1.
        -11    1    3    3    0    0 -0.19726731826E+02 -0.31563126290E+01 -0.15974078362E+02  0.25578847467E+02  0.51100000000E-03 0.  1.
        -12    1    3    3    0    0 -0.16365146168E+02 -0.68884584453E+01 -0.33187862284E+01  0.18063311183E+02  0.00000000000E+00 0.  1.
</event>
<event>
 7    1  0.2886681E-010  0.4778729E+02  0.7816164E-02  0.1312668E+00
        -11   -1    0    0    0    0  0.00000000000E+00  0.00000000000E+00  0.45593999997E+02  0.45594000000E+02  0.51100000000E-03 0.  1.
         11   -1    0    0    0    0 -0.00000000000E+00 -0.00000000000E+00 -0.45593999997E+02  0.45594000000E+02  0.51100000000E-03 0. -1.
    9900012    2    1    2    0    0 -0.69796159334E+01 -0.40024142211E+01 -0.42648412266E+02  0.47787292322E+02  0.20000097011E+02 0.  0.
        -12    1    1    2    0    0  0.69796159334E+01  0.40024142211E+01  0.42648412266E+02  0.43400707678E+02  0.00000000000E+00 0.  1.
         11    1    3    3    0    0 -0.88004648315E+00 -0.15088508931E+01 -0.87396060358E+01  0.89124534643E+01  0.51100000000E-03 0. -1.
        -11    1    3    3    0    0 -0.49664917879E+01 -0.94124309918E+01 -0.12879061944E+02  0.16707188114E+02  0.51100000000E-03 0.  1.
        -12    1    3    3    0    0 -0.11330776623E+01  0.69188676639E+01 -0.21029744286E+02  0.22167650744E+02  0.00000000000E+00 0.  1.
</event>
<event>
 7    1  0.2886681E-010  0.4778728E+02  0.7816164E-02  0.1312668E+00
        -11   -1    0    0    0    0  0.00000000000E+00  0.00000000000E+00  0.45593999997E+02  0.45594000000E+02  0.51100000000E-03 0. -1.
         11   -1    0    0    0    0 -0.00000000000E+00 -0.00000000000E+00 -0.45593999997E+02  0.45594000000E+02  0.51100000000E-03 0.  1.
    9900012    2    1    2    0    0  0.34371227550E+02  0.10993104011E+02  0.24112091892E+02  0.47787278871E+02  0.20000035687E+02 0.  0.
        -12    1    1    2    0    0 -0.34371227550E+02 -0.10993104011E+02 -0.24112091892E+02  0.43400721129E+02  0.00000000000E+00 0.  1.
         11    1    3    3    0    0  0.86384684851E+01  0.12224931414E+02  0.10155987710E+02  0.18089117515E+02  0.51100000000E-03 0. -1.
        -11    1    3    3    0    0  0.36684609881E+01  0.19478849119E+00  0.24546982992E+00  0.36818207827E+01  0.51100000000E-03 0.  1.
         12    1    3    3    0    0  0.22064298077E+02 -0.14266158941E+01  0.13710634352E+02  0.26016340574E+02  0.00000000000E+00 0. -1.
</event>
<event>
 7    1  0.2886681E-010  0.4778727E+02  0.7816164E-02  0.1312668E+00
        -11   -1    0    0    0    0  0.00000000000E+00  0.00000000000E+00  0.45593999997E+02  0.45594000000E+02  0.51100000000E-03 0.  1.
         11   -1    0    0    0    0 -0.00000000000E+00 -0.00000000000E+00 -0.45593999997E+02  0.45594000000E+02  0.51100000000E-03 0. -1.
    9900012    2    1    2    0    0  0.41419555886E+02  0.12268375779E+02  0.41869633438E+01  0.47787270558E+02  0.19999997784E+02 0.  0.
        -12    1    1    2    0    0 -0.41419555886E+02 -0.12268375779E+02 -0.41869633438E+01  0.43400729442E+02  0.00000000000E+00 0.  1.
         11    1    3    3    0    0  0.30439778505E+02  0.15841499194E+02  0.27872653341E+01  0.34428216051E+02  0.51100000000E-03 0. -1.
        -11    1    3    3    0    0  0.91500788155E+00 -0.20719352014E+01 -0.15730148088E+01  0.27576313662E+01  0.51100000000E-03 0.  1.
         12    1    3    3    0    0  0.10064769499E+02 -0.15011882135E+01  0.29727128185E+01  0.10601423142E+02  0.00000000000E+00 0. -1.
</event>
<event>
 7    1  0.2886681E-010  0.4778727E+02  0.7816164E-02  0.1312668E+00
        -11   -1    0    0    0    0  0.00000000000E+00  0.00000000000E+00  0.45593999997E+02  0.45594000000E+02  0.51100000000E-03 0.  1.
         11   -1    0    0    0    0 -0.00000000000E+00 -0.00000000000E+00 -0.45593999997E+02  0.45594000000E+02  0.51100000000E-03 0. -1.
    9900012    2    1    2    0    0 -0.22623002651E+02 -0.28609793909E+02 -0.23522381402E+02  0.47787274392E+02  0.20000015261E+02 0.  0.
        -12    1    1    2    0    0  0.22623002651E+02  0.28609793909E+02  0.23522381402E+02  0.43400725608E+02  0.00000000000E+00 0.  1.
         11    1    3    3    0    0 -0.28856655709E+01 -0.67282223140E+01 -0.62484100301E+01  0.96248984129E+01  0.51100000000E-03 0. -1.
        -11    1    3    3    0    0 -0.30036751948E+00 -0.11302923849E+02 -0.93002583062E+01  0.14640393199E+02  0.51100000000E-03 0.  1.
        -12    1    3    3    0    0 -0.19436969561E+02 -0.10578647746E+02 -0.79737130661E+01  0.23521982780E+02  0.00000000000E+00 0.  1.
</event>
<event>
 7    1  0.2886681E-010  0.4778726E+02  0.7816164E-02  0.1312668E+00
        -11   -1    0    0    0    0  0.00000000000E+00  0.00000000000E+00  0.45593999997E+02  0.45594000000E+02  0.51100000000E-03 0.  1.
         11   -1    0    0    0    0 -0.00000000000E+00 -0.00000000000E+00 -0.45593999997E+02  0.45594000000E+02  0.51100000000E-03 0. -1.
    9900012    2    1    2    0    0  0.24549164011E+02 -0.12053535514E+02 -0.33699776020E+02  0.47787261805E+02  0.19999957874E+02 0.  0.
        -12    1    1    2    0    0 -0.24549164011E+02  0.12053535514E+02  0.33699776020E+02  0.43400738195E+02  0.00000000000E+00 0.  1.
         11    1    3    3    0    0  0.75009994906E+01 -0.92753309120E+01 -0.11697925688E+02  0.16707430160E+02  0.51100000000E-03 0. -1.
        -11    1    3    3    0    0  0.18371294229E+02 -0.19480881422E+01 -0.22784181051E+02  0.29332889484E+02  0.51100000000E-03 0.  1.
        -12    1    3    3    0    0 -0.13231297084E+01 -0.83011646019E+00  0.78233071809E+00  0.17469421614E+01  0.00000000000E+00 0.  1.
</event>
<event>
 7    1  0.2886681E-010  0.4778726E+02  0.7816164E-02  0.1312668E+00
        -11   -1    0    0    0    0  0.00000000000E+00  0.00000000000E+00  0.45593999997E+02  0.45594000000E+02  0.51100000000E-03 0.  1.
         11   -1    0    0    0    0 -0.00000000000E+00 -0.00000000000E+00 -0.45593999997E+02  0.45594000000E+02  0.51100000000E-03 0. -1.
    9900012    2    1    2    0    0  0.72030874494E+01  0.48848134118E+01 -0.42519150240E+02  0.47787262587E+02  0.19999961437E+02 0.  0.
        -12    1    1    2    0    0 -0.72030874494E+01 -0.48848134118E+01  0.42519150240E+02  0.43400737413E+02  0.00000000000E+00 0.  1.
         11    1    3    3    0    0  0.96593936745E+01 -0.16402081298E+00 -0.32774014889E+02  0.34168213901E+02  0.51100000000E-03 0. -1.
        -11    1    3    3    0    0 -0.28797184117E+01  0.24093104507E+01 -0.25917775372E+00  0.37636057641E+01  0.51100000000E-03 0.  1.
         12    1    3    3    0    0  0.42341218658E+00  0.26395237741E+01 -0.94859575976E+01  0.98554429214E+01  0.00000000000E+00 0. -1.
</event>
<event>
 7    1  0.2886681E-010  0.4778727E+02  0.7816164E-02  0.1312668E+00
        -11   -1    0    0    0    0  0.00000000000E+00  0.00000000000E+00  0.45593999997E+02  0.45594000000E+02  0.51100000000E-03 0.  1.
         11   -1    0    0    0    0 -0.00000000000E+00 -0.00000000000E+00 -0.45593999997E+02  0.45594000000E+02  0.51100000000E-03 0. -1.
    9900012    2    1    2    0    0 -0.10723740387E+02  0.34771353467E+02 -0.23655400258E+02  0.47787267389E+02  0.19999983333E+02 0.  0.
        -12    1    1    2    0    0  0.10723740387E+02 -0.34771353467E+02  0.23655400258E+02  0.43400732611E+02  0.00000000000E+00 0.  1.
         11    1    3    3    0    0 -0.13575127878E+02  0.20913057616E+02 -0.18072482335E+02  0.30793744393E+02  0.51100000000E-03 0. -1.
        -11    1    3    3    0    0  0.27061880449E+01  0.10662597337E+01  0.27815487008E+00  0.29219400998E+01  0.51100000000E-03 0.  1.
         12    1    3    3    0    0  0.14519944595E+00  0.12792036117E+02 -0.58610727932E+01  0.14071582896E+02  0.00000000000E+00 0. -1.
</event>
<event>
 7    1  0.2886681E-010  0.4778727E+02  0.7816164E-02  0.1312668E+00
        -11   -1    0    0    0    0  0.00000000000E+00  0.00000000000E+00  0.45593999997E+02  0.45594000000E+02  0.51100000000E-03 0.  1.
         11   -1    0    0    0    0 -0.00000000000E+00 -0.00000000000E+00 -0.45593999997E+02  0.45594000000E+02  0.51100000000E-03 0. -1.
    9900012    2    1    2    0    0  0.37320463424E+02 -0.14339686692E+01 -0.22107690868E+02  0.47787271298E+02  0.20000001157E+02 0.  0.
        -12    1    1    2    0    0 -0.37320463424E+02  0.14339686692E+01  0.22107690868E+02  0.43400728702E+02  0.00000000000E+00 0.  1.
         11    1    3    3    0    0  0.84320970094E+01 -0.49863217756E+01 -0.58351450377E+01  0.11402306025E+02  0.51100000000E-03 0. -1.
        -11    1    3    3    0    0  0.19367383488E+02  0.92262430723E+01 -0.11091372978E+02  0.24150313853E+02  0.51100000000E-03 0.  1.
        -12    1    3    3    0    0  0.95209829267E+01 -0.56738899660E+01 -0.51811728526E+01  0.12234651420E+02  0.00000000000E+00 0.  1.
</event>
<event>
 7    1  0.2886681E-010  0.4778733E+02  0.7816164E-02  0.1312667E+00
        -11   -1    0    0    0    0  0.00000000000E+00  0.00000000000E+00  0.45593999997E+02  0.45594000000E+02  0.51100000000E-03 0. -1.
         11   -1    0    0    0    0 -0.00000000000E+00 -0.00000000000E+00 -0.45593999997E+02  0.45594000000E+02  0.51100000000E-03 0.  1.
    9900012    2    1    2    0    0  0.87876149488E+01  0.40901431827E+02  0.11552855506E+02  0.47787334426E+02  0.20000288979E+02 0.  0.
        -12    1    1    2    0    0 -0.87876149488E+01 -0.40901431827E+02 -0.11552855506E+02  0.43400665574E+02  0.00000000000E+00 0.  1.
         11    1    3    3    0    0  0.67776135099E+01  0.41011061572E+02  0.92791752819E+01  0.42590448581E+02  0.51100000000E-03 0. -1.
        -11    1    3    3    0    0  0.31525007303E+01 -0.90282592190E+00  0.16815577482E+01  0.36852397780E+01  0.51100000000E-03 0.  1.
         12    1    3    3    0    0 -0.11424992915E+01  0.79319617645E+00  0.59212247554E+00  0.15116460668E+01  0.00000000000E+00 0. -1.
</event>
<event>
 7    1  0.2886681E-010  0.4778727E+02  0.7816164E-02  0.1312668E+00
        -11   -1    0    0    0    0  0.00000000000E+00  0.00000000000E+00  0.45593999997E+02  0.45594000000E+02  0.51100000000E-03 0.  1.
         11   -1    0    0    0    0 -0.00000000000E+00 -0.00000000000E+00 -0.45593999997E+02  0.45594000000E+02  0.51100000000E-03 0. -1.
    9900012    2    1    2    0    0 -0.42067481218E+02  0.15329847894E+01  0.10564100500E+02  0.47787271460E+02  0.20000001897E+02 0.  0.
        -12    1    1    2    0    0  0.42067481218E+02 -0.15329847894E+01 -0.10564100500E+02  0.43400728540E+02  0.00000000000E+00 0.  1.
         11    1    3    3    0    0 -0.16545065461E+02  0.31008194074E+01  0.70126260141E+01  0.18235437915E+02  0.51100000000E-03 0. -1.
        -11    1    3    3    0    0 -0.23275182202E+02 -0.62880235018E+01  0.29612582161E+01  0.24290788307E+02  0.51100000000E-03 0.  1.
        -12    1    3    3    0    0 -0.22472335553E+01  0.47201888838E+01  0.59021626991E+00  0.52610452379E+01  0.00000000000E+00 0.  1.
</event>
<event>
 7    1  0.2886681E-010  0.4778728E+02  0.7816164E-02  0.1312668E+00
        -11   -1    0    0    0    0  0.00000000000E+00  0.00000000000E+00  0.45593999997E+02  0.45594000000E+02  0.51100000000E-03 0.  1.
         11   -1    0    0    0    0 -0.00000000000E+00 -0.00000000000E+00 -0.45593999997E+02  0.45594000000E+02  0.51100000000E-03 0. -1.
    9900012    2    1    2    0    0 -0.50366214270E+01 -0.36460399220E+02 -0.22997708403E+02  0.47787275830E+02  0.20000021821E+02 0.  0.
        -12    1    1    2    0    0  0.50366214270E+01  0.36460399220E+02  0.22997708403E+02  0.43400724170E+02  0.00000000000E+00 0.  1.
         11    1    3    3    0    0 -0.72827700127E+01 -0.23361492649E+02 -0.23494964482E+02  0.33923611750E+02  0.51100000000E-03 0. -1.
        -11    1    3    3    0    0  0.21524136493E+01 -0.11429173289E+02 -0.92704971640E+00  0.11666975102E+02  0.51100000000E-03 0.  1.
        -12    1    3    3    0    0  0.93734936439E-01 -0.16697332812E+01  0.14243057959E+01  0.21966889787E+01  0.00000000000E+00 0.  1.
</event>
<event>
 7    1  0.2886681E-010  0.4778727E+02  0.7816164E-02  0.1312668E+00
        -11   -1    0    0    0    0  0.00000000000E+00  0.00000000000E+00  0.45593999997E+02  0.45594000000E+02  0.51100000000E-03 0.  1.
         11   -1    0    0    0    0 -0.00000000000E+00 -0.00000000000E+00 -0.45593999997E+02  0.45594000000E+02  0.51100000000E-03 0. -1.
    9900012    2    1    2    0    0  0.57856426928E+01  0.12680961150E+02 -0.41101617801E+02  0.47787269327E+02  0.19999992170E+02 0.  0.
        -12    1    1    2    0    0 -0.57856426928E+01 -0.12680961150E+02  0.41101617801E+02  0.43400730673E+02  0.00000000000E+00 0.  1.
         11    1    3    3    0    0 -0.30335978738E+01  0.85537912848E+01 -0.24303819081E+02  0.25943124014E+02  0.51100000000E-03 0. -1.
        -11    1    3    3    0    0  0.89677394932E+01  0.12381080893E+01 -0.16644632592E+02  0.18947217675E+02  0.51100000000E-03 0.  1.
        -12    1    3    3    0    0 -0.14849892659E+00  0.28890617761E+01 -0.15316612813E+00  0.28969276380E+01  0.00000000000E+00 0.  1.
</event>
<event>
 7    1  0.2886681E-010  0.4778727E+02  0.7816164E-02  0.1312668E+00
        -11   -1    0    0    0    0  0.00000000000E+00  0.00000000000E+00  0.45593999997E+02  0.45594000000E+02  0.51100000000E-03 0.  1.
         11   -1    0    0    0    0 -0.00000000000E+00 -0.00000000000E+00 -0.45593999997E+02  0.45594000000E+02  0.51100000000E-03 0. -1.
    9900012    2    1    2    0    0  0.26232783211E+02 -0.60015303809E+01 -0.34050642763E+02  0.47787267812E+02  0.19999985262E+02 0.  0.
        -12    1    1    2    0    0 -0.26232783211E+02  0.60015303809E+01  0.34050642763E+02  0.43400732188E+02  0.00000000000E+00 0.  1.
         11    1    3    3    0    0  0.24196367921E+02 -0.83984918812E+00 -0.32238449174E+02  0.40317330922E+02  0.51100000000E-03 0. -1.
        -11    1    3    3    0    0  0.63583816681E-02 -0.51111241399E+01 -0.18590170294E+01  0.54387107829E+01  0.51100000000E-03 0.  1.
         12    1    3    3    0    0  0.20300569078E+01 -0.50557052808E-01  0.46823440988E-01  0.20312261073E+01  0.00000000000E+00 0. -1.
</event>
<event>
 7    1  0.2886681E-010  0.4778727E+02  0.7816164E-02  0.1312668E+00
        -11   -1    0    0    0    0  0.00000000000E+00  0.00000000000E+00  0.45593999997E+02  0.45594000000E+02  0.51100000000E-03 0.  1.
         11   -1    0    0    0    0 -0.00000000000E+00 -0.00000000000E+00 -0.45593999997E+02  0.45594000000E+02  0.51100000000E-03 0. -1.
    9900012    2    1    2    0    0 -0.15221707140E+02 -0.25342554001E+02 -0.31775427586E+02  0.47787271782E+02  0.20000003364E+02 0.  0.
        -12    1    1    2    0    0  0.15221707140E+02  0.25342554001E+02  0.31775427586E+02  0.43400728218E+02  0.00000000000E+00 0.  1.
         11    1    3    3    0    0 -0.29115006438E+01 -0.19402223581E+02 -0.18137545569E+02  0.26718788809E+02  0.51100000000E-03 0. -1.
        -11    1    3    3    0    0 -0.10514366319E+02 -0.89317584660E+00 -0.10361584290E+02  0.14788917859E+02  0.51100000000E-03 0.  1.
         12    1    3    3    0    0 -0.17958401774E+01 -0.50471545727E+01 -0.32762977271E+01  0.62795651139E+01  0.00000000000E+00 0. -1.
</event>
<event>
 7    1  0.2886681E-010  0.4778727E+02  0.7816164E-02  0.1312668E+00
        -11   -1    0    0    0    0  0.00000000000E+00  0.00000000000E+00  0.45593999997E+02  0.45594000000E+02  0.51100000000E-03 0. -1.
         11   -1    0    0    0    0 -0.00000000000E+00 -0.00000000000E+00 -0.45593999997E+02  0.45594000000E+02  0.51100000000E-03 0.  1.
    9900012    2    1    2    0    0 -0.17078389713E+02  0.39219100642E+02 -0.73358013866E+01  0.47787271523E+02  0.20000002181E+02 0.  0.
        -12    1    1    2    0    0  0.17078389713E+02 -0.39219100642E+02  0.73358013866E+01  0.43400728477E+02  0.00000000000E+00 0.  1.
         11    1    3    3    0    0 -0.73483637008E+01  0.29908983407E+02 -0.59401325460E+01  0.31366079010E+02  0.51100000000E-03 0. -1.
        -11    1    3    3    0    0 -0.11965697222E+01 -0.19089354820E+01  0.34201541063E-01  0.22532163192E+01  0.51100000000E-03 0.  1.
         12    1    3    3    0    0 -0.85334562898E+01  0.11219052717E+02 -0.14298703816E+01  0.14167976194E+02  0.00000000000E+00 0. -1.
</event>
<event>
 7    1  0.2886681E-010  0.4778727E+02  0.7816164E-02  0.1312668E+00
        -11   -1    0    0    0    0  0.00000000000E+00  0.00000000000E+00  0.45593999997E+02  0.45594000000E+02  0.51100000000E-03 0.  1.
         11   -1    0    0    0    0 -0.00000000000E+00 -0.00000000000E+00 -0.45593999997E+02  0.45594000000E+02  0.51100000000E-03 0. -1.
    9900012    2    1    2    0    0 -0.35749050835E+01  0.31376783866E+02 -0.29771476833E+02  0.47787270226E+02  0.19999996268E+02 0.  0.
        -12    1    1    2    0    0  0.35749050835E+01 -0.31376783866E+02  0.29771476833E+02  0.43400729774E+02  0.00000000000E+00 0.  1.
         11    1    3    3    0    0 -0.32863814328E+01  0.21383973277E+02 -0.25502364137E+02  0.33443163619E+02  0.51100000000E-03 0. -1.
        -11    1    3    3    0    0 -0.39698985137E+01  0.87801987461E+01 -0.19626559089E+01  0.98338193347E+01  0.51100000000E-03 0.  1.
         12    1    3    3    0    0  0.36813748630E+01  0.12126118424E+01 -0.23064567876E+01  0.45102872719E+01  0.00000000000E+00 0. -1.
</event>
<event>
 7    1  0.2886681E-010  0.4778727E+02  0.7816164E-02  0.1312668E+00
        -11   -1    0    0    0    0  0.00000000000E+00  0.00000000000E+00  0.45593999997E+02  0.45594000000E+02  0.51100000000E-03 0.  1.
         11   -1    0    0    0    0 -0.00000000000E+00 -0.00000000000E+00 -0.45593999997E+02  0.45594000000E+02  0.51100000000E-03 0. -1.
    9900012    2    1    2    0    0 -0.16193932525E+02  0.16359490073E+02 -0.36793301471E+02  0.47787269601E+02  0.19999993418E+02 0.  0.
        -12    1    1    2    0    0  0.16193932525E+02 -0.16359490073E+02  0.36793301471E+02  0.43400730399E+02  0.00000000000E+00 0.  1.
         11    1    3    3    0    0 -0.50919407187E+01 -0.15464481093E+01 -0.12104315532E+01  0.54575183778E+01  0.51100000000E-03 0. -1.
        -11    1    3    3    0    0 -0.15335955336E+01  0.25057773566E+01 -0.70549645633E+00  0.30213508457E+01  0.51100000000E-03 0.  1.
         12    1    3    3    0    0 -0.95683962723E+01  0.15400160825E+02 -0.34877373461E+02  0.39308400377E+02  0.00000000000E+00 0. -1.
</event>
<event>
 7    1  0.2886681E-010  0.4778727E+02  0.7816164E-02  0.1312668E+00
        -11   -1    0    0    0    0  0.00000000000E+00  0.00000000000E+00  0.45593999997E+02  0.45594000000E+02  0.51100000000E-03 0.  1.
         11   -1    0    0    0    0 -0.00000000000E+00 -0.00000000000E+00 -0.45593999997E+02  0.45594000000E+02  0.51100000000E-03 0. -1.
    9900012    2    1    2    0    0  0.64057637113E+01  0.21116697115E+02 -0.37372107329E+02  0.47787272910E+02  0.20000008506E+02 0.  0.
        -12    1    1    2    0    0 -0.64057637113E+01 -0.21116697115E+02  0.37372107329E+02  0.43400727090E+02  0.00000000000E+00 0.  1.
         11    1    3    3    0    0  0.10006893066E+02  0.14459547214E+02 -0.24442401185E+02  0.30110586020E+02  0.51100000000E-03 0. -1.
        -11    1    3    3    0    0  0.13950558507E+00 -0.81583686647E+00 -0.78574404284E+01  0.79009127288E+01  0.51100000000E-03 0.  1.
         12    1    3    3    0    0 -0.37406349401E+01  0.74729867669E+01 -0.50722657149E+01  0.97757741615E+01  0.00000000000E+00 0. -1.
</event>
<event>
 7    1  0.2886681E-010  0.4778727E+02  0.7816164E-02  0.1312668E+00
        -11   -1    0    0    0    0  0.00000000000E+00  0.00000000000E+00  0.45593999997E+02  0.45594000000E+02  0.51100000000E-03 0. -1.
         11   -1    0    0    0    0 -0.00000000000E+00 -0.00000000000E+00 -0.45593999997E+02  0.45594000000E+02  0.51100000000E-03 0.  1.
    9900012    2    1    2    0    0 -0.31629215712E+02 -0.29572897278E+02  0.29427310195E+01  0.47787271828E+02  0.20000003573E+02 0.  0.
        -12    1    1    2    0    0  0.31629215712E+02  0.29572897278E+02 -0.29427310195E+01  0.43400728172E+02  0.00000000000E+00 0.  1.
         11    1    3    3    0    0 -0.79791832220E+01 -0.51678794501E+01  0.31046859065E+01  0.10000670864E+02  0.51100000000E-03 0. -1.
        -11    1    3    3    0    0 -0.24452258639E+02 -0.25811876030E+02  0.13364774010E+01  0.35580220191E+02  0.51100000000E-03 0.  1.
        -12    1    3    3    0    0  0.80222614844E+00  0.14068582017E+01 -0.14984322880E+01  0.22063807728E+01  0.00000000000E+00 0.  1.
</event>
<event>
 7    1  0.2886681E-010  0.4778728E+02  0.7816164E-02  0.1312668E+00
        -11   -1    0    0    0    0  0.00000000000E+00  0.00000000000E+00  0.45593999997E+02  0.45594000000E+02  0.51100000000E-03 0. -1.
         11   -1    0    0    0    0 -0.00000000000E+00 -0.00000000000E+00 -0.45593999997E+02  0.45594000000E+02  0.51100000000E-03 0.  1.
    9900012    2    1    2    0    0 -0.43328332460E+02  0.19629253665E+01 -0.15571139281E+01  0.47787284873E+02  0.20000063048E+02 0.  0.
        -12    1    1    2    0    0  0.43328332460E+02 -0.19629253665E+01  0.15571139281E+01  0.43400715127E+02  0.00000000000E+00 0.  1.
         11    1    3    3    0    0 -0.12154772822E+02  0.43148939191E+01 -0.50337319561E+01  0.13845406081E+02  0.51100000000E-03 0. -1.
        -11    1    3    3    0    0 -0.27476479929E+02  0.50815128626E+00  0.66723594177E+01  0.28279595957E+02  0.51100000000E-03 0.  1.
        -12    1    3    3    0    0 -0.36970797095E+01 -0.28601198388E+01 -0.31957413897E+01  0.56622828348E+01  0.00000000000E+00 0.  1.
</event>
<event>
 7    1  0.2886681E-010  0.4778727E+02  0.7816164E-02  0.1312668E+00
        -11   -1    0    0    0    0  0.00000000000E+00  0.00000000000E+00  0.45593999997E+02  0.45594000000E+02  0.51100000000E-03 0.  1.
         11   -1    0    0    0    0 -0.00000000000E+00 -0.00000000000E+00 -0.45593999997E+02  0.45594000000E+02  0.51100000000E-03 0. -1.
    9900012    2    1    2    0    0  0.35580224879E+01 -0.32345835624E+02 -0.28717772492E+02  0.47787273473E+02  0.20000011072E+02 0.  0.
        -12    1    1    2    0    0 -0.35580224879E+01  0.32345835624E+02  0.28717772492E+02  0.43400726527E+02  0.00000000000E+00 0.  1.
         11    1    3    3    0    0  0.86375383805E+01 -0.24520608439E+02 -0.19003753152E+02  0.32202638736E+02  0.51100000000E-03 0. -1.
        -11    1    3    3    0    0 -0.55973504293E+01 -0.47692255487E+01 -0.10065117208E+02  0.12465248848E+02  0.51100000000E-03 0.  1.
        -12    1    3    3    0    0  0.51783453673E+00 -0.30560016362E+01  0.35109786838E+00  0.31193858884E+01  0.00000000000E+00 0.  1.
</event>
<event>
 7    1  0.2886681E-010  0.4778727E+02  0.7816164E-02  0.1312668E+00
        -11   -1    0    0    0    0  0.00000000000E+00  0.00000000000E+00  0.45593999997E+02  0.45594000000E+02  0.51100000000E-03 0.  1.
         11   -1    0    0    0    0 -0.00000000000E+00 -0.00000000000E+00 -0.45593999997E+02  0.45594000000E+02  0.51100000000E-03 0. -1.
    9900012    2    1    2    0    0 -0.26939012907E+02  0.33060398586E+02  0.80574652705E+01  0.47787272844E+02  0.20000008207E+02 0.  0.
        -12    1    1    2    0    0  0.26939012907E+02 -0.33060398586E+02 -0.80574652705E+01  0.43400727156E+02  0.00000000000E+00 0.  1.
         11    1    3    3    0    0 -0.96676881809E+01  0.21479918803E+02  0.40782171678E+01  0.23905709821E+02  0.51100000000E-03 0. -1.
        -11    1    3    3    0    0 -0.92780294065E+01  0.67684714299E+00  0.45375974777E+01  0.10350349890E+02  0.51100000000E-03 0.  1.
        -12    1    3    3    0    0 -0.79932953192E+01  0.10903632640E+02 -0.55834937493E+00  0.13531213133E+02  0.00000000000E+00 0.  1.
</event>
<event>
 7    1  0.2886681E-010  0.4778727E+02  0.7816164E-02  0.1312668E+00
        -11   -1    0    0    0    0  0.00000000000E+00  0.00000000000E+00  0.45593999997E+02  0.45594000000E+02  0.51100000000E-03 0. -1.
         11   -1    0    0    0    0 -0.00000000000E+00 -0.00000000000E+00 -0.45593999997E+02  0.45594000000E+02  0.51100000000E-03 0.  1.
    9900012    2    1    2    0    0 -0.11568360871E+02 -0.30691754823E+01  0.41717816238E+02  0.47787274165E+02  0.20000014227E+02 0.  0.
        -12    1    1    2    0    0  0.11568360871E+02  0.30691754823E+01 -0.41717816238E+02  0.43400725835E+02  0.00000000000E+00 0.  1.
         11    1    3    3    0    0  0.26092071302E+00 -0.91650554920E-01  0.22179943410E+02  0.22181667416E+02  0.51100000000E-03 0.  1.
        -11    1    3    3    0    0 -0.12935863147E+02 -0.49949456051E+00  0.18740491270E+02  0.22777007342E+02  0.51100000000E-03 0. -1.
        -12    1    3    3    0    0  0.11065815626E+01 -0.24780303668E+01  0.79738155827E+00  0.28285994066E+01  0.00000000000E+00 0.  1.
</event>
<event>
 7    1  0.2886681E-010  0.4778726E+02  0.7816164E-02  0.1312668E+00
        -11   -1    0    0    0    0  0.00000000000E+00  0.00000000000E+00  0.45593999997E+02  0.45594000000E+02  0.51100000000E-03 0.  1.
         11   -1    0    0    0    0 -0.00000000000E+00 -0.00000000000E+00 -0.45593999997E+02  0.45594000000E+02  0.51100000000E-03 0. -1.
    9900012    2    1    2    0    0 -0.38517675974E+02  0.17540783304E+02 -0.96090343483E+01  0.47787262881E+02  0.19999962781E+02 0.  0.
        -12    1    1    2    0    0  0.38517675974E+02 -0.17540783304E+02  0.96090343483E+01  0.43400737119E+02  0.00000000000E+00 0.  1.
         11    1    3    3    0    0 -0.23505032669E+02  0.86470043154E+01 -0.16422181092E+01  0.25098886927E+02  0.51100000000E-03 0. -1.
        -11    1    3    3    0    0  0.16656945818E+01  0.24983920463E+01 -0.27700578026E+01  0.40853055880E+01  0.51100000000E-03 0.  1.
        -12    1    3    3    0    0 -0.16678337887E+02  0.63953869422E+01 -0.51967584365E+01  0.18603070366E+02  0.00000000000E+00 0.  1.
</event>
<event>
 7    1  0.2886681E-010  0.4778727E+02  0.7816164E-02  0.1312668E+00
        -11   -1    0    0    0    0  0.00000000000E+00  0.00000000000E+00  0.45593999997E+02  0.45594000000E+02  0.51100000000E-03 0. -1.
         11   -1    0    0    0    0 -0.00000000000E+00 -0.00000000000E+00 -0.45593999997E+02  0.45594000000E+02  0.51100000000E-03 0.  1.
    9900012    2    1    2    0    0 -0.39500617094E+02 -0.15893953247E+02  0.84087358485E+01  0.47787270292E+02  0.19999996571E+02 0.  0.
        -12    1    1    2    0    0  0.39500617094E+02  0.15893953247E+02 -0.84087358485E+01  0.43400729708E+02  0.00000000000E+00 0.  1.
         11    1    3    3    0    0 -0.64657366497E+01 -0.29485779068E+01  0.72131238132E+01  0.10125661337E+02  0.51100000000E-03 0. -1.
        -11    1    3    3    0    0 -0.14330705367E+02 -0.20313197775E+00 -0.30029937297E+01  0.14643372238E+02  0.51100000000E-03 0.  1.
        -12    1    3    3    0    0 -0.18704175077E+02 -0.12742243362E+02  0.41986057651E+01  0.23018236718E+02  0.00000000000E+00 0.  1.
</event>
<event>
 7    1  0.2886681E-010  0.4778727E+02  0.7816164E-02  0.1312668E+00
        -11   -1    0    0    0    0  0.00000000000E+00  0.00000000000E+00  0.45593999997E+02  0.45594000000E+02  0.51100000000E-03 0. -1.
         11   -1    0    0    0    0 -0.00000000000E+00 -0.00000000000E+00 -0.45593999997E+02  0.45594000000E+02  0.51100000000E-03 0.  1.
    9900012    2    1    2    0    0 -0.15792267575E+02 -0.19451094310E+02  0.35438428382E+02  0.47787274301E+02  0.20000014847E+02 0.  0.
        -12    1    1    2    0    0  0.15792267575E+02  0.19451094310E+02 -0.35438428382E+02  0.43400725699E+02  0.00000000000E+00 0.  1.
         11    1    3    3    0    0 -0.57764265828E+01  0.20522364291E+01  0.11139421845E+02  0.12714774781E+02  0.51100000000E-03 0. -1.
        -11    1    3    3    0    0 -0.47718152147E+01 -0.22527200262E+01  0.41163515007E+01  0.66924821925E+01  0.51100000000E-03 0.  1.
         12    1    3    3    0    0 -0.52440257779E+01 -0.19250610713E+02  0.20182655037E+02  0.28380017327E+02  0.00000000000E+00 0. -1.
</event>
<event>
 7    1  0.2886681E-010  0.4778727E+02  0.7816164E-02  0.1312668E+00
        -11   -1    0    0    0    0  0.00000000000E+00  0.00000000000E+00  0.45593999997E+02  0.45594000000E+02  0.51100000000E-03 0.  1.
         11   -1    0    0    0    0 -0.00000000000E+00 -0.00000000000E+00 -0.45593999997E+02  0.45594000000E+02  0.51100000000E-03 0. -1.
    9900012    2    1    2    0    0 -0.32117489752E+02 -0.14769986985E+02 -0.25178116207E+02  0.47787271904E+02  0.20000003919E+02 0.  0.
        -12    1    1    2    0    0  0.32117489752E+02  0.14769986985E+02  0.25178116207E+02  0.43400728096E+02  0.00000000000E+00 0.  1.
         11    1    3    3    0    0 -0.18617019171E+02 -0.98379280017E+01 -0.21038124315E+02  0.29765431378E+02  0.51100000000E-03 0. -1.
        -11    1    3    3    0    0 -0.95551106385E+01  0.16991908785E+01 -0.12634020693E+01  0.97869082965E+01  0.51100000000E-03 0.  1.
         12    1    3    3    0    0 -0.39453599429E+01 -0.66312498620E+01 -0.28765898231E+01  0.82349322293E+01  0.00000000000E+00 0. -1.
</event>
<event>
 7    1  0.2886681E-010  0.4778727E+02  0.7816164E-02  0.1312668E+00
        -11   -1    0    0    0    0  0.00000000000E+00  0.00000000000E+00  0.45593999997E+02  0.45594000000E+02  0.51100000000E-03 0. -1.
         11   -1    0    0    0    0 -0.00000000000E+00 -0.00000000000E+00 -0.45593999997E+02  0.45594000000E+02  0.51100000000E-03 0.  1.
    9900012    2    1    2    0    0  0.21386891868E+02 -0.36851000731E+02  0.82600086577E+01  0.47787272567E+02  0.20000006943E+02 0.  0.
        -12    1    1    2    0    0 -0.21386891868E+02  0.36851000731E+02 -0.82600086577E+01  0.43400727433E+02  0.00000000000E+00 0.  1.
         11    1    3    3    0    0  0.18251261232E+02 -0.34595590578E+02  0.12207765675E+02  0.40975516678E+02  0.51100000000E-03 0. -1.
        -11    1    3    3    0    0  0.38897150528E+01 -0.10014338767E+01 -0.23868424473E+01  0.46722339551E+01  0.51100000000E-03 0.  1.
         12    1    3    3    0    0 -0.75408441663E+00 -0.12539762762E+01 -0.15609145702E+01  0.21395219336E+01  0.00000000000E+00 0. -1.
</event>
<event>
 7    1  0.2886681E-010  0.4778727E+02  0.7816164E-02  0.1312668E+00
        -11   -1    0    0    0    0  0.00000000000E+00  0.00000000000E+00  0.45593999997E+02  0.45594000000E+02  0.51100000000E-03 0.  1.
         11   -1    0    0    0    0 -0.00000000000E+00 -0.00000000000E+00 -0.45593999997E+02  0.45594000000E+02  0.51100000000E-03 0. -1.
    9900012    2    1    2    0    0 -0.47010380668E+01  0.43084623917E+02  0.22887742642E+01  0.47787273455E+02  0.20000010992E+02 0.  0.
        -12    1    1    2    0    0  0.47010380668E+01 -0.43084623917E+02 -0.22887742642E+01  0.43400726545E+02  0.00000000000E+00 0.  1.
         11    1    3    3    0    0 -0.96511701742E+01  0.37425438262E+02 -0.64387946512E+00  0.38655182006E+02  0.51100000000E-03 0. -1.
        -11    1    3    3    0    0  0.15854457962E-02  0.25685868520E+01 -0.71762150456E-01  0.25695896555E+01  0.51100000000E-03 0.  1.
        -12    1    3    3    0    0  0.49485466616E+01  0.30905988028E+01  0.30044158797E+01  0.65625017943E+01  0.00000000000E+00 0.  1.
</event>
<event>
 7    1  0.2886681E-010  0.4778726E+02  0.7816164E-02  0.1312668E+00
        -11   -1    0    0    0    0  0.00000000000E+00  0.00000000000E+00  0.45593999997E+02  0.45594000000E+02  0.51100000000E-03 0.  1.
         11   -1    0    0    0    0 -0.00000000000E+00 -0.00000000000E+00 -0.45593999997E+02  0.45594000000E+02  0.51100000000E-03 0. -1.
    9900012    2    1    2    0    0 -0.34503287306E+02 -0.17334810746E+02 -0.19815449274E+02  0.47787256591E+02  0.19999934100E+02 0.  0.
        -12    1    1    2    0    0  0.34503287306E+02  0.17334810746E+02  0.19815449274E+02  0.43400743409E+02  0.00000000000E+00 0.  1.
         11    1    3    3    0    0 -0.15871119973E+02 -0.33454922593E+01 -0.10209014500E+02  0.19165300545E+02  0.51100000000E-03 0. -1.
        -11    1    3    3    0    0 -0.10331000629E+01 -0.40537809334E+01  0.26820449985E+01  0.49692857868E+01  0.51100000000E-03 0.  1.
        -12    1    3    3    0    0 -0.17599067271E+02 -0.99355375530E+01 -0.12288479772E+02  0.23652670259E+02  0.00000000000E+00 0.  1.
</event>
<event>
 7    1  0.2886681E-010  0.4778727E+02  0.7816164E-02  0.1312668E+00
        -11   -1    0    0    0    0  0.00000000000E+00  0.00000000000E+00  0.45593999997E+02  0.45594000000E+02  0.51100000000E-03 0.  1.
         11   -1    0    0    0    0 -0.00000000000E+00 -0.00000000000E+00 -0.45593999997E+02  0.45594000000E+02  0.51100000000E-03 0. -1.
    9900012    2    1    2    0    0 -0.20352920925E+02 -0.91469355267E+01 -0.37225198848E+02  0.47787271331E+02  0.20000001307E+02 0.  0.
        -12    1    1    2    0    0  0.20352920925E+02  0.91469355267E+01  0.37225198848E+02  0.43400728669E+02  0.00000000000E+00 0.  1.
         11    1    3    3    0    0 -0.18153886300E+02 -0.81549672681E+01 -0.20125724258E+02  0.28303919448E+02  0.51100000000E-03 0. -1.
        -11    1    3    3    0    0 -0.35910575380E+01  0.26925367885E+01 -0.48133085412E+01  0.65812907528E+01  0.51100000000E-03 0.  1.
         12    1    3    3    0    0  0.13920229131E+01 -0.36845050470E+01 -0.12286166049E+02  0.12902061131E+02  0.00000000000E+00 0. -1.
</event>
<event>
 7    1  0.2886681E-010  0.4778726E+02  0.7816164E-02  0.1312668E+00
        -11   -1    0    0    0    0  0.00000000000E+00  0.00000000000E+00  0.45593999997E+02  0.45594000000E+02  0.51100000000E-03 0.  1.
         11   -1    0    0    0    0 -0.00000000000E+00 -0.00000000000E+00 -0.45593999997E+02  0.45594000000E+02  0.51100000000E-03 0. -1.
    9900012    2    1    2    0    0  0.23711751692E+02  0.32698897091E+02  0.15879512753E+02  0.47787263087E+02  0.19999963719E+02 0.  0.
        -12    1    1    2    0    0 -0.23711751692E+02 -0.32698897091E+02 -0.15879512753E+02  0.43400736913E+02  0.00000000000E+00 0.  1.
         11    1    3    3    0    0  0.94349023425E+01  0.25278279176E+02  0.75170927991E+01  0.28009203215E+02  0.51100000000E-03 0. -1.
        -11    1    3    3    0    0  0.37396715391E+01 -0.15501833740E+01  0.13745534679E+01  0.42752320651E+01  0.51100000000E-03 0.  1.
         12    1    3    3    0    0  0.10537177811E+02  0.89708012891E+01  0.69878664864E+01  0.15502827807E+02  0.00000000000E+00 0. -1.
</event>
<event>
 7    1  0.2886681E-010  0.4778727E+02  0.7816164E-02  0.1312668E+00
        -11   -1    0    0    0    0  0.00000000000E+00  0.00000000000E+00  0.45593999997E+02  0.45594000000E+02  0.51100000000E-03 0.  1.
         11   -1    0    0    0    0 -0.00000000000E+00 -0.00000000000E+00 -0.45593999997E+02  0.45594000000E+02  0.51100000000E-03 0. -1.
    9900012    2    1    2    0    0  0.31613713383E+02 -0.24825381473E+02 -0.16367564355E+02  0.47787267264E+02  0.19999982761E+02 0.  0.
        -12    1    1    2    0    0 -0.31613713383E+02  0.24825381473E+02  0.16367564355E+02  0.43400732736E+02  0.00000000000E+00 0.  1.
         11    1    3    3    0    0  0.19057310758E+02 -0.98594898320E+01 -0.17704080392E+02  0.27817711909E+02  0.51100000000E-03 0. -1.
        -11    1    3    3    0    0  0.11055231600E+02 -0.12106591820E+02  0.24001270310E+01  0.16569499729E+02  0.51100000000E-03 0.  1.
         12    1    3    3    0    0  0.15011710252E+01 -0.28592998205E+01 -0.10636109940E+01  0.34000556255E+01  0.00000000000E+00 0. -1.
</event>
<event>
 7    1  0.2886681E-010  0.4778727E+02  0.7816164E-02  0.1312668E+00
        -11   -1    0    0    0    0  0.00000000000E+00  0.00000000000E+00  0.45593999997E+02  0.45594000000E+02  0.51100000000E-03 0.  1.
         11   -1    0    0    0    0 -0.00000000000E+00 -0.00000000000E+00 -0.45593999997E+02  0.45594000000E+02  0.51100000000E-03 0. -1.
    9900012    2    1    2    0    0 -0.16037708020E+02 -0.36098706339E+02 -0.17980508194E+02  0.47787270136E+02  0.19999995858E+02 0.  0.
        -12    1    1    2    0    0  0.16037708020E+02  0.36098706339E+02  0.17980508194E+02  0.43400729864E+02  0.00000000000E+00 0.  1.
         11    1    3    3    0    0  0.17854351991E+00 -0.14093991548E+02 -0.13489215092E+02  0.19509777026E+02  0.51100000000E-03 0. -1.
        -11    1    3    3    0    0 -0.83149211335E+01 -0.15717324371E+02 -0.35871646560E+01  0.18139458354E+02  0.51100000000E-03 0.  1.
         12    1    3    3    0    0 -0.79013304059E+01 -0.62873904188E+01 -0.90412844598E+00  0.10138034756E+02  0.00000000000E+00 0. -1.
</event>
<event>
 7    1  0.2886681E-010  0.4778727E+02  0.7816164E-02  0.1312668E+00
        -11   -1    0    0    0    0  0.00000000000E+00  0.00000000000E+00  0.45593999997E+02  0.45594000000E+02  0.51100000000E-03 0.  1.
         11   -1    0    0    0    0 -0.00000000000E+00 -0.00000000000E+00 -0.45593999997E+02  0.45594000000E+02  0.51100000000E-03 0. -1.
    9900012    2    1    2    0    0 -0.91396567976E+01 -0.39246814071E+02 -0.16117618777E+02  0.47787269867E+02  0.19999994630E+02 0.  0.
        -12    1    1    2    0    0  0.91396567976E+01  0.39246814071E+02  0.16117618777E+02  0.43400730133E+02  0.00000000000E+00 0.  1.
         11    1    3    3    0    0 -0.33224452367E+01 -0.11288227761E+02  0.33820748026E+01  0.12243412864E+02  0.51100000000E-03 0. -1.
        -11    1    3    3    0    0 -0.55864756905E+01 -0.85106780181E+01 -0.80148496078E+01  0.12956780675E+02  0.51100000000E-03 0.  1.
         12    1    3    3    0    0 -0.23073587039E+00 -0.19447908292E+02 -0.11484843971E+02  0.22587076327E+02  0.00000000000E+00 0. -1.
</event>
<event>
 7    1  0.2886681E-010  0.4778727E+02  0.7816164E-02  0.1312668E+00
        -11   -1    0    0    0    0  0.00000000000E+00  0.00000000000E+00  0.45593999997E+02  0.45594000000E+02  0.51100000000E-03 0.  1.
         11   -1    0    0    0    0 -0.00000000000E+00 -0.00000000000E+00 -0.45593999997E+02  0.45594000000E+02  0.51100000000E-03 0. -1.
    9900012    2    1    2    0    0 -0.33794904560E+02  0.21489040996E+02 -0.16725688852E+02  0.47787272763E+02  0.20000007833E+02 0.  0.
        -12    1    1    2    0    0  0.33794904560E+02 -0.21489040996E+02  0.16725688852E+02  0.43400727237E+02  0.00000000000E+00 0.  1.
         11    1    3    3    0    0 -0.61331602198E+00 -0.28477607163E+01 -0.80697508378E+00  0.30227647422E+01  0.51100000000E-03 0. -1.
        -11    1    3    3    0    0 -0.10707669293E+02  0.11920448640E+02 -0.43537633271E+01  0.16604413053E+02  0.51100000000E-03 0.  1.
         12    1    3    3    0    0 -0.22473919245E+02  0.12416353073E+02 -0.11564950441E+02  0.28160094967E+02  0.00000000000E+00 0. -1.
</event>
<event>
 7    1  0.2886681E-010  0.4778727E+02  0.7816164E-02  0.1312668E+00
        -11   -1    0    0    0    0  0.00000000000E+00  0.00000000000E+00  0.45593999997E+02  0.45594000000E+02  0.51100000000E-03 0.  1.
         11   -1    0    0    0    0 -0.00000000000E+00 -0.00000000000E+00 -0.45593999997E+02  0.45594000000E+02  0.51100000000E-03 0. -1.
    9900012    2    1    2    0    0 -0.15274501864E+00 -0.27587724579E+02 -0.33503996859E+02  0.47787266320E+02  0.19999978458E+02 0.  0.
        -12    1    1    2    0    0  0.15274501864E+00  0.27587724579E+02  0.33503996859E+02  0.43400733680E+02  0.00000000000E+00 0.  1.
         11    1    3    3    0    0 -0.54779738951E+01 -0.21372355103E+02 -0.22857593718E+02  0.31768779509E+02  0.51100000000E-03 0. -1.
        -11    1    3    3    0    0  0.40230176149E+01 -0.60410326626E+01 -0.23651401752E+01  0.76336514637E+01  0.51100000000E-03 0.  1.
         12    1    3    3    0    0  0.13022112616E+01 -0.17433681328E+00 -0.82812629652E+01  0.83848353468E+01  0.00000000000E+00 0. -1.
</event>
<event>
 7    1  0.2886681E-010  0.4778727E+02  0.7816164E-02  0.1312668E+00
        -11   -1    0    0    0    0  0.00000000000E+00  0.00000000000E+00  0.45593999997E+02  0.45594000000E+02  0.51100000000E-03 0.  1.
         11   -1    0    0    0    0 -0.00000000000E+00 -0.00000000000E+00 -0.45593999997E+02  0.45594000000E+02  0.51100000000E-03 0. -1.
    9900012    2    1    2    0    0  0.15468765020E+02  0.89907153913E+00 -0.40540505048E+02  0.47787267628E+02  0.19999984423E+02 0.  0.
        -12    1    1    2    0    0 -0.15468765020E+02 -0.89907153913E+00  0.40540505048E+02  0.43400732372E+02  0.00000000000E+00 0.  1.
         11    1    3    3    0    0  0.38175567669E+01 -0.50552133039E+01 -0.51785221377E+01  0.81820543269E+01  0.51100000000E-03 0. -1.
        -11    1    3    3    0    0  0.89595234540E+01  0.33931871793E+01 -0.34480364500E+02  0.35786622027E+02  0.51100000000E-03 0.  1.
        -12    1    3    3    0    0  0.26916847991E+01  0.25610976637E+01 -0.88161841025E+00  0.38185912745E+01  0.00000000000E+00 0.  1.
</event>
<event>
 7    1  0.2886681E-010  0.4778728E+02  0.7816164E-02  0.1312668E+00
        -11   -1    0    0    0    0  0.00000000000E+00  0.00000000000E+00  0.45593999997E+02  0.45594000000E+02  0.51100000000E-03 0.  1.
         11   -1    0    0    0    0 -0.00000000000E+00 -0.00000000000E+00 -0.45593999997E+02  0.45594000000E+02  0.51100000000E-03 0. -1.
    9900012    2    1    2    0    0 -0.13280430375E+02  0.12315720020E+02 -0.39440791060E+02  0.47787276619E+02  0.20000025416E+02 0.  0.
        -12    1    1    2    0    0  0.13280430375E+02 -0.12315720020E+02  0.39440791060E+02  0.43400723381E+02  0.00000000000E+00 0.  1.
         11    1    3    3    0    0 -0.13517185543E+02  0.62848503174E+01 -0.37648649375E+02  0.40492399886E+02  0.51100000000E-03 0. -1.
        -11    1    3    3    0    0  0.16057380959E+01  0.20048786707E+01 -0.16244256191E+01  0.30391926839E+01  0.51100000000E-03 0.  1.
         12    1    3    3    0    0 -0.13689829280E+01  0.40259910321E+01 -0.16771606622E+00  0.42556840492E+01  0.00000000000E+00 0. -1.
</event>
<event>
 7    1  0.2886681E-010  0.4778727E+02  0.7816164E-02  0.1312668E+00
        -11   -1    0    0    0    0  0.00000000000E+00  0.00000000000E+00  0.45593999997E+02  0.45594000000E+02  0.51100000000E-03 0.  1.
         11   -1    0    0    0    0 -0.00000000000E+00 -0.00000000000E+00 -0.45593999997E+02  0.45594000000E+02  0.51100000000E-03 0. -1.
    9900012    2    1    2    0    0  0.11349117320E+02  0.27119090733E+02 -0.31927664350E+02  0.47787270779E+02  0.19999998788E+02 0.  0.
        -12    1    1    2    0    0 -0.11349117320E+02 -0.27119090733E+02  0.31927664350E+02  0.43400729221E+02  0.00000000000E+00 0.  1.
         11    1    3    3    0    0  0.16638656806E+02  0.22027150824E+02 -0.25484007420E+02  0.37569600852E+02  0.51100000000E-03 0. -1.
        -11    1    3    3    0    0 -0.37273755554E+01  0.17240760977E+01 -0.42281570620E+01  0.58943260279E+01  0.51100000000E-03 0.  1.
         12    1    3    3    0    0 -0.15621639315E+01  0.33678638113E+01 -0.22154998676E+01  0.43233438983E+01  0.00000000000E+00 0. -1.
</event>
<event>
 7    1  0.2886681E-010  0.4778727E+02  0.7816164E-02  0.1312668E+00
        -11   -1    0    0    0    0  0.00000000000E+00  0.00000000000E+00  0.45593999997E+02  0.45594000000E+02  0.51100000000E-03 0. -1.
         11   -1    0    0    0    0 -0.00000000000E+00 -0.00000000000E+00 -0.45593999997E+02  0.45594000000E+02  0.51100000000E-03 0.  1.
    9900012    2    1    2    0    0 -0.20086228925E+02  0.38086407094E+02 -0.54399075383E+01  0.47787267382E+02  0.19999983301E+02 0.  0.
        -12    1    1    2    0    0  0.20086228925E+02 -0.38086407094E+02  0.54399075383E+01  0.43400732618E+02  0.00000000000E+00 0.  1.
         11    1    3    3    0    0 -0.16352691089E+02  0.13859433808E+02 -0.72141378387E+01  0.22617210181E+02  0.51100000000E-03 0. -1.
        -11    1    3    3    0    0 -0.25430520612E+01  0.18333393797E+02 -0.10260095790E+01  0.18537344411E+02  0.51100000000E-03 0.  1.
         12    1    3    3    0    0 -0.11904857746E+01  0.58935794892E+01  0.28002398793E+01  0.66327127901E+01  0.00000000000E+00 0. -1.
</event>
<event>
 7    1  0.2886681E-010  0.4778727E+02  0.7816164E-02  0.1312668E+00
        -11   -1    0    0    0    0  0.00000000000E+00  0.00000000000E+00  0.45593999997E+02  0.45594000000E+02  0.51100000000E-03 0. -1.
         11   -1    0    0    0    0 -0.00000000000E+00 -0.00000000000E+00 -0.45593999997E+02  0.45594000000E+02  0.51100000000E-03 0.  1.
    9900012    2    1    2    0    0  0.24609611151E+01  0.33433167711E+02  0.27564292628E+02  0.47787271194E+02  0.20000000681E+02 0.  0.
        -12    1    1    2    0    0 -0.24609611151E+01 -0.33433167711E+02 -0.27564292628E+02  0.43400728806E+02  0.00000000000E+00 0.  1.
         11    1    3    3    0    0 -0.31784960728E+01  0.24171923412E+01  0.42892460757E+01  0.58603146894E+01  0.51100000000E-03 0. -1.
        -11    1    3    3    0    0  0.10351006947E+02  0.18333914684E+02  0.16762762559E+02  0.26912190199E+02  0.51100000000E-03 0.  1.
        -12    1    3    3    0    0 -0.47115497592E+01  0.12682060687E+02  0.65122839934E+01  0.15014766305E+02  0.00000000000E+00 0.  1.
</event>
<event>
 7    1  0.2914113E-010  0.4778727E+02  0.7816164E-02  0.1312668E+00
        -11   -1    0    0    0    0  0.00000000000E+00  0.00000000000E+00  0.45593999997E+02  0.45594000000E+02  0.51100000000E-03 0.  1.
         11   -1    0    0    0    0 -0.00000000000E+00 -0.00000000000E+00 -0.45593999997E+02  0.45594000000E+02  0.51100000000E-03 0. -1.
    9900012    2    1    2    0    0 -0.33837950708E+02  0.20817257118E+02 -0.17471636321E+02  0.47787272151E+02  0.20000005047E+02 0.  0.
        -12    1    1    2    0    0  0.33837950708E+02 -0.20817257118E+02  0.17471636321E+02  0.43400727849E+02  0.00000000000E+00 0.  1.
         11    1    3    3    0    0 -0.26147872034E+02  0.20409819112E+02 -0.12910305439E+02  0.35594211817E+02  0.51100000000E-03 0. -1.
        -11    1    3    3    0    0  0.12850046157E+01  0.34535342348E+00  0.97321210972E+00  0.16485290174E+01  0.51100000000E-03 0.  1.
         12    1    3    3    0    0 -0.89750832902E+01  0.62084581921E-01 -0.55345429923E+01  0.10544531317E+02  0.00000000000E+00 0. -1.
</event>
<event>
 7    1  0.2886681E-010  0.4778727E+02  0.7816164E-02  0.1312668E+00
        -11   -1    0    0    0    0  0.00000000000E+00  0.00000000000E+00  0.45593999997E+02  0.45594000000E+02  0.51100000000E-03 0. -1.
         11   -1    0    0    0    0 -0.00000000000E+00 -0.00000000000E+00 -0.45593999997E+02  0.45594000000E+02  0.51100000000E-03 0.  1.
    9900012    2    1    2    0    0  0.36973233333E+02 -0.14361980520E+02 -0.17616375000E+02  0.47787272636E+02  0.20000007257E+02 0.  0.
        -12    1    1    2    0    0 -0.36973233333E+02  0.14361980520E+02  0.17616375000E+02  0.43400727364E+02  0.00000000000E+00 0.  1.
         11    1    3    3    0    0  0.30238645642E+02 -0.11684901110E+02 -0.17266532680E+02  0.36729358220E+02  0.51100000000E-03 0. -1.
        -11    1    3    3    0    0  0.49537109304E+01  0.25198780016E+01 -0.10284716308E+00  0.55587422071E+01  0.51100000000E-03 0.  1.
         12    1    3    3    0    0  0.17808767610E+01 -0.51969574117E+01 -0.24699515719E+00  0.54991722091E+01  0.00000000000E+00 0. -1.
</event>
<event>
 7    1  0.2886681E-010  0.4778727E+02  0.7816164E-02  0.1312668E+00
        -11   -1    0    0    0    0  0.00000000000E+00  0.00000000000E+00  0.45593999997E+02  0.45594000000E+02  0.51100000000E-03 0.  1.
         11   -1    0    0    0    0 -0.00000000000E+00 -0.00000000000E+00 -0.45593999997E+02  0.45594000000E+02  0.51100000000E-03 0. -1.
    9900012    2    1    2    0    0  0.35837376828E+02  0.20751485331E+02 -0.12987763845E+02  0.47787265777E+02  0.19999975986E+02 0.  0.
        -12    1    1    2    0    0 -0.35837376828E+02 -0.20751485331E+02  0.12987763845E+02  0.43400734223E+02  0.00000000000E+00 0.  1.
         11    1    3    3    0    0  0.16880769043E+02  0.61434149047E+00 -0.68763190345E+01  0.18237914976E+02  0.51100000000E-03 0. -1.
        -11    1    3    3    0    0  0.64327688973E+00 -0.26834419489E+00 -0.16227086850E+01  0.17660683739E+01  0.51100000000E-03 0.  1.
        -12    1    3    3    0    0  0.18313330896E+02  0.20405488035E+02 -0.44887361255E+01  0.27783282428E+02  0.00000000000E+00 0.  1.
</event>
<event>
 7    1  0.2886681E-010  0.4778728E+02  0.7816164E-02  0.1312668E+00
        -11   -1    0    0    0    0  0.00000000000E+00  0.00000000000E+00  0.45593999997E+02  0.45594000000E+02  0.51100000000E-03 0.  1.
         11   -1    0    0    0    0 -0.00000000000E+00 -0.00000000000E+00 -0.45593999997E+02  0.45594000000E+02  0.51100000000E-03 0. -1.
    9900012    2    1    2    0    0  0.37445433618E+02  0.99985169655E+01 -0.19531804676E+02  0.47787283022E+02  0.20000054608E+02 0.  0.
        -12    1    1    2    0    0 -0.37445433618E+02 -0.99985169655E+01  0.19531804676E+02  0.43400716978E+02  0.00000000000E+00 0.  1.
         11    1    3    3    0    0  0.22166783139E+02  0.29770651232E+01 -0.17729033664E+02  0.28540284273E+02  0.51100000000E-03 0. -1.
        -11    1    3    3    0    0  0.73709437043E+01  0.67109971320E+00  0.30483145276E+01  0.80045866624E+01  0.51100000000E-03 0.  1.
         12    1    3    3    0    0  0.79077067749E+01  0.63503521291E+01 -0.48510855392E+01  0.11242412086E+02  0.00000000000E+00 0. -1.
</event>
<event>
 7    1  0.2886681E-010  0.4778727E+02  0.7816164E-02  0.1312668E+00
        -11   -1    0    0    0    0  0.00000000000E+00  0.00000000000E+00  0.45593999997E+02  0.45594000000E+02  0.51100000000E-03 0.  1.
         11   -1    0    0    0    0 -0.00000000000E+00 -0.00000000000E+00 -0.45593999997E+02  0.45594000000E+02  0.51100000000E-03 0. -1.
    9900012    2    1    2    0    0  0.23555932508E+02 -0.30922957800E+01 -0.36320499878E+02  0.47787274650E+02  0.20000016438E+02 0.  0.
        -12    1    1    2    0    0 -0.23555932508E+02  0.30922957800E+01  0.36320499878E+02  0.43400725350E+02  0.00000000000E+00 0.  1.
         11    1    3    3    0    0  0.11787481670E+02 -0.75228694542E+01 -0.30932259932E+02  0.33946177896E+02  0.51100000000E-03 0. -1.
        -11    1    3    3    0    0  0.77838252471E+01  0.36699124381E+01 -0.28946076934E+01  0.90793692920E+01  0.51100000000E-03 0.  1.
         12    1    3    3    0    0  0.39846255903E+01  0.76066123614E+00 -0.24936322530E+01  0.47617274622E+01  0.00000000000E+00 0. -1.
</event>
<event>
 7    1  0.2886681E-010  0.4778727E+02  0.7816164E-02  0.1312668E+00
        -11   -1    0    0    0    0  0.00000000000E+00  0.00000000000E+00  0.45593999997E+02  0.45594000000E+02  0.51100000000E-03 0. -1.
         11   -1    0    0    0    0 -0.00000000000E+00 -0.00000000000E+00 -0.45593999997E+02  0.45594000000E+02  0.51100000000E-03 0.  1.
    9900012    2    1    2    0    0  0.10397644576E+01  0.43365328923E+02  0.14109923970E+01  0.47787265418E+02  0.19999974345E+02 0.  0.
        -12    1    1    2    0    0 -0.10397644576E+01 -0.43365328923E+02 -0.14109923970E+01  0.43400734582E+02  0.00000000000E+00 0.  1.
         11    1    3    3    0    0  0.21852742891E+01  0.66780235009E+01  0.44229824650E+01  0.83026619674E+01  0.51100000000E-03 0. -1.
        -11    1    3    3    0    0 -0.43443716109E+01  0.35618570068E+02 -0.18979058308E+01  0.35932689089E+02  0.51100000000E-03 0.  1.
        -12    1    3    3    0    0  0.31988617793E+01  0.10687353548E+01 -0.11140842372E+01  0.35519143612E+01  0.00000000000E+00 0.  1.
</event>
<event>
 7    1  0.2886681E-010  0.4778727E+02  0.7816164E-02  0.1312668E+00
        -11   -1    0    0    0    0  0.00000000000E+00  0.00000000000E+00  0.45593999997E+02  0.45594000000E+02  0.51100000000E-03 0.  1.
         11   -1    0    0    0    0 -0.00000000000E+00 -0.00000000000E+00 -0.45593999997E+02  0.45594000000E+02  0.51100000000E-03 0. -1.
    9900012    2    1    2    0    0  0.37617745679E+02 -0.59103541943E+01 -0.20822969039E+02  0.47787272860E+02  0.20000008277E+02 0.  0.
        -12    1    1    2    0    0 -0.37617745679E+02  0.59103541943E+01  0.20822969039E+02  0.43400727140E+02  0.00000000000E+00 0.  1.
         11    1    3    3    0    0  0.73097121528E+01 -0.65198115753E+01 -0.12957963281E+02  0.16243418587E+02  0.51100000000E-03 0. -1.
        -11    1    3    3    0    0  0.95735370310E+01 -0.15540367634E+01 -0.23425934719E+01  0.99777445337E+01  0.51100000000E-03 0.  1.
         12    1    3    3    0    0  0.20734496495E+02  0.21634941444E+01 -0.55224122867E+01  0.21566109739E+02  0.00000000000E+00 0. -1.
</event>
<event>
 7    1  0.2886681E-010  0.4778727E+02  0.7816164E-02  0.1312668E+00
        -11   -1    0    0    0    0  0.00000000000E+00  0.00000000000E+00  0.45593999997E+02  0.45594000000E+02  0.51100000000E-03 0.  1.
         11   -1    0    0    0    0 -0.00000000000E+00 -0.00000000000E+00 -0.45593999997E+02  0.45594000000E+02  0.51100000000E-03 0. -1.
    9900012    2    1    2    0    0  0.21753290149E+01  0.30355349476E+02 -0.30942590381E+02  0.47787271924E+02  0.20000004008E+02 0.  0.
        -12    1    1    2    0    0 -0.21753290149E+01 -0.30355349476E+02  0.30942590381E+02  0.43400728076E+02  0.00000000000E+00 0.  1.
         11    1    3    3    0    0 -0.23838247859E+01  0.19399828504E+02 -0.23029180598E+02  0.30205614145E+02  0.51100000000E-03 0. -1.
        -11    1    3    3    0    0  0.74188541000E+01  0.88075058509E+01 -0.37902601362E+01  0.12123432997E+02  0.51100000000E-03 0.  1.
        -12    1    3    3    0    0 -0.28597002992E+01  0.21480151206E+01 -0.41231496460E+01  0.54582247813E+01  0.00000000000E+00 0.  1.
</event>
<event>
 7    1  0.2886681E-010  0.4778726E+02  0.7816164E-02  0.1312668E+00
        -11   -1    0    0    0    0  0.00000000000E+00  0.00000000000E+00  0.45593999997E+02  0.45594000000E+02  0.51100000000E-03 0.  1.
         11   -1    0    0    0    0 -0.00000000000E+00 -0.00000000000E+00 -0.45593999997E+02  0.45594000000E+02  0.51100000000E-03 0. -1.
    9900012    2    1    2    0    0 -0.92795136899E+01  0.37934974784E+02  0.18932832707E+02  0.47787264517E+02  0.19999970237E+02 0.  0.
        -12    1    1    2    0    0  0.92795136899E+01 -0.37934974784E+02 -0.18932832707E+02  0.43400735483E+02  0.00000000000E+00 0.  1.
         11    1    3    3    0    0 -0.10121997172E+02  0.20044212477E+02  0.82873242729E+01  0.23935434495E+02  0.51100000000E-03 0. -1.
        -11    1    3    3    0    0 -0.27842342926E+00  0.61578219450E+01  0.10368247818E+02  0.12062207666E+02  0.51100000000E-03 0.  1.
         12    1    3    3    0    0  0.11209069114E+01  0.11732940362E+02  0.27726061652E+00  0.11789622356E+02  0.00000000000E+00 0. -1.
</event>
<event>
 7    1  0.2886681E-010  0.4778728E+02  0.7816164E-02  0.1312668E+00
        -11   -1    0    0    0    0  0.00000000000E+00  0.00000000000E+00  0.45593999997E+02  0.45594000000E+02  0.51100000000E-03 0. -1.
         11   -1    0    0    0    0 -0.00000000000E+00 -0.00000000000E+00 -0.45593999997E+02  0.45594000000E+02  0.51100000000E-03 0.  1.
    9900012    2    1    2    0    0  0.75596573823E+01 -0.41769392502E+02 -0.90438849746E+01  0.47787280822E+02  0.20000044580E+02 0.  0.
        -12    1    1    2    0    0 -0.75596573823E+01  0.41769392502E+02  0.90438849746E+01  0.43400719178E+02  0.00000000000E+00 0.  1.
         11    1    3    3    0    0  0.36520746259E+01 -0.12283498672E+02  0.46341064695E+01  0.13627066145E+02  0.51100000000E-03 0. -1.
        -11    1    3    3    0    0  0.13759126554E+01 -0.27064833196E+02 -0.14238565069E+02  0.30612661875E+02  0.51100000000E-03 0.  1.
        -12    1    3    3    0    0  0.25316701010E+01 -0.24210606339E+01  0.56057362479E+00  0.35475528018E+01  0.00000000000E+00 0.  1.
</event>
<event>
 7    1  0.2886681E-010  0.4778727E+02  0.7816164E-02  0.1312668E+00
        -11   -1    0    0    0    0  0.00000000000E+00  0.00000000000E+00  0.45593999997E+02  0.45594000000E+02  0.51100000000E-03 0.  1.
         11   -1    0    0    0    0 -0.00000000000E+00 -0.00000000000E+00 -0.45593999997E+02  0.45594000000E+02  0.51100000000E-03 0. -1.
    9900012    2    1    2    0    0 -0.28871390559E+02  0.32404704492E+02  0.36948031608E-01  0.47787269233E+02  0.19999991739E+02 0.  0.
        -12    1    1    2    0    0  0.28871390559E+02 -0.32404704492E+02 -0.36948031608E-01  0.43400730767E+02  0.00000000000E+00 0.  1.
         11    1    3    3    0    0 -0.13781144771E+01 -0.12180472069E+00 -0.42731074447E+01  0.44914901088E+01  0.51100000000E-03 0. -1.
        -11    1    3    3    0    0 -0.75011636629E+01  0.13544991426E+02  0.23207943787E+01  0.15656319358E+02  0.51100000000E-03 0.  1.
         12    1    3    3    0    0 -0.19992112419E+02  0.18981517786E+02  0.19892610976E+01  0.27639459766E+02  0.00000000000E+00 0. -1.
</event>
<event>
 7    1  0.2886681E-010  0.4778727E+02  0.7816164E-02  0.1312668E+00
        -11   -1    0    0    0    0  0.00000000000E+00  0.00000000000E+00  0.45593999997E+02  0.45594000000E+02  0.51100000000E-03 0. -1.
         11   -1    0    0    0    0 -0.00000000000E+00 -0.00000000000E+00 -0.45593999997E+02  0.45594000000E+02  0.51100000000E-03 0.  1.
    9900012    2    1    2    0    0  0.10137238064E+02  0.29752658151E+02  0.29927231796E+02  0.47787268836E+02  0.19999989931E+02 0.  0.
        -12    1    1    2    0    0 -0.10137238064E+02 -0.29752658151E+02 -0.29927231796E+02  0.43400731164E+02  0.00000000000E+00 0.  1.
         11    1    3    3    0    0 -0.38711303836E+01  0.13189876987E+02  0.77251475139E+01  0.15768208832E+02  0.51100000000E-03 0.  1.
        -11    1    3    3    0    0  0.35076376555E+01  0.95110742877E+01  0.74124889608E+01  0.12558226343E+02  0.51100000000E-03 0. -1.
         12    1    3    3    0    0  0.10500730792E+02  0.70517068761E+01  0.14789595321E+02  0.19460833661E+02  0.00000000000E+00 0. -1.
</event>
<event>
 7    1  0.2886681E-010  0.4778727E+02  0.7816164E-02  0.1312668E+00
        -11   -1    0    0    0    0  0.00000000000E+00  0.00000000000E+00  0.45593999997E+02  0.45594000000E+02  0.51100000000E-03 0.  1.
         11   -1    0    0    0    0 -0.00000000000E+00 -0.00000000000E+00 -0.45593999997E+02  0.45594000000E+02  0.51100000000E-03 0. -1.
    9900012    2    1    2    0    0 -0.34890019446E+02  0.16215923813E+02 -0.20083665322E+02  0.47787271264E+02  0.20000001001E+02 0.  0.
        -12    1    1    2    0    0  0.34890019446E+02 -0.16215923813E+02  0.20083665322E+02  0.43400728736E+02  0.00000000000E+00 0.  1.
         11    1    3    3    0    0 -0.69959905409E+01  0.59952663123E+01 -0.61606588725E+01  0.11083357786E+02  0.51100000000E-03 0. -1.
        -11    1    3    3    0    0 -0.21364760718E+01  0.58146486376E+01  0.14819058716E+01  0.63695144287E+01  0.51100000000E-03 0.  1.
        -12    1    3    3    0    0 -0.25757552834E+02  0.44060088626E+01 -0.15404912321E+02  0.30334399049E+02  0.00000000000E+00 0.  1.
</event>
<event>
 7    1  0.2886681E-010  0.4778727E+02  0.7816164E-02  0.1312668E+00
        -11   -1    0    0    0    0  0.00000000000E+00  0.00000000000E+00  0.45593999997E+02  0.45594000000E+02  0.51100000000E-03 0. -1.
         11   -1    0    0    0    0 -0.00000000000E+00 -0.00000000000E+00 -0.45593999997E+02  0.45594000000E+02  0.51100000000E-03 0.  1.
    9900012    2    1    2    0    0 -0.20184139219E+02  0.33831341136E+02  0.18211647006E+02  0.47787271830E+02  0.20000003582E+02 0.  0.
        -12    1    1    2    0    0  0.20184139219E+02 -0.33831341136E+02 -0.18211647006E+02  0.43400728170E+02  0.00000000000E+00 0.  1.
         11    1    3    3    0    0  0.46780774485E+00  0.12326523283E+02  0.61244563411E+01  0.13772108991E+02  0.51100000000E-03 0. -1.
        -11    1    3    3    0    0 -0.10845516970E+02  0.51659006612E+01  0.12108495659E+01  0.12073852944E+02  0.51100000000E-03 0.  1.
        -12    1    3    3    0    0 -0.98064299938E+01  0.16338917191E+02  0.10876341099E+02  0.21941309895E+02  0.00000000000E+00 0.  1.
</event>
<event>
 7    1 -0.2886681E-010  0.4778727E+02  0.7816164E-02  0.1312668E+00
        -11   -1    0    0    0    0  0.00000000000E+00  0.00000000000E+00  0.45593999997E+02  0.45594000000E+02  0.51100000000E-03 0.  1.
         11   -1    0    0    0    0 -0.00000000000E+00 -0.00000000000E+00 -0.45593999997E+02  0.45594000000E+02  0.51100000000E-03 0. -1.
    9900012    2    1    2    0    0 -0.23951106962E+02  0.14668762621E+02 -0.33087689282E+02  0.47787270703E+02  0.19999998442E+02 0.  0.
        -12    1    1    2    0    0  0.23951106962E+02 -0.14668762621E+02  0.33087689282E+02  0.43400729297E+02  0.00000000000E+00 0.  1.
         11    1    3    3    0    0  0.12223881857E+01  0.15450420423E+01 -0.75877855709E+00  0.21111923051E+01  0.51100000000E-03 0. -1.
        -11    1    3    3    0    0 -0.16567312304E+02  0.11229469671E+02 -0.11555224290E+02  0.23110604378E+02  0.51100000000E-03 0.  1.
        -12    1    3    3    0    0 -0.86061828439E+01  0.18942509078E+01 -0.20773686435E+02  0.22565474020E+02  0.00000000000E+00 0.  1.
</event>
<event>
 7    1  0.2886681E-010  0.4778727E+02  0.7816164E-02  0.1312668E+00
        -11   -1    0    0    0    0  0.00000000000E+00  0.00000000000E+00  0.45593999997E+02  0.45594000000E+02  0.51100000000E-03 0.  1.
         11   -1    0    0    0    0 -0.00000000000E+00 -0.00000000000E+00 -0.45593999997E+02  0.45594000000E+02  0.51100000000E-03 0. -1.
    9900012    2    1    2    0    0  0.24966998431E+02 -0.23130870635E+02 -0.26930193142E+02  0.47787268558E+02  0.19999988664E+02 0.  0.
        -12    1    1    2    0    0 -0.24966998431E+02  0.23130870635E+02  0.26930193142E+02  0.43400731442E+02  0.00000000000E+00 0.  1.
         11    1    3    3    0    0 -0.20586030100E+01 -0.23805908876E+01 -0.62548050329E+01  0.70019744063E+01  0.51100000000E-03 0.  1.
        -11    1    3    3    0    0  0.14784363355E+02 -0.15887521512E+02 -0.15327985922E+02  0.26569491759E+02  0.51100000000E-03 0. -1.
        -12    1    3    3    0    0  0.12241238086E+02 -0.48627582353E+01 -0.53474021872E+01  0.14215802393E+02  0.00000000000E+00 0.  1.
</event>
<event>
 7    1  0.2886681E-010  0.4778727E+02  0.7816164E-02  0.1312668E+00
        -11   -1    0    0    0    0  0.00000000000E+00  0.00000000000E+00  0.45593999997E+02  0.45594000000E+02  0.51100000000E-03 0.  1.
         11   -1    0    0    0    0 -0.00000000000E+00 -0.00000000000E+00 -0.45593999997E+02  0.45594000000E+02  0.51100000000E-03 0. -1.
    9900012    2    1    2    0    0 -0.22448184973E+02 -0.31759164310E+02 -0.19262853787E+02  0.47787273482E+02  0.20000011114E+02 0.  0.
        -12    1    1    2    0    0  0.22448184973E+02  0.31759164310E+02  0.19262853787E+02  0.43400726518E+02  0.00000000000E+00 0.  1.
         11    1    3    3    0    0 -0.14558710427E+02 -0.16923959094E+02 -0.82966546160E+01  0.23816190266E+02  0.51100000000E-03 0. -1.
        -11    1    3    3    0    0 -0.19697346849E+01 -0.12295057565E+02 -0.12177295964E+02  0.17416510342E+02  0.51100000000E-03 0.  1.
        -12    1    3    3    0    0 -0.59197398610E+01 -0.25401476520E+01  0.12110967929E+01  0.65545728738E+01  0.00000000000E+00 0.  1.
</event>
<event>
 7    1  0.2886681E-010  0.4778728E+02  0.7816164E-02  0.1312668E+00
        -11   -1    0    0    0    0  0.00000000000E+00  0.00000000000E+00  0.45593999997E+02  0.45594000000E+02  0.51100000000E-03 0.  1.
         11   -1    0    0    0    0 -0.00000000000E+00 -0.00000000000E+00 -0.45593999997E+02  0.45594000000E+02  0.51100000000E-03 0. -1.
    9900012    2    1    2    0    0  0.60803640838E+01 -0.13875807545E+02 -0.40670800737E+02  0.47787275409E+02  0.20000019902E+02 0.  0.
        -12    1    1    2    0    0 -0.60803640838E+01  0.13875807545E+02  0.40670800737E+02  0.43400724591E+02  0.00000000000E+00 0.  1.
         11    1    3    3    0    0 -0.41025638050E+01 -0.23316760289E+01 -0.12079942320E+02  0.12968914742E+02  0.51100000000E-03 0. -1.
        -11    1    3    3    0    0  0.84927961410E+01 -0.17792168314E+01 -0.73204353363E+01  0.11352619636E+02  0.51100000000E-03 0.  1.
         12    1    3    3    0    0  0.16901317479E+01 -0.97649146843E+01 -0.21270423081E+02  0.23465741031E+02  0.00000000000E+00 0. -1.
</event>
<event>
 7    1  0.2886681E-010  0.4778727E+02  0.7816164E-02  0.1312668E+00
        -11   -1    0    0    0    0  0.00000000000E+00  0.00000000000E+00  0.45593999997E+02  0.45594000000E+02  0.51100000000E-03 0.  1.
         11   -1    0    0    0    0 -0.00000000000E+00 -0.00000000000E+00 -0.45593999997E+02  0.45594000000E+02  0.51100000000E-03 0. -1.
    9900012    2    1    2    0    0 -0.34124769251E+02  0.26751456482E+02 -0.18663039676E+01  0.47787269697E+02  0.19999993857E+02 0.  0.
        -12    1    1    2    0    0  0.34124769251E+02 -0.26751456482E+02  0.18663039676E+01  0.43400730303E+02  0.00000000000E+00 0.  1.
         11    1    3    3    0    0 -0.18686431191E+02  0.99903838619E+01 -0.48799410596E+01  0.21744063681E+02  0.51100000000E-03 0. -1.
        -11    1    3    3    0    0 -0.13247801680E+01  0.28864245919E+01  0.52396708372E+01  0.61270417137E+01  0.51100000000E-03 0.  1.
        -12    1    3    3    0    0 -0.14113557891E+02  0.13874648029E+02 -0.22260337452E+01  0.19916164302E+02  0.00000000000E+00 0.  1.
</event>
<event>
 7    1  0.2886681E-010  0.4778727E+02  0.7816164E-02  0.1312668E+00
        -11   -1    0    0    0    0  0.00000000000E+00  0.00000000000E+00  0.45593999997E+02  0.45594000000E+02  0.51100000000E-03 0. -1.
         11   -1    0    0    0    0 -0.00000000000E+00 -0.00000000000E+00 -0.45593999997E+02  0.45594000000E+02  0.51100000000E-03 0.  1.
    9900012    2    1    2    0    0  0.29532170335E+02  0.31664643839E+02  0.29706450208E+01  0.47787268601E+02  0.19999988858E+02 0.  0.
        -12    1    1    2    0    0 -0.29532170335E+02 -0.31664643839E+02 -0.29706450208E+01  0.43400731399E+02  0.00000000000E+00 0.  1.
         11    1    3    3    0    0  0.56035275758E+01  0.69233309373E+01  0.57914012310E+01  0.10624140485E+02  0.51100000000E-03 0.  1.
        -11    1    3    3    0    0  0.11309657253E+02  0.67502661016E+01  0.46268761115E+01  0.13960029457E+02  0.51100000000E-03 0. -1.
        -12    1    3    3    0    0  0.12618985506E+02  0.17991046800E+02 -0.74476323217E+01  0.23203098659E+02  0.00000000000E+00 0.  1.
</event>
<event>
 7    1  0.2886681E-010  0.4778727E+02  0.7816164E-02  0.1312668E+00
        -11   -1    0    0    0    0  0.00000000000E+00  0.00000000000E+00  0.45593999997E+02  0.45594000000E+02  0.51100000000E-03 0.  1.
         11   -1    0    0    0    0 -0.00000000000E+00 -0.00000000000E+00 -0.45593999997E+02  0.45594000000E+02  0.51100000000E-03 0. -1.
    9900012    2    1    2    0    0 -0.25457180614E+02 -0.31031045474E+02 -0.16511491827E+02  0.47787272006E+02  0.20000004385E+02 0.  0.
        -12    1    1    2    0    0  0.25457180614E+02  0.31031045474E+02  0.16511491827E+02  0.43400727994E+02  0.00000000000E+00 0.  1.
         11    1    3    3    0    0 -0.24594792193E+01 -0.39904554146E+01 -0.48056894875E+01  0.67132275515E+01  0.51100000000E-03 0. -1.
        -11    1    3    3    0    0 -0.76899799733E+01 -0.21853323688E+02 -0.59699715528E+01  0.23923714360E+02  0.51100000000E-03 0.  1.
        -12    1    3    3    0    0 -0.15307721422E+02 -0.51872663721E+01 -0.57358307865E+01  0.17150330094E+02  0.00000000000E+00 0.  1.
</event>
<event>
 7    1  0.2886681E-010  0.4778727E+02  0.7816164E-02  0.1312668E+00
        -11   -1    0    0    0    0  0.00000000000E+00  0.00000000000E+00  0.45593999997E+02  0.45594000000E+02  0.51100000000E-03 0. -1.
         11   -1    0    0    0    0 -0.00000000000E+00 -0.00000000000E+00 -0.45593999997E+02  0.45594000000E+02  0.51100000000E-03 0.  1.
    9900012    2    1    2    0    0  0.41639659028E+02  0.95752470871E+01 -0.76208086066E+01  0.47787270921E+02  0.19999999439E+02 0.  0.
        -12    1    1    2    0    0 -0.41639659028E+02 -0.95752470871E+01  0.76208086066E+01  0.43400729079E+02  0.00000000000E+00 0.  1.
         11    1    3    3    0    0  0.38401933457E+02  0.53696682085E+01 -0.36140939253E+01  0.38943593889E+02  0.51100000000E-03 0. -1.
        -11    1    3    3    0    0  0.48650652395E+00 -0.18896119171E-01 -0.37651775964E+01  0.37965258138E+01  0.51100000000E-03 0.  1.
        -12    1    3    3    0    0  0.27512190475E+01  0.42244749977E+01 -0.24153708487E+00  0.50471512180E+01  0.00000000000E+00 0.  1.
</event>
<event>
 7    1  0.2886681E-010  0.4778729E+02  0.7816164E-02  0.1312668E+00
        -11   -1    0    0    0    0  0.00000000000E+00  0.00000000000E+00  0.45593999997E+02  0.45594000000E+02  0.51100000000E-03 0. -1.
         11   -1    0    0    0    0 -0.00000000000E+00 -0.00000000000E+00 -0.45593999997E+02  0.45594000000E+02  0.51100000000E-03 0.  1.
    9900012    2    1    2    0    0  0.68033574958E+01  0.18543727163E+02  0.38645394810E+02  0.47787285371E+02  0.20000065320E+02 0.  0.
        -12    1    1    2    0    0 -0.68033574958E+01 -0.18543727163E+02 -0.38645394810E+02  0.43400714629E+02  0.00000000000E+00 0.  1.
         11    1    3    3    0    0  0.33013349187E+01  0.14044555282E+02  0.32859849279E+02  0.35887575011E+02  0.51100000000E-03 0. -1.
        -11    1    3    3    0    0  0.28232941252E+01  0.68150418599E+01  0.24303237453E+01  0.77667405672E+01  0.51100000000E-03 0.  1.
         12    1    3    3    0    0  0.67872845180E+00 -0.23158699791E+01  0.33552217859E+01  0.41329697923E+01  0.00000000000E+00 0. -1.
</event>
<event>
 7    1  0.2886681E-010  0.4778727E+02  0.7816164E-02  0.1312668E+00
        -11   -1    0    0    0    0  0.00000000000E+00  0.00000000000E+00  0.45593999997E+02  0.45594000000E+02  0.51100000000E-03 0.  1.
         11   -1    0    0    0    0 -0.00000000000E+00 -0.00000000000E+00 -0.45593999997E+02  0.45594000000E+02  0.51100000000E-03 0. -1.
    9900012    2    1    2    0    0  0.23026543992E+01 -0.40980524364E+02 -0.14103808135E+02  0.47787274219E+02  0.20000014475E+02 0.  0.
        -12    1    1    2    0    0 -0.23026543992E+01  0.40980524364E+02  0.14103808135E+02  0.43400725781E+02  0.00000000000E+00 0.  1.
         11    1    3    3    0    0  0.48237746442E+01 -0.36856769265E+02 -0.11403939114E+02  0.38881101708E+02  0.51100000000E-03 0. -1.
        -11    1    3    3    0    0 -0.85489099796E+00  0.19807753760E+01 -0.60562979066E+00  0.22407805365E+01  0.51100000000E-03 0.  1.
         12    1    3    3    0    0 -0.16662292470E+01 -0.61045304749E+01 -0.20942392300E+01  0.66653919746E+01  0.00000000000E+00 0. -1.
</event>
<event>
 7    1  0.2886681E-010  0.4778728E+02  0.7816164E-02  0.1312668E+00
        -11   -1    0    0    0    0  0.00000000000E+00  0.00000000000E+00  0.45593999997E+02  0.45594000000E+02  0.51100000000E-03 0. -1.
         11   -1    0    0    0    0 -0.00000000000E+00 -0.00000000000E+00 -0.45593999997E+02  0.45594000000E+02  0.51100000000E-03 0.  1.
    9900012    2    1    2    0    0 -0.31673898441E+02  0.16586883209E+02 -0.24602070138E+02  0.47787281203E+02  0.20000046315E+02 0.  0.
        -12    1    1    2    0    0  0.31673898441E+02 -0.16586883209E+02  0.24602070138E+02  0.43400718797E+02  0.00000000000E+00 0.  1.
         11    1    3    3    0    0 -0.12969315276E+02 -0.14226339469E+01 -0.81094718355E+01  0.15361984240E+02  0.51100000000E-03 0. -1.
        -11    1    3    3    0    0  0.56131849109E+00  0.40962659345E+01 -0.28719172148E+01  0.50341217511E+01  0.51100000000E-03 0.  1.
         12    1    3    3    0    0 -0.19265901656E+02  0.13913251221E+02 -0.13620681088E+02  0.27391175211E+02  0.00000000000E+00 0. -1.
</event>
<event>
 7    1  0.2886681E-010  0.4778727E+02  0.7816164E-02  0.1312668E+00
        -11   -1    0    0    0    0  0.00000000000E+00  0.00000000000E+00  0.45593999997E+02  0.45594000000E+02  0.51100000000E-03 0. -1.
         11   -1    0    0    0    0 -0.00000000000E+00 -0.00000000000E+00 -0.45593999997E+02  0.45594000000E+02  0.51100000000E-03 0.  1.
    9900012    2    1    2    0    0  0.39736861672E+02 -0.13889581041E+02  0.10568101111E+02  0.47787269613E+02  0.19999993474E+02 0.  0.
        -12    1    1    2    0    0 -0.39736861672E+02  0.13889581041E+02 -0.10568101111E+02  0.43400730387E+02  0.00000000000E+00 0.  1.
         11    1    3    3    0    0  0.29344567270E+02 -0.65059490899E+01  0.13427198917E+02  0.32919913014E+02  0.51100000000E-03 0. -1.
        -11    1    3    3    0    0  0.36288665716E+01 -0.57992487393E+01  0.10112493032E+01  0.69153874764E+01  0.51100000000E-03 0.  1.
         12    1    3    3    0    0  0.67634278309E+01 -0.15843832115E+01 -0.38703471095E+01  0.79519691229E+01  0.00000000000E+00 0. -1.
</event>
<event>
 7    1  0.2886681E-010  0.4778727E+02  0.7816164E-02  0.1312668E+00
        -11   -1    0    0    0    0  0.00000000000E+00  0.00000000000E+00  0.45593999997E+02  0.45594000000E+02  0.51100000000E-03 0. -1.
         11   -1    0    0    0    0 -0.00000000000E+00 -0.00000000000E+00 -0.45593999997E+02  0.45594000000E+02  0.51100000000E-03 0.  1.
    9900012    2    1    2    0    0  0.20745993168E+02  0.35246563091E+02  0.14522638824E+02  0.47787268662E+02  0.19999989138E+02 0.  0.
        -12    1    1    2    0    0 -0.20745993168E+02 -0.35246563091E+02 -0.14522638824E+02  0.43400731338E+02  0.00000000000E+00 0.  1.
         11    1    3    3    0    0  0.13927476952E+02  0.24849626654E+02  0.10731199205E+02  0.30440716084E+02  0.51100000000E-03 0. -1.
        -11    1    3    3    0    0 -0.25695235387E+01  0.59240527093E+01  0.22261706190E+01  0.68302772714E+01  0.51100000000E-03 0.  1.
        -12    1    3    3    0    0  0.93880397544E+01  0.44728837279E+01  0.15652690000E+01  0.10516275306E+02  0.00000000000E+00 0.  1.
</event>
<event>
 7    1  0.2886681E-010  0.4778727E+02  0.7816164E-02  0.1312668E+00
        -11   -1    0    0    0    0  0.00000000000E+00  0.00000000000E+00  0.45593999997E+02  0.45594000000E+02  0.51100000000E-03 0.  1.
         11   -1    0    0    0    0 -0.00000000000E+00 -0.00000000000E+00 -0.45593999997E+02  0.45594000000E+02  0.51100000000E-03 0. -1.
    9900012    2    1    2    0    0 -0.15086602225E+01 -0.18252352229E+01 -0.43336076773E+02  0.47787273171E+02  0.20000009694E+02 0.  0.
        -12    1    1    2    0    0  0.15086602225E+01  0.18252352229E+01  0.43336076773E+02  0.43400726829E+02  0.00000000000E+00 0.  1.
         11    1    3    3    0    0  0.27075222077E+01 -0.71926910729E+01 -0.26030576978E+02  0.27141415207E+02  0.51100000000E-03 0. -1.
        -11    1    3    3    0    0 -0.34948729887E+01  0.71016704833E+01 -0.83885458467E+01  0.11533237297E+02  0.51100000000E-03 0.  1.
        -12    1    3    3    0    0 -0.72130944147E+00 -0.17342146332E+01 -0.89169539483E+01  0.91126206670E+01  0.00000000000E+00 0.  1.
</event>
<event>
 7    1  0.2886681E-010  0.4778727E+02  0.7816164E-02  0.1312668E+00
        -11   -1    0    0    0    0  0.00000000000E+00  0.00000000000E+00  0.45593999997E+02  0.45594000000E+02  0.51100000000E-03 0.  1.
         11   -1    0    0    0    0 -0.00000000000E+00 -0.00000000000E+00 -0.45593999997E+02  0.45594000000E+02  0.51100000000E-03 0. -1.
    9900012    2    1    2    0    0 -0.25756337763E+02 -0.35229197432E+01 -0.34753756414E+02  0.47787268631E+02  0.19999988996E+02 0.  0.
        -12    1    1    2    0    0  0.25756337763E+02  0.35229197432E+01  0.34753756414E+02  0.43400731369E+02  0.00000000000E+00 0.  1.
         11    1    3    3    0    0 -0.80501818795E+01  0.63920964093E+01 -0.97924128996E+01  0.14197030515E+02  0.51100000000E-03 0.  1.
        -11    1    3    3    0    0  0.10650583608E+01 -0.11144921217E+01 -0.74629065484E+00  0.17127148052E+01  0.51100000000E-03 0. -1.
         12    1    3    3    0    0 -0.18771214244E+02 -0.88005240308E+01 -0.24215052860E+02  0.31877523311E+02  0.00000000000E+00 0. -1.
</event>
<event>
 7    1  0.2886681E-010  0.4778727E+02  0.7816164E-02  0.1312668E+00
        -11   -1    0    0    0    0  0.00000000000E+00  0.00000000000E+00  0.45593999997E+02  0.45594000000E+02  0.51100000000E-03 0.  1.
         11   -1    0    0    0    0 -0.00000000000E+00 -0.00000000000E+00 -0.45593999997E+02  0.45594000000E+02  0.51100000000E-03 0. -1.
    9900012    2    1    2    0    0  0.28954055498E+02  0.30730086843E+02  0.10047274215E+02  0.47787270901E+02  0.19999999348E+02 0.  0.
        -12    1    1    2    0    0 -0.28954055498E+02 -0.30730086843E+02 -0.10047274215E+02  0.43400729099E+02  0.00000000000E+00 0.  1.
         11    1    3    3    0    0  0.14556772156E+02  0.28159928025E+02  0.61231730522E+01  0.32285823676E+02  0.51100000000E-03 0. -1.
        -11    1    3    3    0    0  0.44821701079E+01 -0.64201602409E+00  0.63439819650E+00  0.45721433469E+01  0.51100000000E-03 0.  1.
         12    1    3    3    0    0  0.99151132337E+01  0.32121748417E+01  0.32897029666E+01  0.10929303878E+02  0.00000000000E+00 0. -1.
</event>
<event>
 7    1  0.2886681E-010  0.4778727E+02  0.7816164E-02  0.1312668E+00
        -11   -1    0    0    0    0  0.00000000000E+00  0.00000000000E+00  0.45593999997E+02  0.45594000000E+02  0.51100000000E-03 0.  1.
         11   -1    0    0    0    0 -0.00000000000E+00 -0.00000000000E+00 -0.45593999997E+02  0.45594000000E+02  0.51100000000E-03 0. -1.
    9900012    2    1    2    0    0  0.47827578280E+01  0.34960426842E+02 -0.25268893992E+02  0.47787271653E+02  0.20000002776E+02 0.  0.
        -12    1    1    2    0    0 -0.47827578280E+01 -0.34960426842E+02  0.25268893992E+02  0.43400728347E+02  0.00000000000E+00 0.  1.
         11    1    3    3    0    0  0.48672274031E+01  0.23087395673E+02 -0.17944774210E+02  0.29643425296E+02  0.51100000000E-03 0. -1.
        -11    1    3    3    0    0 -0.43726052903E+00  0.14114012070E+01  0.30608016866E+01  0.33987876314E+01  0.51100000000E-03 0.  1.
        -12    1    3    3    0    0  0.35279095391E+00  0.10461629962E+02 -0.10384921469E+02  0.14745058726E+02  0.00000000000E+00 0.  1.
</event>
<event>
 7    1  0.2886681E-010  0.4778727E+02  0.7816164E-02  0.1312668E+00
        -11   -1    0    0    0    0  0.00000000000E+00  0.00000000000E+00  0.45593999997E+02  0.45594000000E+02  0.51100000000E-03 0.  1.
         11   -1    0    0    0    0 -0.00000000000E+00 -0.00000000000E+00 -0.45593999997E+02  0.45594000000E+02  0.51100000000E-03 0. -1.
    9900012    2    1    2    0    0  0.40135521824E+02  0.16196773550E+02  0.32291969600E+01  0.47787270760E+02  0.19999998704E+02 0.  0.
        -12    1    1    2    0    0 -0.40135521824E+02 -0.16196773550E+02 -0.32291969600E+01  0.43400729240E+02  0.00000000000E+00 0.  1.
         11    1    3    3    0    0  0.31059510170E+01 -0.30618969129E+01  0.17428896285E+00  0.43649193955E+01  0.51100000000E-03 0. -1.
        -11    1    3    3    0    0  0.17179910028E+02  0.14041404760E+02  0.51922699696E+01  0.22787497096E+02  0.51100000000E-03 0.  1.
        -12    1    3    3    0    0  0.19849660780E+02  0.52172657024E+01 -0.21373619725E+01  0.20634854269E+02  0.00000000000E+00 0.  1.
</event>
<event>
 7    1  0.2886681E-010  0.4778727E+02  0.7816164E-02  0.1312668E+00
        -11   -1    0    0    0    0  0.00000000000E+00  0.00000000000E+00  0.45593999997E+02  0.45594000000E+02  0.51100000000E-03 0. -1.
         11   -1    0    0    0    0 -0.00000000000E+00 -0.00000000000E+00 -0.45593999997E+02  0.45594000000E+02  0.51100000000E-03 0.  1.
    9900012    2    1    2    0    0  0.38165229952E+02  0.20482304668E+02 -0.27411089944E+01  0.47787271200E+02  0.20000000710E+02 0.  0.
        -12    1    1    2    0    0 -0.38165229952E+02 -0.20482304668E+02  0.27411089944E+01  0.43400728800E+02  0.00000000000E+00 0.  1.
         11    1    3    3    0    0  0.81536115914E+01  0.13056328802E+02 -0.52885057733E+01  0.16276283278E+02  0.51100000000E-03 0. -1.
        -11    1    3    3    0    0  0.20546409659E+02  0.50935566499E+01  0.43150268228E+01  0.21603673899E+02  0.51100000000E-03 0.  1.
         12    1    3    3    0    0  0.94652087022E+01  0.23324192163E+01 -0.17676300439E+01  0.99073140229E+01  0.00000000000E+00 0. -1.
</event>
<event>
 7    1  0.2886681E-010  0.4778727E+02  0.7816164E-02  0.1312668E+00
        -11   -1    0    0    0    0  0.00000000000E+00  0.00000000000E+00  0.45593999997E+02  0.45594000000E+02  0.51100000000E-03 0.  1.
         11   -1    0    0    0    0 -0.00000000000E+00 -0.00000000000E+00 -0.45593999997E+02  0.45594000000E+02  0.51100000000E-03 0. -1.
    9900012    2    1    2    0    0  0.22012931483E+01  0.39643301155E+02 -0.17526724986E+02  0.47787272969E+02  0.20000008777E+02 0.  0.
        -12    1    1    2    0    0 -0.22012931483E+01 -0.39643301155E+02  0.17526724986E+02  0.43400727031E+02  0.00000000000E+00 0.  1.
         11    1    3    3    0    0 -0.14058463862E+01  0.93789147989E+01 -0.38563605626E+01  0.10237771433E+02  0.51100000000E-03 0. -1.
        -11    1    3    3    0    0  0.21985267571E+01  0.29740151493E+02 -0.68931267147E+01  0.30607602436E+02  0.51100000000E-03 0.  1.
        -12    1    3    3    0    0  0.14086127774E+01  0.52423486341E+00 -0.67772377091E+01  0.69418991000E+01  0.00000000000E+00 0.  1.
</event>
<event>
 7    1  0.2886681E-010  0.4778727E+02  0.7816164E-02  0.1312668E+00
        -11   -1    0    0    0    0  0.00000000000E+00  0.00000000000E+00  0.45593999997E+02  0.45594000000E+02  0.51100000000E-03 0.  1.
         11   -1    0    0    0    0 -0.00000000000E+00 -0.00000000000E+00 -0.45593999997E+02  0.45594000000E+02  0.51100000000E-03 0. -1.
    9900012    2    1    2    0    0 -0.14297176334E+02 -0.20853950428E+02 -0.35275016679E+02  0.47787270728E+02  0.19999998559E+02 0.  0.
        -12    1    1    2    0    0  0.14297176334E+02  0.20853950428E+02  0.35275016679E+02  0.43400729272E+02  0.00000000000E+00 0.  1.
         11    1    3    3    0    0 -0.10206020547E+02 -0.12651633835E+02 -0.84534831716E+01  0.18321792273E+02  0.51100000000E-03 0. -1.
        -11    1    3    3    0    0 -0.18088828482E+01  0.12911778851E+01 -0.74181582464E+01  0.77439182278E+01  0.51100000000E-03 0.  1.
         12    1    3    3    0    0 -0.22822729382E+01 -0.94934944784E+01 -0.19403375262E+02  0.21721560228E+02  0.00000000000E+00 0. -1.
</event>
<event>
 7    1  0.2886681E-010  0.4778727E+02  0.7816164E-02  0.1312668E+00
        -11   -1    0    0    0    0  0.00000000000E+00  0.00000000000E+00  0.45593999997E+02  0.45594000000E+02  0.51100000000E-03 0.  1.
         11   -1    0    0    0    0 -0.00000000000E+00 -0.00000000000E+00 -0.45593999997E+02  0.45594000000E+02  0.51100000000E-03 0. -1.
    9900012    2    1    2    0    0 -0.30124507986E+02  0.11760980358E+01 -0.31221049139E+02  0.47787273078E+02  0.20000009273E+02 0.  0.
        -12    1    1    2    0    0  0.30124507986E+02 -0.11760980358E+01  0.31221049139E+02  0.43400726922E+02  0.00000000000E+00 0.  1.
         11    1    3    3    0    0 -0.56113225818E+01  0.43055746133E+01 -0.15083504941E+01  0.72318763362E+01  0.51100000000E-03 0.  1.
        -11    1    3    3    0    0 -0.19331580543E+02 -0.21755132227E+01 -0.29430893695E+02  0.35279177542E+02  0.51100000000E-03 0. -1.
         12    1    3    3    0    0 -0.51816048614E+01 -0.95396335490E+00 -0.28180495000E+00  0.52762192006E+01  0.00000000000E+00 0. -1.
</event>
<event>
 7    1  0.2886681E-010  0.4778727E+02  0.7816164E-02  0.1312668E+00
        -11   -1    0    0    0    0  0.00000000000E+00  0.00000000000E+00  0.45593999997E+02  0.45594000000E+02  0.51100000000E-03 0.  1.
         11   -1    0    0    0    0 -0.00000000000E+00 -0.00000000000E+00 -0.45593999997E+02  0.45594000000E+02  0.51100000000E-03 0. -1.
    9900012    2    1    2    0    0  0.14480815695E+02  0.55263691635E+01 -0.40538728918E+02  0.47787270495E+02  0.19999997493E+02 0.  0.
        -12    1    1    2    0    0 -0.14480815695E+02 -0.55263691635E+01  0.40538728918E+02  0.43400729505E+02  0.00000000000E+00 0.  1.
         11    1    3    3    0    0  0.70614196774E+01 -0.19403504195E+01 -0.24087705728E+02  0.25176301855E+02  0.51100000000E-03 0. -1.
        -11    1    3    3    0    0 -0.16509182916E+01  0.19706138043E+01  0.49677694713E+00  0.26183272461E+01  0.51100000000E-03 0.  1.
         12    1    3    3    0    0  0.90703143091E+01  0.54961057787E+01 -0.16947800137E+02  0.19992641393E+02  0.00000000000E+00 0. -1.
</event>
<event>
 7    1  0.2886681E-010  0.4778727E+02  0.7816164E-02  0.1312668E+00
        -11   -1    0    0    0    0  0.00000000000E+00  0.00000000000E+00  0.45593999997E+02  0.45594000000E+02  0.51100000000E-03 0. -1.
         11   -1    0    0    0    0 -0.00000000000E+00 -0.00000000000E+00 -0.45593999997E+02  0.45594000000E+02  0.51100000000E-03 0.  1.
    9900012    2    1    2    0    0  0.11790856919E+02 -0.37894152993E+02 -0.17567934671E+02  0.47787268824E+02  0.19999989877E+02 0.  0.
        -12    1    1    2    0    0 -0.11790856919E+02  0.37894152993E+02  0.17567934671E+02  0.43400731176E+02  0.00000000000E+00 0.  1.
         11    1    3    3    0    0  0.17524101304E+01 -0.73611674188E+01  0.36516116824E+01  0.84019042587E+01  0.51100000000E-03 0. -1.
        -11    1    3    3    0    0  0.18896897865E+01 -0.41931292183E+00 -0.76750911827E+00  0.20822635096E+01  0.51100000000E-03 0.  1.
         12    1    3    3    0    0  0.81487570024E+01 -0.30113672653E+02 -0.20452037235E+02  0.37303101056E+02  0.00000000000E+00 0. -1.
</event>
<event>
 7    1  0.2886681E-010  0.4778727E+02  0.7816164E-02  0.1312668E+00
        -11   -1    0    0    0    0  0.00000000000E+00  0.00000000000E+00  0.45593999997E+02  0.45594000000E+02  0.51100000000E-03 0.  1.
         11   -1    0    0    0    0 -0.00000000000E+00 -0.00000000000E+00 -0.45593999997E+02  0.45594000000E+02  0.51100000000E-03 0. -1.
    9900012    2    1    2    0    0  0.29751829612E+02  0.19875129270E+02 -0.24564835224E+02  0.47787271223E+02  0.20000000816E+02 0.  0.
        -12    1    1    2    0    0 -0.29751829612E+02 -0.19875129270E+02  0.24564835224E+02  0.43400728777E+02  0.00000000000E+00 0.  1.
         11    1    3    3    0    0  0.10620453872E+02  0.49666935481E+01 -0.76140933862E+01  0.13979860643E+02  0.51100000000E-03 0.  1.
        -11    1    3    3    0    0  0.12799202910E+02  0.53828233603E+01 -0.17520030701E+02  0.22354996276E+02  0.51100000000E-03 0. -1.
        -12    1    3    3    0    0  0.63321728298E+01  0.95256123612E+01  0.56928886243E+00  0.11452414305E+02  0.00000000000E+00 0.  1.
</event>
<event>
 7    1  0.2886681E-010  0.4778727E+02  0.7816164E-02  0.1312668E+00
        -11   -1    0    0    0    0  0.00000000000E+00  0.00000000000E+00  0.45593999997E+02  0.45594000000E+02  0.51100000000E-03 0.  1.
         11   -1    0    0    0    0 -0.00000000000E+00 -0.00000000000E+00 -0.45593999997E+02  0.45594000000E+02  0.51100000000E-03 0. -1.
    9900012    2    1    2    0    0 -0.20210075503E+02  0.18398432906E+02 -0.33714594713E+02  0.47787269800E+02  0.19999994326E+02 0.  0.
        -12    1    1    2    0    0  0.20210075503E+02 -0.18398432906E+02  0.33714594713E+02  0.43400730200E+02  0.00000000000E+00 0.  1.
         11    1    3    3    0    0 -0.73645163895E+01  0.11461126003E+02 -0.25156998971E+02  0.28608881635E+02  0.51100000000E-03 0. -1.
        -11    1    3    3    0    0 -0.39885748565E+01  0.95200731955E+00  0.16289888331E+01  0.44123295663E+01  0.51100000000E-03 0.  1.
         12    1    3    3    0    0 -0.88569842569E+01  0.59852995838E+01 -0.10186584575E+02  0.14766058598E+02  0.00000000000E+00 0. -1.
</event>
<event>
 7    1  0.2886681E-010  0.4778727E+02  0.7816164E-02  0.1312668E+00
        -11   -1    0    0    0    0  0.00000000000E+00  0.00000000000E+00  0.45593999997E+02  0.45594000000E+02  0.51100000000E-03 0.  1.
         11   -1    0    0    0    0 -0.00000000000E+00 -0.00000000000E+00 -0.45593999997E+02  0.45594000000E+02  0.51100000000E-03 0. -1.
    9900012    2    1    2    0    0 -0.90575694503E+01  0.10697363738E+02 -0.41074934153E+02  0.47787269926E+02  0.19999994899E+02 0.  0.
        -12    1    1    2    0    0  0.90575694503E+01 -0.10697363738E+02  0.41074934153E+02  0.43400730074E+02  0.00000000000E+00 0.  1.
         11    1    3    3    0    0 -0.16311312402E+01  0.12717822827E+02 -0.18899402582E+02  0.22838367385E+02  0.51100000000E-03 0.  1.
        -11    1    3    3    0    0 -0.25120840638E+01 -0.45799384930E+01 -0.65992735186E+01  0.84164609057E+01  0.51100000000E-03 0. -1.
         12    1    3    3    0    0 -0.49143541463E+01  0.25594794042E+01 -0.15576258052E+02  0.16532441635E+02  0.00000000000E+00 0. -1.
</event>
<event>
 7    1  0.2886681E-010  0.4778725E+02  0.7816164E-02  0.1312668E+00
        -11   -1    0    0    0    0  0.00000000000E+00  0.00000000000E+00  0.45593999997E+02  0.45594000000E+02  0.51100000000E-03 0.  1.
         11   -1    0    0    0    0 -0.00000000000E+00 -0.00000000000E+00 -0.45593999997E+02  0.45594000000E+02  0.51100000000E-03 0. -1.
    9900012    2    1    2    0    0  0.17259104049E+02  0.80077791614E+01 -0.39007995487E+02  0.47787252177E+02  0.19999913976E+02 0.  0.
        -12    1    1    2    0    0 -0.17259104049E+02 -0.80077791614E+01  0.39007995487E+02  0.43400747823E+02  0.00000000000E+00 0.  1.
         11    1    3    3    0    0  0.62202915910E+01  0.73343437000E+01 -0.31301875769E+01  0.10113490966E+02  0.51100000000E-03 0. -1.
        -11    1    3    3    0    0  0.94836526544E+01 -0.46716005152E+00 -0.28120344764E+02  0.29680156605E+02  0.51100000000E-03 0.  1.
        -12    1    3    3    0    0  0.15551598034E+01  0.11405955130E+01 -0.77574631458E+01  0.79936046060E+01  0.00000000000E+00 0.  1.
</event>
<event>
 7    1  0.2886681E-010  0.4778727E+02  0.7816164E-02  0.1312668E+00
        -11   -1    0    0    0    0  0.00000000000E+00  0.00000000000E+00  0.45593999997E+02  0.45594000000E+02  0.51100000000E-03 0.  1.
         11   -1    0    0    0    0 -0.00000000000E+00 -0.00000000000E+00 -0.45593999997E+02  0.45594000000E+02  0.51100000000E-03 0. -1.
    9900012    2    1    2    0    0 -0.32169603823E+01  0.18218769868E+02 -0.39260045560E+02  0.47787267437E+02  0.19999983552E+02 0.  0.
        -12    1    1    2    0    0  0.32169603823E+01 -0.18218769868E+02  0.39260045560E+02  0.43400732563E+02  0.00000000000E+00 0.  1.
         11    1    3    3    0    0 -0.89933467815E+01  0.11870985378E+02 -0.26317458486E+02  0.30239199752E+02  0.51100000000E-03 0. -1.
        -11    1    3    3    0    0  0.43776764400E+00  0.52033971535E+01 -0.25558392538E+01  0.58137162813E+01  0.51100000000E-03 0.  1.
         12    1    3    3    0    0  0.53386187551E+01  0.11443873357E+01 -0.10386747820E+02  0.11734351404E+02  0.00000000000E+00 0. -1.
</event>
<event>
 7    1  0.2886681E-010  0.4778727E+02  0.7816164E-02  0.1312668E+00
        -11   -1    0    0    0    0  0.00000000000E+00  0.00000000000E+00  0.45593999997E+02  0.45594000000E+02  0.51100000000E-03 0.  1.
         11   -1    0    0    0    0 -0.00000000000E+00 -0.00000000000E+00 -0.45593999997E+02  0.45594000000E+02  0.51100000000E-03 0. -1.
    9900012    2    1    2    0    0 -0.25407010205E+01 -0.11548454788E+02 -0.41758848014E+02  0.47787270085E+02  0.19999995626E+02 0.  0.
        -12    1    1    2    0    0  0.25407010205E+01  0.11548454788E+02  0.41758848014E+02  0.43400729915E+02  0.00000000000E+00 0.  1.
         11    1    3    3    0    0 -0.59625957358E+01 -0.92273846394E+01 -0.36377863815E+02  0.38000607247E+02  0.51100000000E-03 0. -1.
        -11    1    3    3    0    0  0.15716569952E+01  0.21697932164E+01 -0.38567676533E+01  0.46960371916E+01  0.51100000000E-03 0.  1.
         12    1    3    3    0    0  0.18502377201E+01 -0.44908633653E+01 -0.15242165463E+01  0.50906256459E+01  0.00000000000E+00 0. -1.
</event>
<event>
 7    1  0.2886681E-010  0.4778728E+02  0.7816164E-02  0.1312668E+00
        -11   -1    0    0    0    0  0.00000000000E+00  0.00000000000E+00  0.45593999997E+02  0.45594000000E+02  0.51100000000E-03 0.  1.
         11   -1    0    0    0    0 -0.00000000000E+00 -0.00000000000E+00 -0.45593999997E+02  0.45594000000E+02  0.51100000000E-03 0. -1.
    9900012    2    1    2    0    0 -0.33916123267E+02 -0.26465893079E+02 -0.57337568480E+01  0.47787275564E+02  0.20000020608E+02 0.  0.
        -12    1    1    2    0    0  0.33916123267E+02  0.26465893079E+02  0.57337568480E+01  0.43400724436E+02  0.00000000000E+00 0.  1.
         11    1    3    3    0    0 -0.19739070524E+02 -0.85093614761E+01  0.29141876872E+01  0.21691764060E+02  0.51100000000E-03 0. -1.
        -11    1    3    3    0    0 -0.11820991302E+02 -0.15416393718E+02 -0.32728186109E+01  0.19700567823E+02  0.51100000000E-03 0.  1.
         12    1    3    3    0    0 -0.23560614413E+01 -0.25401378846E+01 -0.53751259244E+01  0.63949436816E+01  0.00000000000E+00 0. -1.
</event>
<event>
 7    1  0.2886681E-010  0.4778727E+02  0.7816164E-02  0.1312668E+00
        -11   -1    0    0    0    0  0.00000000000E+00  0.00000000000E+00  0.45593999997E+02  0.45594000000E+02  0.51100000000E-03 0.  1.
         11   -1    0    0    0    0 -0.00000000000E+00 -0.00000000000E+00 -0.45593999997E+02  0.45594000000E+02  0.51100000000E-03 0. -1.
    9900012    2    1    2    0    0  0.11890341414E+02 -0.12589875125E+02 -0.39796211563E+02  0.47787266949E+02  0.19999981327E+02 0.  0.
        -12    1    1    2    0    0 -0.11890341414E+02  0.12589875125E+02  0.39796211563E+02  0.43400733051E+02  0.00000000000E+00 0.  1.
         11    1    3    3    0    0  0.30373034285E+00 -0.25348248951E+01 -0.53668049826E+01  0.59430787772E+01  0.51100000000E-03 0. -1.
        -11    1    3    3    0    0  0.87227974615E+01 -0.41544470475E+01 -0.33915963996E+02  0.35265269599E+02  0.51100000000E-03 0.  1.
        -12    1    3    3    0    0  0.28638136098E+01 -0.59006031821E+01 -0.51344258426E+00  0.65789185731E+01  0.00000000000E+00 0.  1.
</event>
<event>
 7    1  0.2886681E-010  0.4778727E+02  0.7816164E-02  0.1312668E+00
        -11   -1    0    0    0    0  0.00000000000E+00  0.00000000000E+00  0.45593999997E+02  0.45594000000E+02  0.51100000000E-03 0. -1.
         11   -1    0    0    0    0 -0.00000000000E+00 -0.00000000000E+00 -0.45593999997E+02  0.45594000000E+02  0.51100000000E-03 0.  1.
    9900012    2    1    2    0    0  0.40752161615E+02  0.55576658876E+01  0.13856302548E+02  0.47787269053E+02  0.19999990921E+02 0.  0.
        -12    1    1    2    0    0 -0.40752161615E+02 -0.55576658876E+01 -0.13856302548E+02  0.43400730947E+02  0.00000000000E+00 0.  1.
         11    1    3    3    0    0  0.73871539548E+00  0.29351590581E+00 -0.91818146698E-01  0.80017676527E+00  0.51100000000E-03 0. -1.
        -11    1    3    3    0    0  0.40791737845E+02  0.60818723426E+01  0.16324750609E+02  0.44355975137E+02  0.51100000000E-03 0.  1.
        -12    1    3    3    0    0 -0.77829162592E+00 -0.81772236077E+00 -0.23766299141E+01  0.26311171511E+01  0.00000000000E+00 0.  1.
</event>
<event>
 7    1  0.2886681E-010  0.4778724E+02  0.7816164E-02  0.1312668E+00
        -11   -1    0    0    0    0  0.00000000000E+00  0.00000000000E+00  0.45593999997E+02  0.45594000000E+02  0.51100000000E-03 0. -1.
         11   -1    0    0    0    0 -0.00000000000E+00 -0.00000000000E+00 -0.45593999997E+02  0.45594000000E+02  0.51100000000E-03 0.  1.
    9900012    2    1    2    0    0  0.42563740147E+02  0.51617591492E+01 -0.67312886746E+01  0.47787239868E+02  0.19999857856E+02 0.  0.
        -12    1    1    2    0    0 -0.42563740147E+02 -0.51617591492E+01  0.67312886746E+01  0.43400760132E+02  0.00000000000E+00 0.  1.
         11    1    3    3    0    0  0.11383572738E+02  0.68750076092E+01 -0.91157002309E+00  0.13329756865E+02  0.51100000000E-03 0. -1.
        -11    1    3    3    0    0  0.51656222408E+01 -0.56302494648E+01 -0.90117569663E+00  0.76938598939E+01  0.51100000000E-03 0.  1.
        -12    1    3    3    0    0  0.26014545168E+02  0.39170010048E+01 -0.49185429548E+01  0.26763623110E+02  0.00000000000E+00 0.  1.
</event>
<event>
 7    1  0.2886681E-010  0.4778727E+02  0.7816164E-02  0.1312668E+00
        -11   -1    0    0    0    0  0.00000000000E+00  0.00000000000E+00  0.45593999997E+02  0.45594000000E+02  0.51100000000E-03 0.  1.
         11   -1    0    0    0    0 -0.00000000000E+00 -0.00000000000E+00 -0.45593999997E+02  0.45594000000E+02  0.51100000000E-03 0. -1.
    9900012    2    1    2    0    0  0.19599291740E+02  0.24977143921E+02 -0.29591102829E+02  0.47787270493E+02  0.19999997484E+02 0.  0.
        -12    1    1    2    0    0 -0.19599291740E+02 -0.24977143921E+02  0.29591102829E+02  0.43400729507E+02  0.00000000000E+00 0.  1.
         11    1    3    3    0    0  0.72056111653E+01  0.13491890551E+02 -0.18318456608E+02  0.23864571978E+02  0.51100000000E-03 0. -1.
        -11    1    3    3    0    0  0.99160956539E+01  0.16364057867E+01 -0.21637914967E+01  0.10280504405E+02  0.51100000000E-03 0.  1.
         12    1    3    3    0    0  0.24775849203E+01  0.98488475832E+01 -0.91088547242E+01  0.13642194110E+02  0.00000000000E+00 0. -1.
</event>
<event>
 7    1  0.2886681E-010  0.4778727E+02  0.7816164E-02  0.1312668E+00
        -11   -1    0    0    0    0  0.00000000000E+00  0.00000000000E+00  0.45593999997E+02  0.45594000000E+02  0.51100000000E-03 0.  1.
         11   -1    0    0    0    0 -0.00000000000E+00 -0.00000000000E+00 -0.45593999997E+02  0.45594000000E+02  0.51100000000E-03 0. -1.
    9900012    2    1    2    0    0  0.20257084762E+02 -0.13849848935E+02 -0.35797419362E+02  0.47787273836E+02  0.20000012727E+02 0.  0.
        -12    1    1    2    0    0 -0.20257084762E+02  0.13849848935E+02  0.35797419362E+02  0.43400726164E+02  0.00000000000E+00 0.  1.
         11    1    3    3    0    0  0.10562326680E+02 -0.17916594974E+01 -0.26410822971E+02  0.28500953649E+02  0.51100000000E-03 0.  1.
        -11    1    3    3    0    0  0.90600772370E+01 -0.84502367861E+01 -0.45045190909E+01  0.13182647450E+02  0.51100000000E-03 0. -1.
        -12    1    3    3    0    0  0.63468084507E+00 -0.36079526519E+01 -0.48820773006E+01  0.61036727372E+01  0.00000000000E+00 0.  1.
</event>
<event>
 7    1  0.2886681E-010  0.4778727E+02  0.7816164E-02  0.1312668E+00
        -11   -1    0    0    0    0  0.00000000000E+00  0.00000000000E+00  0.45593999997E+02  0.45594000000E+02  0.51100000000E-03 0. -1.
         11   -1    0    0    0    0 -0.00000000000E+00 -0.00000000000E+00 -0.45593999997E+02  0.45594000000E+02  0.51100000000E-03 0.  1.
    9900012    2    1    2    0    0 -0.22777844433E+02  0.32596106640E+02  0.17386401676E+02  0.47787270417E+02  0.19999997140E+02 0.  0.
        -12    1    1    2    0    0  0.22777844433E+02 -0.32596106640E+02 -0.17386401676E+02  0.43400729583E+02  0.00000000000E+00 0.  1.
         11    1    3    3    0    0 -0.38538045909E+01  0.10106598348E+02  0.24843136267E+01  0.11098060842E+02  0.51100000000E-03 0. -1.
        -11    1    3    3    0    0 -0.53364771079E+01  0.48913930404E+01 -0.32996854186E+01  0.79556041833E+01  0.51100000000E-03 0.  1.
        -12    1    3    3    0    0 -0.13587562734E+02  0.17598115252E+02  0.18201773468E+02  0.28733605392E+02  0.00000000000E+00 0.  1.
</event>
<event>
 7    1  0.2886681E-010  0.4778727E+02  0.7816164E-02  0.1312668E+00
        -11   -1    0    0    0    0  0.00000000000E+00  0.00000000000E+00  0.45593999997E+02  0.45594000000E+02  0.51100000000E-03 0. -1.
         11   -1    0    0    0    0 -0.00000000000E+00 -0.00000000000E+00 -0.45593999997E+02  0.45594000000E+02  0.51100000000E-03 0.  1.
    9900012    2    1    2    0    0  0.29641176778E+02  0.24683213595E+02  0.19893790160E+02  0.47787270961E+02  0.19999999621E+02 0.  0.
        -12    1    1    2    0    0 -0.29641176778E+02 -0.24683213595E+02 -0.19893790160E+02  0.43400729039E+02  0.00000000000E+00 0.  1.
         11    1    3    3    0    0  0.78648865520E+01 -0.15703548547E+01  0.78839055216E+01  0.11246262552E+02  0.51100000000E-03 0. -1.
        -11    1    3    3    0    0  0.14057505272E+02  0.20416086270E+02  0.77856717871E+01  0.25981661196E+02  0.51100000000E-03 0.  1.
        -12    1    3    3    0    0  0.77187849544E+01  0.58374821791E+01  0.42242128511E+01  0.10559347214E+02  0.00000000000E+00 0.  1.
</event>
<event>
 7    1  0.2886681E-010  0.4778727E+02  0.7816164E-02  0.1312668E+00
        -11   -1    0    0    0    0  0.00000000000E+00  0.00000000000E+00  0.45593999997E+02  0.45594000000E+02  0.51100000000E-03 0.  1.
         11   -1    0    0    0    0 -0.00000000000E+00 -0.00000000000E+00 -0.45593999997E+02  0.45594000000E+02  0.51100000000E-03 0. -1.
    9900012    2    1    2    0    0  0.65071821129E+01 -0.40736740206E+02 -0.13483260837E+02  0.47787265623E+02  0.19999975283E+02 0.  0.
        -12    1    1    2    0    0 -0.65071821129E+01  0.40736740206E+02  0.13483260837E+02  0.43400734377E+02  0.00000000000E+00 0.  1.
         11    1    3    3    0    0  0.56162199756E+01 -0.46652953331E+01 -0.42785843935E+01  0.84624578009E+01  0.51100000000E-03 0. -1.
        -11    1    3    3    0    0  0.77495993781E+00 -0.30071864605E+02 -0.22892180574E+01  0.30168827013E+02  0.51100000000E-03 0.  1.
        -12    1    3    3    0    0  0.11600219954E+00 -0.59995802675E+01 -0.69154583864E+01  0.91559808098E+01  0.00000000000E+00 0.  1.
</event>
<event>
 7    1  0.2886681E-010  0.4778727E+02  0.7816164E-02  0.1312668E+00
        -11   -1    0    0    0    0  0.00000000000E+00  0.00000000000E+00  0.45593999997E+02  0.45594000000E+02  0.51100000000E-03 0.  1.
         11   -1    0    0    0    0 -0.00000000000E+00 -0.00000000000E+00 -0.45593999997E+02  0.45594000000E+02  0.51100000000E-03 0. -1.
    9900012    2    1    2    0    0  0.30201672083E+02  0.84082316697E+01 -0.30013064415E+02  0.47787269683E+02  0.19999993794E+02 0.  0.
        -12    1    1    2    0    0 -0.30201672083E+02 -0.84082316697E+01  0.30013064415E+02  0.43400730317E+02  0.00000000000E+00 0.  1.
         11    1    3    3    0    0  0.17615162465E+02  0.18977958814E+01 -0.15063093712E+02  0.23254942922E+02  0.51100000000E-03 0. -1.
        -11    1    3    3    0    0  0.11703962007E+02  0.10223148419E+02 -0.10994995924E+02  0.19036423663E+02  0.51100000000E-03 0.  1.
        -12    1    3    3    0    0  0.88254761140E+00 -0.37127126303E+01 -0.39549747791E+01  0.54959030982E+01  0.00000000000E+00 0.  1.
</event>
<event>
 7    1  0.2886681E-010  0.4778724E+02  0.7816164E-02  0.1312668E+00
        -11   -1    0    0    0    0  0.00000000000E+00  0.00000000000E+00  0.45593999997E+02  0.45594000000E+02  0.51100000000E-03 0.  1.
         11   -1    0    0    0    0 -0.00000000000E+00 -0.00000000000E+00 -0.45593999997E+02  0.45594000000E+02  0.51100000000E-03 0. -1.
    9900012    2    1    2    0    0  0.28255933436E+02  0.10446557105E+02 -0.31242561824E+02  0.47787239650E+02  0.19999856857E+02 0.  0.
        -12    1    1    2    0    0 -0.28255933436E+02 -0.10446557105E+02  0.31242561824E+02  0.43400760350E+02  0.00000000000E+00 0.  1.
         11    1    3    3    0    0  0.13514438089E+02  0.11881824722E+01 -0.13851737402E+02  0.19388719498E+02  0.51100000000E-03 0. -1.
        -11    1    3    3    0    0  0.45765504322E+01  0.68839402185E+01 -0.15810329618E+02  0.17840963250E+02  0.51100000000E-03 0.  1.
        -12    1    3    3    0    0  0.10164944915E+02  0.23744344140E+01 -0.15804948035E+01  0.10557556902E+02  0.00000000000E+00 0.  1.
</event>
<event>
 7    1  0.2886681E-010  0.4778727E+02  0.7816164E-02  0.1312668E+00
        -11   -1    0    0    0    0  0.00000000000E+00  0.00000000000E+00  0.45593999997E+02  0.45594000000E+02  0.51100000000E-03 0.  1.
         11   -1    0    0    0    0 -0.00000000000E+00 -0.00000000000E+00 -0.45593999997E+02  0.45594000000E+02  0.51100000000E-03 0. -1.
    9900012    2    1    2    0    0  0.15919523658E+01 -0.42933882288E+02  0.61457851028E+01  0.47787271490E+02  0.20000002030E+02 0.  0.
        -12    1    1    2    0    0 -0.15919523658E+01  0.42933882288E+02 -0.61457851028E+01  0.43400728510E+02  0.00000000000E+00 0.  1.
         11    1    3    3    0    0 -0.65678531512E+00 -0.16108993857E+02  0.19346717102E+01  0.16238041905E+02  0.51100000000E-03 0. -1.
        -11    1    3    3    0    0  0.42002631765E+01 -0.24839024924E+02 -0.14574680263E+01  0.25233778616E+02  0.51100000000E-03 0.  1.
        -12    1    3    3    0    0 -0.19515254956E+01 -0.19858635073E+01  0.56685814188E+01  0.63154509682E+01  0.00000000000E+00 0.  1.
</event>
<event>
 7    1  0.2886681E-010  0.4778727E+02  0.7816164E-02  0.1312668E+00
        -11   -1    0    0    0    0  0.00000000000E+00  0.00000000000E+00  0.45593999997E+02  0.45594000000E+02  0.51100000000E-03 0. -1.
         11   -1    0    0    0    0 -0.00000000000E+00 -0.00000000000E+00 -0.45593999997E+02  0.45594000000E+02  0.51100000000E-03 0.  1.
    9900012    2    1    2    0    0 -0.10281059021E+02  0.27420271119E+02  0.32032050044E+02  0.47787266448E+02  0.19999979042E+02 0.  0.
        -12    1    1    2    0    0  0.10281059021E+02 -0.27420271119E+02 -0.32032050044E+02  0.43400733552E+02  0.00000000000E+00 0.  1.
         11    1    3    3    0    0 -0.49392668962E+01  0.22619714719E+02  0.29893974515E+02  0.37811341738E+02  0.51100000000E-03 0. -1.
        -11    1    3    3    0    0 -0.54598506405E+01  0.64576862705E+00  0.18838148592E+01  0.58116903583E+01  0.51100000000E-03 0.  1.
         12    1    3    3    0    0  0.11805851561E+00  0.41547877724E+01  0.25426067025E+00  0.41642343516E+01  0.00000000000E+00 0. -1.
</event>
<event>
 7    1  0.2886681E-010  0.4778727E+02  0.7816164E-02  0.1312668E+00
        -11   -1    0    0    0    0  0.00000000000E+00  0.00000000000E+00  0.45593999997E+02  0.45594000000E+02  0.51100000000E-03 0. -1.
         11   -1    0    0    0    0 -0.00000000000E+00 -0.00000000000E+00 -0.45593999997E+02  0.45594000000E+02  0.51100000000E-03 0.  1.
    9900012    2    1    2    0    0 -0.16980672951E+02 -0.28177487287E+02 -0.28307405996E+02  0.47787270998E+02  0.19999999790E+02 0.  0.
        -12    1    1    2    0    0  0.16980672951E+02  0.28177487287E+02  0.28307405996E+02  0.43400729002E+02  0.00000000000E+00 0.  1.
         11    1    3    3    0    0 -0.11229972401E+02 -0.13252399182E+02 -0.78307523898E+01  0.19054108414E+02  0.51100000000E-03 0. -1.
        -11    1    3    3    0    0 -0.49061102661E+01 -0.16653335607E+02 -0.20428351176E+02  0.26808973066E+02  0.51100000000E-03 0.  1.
        -12    1    3    3    0    0 -0.84459028341E+00  0.17282475027E+01 -0.48302429514E-01  0.19241895182E+01  0.00000000000E+00 0.  1.
</event>
<event>
 7    1  0.2886681E-010  0.4778727E+02  0.7816164E-02  0.1312668E+00
        -11   -1    0    0    0    0  0.00000000000E+00  0.00000000000E+00  0.45593999997E+02  0.45594000000E+02  0.51100000000E-03 0. -1.
         11   -1    0    0    0    0 -0.00000000000E+00 -0.00000000000E+00 -0.45593999997E+02  0.45594000000E+02  0.51100000000E-03 0.  1.
    9900012    2    1    2    0    0  0.20953840989E+02 -0.36333955694E+02  0.11153619621E+02  0.47787273978E+02  0.20000013375E+02 0.  0.
        -12    1    1    2    0    0 -0.20953840989E+02  0.36333955694E+02 -0.11153619621E+02  0.43400726022E+02  0.00000000000E+00 0.  1.
         11    1    3    3    0    0  0.13905830670E+02 -0.28715729652E+02  0.12661223177E+02  0.34325964352E+02  0.51100000000E-03 0. -1.
        -11    1    3    3    0    0  0.77162773470E+01 -0.81315677529E+01 -0.31251409079E+01  0.11637432542E+02  0.51100000000E-03 0.  1.
         12    1    3    3    0    0 -0.66826702830E+00  0.51334171070E+00  0.16175373516E+01  0.18238770838E+01  0.00000000000E+00 0. -1.
</event>
<event>
 7    1  0.2886681E-010  0.4778727E+02  0.7816164E-02  0.1312668E+00
        -11   -1    0    0    0    0  0.00000000000E+00  0.00000000000E+00  0.45593999997E+02  0.45594000000E+02  0.51100000000E-03 0. -1.
         11   -1    0    0    0    0 -0.00000000000E+00 -0.00000000000E+00 -0.45593999997E+02  0.45594000000E+02  0.51100000000E-03 0.  1.
    9900012    2    1    2    0    0  0.36078272708E+02  0.20282351911E+02  0.13061691407E+02  0.47787270248E+02  0.19999996368E+02 0.  0.
        -12    1    1    2    0    0 -0.36078272708E+02 -0.20282351911E+02 -0.13061691407E+02  0.43400729752E+02  0.00000000000E+00 0.  1.
         11    1    3    3    0    0  0.18917941939E+02  0.91159813344E+01  0.42656358119E+01  0.21428609195E+02  0.51100000000E-03 0. -1.
        -11    1    3    3    0    0  0.54245018767E+01 -0.11960392963E+01  0.74040704628E+01  0.92561325772E+01  0.51100000000E-03 0.  1.
        -12    1    3    3    0    0  0.11735828892E+02  0.12362409873E+02  0.13919851321E+01  0.17102528476E+02  0.00000000000E+00 0.  1.
</event>
<event>
 7    1  0.2886681E-010  0.4778727E+02  0.7816164E-02  0.1312668E+00
        -11   -1    0    0    0    0  0.00000000000E+00  0.00000000000E+00  0.45593999997E+02  0.45594000000E+02  0.51100000000E-03 0.  1.
         11   -1    0    0    0    0 -0.00000000000E+00 -0.00000000000E+00 -0.45593999997E+02  0.45594000000E+02  0.51100000000E-03 0. -1.
    9900012    2    1    2    0    0  0.19515108338E+02  0.27475569124E+02 -0.27347333487E+02  0.47787274188E+02  0.20000014334E+02 0.  0.
        -12    1    1    2    0    0 -0.19515108338E+02 -0.27475569124E+02  0.27347333487E+02  0.43400725812E+02  0.00000000000E+00 0.  1.
         11    1    3    3    0    0  0.74215074467E+01  0.49824498489E+01 -0.33613267993E+01  0.95499789209E+01  0.51100000000E-03 0. -1.
        -11    1    3    3    0    0 -0.27672663281E+01  0.47677243696E+00 -0.65513554576E+00  0.28834489300E+01  0.51100000000E-03 0.  1.
        -12    1    3    3    0    0  0.14860867219E+02  0.22016346839E+02 -0.23330871142E+02  0.35353846337E+02  0.00000000000E+00 0.  1.
</event>
<event>
 7    1  0.2886681E-010  0.4778727E+02  0.7816164E-02  0.1312668E+00
        -11   -1    0    0    0    0  0.00000000000E+00  0.00000000000E+00  0.45593999997E+02  0.45594000000E+02  0.51100000000E-03 0.  1.
         11   -1    0    0    0    0 -0.00000000000E+00 -0.00000000000E+00 -0.45593999997E+02  0.45594000000E+02  0.51100000000E-03 0. -1.
    9900012    2    1    2    0    0  0.15806324259E+02  0.40412982471E+02  0.75787926477E+00  0.47787269364E+02  0.19999992337E+02 0.  0.
        -12    1    1    2    0    0 -0.15806324259E+02 -0.40412982471E+02 -0.75787926477E+00  0.43400730636E+02  0.00000000000E+00 0.  1.
         11    1    3    3    0    0  0.12978713171E+02  0.39928309921E+02  0.41551248051E+01  0.42189832794E+02  0.51100000000E-03 0. -1.
        -11    1    3    3    0    0  0.28716271826E+01 -0.20898954824E+00 -0.91712391637E+00  0.30217603886E+01  0.51100000000E-03 0.  1.
         12    1    3    3    0    0 -0.44016095144E-01  0.69366209811E+00 -0.24801216239E+01  0.25756761816E+01  0.00000000000E+00 0. -1.
</event>
<event>
 7    1  0.2886681E-010  0.4778727E+02  0.7816164E-02  0.1312668E+00
        -11   -1    0    0    0    0  0.00000000000E+00  0.00000000000E+00  0.45593999997E+02  0.45594000000E+02  0.51100000000E-03 0. -1.
         11   -1    0    0    0    0 -0.00000000000E+00 -0.00000000000E+00 -0.45593999997E+02  0.45594000000E+02  0.51100000000E-03 0.  1.
    9900012    2    1    2    0    0 -0.31510276402E+01 -0.49253083765E+00  0.43283391039E+02  0.47787268420E+02  0.19999988033E+02 0.  0.
        -12    1    1    2    0    0  0.31510276402E+01  0.49253083765E+00 -0.43283391039E+02  0.43400731580E+02  0.00000000000E+00 0.  1.
         11    1    3    3    0    0  0.68240782819E+01 -0.37969859447E+00  0.12262409910E+02  0.14038479707E+02  0.51100000000E-03 0. -1.
        -11    1    3    3    0    0 -0.20793331404E+01 -0.32183790175E+01  0.45348600220E+01  0.59368801141E+01  0.51100000000E-03 0.  1.
         12    1    3    3    0    0 -0.78957727817E+01  0.31055467743E+01  0.26486121107E+02  0.27811908599E+02  0.00000000000E+00 0. -1.
</event>
<event>
 7    1  0.2886681E-010  0.4778725E+02  0.7816164E-02  0.1312668E+00
        -11   -1    0    0    0    0  0.00000000000E+00  0.00000000000E+00  0.45593999997E+02  0.45594000000E+02  0.51100000000E-03 0.  1.
         11   -1    0    0    0    0 -0.00000000000E+00 -0.00000000000E+00 -0.45593999997E+02  0.45594000000E+02  0.51100000000E-03 0. -1.
    9900012    2    1    2    0    0  0.39747372832E+02 -0.55852579368E+01 -0.16509892852E+02  0.47787247526E+02  0.19999892772E+02 0.  0.
        -12    1    1    2    0    0 -0.39747372832E+02  0.55852579368E+01  0.16509892852E+02  0.43400752474E+02  0.00000000000E+00 0.  1.
         11    1    3    3    0    0  0.63921368345E+01  0.34466113463E+00 -0.75385065445E+01  0.98897566093E+01  0.51100000000E-03 0. -1.
        -11    1    3    3    0    0  0.76507967943E+01 -0.77125063261E+01 -0.91908773489E+00  0.10902392762E+02  0.51100000000E-03 0.  1.
        -12    1    3    3    0    0  0.25704439204E+02  0.17825872547E+01 -0.80522985722E+01  0.26995098155E+02  0.00000000000E+00 0.  1.
</event>
<event>
 7    1  0.2886681E-010  0.4778726E+02  0.7816164E-02  0.1312668E+00
        -11   -1    0    0    0    0  0.00000000000E+00  0.00000000000E+00  0.45593999997E+02  0.45594000000E+02  0.51100000000E-03 0. -1.
         11   -1    0    0    0    0 -0.00000000000E+00 -0.00000000000E+00 -0.45593999997E+02  0.45594000000E+02  0.51100000000E-03 0.  1.
    9900012    2    1    2    0    0 -0.52258938927E+01  0.27976680385E+02  0.32766133388E+02  0.47787261418E+02  0.19999956107E+02 0.  0.
        -12    1    1    2    0    0  0.52258938927E+01 -0.27976680385E+02 -0.32766133388E+02  0.43400738582E+02  0.00000000000E+00 0.  1.
         11    1    3    3    0    0 -0.47374927053E+01  0.99033922895E+01  0.19078140826E+01  0.11142745210E+02  0.51100000000E-03 0. -1.
        -11    1    3    3    0    0  0.55782475658E+00  0.73310674906E+00 -0.30163242127E+00  0.96932777906E+00  0.51100000000E-03 0.  1.
         12    1    3    3    0    0 -0.10462259440E+01  0.17340181346E+02  0.31159951726E+02  0.35675188429E+02  0.00000000000E+00 0. -1.
</event>
<event>
 7    1  0.2886681E-010  0.4778727E+02  0.7816164E-02  0.1312668E+00
        -11   -1    0    0    0    0  0.00000000000E+00  0.00000000000E+00  0.45593999997E+02  0.45594000000E+02  0.51100000000E-03 0. -1.
         11   -1    0    0    0    0 -0.00000000000E+00 -0.00000000000E+00 -0.45593999997E+02  0.45594000000E+02  0.51100000000E-03 0.  1.
    9900012    2    1    2    0    0 -0.37289823323E+02  0.17697299098E+02  0.13412619422E+02  0.47787266382E+02  0.19999978742E+02 0.  0.
        -12    1    1    2    0    0  0.37289823323E+02 -0.17697299098E+02 -0.13412619422E+02  0.43400733618E+02  0.00000000000E+00 0.  1.
         11    1    3    3    0    0 -0.10438320356E+02  0.11979748421E+02  0.27381804787E+01  0.16123601852E+02  0.51100000000E-03 0. -1.
        -11    1    3    3    0    0 -0.17347910350E+02 -0.18182778132E+01  0.43147212759E+01  0.17968665717E+02  0.51100000000E-03 0.  1.
         12    1    3    3    0    0 -0.95035926167E+01  0.75358284903E+01  0.63597176673E+01  0.13694998812E+02  0.00000000000E+00 0. -1.
</event>
<event>
 7    1  0.2886681E-010  0.4778721E+02  0.7816164E-02  0.1312668E+00
        -11   -1    0    0    0    0  0.00000000000E+00  0.00000000000E+00  0.45593999997E+02  0.45594000000E+02  0.51100000000E-03 0.  1.
         11   -1    0    0    0    0 -0.00000000000E+00 -0.00000000000E+00 -0.45593999997E+02  0.45594000000E+02  0.51100000000E-03 0. -1.
    9900012    2    1    2    0    0 -0.32273727182E+02 -0.28195295195E+02  0.68600635968E+01  0.47787209571E+02  0.19999719714E+02 0.  0.
        -12    1    1    2    0    0  0.32273727182E+02  0.28195295195E+02 -0.68600635968E+01  0.43400790429E+02  0.00000000000E+00 0.  1.
         11    1    3    3    0    0 -0.24912487302E+02 -0.23561200085E+02  0.24579966980E+01  0.34377375133E+02  0.51100000000E-03 0. -1.
        -11    1    3    3    0    0 -0.53834072621E+01  0.12959409615E+01  0.45349419230E+01  0.71572505357E+01  0.51100000000E-03 0.  1.
         12    1    3    3    0    0 -0.19778326174E+01 -0.59300360717E+01 -0.13287502420E+00  0.62525839016E+01  0.00000000000E+00 0. -1.
</event>
<event>
 7    1  0.2886681E-010  0.4778727E+02  0.7816164E-02  0.1312668E+00
        -11   -1    0    0    0    0  0.00000000000E+00  0.00000000000E+00  0.45593999997E+02  0.45594000000E+02  0.51100000000E-03 0. -1.
         11   -1    0    0    0    0 -0.00000000000E+00 -0.00000000000E+00 -0.45593999997E+02  0.45594000000E+02  0.51100000000E-03 0.  1.
    9900012    2    1    2    0    0  0.41638646719E+02  0.92494422282E+01 -0.80183603629E+01  0.47787272068E+02  0.20000004668E+02 0.  0.
        -12    1    1    2    0    0 -0.41638646719E+02 -0.92494422282E+01  0.80183603629E+01  0.43400727932E+02  0.00000000000E+00 0.  1.
         11    1    3    3    0    0  0.63647993036E+01  0.51043267172E+01  0.18598198790E+01  0.83680195778E+01  0.51100000000E-03 0. -1.
        -11    1    3    3    0    0 -0.12659445406E+01 -0.18030144232E+00  0.13602552850E+00  0.12859344445E+01  0.51100000000E-03 0.  1.
        -12    1    3    3    0    0  0.36539791956E+02  0.43254169533E+01 -0.10014205770E+02  0.38133318046E+02  0.00000000000E+00 0.  1.
</event>
<event>
 7    1  0.2886681E-010  0.4778727E+02  0.7816164E-02  0.1312668E+00
        -11   -1    0    0    0    0  0.00000000000E+00  0.00000000000E+00  0.45593999997E+02  0.45594000000E+02  0.51100000000E-03 0. -1.
         11   -1    0    0    0    0 -0.00000000000E+00 -0.00000000000E+00 -0.45593999997E+02  0.45594000000E+02  0.51100000000E-03 0.  1.
    9900012    2    1    2    0    0 -0.33515027131E+02 -0.21857513391E+01  0.27487969522E+02  0.47787273958E+02  0.20000013286E+02 0.  0.
        -12    1    1    2    0    0  0.33515027131E+02  0.21857513391E+01 -0.27487969522E+02  0.43400726042E+02  0.00000000000E+00 0.  1.
         11    1    3    3    0    0 -0.56019920246E+01 -0.29337123176E+01  0.13852108027E+02  0.15227274203E+02  0.51100000000E-03 0. -1.
        -11    1    3    3    0    0 -0.41072441993E+01 -0.33777638080E+01  0.34571624915E+01  0.63427687967E+01  0.51100000000E-03 0.  1.
         12    1    3    3    0    0 -0.23805790907E+02  0.41257247865E+01  0.10178699003E+02  0.26217230959E+02  0.00000000000E+00 0. -1.
</event>
<event>
 7    1  0.2886681E-010  0.4778727E+02  0.7816164E-02  0.1312668E+00
        -11   -1    0    0    0    0  0.00000000000E+00  0.00000000000E+00  0.45593999997E+02  0.45594000000E+02  0.51100000000E-03 0.  1.
         11   -1    0    0    0    0 -0.00000000000E+00 -0.00000000000E+00 -0.45593999997E+02  0.45594000000E+02  0.51100000000E-03 0. -1.
    9900012    2    1    2    0    0 -0.64028818562E+01  0.18396677420E+02 -0.38783868788E+02  0.47787272882E+02  0.20000008380E+02 0.  0.
        -12    1    1    2    0    0  0.64028818562E+01 -0.18396677420E+02  0.38783868788E+02  0.43400727118E+02  0.00000000000E+00 0.  1.
         11    1    3    3    0    0 -0.52474541385E+01  0.14105435187E+02 -0.14461750154E+02  0.20872021812E+02  0.51100000000E-03 0. -1.
        -11    1    3    3    0    0  0.45252427043E+01  0.23244318538E+01 -0.14843160579E+02  0.15690768662E+02  0.51100000000E-03 0.  1.
         12    1    3    3    0    0 -0.56806704220E+01  0.19668103793E+01 -0.94789580555E+01  0.11224482408E+02  0.00000000000E+00 0. -1.
</event>
<event>
 7    1  0.2886681E-010  0.4778726E+02  0.7816164E-02  0.1312668E+00
        -11   -1    0    0    0    0  0.00000000000E+00  0.00000000000E+00  0.45593999997E+02  0.45594000000E+02  0.51100000000E-03 0. -1.
         11   -1    0    0    0    0 -0.00000000000E+00 -0.00000000000E+00 -0.45593999997E+02  0.45594000000E+02  0.51100000000E-03 0.  1.
    9900012    2    1    2    0    0 -0.13984860720E+02  0.32590201459E+02  0.25018522712E+02  0.47787262228E+02  0.19999959800E+02 0.  0.
        -12    1    1    2    0    0  0.13984860720E+02 -0.32590201459E+02 -0.25018522712E+02  0.43400737772E+02  0.00000000000E+00 0.  1.
         11    1    3    3    0    0 -0.25956243264E+01 -0.11078672843E+01  0.67578485345E+00  0.29019512388E+01  0.51100000000E-03 0. -1.
        -11    1    3    3    0    0 -0.70282904193E+01  0.30762778250E+02  0.23947887243E+02  0.39613718527E+02  0.51100000000E-03 0.  1.
        -12    1    3    3    0    0 -0.43609459748E+01  0.29352904932E+01  0.39485061557E+00  0.52715924618E+01  0.00000000000E+00 0.  1.
</event>
<event>
 7    1  0.2886681E-010  0.4778727E+02  0.7816164E-02  0.1312668E+00
        -11   -1    0    0    0    0  0.00000000000E+00  0.00000000000E+00  0.45593999997E+02  0.45594000000E+02  0.51100000000E-03 0. -1.
         11   -1    0    0    0    0 -0.00000000000E+00 -0.00000000000E+00 -0.45593999997E+02  0.45594000000E+02  0.51100000000E-03 0.  1.
    9900012    2    1    2    0    0 -0.30056791812E+02 -0.30022477740E+02 -0.88805074086E+01  0.47787270565E+02  0.19999997812E+02 0.  0.
        -12    1    1    2    0    0  0.30056791812E+02  0.30022477740E+02  0.88805074086E+01  0.43400729435E+02  0.00000000000E+00 0.  1.
         11    1    3    3    0    0 -0.11961788081E+02 -0.95575695067E+01  0.36386187326E+01  0.15737568285E+02  0.51100000000E-03 0. -1.
        -11    1    3    3    0    0 -0.73420006825E+01 -0.13341346511E+01 -0.43193149512E+01  0.86221442344E+01  0.51100000000E-03 0.  1.
         12    1    3    3    0    0 -0.10753003049E+02 -0.19130773582E+02 -0.81998111900E+01  0.23427558045E+02  0.00000000000E+00 0. -1.
</event>
<event>
 7    1  0.2886681E-010  0.4778727E+02  0.7816164E-02  0.1312668E+00
        -11   -1    0    0    0    0  0.00000000000E+00  0.00000000000E+00  0.45593999997E+02  0.45594000000E+02  0.51100000000E-03 0.  1.
         11   -1    0    0    0    0 -0.00000000000E+00 -0.00000000000E+00 -0.45593999997E+02  0.45594000000E+02  0.51100000000E-03 0. -1.
    9900012    2    1    2    0    0  0.12209090755E+02  0.28729934632E+02 -0.30152152922E+02  0.47787269974E+02  0.19999995117E+02 0.  0.
        -12    1    1    2    0    0 -0.12209090755E+02 -0.28729934632E+02  0.30152152922E+02  0.43400730026E+02  0.00000000000E+00 0.  1.
         11    1    3    3    0    0  0.72402731708E+01  0.25648599941E+02 -0.23650492462E+02  0.35631699770E+02  0.51100000000E-03 0. -1.
        -11    1    3    3    0    0 -0.16234056654E+01 -0.15254042482E+01 -0.14679595877E+01  0.26678099046E+01  0.51100000000E-03 0.  1.
         12    1    3    3    0    0  0.65922232497E+01  0.46067389392E+01 -0.50337008721E+01  0.94877602993E+01  0.00000000000E+00 0. -1.
</event>
<event>
 7    1  0.2886681E-010  0.4778727E+02  0.7816164E-02  0.1312668E+00
        -11   -1    0    0    0    0  0.00000000000E+00  0.00000000000E+00  0.45593999997E+02  0.45594000000E+02  0.51100000000E-03 0.  1.
         11   -1    0    0    0    0 -0.00000000000E+00 -0.00000000000E+00 -0.45593999997E+02  0.45594000000E+02  0.51100000000E-03 0. -1.
    9900012    2    1    2    0    0  0.12077828971E+02 -0.41041304744E+02  0.73048293567E+01  0.47787272130E+02  0.20000004948E+02 0.  0.
        -12    1    1    2    0    0 -0.12077828971E+02  0.41041304744E+02 -0.73048293567E+01  0.43400727870E+02  0.00000000000E+00 0.  1.
         11    1    3    3    0    0  0.90282378985E+01 -0.21188274308E+02  0.20608116800E+00  0.23032466594E+02  0.51100000000E-03 0. -1.
        -11    1    3    3    0    0 -0.27607259987E+01 -0.97008535275E+00 -0.14046735705E+01  0.32458868945E+01  0.51100000000E-03 0.  1.
        -12    1    3    3    0    0  0.58103170710E+01 -0.18882945084E+02  0.85034217592E+01  0.21508918641E+02  0.00000000000E+00 0.  1.
</event>
<event>
 7    1  0.2886681E-010  0.4778727E+02  0.7816164E-02  0.1312668E+00
        -11   -1    0    0    0    0  0.00000000000E+00  0.00000000000E+00  0.45593999997E+02  0.45594000000E+02  0.51100000000E-03 0. -1.
         11   -1    0    0    0    0 -0.00000000000E+00 -0.00000000000E+00 -0.45593999997E+02  0.45594000000E+02  0.51100000000E-03 0.  1.
    9900012    2    1    2    0    0 -0.25710225992E+01 -0.18734631358E+02  0.39064398068E+02  0.47787265378E+02  0.19999974165E+02 0.  0.
        -12    1    1    2    0    0  0.25710225992E+01  0.18734631358E+02 -0.39064398068E+02  0.43400734622E+02  0.00000000000E+00 0.  1.
         11    1    3    3    0    0 -0.10847552801E+02 -0.92721238566E+01  0.18068949467E+02  0.23024522094E+02  0.51100000000E-03 0. -1.
        -11    1    3    3    0    0  0.36717939455E+01 -0.28406043679E+01  0.48436229389E+01  0.67090824551E+01  0.51100000000E-03 0.  1.
         12    1    3    3    0    0  0.46047362564E+01 -0.66219031335E+01  0.16151825662E+02  0.18053660829E+02  0.00000000000E+00 0. -1.
</event>
<event>
 7    1  0.2886681E-010  0.4778728E+02  0.7816164E-02  0.1312668E+00
        -11   -1    0    0    0    0  0.00000000000E+00  0.00000000000E+00  0.45593999997E+02  0.45594000000E+02  0.51100000000E-03 0.  1.
         11   -1    0    0    0    0 -0.00000000000E+00 -0.00000000000E+00 -0.45593999997E+02  0.45594000000E+02  0.51100000000E-03 0. -1.
    9900012    2    1    2    0    0 -0.24397562511E+02  0.72086953908E+01 -0.35162715272E+02  0.47787275456E+02  0.20000020113E+02 0.  0.
        -12    1    1    2    0    0  0.24397562511E+02 -0.72086953908E+01  0.35162715272E+02  0.43400724544E+02  0.00000000000E+00 0.  1.
         11    1    3    3    0    0 -0.88379492742E+01  0.11633579962E+02 -0.15901419170E+02  0.21594088589E+02  0.51100000000E-03 0. -1.
        -11    1    3    3    0    0 -0.28751201289E+01 -0.17626818855E+01 -0.52823144463E+00  0.34135600047E+01  0.51100000000E-03 0.  1.
         12    1    3    3    0    0 -0.12684493108E+02 -0.26622026858E+01 -0.18733064657E+02  0.22779626862E+02  0.00000000000E+00 0. -1.
</event>
<event>
 7    1  0.2886681E-010  0.4778729E+02  0.7816164E-02  0.1312668E+00
        -11   -1    0    0    0    0  0.00000000000E+00  0.00000000000E+00  0.45593999997E+02  0.45594000000E+02  0.51100000000E-03 0.  1.
         11   -1    0    0    0    0 -0.00000000000E+00 -0.00000000000E+00 -0.45593999997E+02  0.45594000000E+02  0.51100000000E-03 0. -1.
    9900012    2    1    2    0    0  0.95462749231E+01 -0.25669410435E+02 -0.33668554846E+02  0.47787290531E+02  0.20000088847E+02 0.  0.
        -12    1    1    2    0    0 -0.95462749231E+01  0.25669410435E+02  0.33668554846E+02  0.43400709469E+02  0.00000000000E+00 0.  1.
         11    1    3    3    0    0  0.80077912751E+01 -0.56251844653E+01 -0.21289455884E+02  0.23430927285E+02  0.51100000000E-03 0. -1.
        -11    1    3    3    0    0  0.31626183832E+00 -0.11054160623E+02 -0.10157329226E+02  0.15015519501E+02  0.51100000000E-03 0.  1.
         12    1    3    3    0    0  0.12222218096E+01 -0.89900653468E+01 -0.22217697364E+01  0.93408437442E+01  0.00000000000E+00 0. -1.
</event>
<event>
 7    1  0.2886681E-010  0.4778727E+02  0.7816164E-02  0.1312668E+00
        -11   -1    0    0    0    0  0.00000000000E+00  0.00000000000E+00  0.45593999997E+02  0.45594000000E+02  0.51100000000E-03 0.  1.
         11   -1    0    0    0    0 -0.00000000000E+00 -0.00000000000E+00 -0.45593999997E+02  0.45594000000E+02  0.51100000000E-03 0. -1.
    9900012    2    1    2    0    0  0.33860784556E+02 -0.45293772715E+01 -0.26768549076E+02  0.47787271794E+02  0.20000003418E+02 0.  0.
        -12    1    1    2    0    0 -0.33860784556E+02  0.45293772715E+01  0.26768549076E+02  0.43400728206E+02  0.00000000000E+00 0.  1.
         11    1    3    3    0    0  0.17911093367E+02  0.20130926581E+01 -0.10510121574E+02  0.20864382651E+02  0.51100000000E-03 0.  1.
        -11    1    3    3    0    0  0.15489276169E+02 -0.29050447947E+01 -0.17001326898E+02  0.23181934303E+02  0.51100000000E-03 0. -1.
        -12    1    3    3    0    0  0.46041501997E+00 -0.36374251348E+01  0.74289939620E+00  0.37409548400E+01  0.00000000000E+00 0.  1.
</event>
<event>
 7    1  0.2886681E-010  0.4778727E+02  0.7816164E-02  0.1312668E+00
        -11   -1    0    0    0    0  0.00000000000E+00  0.00000000000E+00  0.45593999997E+02  0.45594000000E+02  0.51100000000E-03 0.  1.
         11   -1    0    0    0    0 -0.00000000000E+00 -0.00000000000E+00 -0.45593999997E+02  0.45594000000E+02  0.51100000000E-03 0. -1.
    9900012    2    1    2    0    0 -0.31397364877E+02  0.10152724762E+01 -0.29946585325E+02  0.47787271065E+02  0.20000000096E+02 0.  0.
        -12    1    1    2    0    0  0.31397364877E+02 -0.10152724762E+01  0.29946585325E+02  0.43400728935E+02  0.00000000000E+00 0.  1.
         11    1    3    3    0    0 -0.19389206547E+02 -0.95229523618E+00 -0.24075734614E+02  0.30927159491E+02  0.51100000000E-03 0. -1.
        -11    1    3    3    0    0 -0.11868895666E+02 -0.53256409592E-02 -0.13747790556E+01  0.11948252191E+02  0.51100000000E-03 0.  1.
        -12    1    3    3    0    0 -0.13926266410E+00  0.19728933533E+01 -0.44960716553E+01  0.49118593835E+01  0.00000000000E+00 0.  1.
</event>
<event>
 7    1  0.2886681E-010  0.4778728E+02  0.7816164E-02  0.1312668E+00
        -11   -1    0    0    0    0  0.00000000000E+00  0.00000000000E+00  0.45593999997E+02  0.45594000000E+02  0.51100000000E-03 0.  1.
         11   -1    0    0    0    0 -0.00000000000E+00 -0.00000000000E+00 -0.45593999997E+02  0.45594000000E+02  0.51100000000E-03 0. -1.
    9900012    2    1    2    0    0  0.16374180779E+02 -0.26870211173E+02 -0.29891480442E+02  0.47787278258E+02  0.20000032890E+02 0.  0.
        -12    1    1    2    0    0 -0.16374180779E+02  0.26870211173E+02  0.29891480442E+02  0.43400721742E+02  0.00000000000E+00 0.  1.
         11    1    3    3    0    0 -0.18332410590E+01 -0.93830864951E+01 -0.82814672367E+01  0.12648548723E+02  0.51100000000E-03 0. -1.
        -11    1    3    3    0    0  0.15238042941E+02 -0.87488221608E+01 -0.18205462377E+02  0.25301752953E+02  0.51100000000E-03 0.  1.
         12    1    3    3    0    0  0.29693788979E+01 -0.87383025175E+01 -0.34045508281E+01  0.98369765817E+01  0.00000000000E+00 0. -1.
</event>
<event>
 7    1  0.2886681E-010  0.4778727E+02  0.7816164E-02  0.1312668E+00
        -11   -1    0    0    0    0  0.00000000000E+00  0.00000000000E+00  0.45593999997E+02  0.45594000000E+02  0.51100000000E-03 0.  1.
         11   -1    0    0    0    0 -0.00000000000E+00 -0.00000000000E+00 -0.45593999997E+02  0.45594000000E+02  0.51100000000E-03 0. -1.
    9900012    2    1    2    0    0 -0.27530538589E+02  0.10860767367E+01 -0.33533757804E+02  0.47787273852E+02  0.20000012801E+02 0.  0.
        -12    1    1    2    0    0  0.27530538589E+02 -0.10860767367E+01  0.33533757804E+02  0.43400726148E+02  0.00000000000E+00 0.  1.
         11    1    3    3    0    0 -0.50600392063E+01  0.37404134265E+01 -0.52254998690E+01  0.81792749381E+01  0.51100000000E-03 0. -1.
        -11    1    3    3    0    0 -0.22962146567E+02 -0.18628953019E+01 -0.29910799099E+02  0.37754290575E+02  0.51100000000E-03 0.  1.
        -12    1    3    3    0    0  0.49164718355E+00 -0.79144138783E+00  0.16025411637E+01  0.18537083386E+01  0.00000000000E+00 0.  1.
</event>
<event>
 7    1  0.2886681E-010  0.4778726E+02  0.7816164E-02  0.1312668E+00
        -11   -1    0    0    0    0  0.00000000000E+00  0.00000000000E+00  0.45593999997E+02  0.45594000000E+02  0.51100000000E-03 0. -1.
         11   -1    0    0    0    0 -0.00000000000E+00 -0.00000000000E+00 -0.45593999997E+02  0.45594000000E+02  0.51100000000E-03 0.  1.
    9900012    2    1    2    0    0 -0.13825594373E+02  0.17024794683E+02  0.37451750279E+02  0.47787259307E+02  0.19999946484E+02 0.  0.
        -12    1    1    2    0    0  0.13825594373E+02 -0.17024794683E+02 -0.37451750279E+02  0.43400740693E+02  0.00000000000E+00 0.  1.
         11    1    3    3    0    0 -0.18166471305E+01  0.16991490226E+01  0.64660932342E+01  0.69280355204E+01  0.51100000000E-03 0. -1.
        -11    1    3    3    0    0 -0.39389336646E+01  0.42079496330E+01  0.25372380873E+02  0.26018834523E+02  0.51100000000E-03 0.  1.
        -12    1    3    3    0    0 -0.80700135775E+01  0.11117696027E+02  0.56132761717E+01  0.14840389263E+02  0.00000000000E+00 0.  1.
</event>
<event>
 7    1  0.2886681E-010  0.4778727E+02  0.7816164E-02  0.1312668E+00
        -11   -1    0    0    0    0  0.00000000000E+00  0.00000000000E+00  0.45593999997E+02  0.45594000000E+02  0.51100000000E-03 0. -1.
         11   -1    0    0    0    0 -0.00000000000E+00 -0.00000000000E+00 -0.45593999997E+02  0.45594000000E+02  0.51100000000E-03 0.  1.
    9900012    2    1    2    0    0  0.43248395361E+02  0.11951851254E+01 -0.34309317617E+01  0.47787268883E+02  0.19999990143E+02 0.  0.
        -12    1    1    2    0    0 -0.43248395361E+02 -0.11951851254E+01  0.34309317617E+01  0.43400731117E+02  0.00000000000E+00 0.  1.
         11    1    3    3    0    0  0.11497567374E+02  0.36871132750E+01  0.41025688025E+01  0.12752251991E+02  0.51100000000E-03 0. -1.
        -11    1    3    3    0    0  0.23320645014E+02  0.26637556943E+01 -0.88099465686E+01  0.25071163457E+02  0.51100000000E-03 0.  1.
        -12    1    3    3    0    0  0.84301829732E+01 -0.51556838439E+01  0.12764460045E+01  0.99638534344E+01  0.00000000000E+00 0.  1.
</event>
<event>
 7    1  0.2886681E-010  0.4778727E+02  0.7816164E-02  0.1312668E+00
        -11   -1    0    0    0    0  0.00000000000E+00  0.00000000000E+00  0.45593999997E+02  0.45594000000E+02  0.51100000000E-03 0. -1.
         11   -1    0    0    0    0 -0.00000000000E+00 -0.00000000000E+00 -0.45593999997E+02  0.45594000000E+02  0.51100000000E-03 0.  1.
    9900012    2    1    2    0    0  0.36552550549E+02  0.10873829840E+02 -0.20719408659E+02  0.47787273943E+02  0.20000013218E+02 0.  0.
        -12    1    1    2    0    0 -0.36552550549E+02 -0.10873829840E+02  0.20719408659E+02  0.43400726057E+02  0.00000000000E+00 0.  1.
         11    1    3    3    0    0  0.36890613077E+02  0.12471647499E+02 -0.19994582504E+02  0.43774908958E+02  0.51100000000E-03 0. -1.
        -11    1    3    3    0    0 -0.12804476931E+01 -0.14825722465E+01  0.88014775579E+00  0.21476096232E+01  0.51100000000E-03 0.  1.
         12    1    3    3    0    0  0.94238516552E+00 -0.11524541227E+00 -0.16049739115E+01  0.18647553625E+01  0.00000000000E+00 0. -1.
</event>
<event>
 7    1  0.2886681E-010  0.4778727E+02  0.7816164E-02  0.1312668E+00
        -11   -1    0    0    0    0  0.00000000000E+00  0.00000000000E+00  0.45593999997E+02  0.45594000000E+02  0.51100000000E-03 0.  1.
         11   -1    0    0    0    0 -0.00000000000E+00 -0.00000000000E+00 -0.45593999997E+02  0.45594000000E+02  0.51100000000E-03 0. -1.
    9900012    2    1    2    0    0  0.11206978229E+02 -0.38905788264E+02 -0.15632227492E+02  0.47787271229E+02  0.20000000843E+02 0.  0.
        -12    1    1    2    0    0 -0.11206978229E+02  0.38905788264E+02  0.15632227492E+02  0.43400728771E+02  0.00000000000E+00 0.  1.
         11    1    3    3    0    0  0.14081226338E+02 -0.29791331652E+02 -0.12225307238E+02  0.35146301571E+02  0.51100000000E-03 0. -1.
        -11    1    3    3    0    0 -0.12796148645E+01  0.98445191579E+00  0.50877322682E+00  0.16927522658E+01  0.51100000000E-03 0.  1.
         12    1    3    3    0    0 -0.15946332449E+01 -0.10098908528E+02 -0.39156934809E+01  0.10948217393E+02  0.00000000000E+00 0. -1.
</event>
<event>
 7    1  0.2886681E-010  0.4778727E+02  0.7816164E-02  0.1312668E+00
        -11   -1    0    0    0    0  0.00000000000E+00  0.00000000000E+00  0.45593999997E+02  0.45594000000E+02  0.51100000000E-03 0.  1.
         11   -1    0    0    0    0 -0.00000000000E+00 -0.00000000000E+00 -0.45593999997E+02  0.45594000000E+02  0.51100000000E-03 0. -1.
    9900012    2    1    2    0    0  0.28555400306E+02 -0.24258077840E+02 -0.21903381972E+02  0.47787269949E+02  0.19999995006E+02 0.  0.
        -12    1    1    2    0    0 -0.28555400306E+02  0.24258077840E+02  0.21903381972E+02  0.43400730051E+02  0.00000000000E+00 0.  1.
         11    1    3    3    0    0  0.11475314483E+02 -0.12594504761E+02 -0.17233556282E+02  0.24234270261E+02  0.51100000000E-03 0. -1.
        -11    1    3    3    0    0  0.16447638733E+02 -0.10806485736E+02 -0.97116185324E+00  0.19704012522E+02  0.51100000000E-03 0.  1.
        -12    1    3    3    0    0  0.63244709040E+00 -0.85708734246E+00 -0.36986638362E+01  0.38489871665E+01  0.00000000000E+00 0.  1.
</event>
<event>
 7    1  0.2886681E-010  0.4778727E+02  0.7816164E-02  0.1312668E+00
        -11   -1    0    0    0    0  0.00000000000E+00  0.00000000000E+00  0.45593999997E+02  0.45594000000E+02  0.51100000000E-03 0.  1.
         11   -1    0    0    0    0 -0.00000000000E+00 -0.00000000000E+00 -0.45593999997E+02  0.45594000000E+02  0.51100000000E-03 0. -1.
    9900012    2    1    2    0    0  0.16723890160E+02  0.10129824483E+02 -0.38746888511E+02  0.47787271718E+02  0.20000003071E+02 0.  0.
        -12    1    1    2    0    0 -0.16723890160E+02 -0.10129824483E+02  0.38746888511E+02  0.43400728282E+02  0.00000000000E+00 0.  1.
         11    1    3    3    0    0  0.11882662674E+02  0.74783448101E+01 -0.80896092321E+01  0.16203860377E+02  0.51100000000E-03 0. -1.
        -11    1    3    3    0    0  0.21357673196E+01  0.14946217234E+01 -0.25600429121E+02  0.25732807223E+02  0.51100000000E-03 0.  1.
         12    1    3    3    0    0  0.27054601673E+01  0.11568579499E+01 -0.50568501571E+01  0.58506041179E+01  0.00000000000E+00 0. -1.
</event>
<event>
 7    1  0.2886681E-010  0.4778727E+02  0.7816164E-02  0.1312668E+00
        -11   -1    0    0    0    0  0.00000000000E+00  0.00000000000E+00  0.45593999997E+02  0.45594000000E+02  0.51100000000E-03 0.  1.
         11   -1    0    0    0    0 -0.00000000000E+00 -0.00000000000E+00 -0.45593999997E+02  0.45594000000E+02  0.51100000000E-03 0. -1.
    9900012    2    1    2    0    0 -0.23622865542E+02  0.19873099857E+02 -0.30506449933E+02  0.47787270031E+02  0.19999995379E+02 0.  0.
        -12    1    1    2    0    0  0.23622865542E+02 -0.19873099857E+02  0.30506449933E+02  0.43400729969E+02  0.00000000000E+00 0.  1.
         11    1    3    3    0    0 -0.18449232616E+02  0.71339111008E+01 -0.23145826558E+02  0.30446611618E+02  0.51100000000E-03 0. -1.
        -11    1    3    3    0    0 -0.48484742153E+01  0.11468860126E+02 -0.30287536681E+01  0.12814671429E+02  0.51100000000E-03 0.  1.
         12    1    3    3    0    0 -0.32515871033E+00  0.12703286305E+01 -0.43318697067E+01  0.45259869832E+01  0.00000000000E+00 0. -1.
</event>
<event>
 7    1  0.2886681E-010  0.4778727E+02  0.7816164E-02  0.1312668E+00
        -11   -1    0    0    0    0  0.00000000000E+00  0.00000000000E+00  0.45593999997E+02  0.45594000000E+02  0.51100000000E-03 0.  1.
         11   -1    0    0    0    0 -0.00000000000E+00 -0.00000000000E+00 -0.45593999997E+02  0.45594000000E+02  0.51100000000E-03 0. -1.
    9900012    2    1    2    0    0 -0.68466190570E+01  0.17162035806E+02 -0.39271001437E+02  0.47787271672E+02  0.20000002860E+02 0.  0.
        -12    1    1    2    0    0  0.68466190570E+01 -0.17162035806E+02  0.39271001437E+02  0.43400728328E+02  0.00000000000E+00 0.  1.
         11    1    3    3    0    0 -0.47487174293E+00  0.25908416175E+01 -0.23700530841E+01  0.35433198192E+01  0.51100000000E-03 0. -1.
        -11    1    3    3    0    0 -0.40290733745E+01  0.96000977200E+01 -0.37307976413E+02  0.38733453406E+02  0.51100000000E-03 0.  1.
        -12    1    3    3    0    0 -0.23426739395E+01  0.49710964688E+01  0.40702805925E+00  0.55104984466E+01  0.00000000000E+00 0.  1.
</event>
<event>
 7    1  0.2886681E-010  0.4778727E+02  0.7816164E-02  0.1312668E+00
        -11   -1    0    0    0    0  0.00000000000E+00  0.00000000000E+00  0.45593999997E+02  0.45594000000E+02  0.51100000000E-03 0. -1.
         11   -1    0    0    0    0 -0.00000000000E+00 -0.00000000000E+00 -0.45593999997E+02  0.45594000000E+02  0.51100000000E-03 0.  1.
    9900012    2    1    2    0    0 -0.21366868892E+02 -0.25199927972E+02  0.28143280283E+02  0.47787266353E+02  0.19999978608E+02 0.  0.
        -12    1    1    2    0    0  0.21366868892E+02  0.25199927972E+02 -0.28143280283E+02  0.43400733647E+02  0.00000000000E+00 0.  1.
         11    1    3    3    0    0 -0.61524083282E+01  0.16086390276E+01  0.81801587133E+01  0.10361218297E+02  0.51100000000E-03 0. -1.
        -11    1    3    3    0    0 -0.25551542587E+01 -0.80472560343E+01  0.23988371466E+01  0.87773323331E+01  0.51100000000E-03 0.  1.
         12    1    3    3    0    0 -0.12659306305E+02 -0.18761310965E+02  0.17564284423E+02  0.28648715723E+02  0.00000000000E+00 0. -1.
</event>
<event>
 7    1  0.2886681E-010  0.4778727E+02  0.7816164E-02  0.1312668E+00
        -11   -1    0    0    0    0  0.00000000000E+00  0.00000000000E+00  0.45593999997E+02  0.45594000000E+02  0.51100000000E-03 0.  1.
         11   -1    0    0    0    0 -0.00000000000E+00 -0.00000000000E+00 -0.45593999997E+02  0.45594000000E+02  0.51100000000E-03 0. -1.
    9900012    2    1    2    0    0 -0.23500601844E+02  0.24278151228E+02 -0.27238145674E+02  0.47787268511E+02  0.19999988448E+02 0.  0.
        -12    1    1    2    0    0  0.23500601844E+02 -0.24278151228E+02  0.27238145674E+02  0.43400731489E+02  0.00000000000E+00 0.  1.
         11    1    3    3    0    0 -0.11455966841E+02  0.83825350252E+01 -0.19102797797E+02  0.23799641881E+02  0.51100000000E-03 0. -1.
        -11    1    3    3    0    0 -0.96350818643E+01  0.14445480107E+02 -0.23073450911E+01  0.17516578995E+02  0.51100000000E-03 0.  1.
        -12    1    3    3    0    0 -0.24095531382E+01  0.14501360948E+01 -0.58280027858E+01  0.64710476347E+01  0.00000000000E+00 0.  1.
</event>
<event>
 7    1  0.2886681E-010  0.4778729E+02  0.7816164E-02  0.1312668E+00
        -11   -1    0    0    0    0  0.00000000000E+00  0.00000000000E+00  0.45593999997E+02  0.45594000000E+02  0.51100000000E-03 0.  1.
         11   -1    0    0    0    0 -0.00000000000E+00 -0.00000000000E+00 -0.45593999997E+02  0.45594000000E+02  0.51100000000E-03 0. -1.
    9900012    2    1    2    0    0 -0.55661232353E+01 -0.18049563005E+02 -0.39074970089E+02  0.47787288716E+02  0.20000080571E+02 0.  0.
        -12    1    1    2    0    0  0.55661232353E+01  0.18049563005E+02  0.39074970089E+02  0.43400711284E+02  0.00000000000E+00 0.  1.
         11    1    3    3    0    0  0.10425293205E+01 -0.62751890714E+01 -0.82506335110E+01  0.10418148533E+02  0.51100000000E-03 0. -1.
        -11    1    3    3    0    0 -0.10395501510E+02 -0.13427099062E+02 -0.25307337776E+02  0.30476462827E+02  0.51100000000E-03 0.  1.
        -12    1    3    3    0    0  0.37868489544E+01  0.16527251281E+01 -0.55169988016E+01  0.68926773556E+01  0.00000000000E+00 0.  1.
</event>
<event>
 7    1  0.2886681E-010  0.4778726E+02  0.7816164E-02  0.1312668E+00
        -11   -1    0    0    0    0  0.00000000000E+00  0.00000000000E+00  0.45593999997E+02  0.45594000000E+02  0.51100000000E-03 0.  1.
         11   -1    0    0    0    0 -0.00000000000E+00 -0.00000000000E+00 -0.45593999997E+02  0.45594000000E+02  0.51100000000E-03 0. -1.
    9900012    2    1    2    0    0  0.40108463999E+02 -0.13347824111E+01  0.16527354865E+02  0.47787262826E+02  0.19999962528E+02 0.  0.
        -12    1    1    2    0    0 -0.40108463999E+02  0.13347824111E+01 -0.16527354865E+02  0.43400737174E+02  0.00000000000E+00 0.  1.
         11    1    3    3    0    0  0.12677137467E+02 -0.13019208487E+01  0.15494735009E+02  0.20062193935E+02  0.51100000000E-03 0. -1.
        -11    1    3    3    0    0  0.18738494113E+02  0.21359027691E+00 -0.10969631260E+01  0.18771790293E+02  0.51100000000E-03 0.  1.
         12    1    3    3    0    0  0.86928324191E+01 -0.24645183927E+00  0.21295829825E+01  0.89532785981E+01  0.00000000000E+00 0. -1.
</event>
<event>
 7    1  0.2886681E-010  0.4778727E+02  0.7816164E-02  0.1312668E+00
        -11   -1    0    0    0    0  0.00000000000E+00  0.00000000000E+00  0.45593999997E+02  0.45594000000E+02  0.51100000000E-03 0.  1.
         11   -1    0    0    0    0 -0.00000000000E+00 -0.00000000000E+00 -0.45593999997E+02  0.45594000000E+02  0.51100000000E-03 0. -1.
    9900012    2    1    2    0    0  0.20597544073E+02 -0.45542864524E+01 -0.37929186359E+02  0.47787268154E+02  0.19999986820E+02 0.  0.
        -12    1    1    2    0    0 -0.20597544073E+02  0.45542864524E+01  0.37929186359E+02  0.43400731846E+02  0.00000000000E+00 0.  1.
         11    1    3    3    0    0  0.42910610948E+01 -0.37236278555E+01 -0.18342120954E+02  0.19201875197E+02  0.51100000000E-03 0.  1.
        -11    1    3    3    0    0  0.12500720124E+02  0.52611340597E+01 -0.11634891579E+02  0.17869477819E+02  0.51100000000E-03 0. -1.
        -12    1    3    3    0    0  0.38057628536E+01 -0.60917926566E+01 -0.79521738258E+01  0.10715915137E+02  0.00000000000E+00 0.  1.
</event>
<event>
 7    1  0.2886681E-010  0.4778727E+02  0.7816164E-02  0.1312668E+00
        -11   -1    0    0    0    0  0.00000000000E+00  0.00000000000E+00  0.45593999997E+02  0.45594000000E+02  0.51100000000E-03 0.  1.
         11   -1    0    0    0    0 -0.00000000000E+00 -0.00000000000E+00 -0.45593999997E+02  0.45594000000E+02  0.51100000000E-03 0. -1.
    9900012    2    1    2    0    0  0.14796508703E+02  0.40498449977E+02 -0.49560034133E+01  0.47787273160E+02  0.20000009647E+02 0.  0.
        -12    1    1    2    0    0 -0.14796508703E+02 -0.40498449977E+02  0.49560034133E+01  0.43400726840E+02  0.00000000000E+00 0.  1.
         11    1    3    3    0    0  0.54760371558E+01  0.16254644957E+02 -0.70049621517E+01  0.18527545996E+02  0.51100000000E-03 0. -1.
        -11    1    3    3    0    0  0.70107944193E+01  0.31127777513E+01  0.22771361111E+01  0.80016231384E+01  0.51100000000E-03 0.  1.
        -12    1    3    3    0    0  0.23096771278E+01  0.21131027269E+02 -0.22817737277E+00  0.21258104026E+02  0.00000000000E+00 0.  1.
</event>
<event>
 7    1  0.2886681E-010  0.4778727E+02  0.7816164E-02  0.1312668E+00
        -11   -1    0    0    0    0  0.00000000000E+00  0.00000000000E+00  0.45593999997E+02  0.45594000000E+02  0.51100000000E-03 0.  1.
         11   -1    0    0    0    0 -0.00000000000E+00 -0.00000000000E+00 -0.45593999997E+02  0.45594000000E+02  0.51100000000E-03 0. -1.
    9900012    2    1    2    0    0 -0.14101549196E+02  0.29991062930E+02 -0.28023308377E+02  0.47787270077E+02  0.19999995591E+02 0.  0.
        -12    1    1    2    0    0  0.14101549196E+02 -0.29991062930E+02  0.28023308377E+02  0.43400729923E+02  0.00000000000E+00 0.  1.
         11    1    3    3    0    0  0.21320085907E+01  0.96899423832E+01 -0.11551427244E+02  0.15227472399E+02  0.51100000000E-03 0. -1.
        -11    1    3    3    0    0 -0.13513575118E+02  0.21248472285E+02 -0.14360754825E+02  0.28988714465E+02  0.51100000000E-03 0.  1.
        -12    1    3    3    0    0 -0.27199826683E+01 -0.94735173784E+00 -0.21111263074E+01  0.35710832134E+01  0.00000000000E+00 0.  1.
</event>
<event>
 7    1  0.2886681E-010  0.4778727E+02  0.7816164E-02  0.1312668E+00
        -11   -1    0    0    0    0  0.00000000000E+00  0.00000000000E+00  0.45593999997E+02  0.45594000000E+02  0.51100000000E-03 0. -1.
         11   -1    0    0    0    0 -0.00000000000E+00 -0.00000000000E+00 -0.45593999997E+02  0.45594000000E+02  0.51100000000E-03 0.  1.
    9900012    2    1    2    0    0  0.12118381074E+02 -0.29068863912E+01  0.41573042420E+02  0.47787274149E+02  0.20000014155E+02 0.  0.
        -12    1    1    2    0    0 -0.12118381074E+02  0.29068863912E+01 -0.41573042420E+02  0.43400725851E+02  0.00000000000E+00 0.  1.
         11    1    3    3    0    0 -0.97982880425E+00  0.41576090071E+01  0.58172030060E+01  0.72170373572E+01  0.51100000000E-03 0. -1.
        -11    1    3    3    0    0  0.13339307945E+02 -0.23022034830E+01  0.20330662567E+02  0.24424846325E+02  0.51100000000E-03 0.  1.
         12    1    3    3    0    0 -0.24109806655E+00 -0.47622919153E+01  0.15425176847E+02  0.16145390467E+02  0.00000000000E+00 0. -1.
</event>
<event>
 7    1  0.2886681E-010  0.4778727E+02  0.7816164E-02  0.1312668E+00
        -11   -1    0    0    0    0  0.00000000000E+00  0.00000000000E+00  0.45593999997E+02  0.45594000000E+02  0.51100000000E-03 0.  1.
         11   -1    0    0    0    0 -0.00000000000E+00 -0.00000000000E+00 -0.45593999997E+02  0.45594000000E+02  0.51100000000E-03 0. -1.
    9900012    2    1    2    0    0 -0.12970041224E+01 -0.32333826788E+02 -0.28921697508E+02  0.47787272342E+02  0.20000005918E+02 0.  0.
        -12    1    1    2    0    0  0.12970041224E+01  0.32333826788E+02  0.28921697508E+02  0.43400727658E+02  0.00000000000E+00 0.  1.
         11    1    3    3    0    0 -0.61314109855E+01 -0.13909568653E+02 -0.46386091632E+01  0.15892985749E+02  0.51100000000E-03 0. -1.
        -11    1    3    3    0    0  0.29764019755E+01 -0.16484624788E+02 -0.23893100935E+02  0.29180166135E+02  0.51100000000E-03 0.  1.
        -12    1    3    3    0    0  0.18580048876E+01 -0.19396333475E+01 -0.38998740985E+00  0.27141204589E+01  0.00000000000E+00 0.  1.
</event>
<event>
 7    1  0.2886681E-010  0.4778727E+02  0.7816164E-02  0.1312668E+00
        -11   -1    0    0    0    0  0.00000000000E+00  0.00000000000E+00  0.45593999997E+02  0.45594000000E+02  0.51100000000E-03 0.  1.
         11   -1    0    0    0    0 -0.00000000000E+00 -0.00000000000E+00 -0.45593999997E+02  0.45594000000E+02  0.51100000000E-03 0. -1.
    9900012    2    1    2    0    0  0.97636296098E+00 -0.15677135749E+02 -0.40458586417E+02  0.47787273223E+02  0.20000009933E+02 0.  0.
        -12    1    1    2    0    0 -0.97636296098E+00  0.15677135749E+02  0.40458586417E+02  0.43400726777E+02  0.00000000000E+00 0.  1.
         11    1    3    3    0    0 -0.62671102362E+01 -0.66751360920E+01 -0.27064662347E+02  0.28571490349E+02  0.51100000000E-03 0. -1.
        -11    1    3    3    0    0  0.50136563011E+01 -0.16939258719E+01 -0.23595980958E+01  0.57942935548E+01  0.51100000000E-03 0.  1.
         12    1    3    3    0    0  0.22298168961E+01 -0.73080737854E+01 -0.11034325974E+02  0.13421489319E+02  0.00000000000E+00 0. -1.
</event>
<event>
 7    1  0.2886681E-010  0.4778729E+02  0.7816164E-02  0.1312668E+00
        -11   -1    0    0    0    0  0.00000000000E+00  0.00000000000E+00  0.45593999997E+02  0.45594000000E+02  0.51100000000E-03 0.  1.
         11   -1    0    0    0    0 -0.00000000000E+00 -0.00000000000E+00 -0.45593999997E+02  0.45594000000E+02  0.51100000000E-03 0. -1.
    9900012    2    1    2    0    0 -0.65387489863E+01  0.31836262809E+02 -0.28763152488E+02  0.47787287920E+02  0.20000076944E+02 0.  0.
        -12    1    1    2    0    0  0.65387489863E+01 -0.31836262809E+02  0.28763152488E+02  0.43400712080E+02  0.00000000000E+00 0.  1.
         11    1    3    3    0    0 -0.78460309399E+01  0.22458596224E+02 -0.27463213481E+02  0.36334237859E+02  0.51100000000E-03 0. -1.
        -11    1    3    3    0    0  0.32693176276E+00  0.15153791651E+01  0.22812416814E+01  0.27581374624E+01  0.51100000000E-03 0.  1.
         12    1    3    3    0    0  0.98035019090E+00  0.78622874199E+01 -0.35811806889E+01  0.86949125986E+01  0.00000000000E+00 0. -1.
</event>
<event>
 7    1  0.2886681E-010  0.4778727E+02  0.7816164E-02  0.1312668E+00
        -11   -1    0    0    0    0  0.00000000000E+00  0.00000000000E+00  0.45593999997E+02  0.45594000000E+02  0.51100000000E-03 0.  1.
         11   -1    0    0    0    0 -0.00000000000E+00 -0.00000000000E+00 -0.45593999997E+02  0.45594000000E+02  0.51100000000E-03 0. -1.
    9900012    2    1    2    0    0 -0.33906437042E+01 -0.42988981363E+02 -0.49065673195E+01  0.47787269750E+02  0.19999994097E+02 0.  0.
        -12    1    1    2    0    0  0.33906437042E+01  0.42988981363E+02  0.49065673195E+01  0.43400730250E+02  0.00000000000E+00 0.  1.
         11    1    3    3    0    0  0.92801078814E+00 -0.34786791941E+02 -0.93250083706E+01  0.36026904932E+02  0.51100000000E-03 0. -1.
        -11    1    3    3    0    0 -0.21420240941E+01 -0.83899085848E+01  0.39897665770E+01  0.95339955360E+01  0.51100000000E-03 0.  1.
         12    1    3    3    0    0 -0.21766303983E+01  0.18771916289E+00  0.42867447402E+00  0.22263692819E+01  0.00000000000E+00 0. -1.
</event>
<event>
 7    1  0.2886681E-010  0.4778727E+02  0.7816164E-02  0.1312668E+00
        -11   -1    0    0    0    0  0.00000000000E+00  0.00000000000E+00  0.45593999997E+02  0.45594000000E+02  0.51100000000E-03 0.  1.
         11   -1    0    0    0    0 -0.00000000000E+00 -0.00000000000E+00 -0.45593999997E+02  0.45594000000E+02  0.51100000000E-03 0. -1.
    9900012    2    1    2    0    0 -0.98527354193E+01 -0.58657430383E+01 -0.41858569147E+02  0.47787272498E+02  0.20000006628E+02 0.  0.
        -12    1    1    2    0    0  0.98527354193E+01  0.58657430383E+01  0.41858569147E+02  0.43400727502E+02  0.00000000000E+00 0.  1.
         11    1    3    3    0    0 -0.12683429543E+02 -0.46910115934E+01 -0.33526076657E+02  0.36150695582E+02  0.51100000000E-03 0. -1.
        -11    1    3    3    0    0  0.30289287171E+01 -0.65292507335E+00 -0.96875756144E+01  0.10171029538E+02  0.51100000000E-03 0.  1.
        -12    1    3    3    0    0 -0.19823459375E+00 -0.52180637159E+00  0.13550831245E+01  0.14655473782E+01  0.00000000000E+00 0.  1.
</event>
<event>
 7    1  0.2886681E-010  0.4778727E+02  0.7816164E-02  0.1312668E+00
        -11   -1    0    0    0    0  0.00000000000E+00  0.00000000000E+00  0.45593999997E+02  0.45594000000E+02  0.51100000000E-03 0. -1.
         11   -1    0    0    0    0 -0.00000000000E+00 -0.00000000000E+00 -0.45593999997E+02  0.45594000000E+02  0.51100000000E-03 0.  1.
    9900012    2    1    2    0    0  0.11410371488E+02  0.35810816007E+02 -0.21702821875E+02  0.47787267312E+02  0.19999982981E+02 0.  0.
        -12    1    1    2    0    0 -0.11410371488E+02 -0.35810816007E+02  0.21702821875E+02  0.43400732688E+02  0.00000000000E+00 0.  1.
         11    1    3    3    0    0  0.11780527092E+02  0.13392428766E+02 -0.10087216317E+02  0.20491215193E+02  0.51100000000E-03 0. -1.
        -11    1    3    3    0    0 -0.27102292855E+01  0.66729775261E+00 -0.17774613667E+01  0.33090781559E+01  0.51100000000E-03 0.  1.
         12    1    3    3    0    0  0.23400736815E+01  0.21751089488E+02 -0.98381441910E+01  0.23986973963E+02  0.00000000000E+00 0. -1.
</event>
<event>
 7    1  0.2886681E-010  0.4778727E+02  0.7816164E-02  0.1312668E+00
        -11   -1    0    0    0    0  0.00000000000E+00  0.00000000000E+00  0.45593999997E+02  0.45594000000E+02  0.51100000000E-03 0.  1.
         11   -1    0    0    0    0 -0.00000000000E+00 -0.00000000000E+00 -0.45593999997E+02  0.45594000000E+02  0.51100000000E-03 0. -1.
    9900012    2    1    2    0    0  0.86772080003E+01  0.10090089905E+02 -0.41310038457E+02  0.47787272699E+02  0.20000007544E+02 0.  0.
        -12    1    1    2    0    0 -0.86772080003E+01 -0.10090089905E+02  0.41310038457E+02  0.43400727301E+02  0.00000000000E+00 0.  1.
         11    1    3    3    0    0 -0.10544744754E+01 -0.39053272543E+00 -0.12323206751E+02  0.12374403304E+02  0.51100000000E-03 0. -1.
        -11    1    3    3    0    0  0.13444852545E+02  0.95866972823E+01 -0.23986726018E+02  0.29120986420E+02  0.51100000000E-03 0.  1.
        -12    1    3    3    0    0 -0.37131700695E+01  0.89392534806E+00 -0.50001056869E+01  0.62918829751E+01  0.00000000000E+00 0.  1.
</event>
<event>
 7    1  0.2886681E-010  0.4778727E+02  0.7816164E-02  0.1312668E+00
        -11   -1    0    0    0    0  0.00000000000E+00  0.00000000000E+00  0.45593999997E+02  0.45594000000E+02  0.51100000000E-03 0.  1.
         11   -1    0    0    0    0 -0.00000000000E+00 -0.00000000000E+00 -0.45593999997E+02  0.45594000000E+02  0.51100000000E-03 0. -1.
    9900012    2    1    2    0    0 -0.15359429331E+02 -0.98975766846E+01 -0.39366855391E+02  0.47787269626E+02  0.19999993535E+02 0.  0.
        -12    1    1    2    0    0  0.15359429331E+02  0.98975766846E+01  0.39366855391E+02  0.43400730374E+02  0.00000000000E+00 0.  1.
         11    1    3    3    0    0 -0.17356701304E+01  0.12561709083E+01 -0.27449352783E+01  0.34821237910E+01  0.51100000000E-03 0. -1.
        -11    1    3    3    0    0 -0.63541928212E+01  0.35727246996E+01 -0.18308773396E+02  0.19706631161E+02  0.51100000000E-03 0.  1.
        -12    1    3    3    0    0 -0.72695663795E+01 -0.14726472293E+02 -0.18313146716E+02  0.24598514674E+02  0.00000000000E+00 0.  1.
</event>
<event>
 7    1  0.2886681E-010  0.4778727E+02  0.7816164E-02  0.1312668E+00
        -11   -1    0    0    0    0  0.00000000000E+00  0.00000000000E+00  0.45593999997E+02  0.45594000000E+02  0.51100000000E-03 0.  1.
         11   -1    0    0    0    0 -0.00000000000E+00 -0.00000000000E+00 -0.45593999997E+02  0.45594000000E+02  0.51100000000E-03 0. -1.
    9900012    2    1    2    0    0  0.18872200774E+02  0.27850531990E+02 -0.27419173289E+02  0.47787272379E+02  0.20000006086E+02 0.  0.
        -12    1    1    2    0    0 -0.18872200774E+02 -0.27850531990E+02  0.27419173289E+02  0.43400727621E+02  0.00000000000E+00 0.  1.
         11    1    3    3    0    0  0.37035939319E+01  0.90961354412E+01 -0.19704221681E+02  0.22016190413E+02  0.51100000000E-03 0. -1.
        -11    1    3    3    0    0  0.13208304577E+02  0.14074545962E+02 -0.74527692043E+01  0.20690479040E+02  0.51100000000E-03 0.  1.
         12    1    3    3    0    0  0.19603022650E+01  0.46798505866E+01 -0.26218240369E+00  0.50806029264E+01  0.00000000000E+00 0. -1.
</event>
<event>
 7    1  0.2886681E-010  0.4778728E+02  0.7816164E-02  0.1312668E+00
        -11   -1    0    0    0    0  0.00000000000E+00  0.00000000000E+00  0.45593999997E+02  0.45594000000E+02  0.51100000000E-03 0.  1.
         11   -1    0    0    0    0 -0.00000000000E+00 -0.00000000000E+00 -0.45593999997E+02  0.45594000000E+02  0.51100000000E-03 0. -1.
    9900012    2    1    2    0    0  0.22732356753E+02  0.11739840201E+02 -0.35057643432E+02  0.47787282788E+02  0.20000053542E+02 0.  0.
        -12    1    1    2    0    0 -0.22732356753E+02 -0.11739840201E+02  0.35057643432E+02  0.43400717212E+02  0.00000000000E+00 0.  1.
         11    1    3    3    0    0  0.14827479116E+02  0.33922186280E+00 -0.25485957092E+02  0.29487339954E+02  0.51100000000E-03 0. -1.
        -11    1    3    3    0    0 -0.32145273008E+00  0.44002424444E+01 -0.10340219831E+01  0.45315192982E+01  0.51100000000E-03 0.  1.
        -12    1    3    3    0    0  0.82263303675E+01  0.70003758940E+01 -0.85376643573E+01  0.13768423535E+02  0.00000000000E+00 0.  1.
</event>
<event>
 7    1  0.2886681E-010  0.4778727E+02  0.7816164E-02  0.1312668E+00
        -11   -1    0    0    0    0  0.00000000000E+00  0.00000000000E+00  0.45593999997E+02  0.45594000000E+02  0.51100000000E-03 0.  1.
         11   -1    0    0    0    0 -0.00000000000E+00 -0.00000000000E+00 -0.45593999997E+02  0.45594000000E+02  0.51100000000E-03 0. -1.
    9900012    2    1    2    0    0 -0.72142784291E+01 -0.20610968407E+02 -0.37506874985E+02  0.47787268404E+02  0.19999987963E+02 0.  0.
        -12    1    1    2    0    0  0.72142784291E+01  0.20610968407E+02  0.37506874985E+02  0.43400731596E+02  0.00000000000E+00 0.  1.
         11    1    3    3    0    0  0.42576005662E+01 -0.18760830936E-01 -0.52503134841E+01  0.67596824254E+01  0.51100000000E-03 0. -1.
        -11    1    3    3    0    0 -0.96257365710E+01 -0.11398088325E+02 -0.25225092699E+02  0.29306595230E+02  0.51100000000E-03 0.  1.
        -12    1    3    3    0    0 -0.18461424243E+01 -0.91941192503E+01 -0.70314688014E+01  0.11720990749E+02  0.00000000000E+00 0.  1.
</event>
<event>
 7    1  0.2886681E-010  0.4778727E+02  0.7816164E-02  0.1312668E+00
        -11   -1    0    0    0    0  0.00000000000E+00  0.00000000000E+00  0.45593999997E+02  0.45594000000E+02  0.51100000000E-03 0.  1.
         11   -1    0    0    0    0 -0.00000000000E+00 -0.00000000000E+00 -0.45593999997E+02  0.45594000000E+02  0.51100000000E-03 0. -1.
    9900012    2    1    2    0    0 -0.95771902779E+01 -0.90437116609E+01 -0.41353498847E+02  0.47787272344E+02  0.20000005923E+02 0.  0.
        -12    1    1    2    0    0  0.95771902779E+01  0.90437116609E+01  0.41353498847E+02  0.43400727656E+02  0.00000000000E+00 0.  1.
         11    1    3    3    0    0 -0.40453923744E+01 -0.31976290409E+01 -0.14392263177E+02  0.15288141502E+02  0.51100000000E-03 0. -1.
        -11    1    3    3    0    0 -0.43434547949E+01 -0.94598315608E+01 -0.79150911987E+01  0.13076799366E+02  0.51100000000E-03 0.  1.
        -12    1    3    3    0    0 -0.11883431085E+01  0.36137489408E+01 -0.19046144471E+02  0.19422331476E+02  0.00000000000E+00 0.  1.
</event>
<event>
 7    1  0.2886681E-010  0.4778727E+02  0.7816164E-02  0.1312668E+00
        -11   -1    0    0    0    0  0.00000000000E+00  0.00000000000E+00  0.45593999997E+02  0.45594000000E+02  0.51100000000E-03 0. -1.
         11   -1    0    0    0    0 -0.00000000000E+00 -0.00000000000E+00 -0.45593999997E+02  0.45594000000E+02  0.51100000000E-03 0.  1.
    9900012    2    1    2    0    0 -0.30170146723E+02  0.23933843488E+02  0.20013914063E+02  0.47787269897E+02  0.19999994767E+02 0.  0.
        -12    1    1    2    0    0  0.30170146723E+02 -0.23933843488E+02 -0.20013914063E+02  0.43400730103E+02  0.00000000000E+00 0.  1.
         11    1    3    3    0    0 -0.26604921489E+02  0.11544515361E+02  0.13748072660E+02  0.32095282901E+02  0.51100000000E-03 0. -1.
        -11    1    3    3    0    0 -0.94255666036E+00  0.97810181050E+01  0.68069891611E+01  0.11953737070E+02  0.51100000000E-03 0.  1.
         12    1    3    3    0    0 -0.26226685731E+01  0.26083100220E+01 -0.54114775793E+00  0.37382499263E+01  0.00000000000E+00 0. -1.
</event>
<event>
 7    1  0.2886681E-010  0.4778727E+02  0.7816164E-02  0.1312668E+00
        -11   -1    0    0    0    0  0.00000000000E+00  0.00000000000E+00  0.45593999997E+02  0.45594000000E+02  0.51100000000E-03 0. -1.
         11   -1    0    0    0    0 -0.00000000000E+00 -0.00000000000E+00 -0.45593999997E+02  0.45594000000E+02  0.51100000000E-03 0.  1.
    9900012    2    1    2    0    0  0.15065433300E+02 -0.23155921489E+02  0.33473261840E+02  0.47787271449E+02  0.20000001846E+02 0.  0.
        -12    1    1    2    0    0 -0.15065433300E+02  0.23155921489E+02 -0.33473261840E+02  0.43400728551E+02  0.00000000000E+00 0.  1.
         11    1    3    3    0    0  0.12601738621E+02 -0.47920224364E+01  0.12008735657E+02  0.18054833914E+02  0.51100000000E-03 0. -1.
        -11    1    3    3    0    0 -0.21036081853E+01 -0.75476403777E+01  0.43035313725E+01  0.89393749895E+01  0.51100000000E-03 0.  1.
         12    1    3    3    0    0  0.45673028643E+01 -0.10816258675E+02  0.17160994810E+02  0.20793062546E+02  0.00000000000E+00 0. -1.
</event>
<event>
 7    1  0.2886681E-010  0.4778727E+02  0.7816164E-02  0.1312668E+00
        -11   -1    0    0    0    0  0.00000000000E+00  0.00000000000E+00  0.45593999997E+02  0.45594000000E+02  0.51100000000E-03 0.  1.
         11   -1    0    0    0    0 -0.00000000000E+00 -0.00000000000E+00 -0.45593999997E+02  0.45594000000E+02  0.51100000000E-03 0. -1.
    9900012    2    1    2    0    0  0.47179128269E+01  0.32129817115E+02 -0.28793045474E+02  0.47787270548E+02  0.19999997738E+02 0.  0.
        -12    1    1    2    0    0 -0.47179128269E+01 -0.32129817115E+02  0.28793045474E+02  0.43400729452E+02  0.00000000000E+00 0.  1.
         11    1    3    3    0    0  0.32721531854E+01  0.30311469884E+02 -0.20018537768E+02  0.36472373759E+02  0.51100000000E-03 0. -1.
        -11    1    3    3    0    0 -0.14420595483E+00 -0.23261144677E+01 -0.14335142316E+01  0.27361592036E+01  0.51100000000E-03 0.  1.
        -12    1    3    3    0    0  0.15899655963E+01  0.41444616985E+01 -0.73409934743E+01  0.85787375853E+01  0.00000000000E+00 0.  1.
</event>
<event>
 7    1  0.2886681E-010  0.4778729E+02  0.7816164E-02  0.1312668E+00
        -11   -1    0    0    0    0  0.00000000000E+00  0.00000000000E+00  0.45593999997E+02  0.45594000000E+02  0.51100000000E-03 0.  1.
         11   -1    0    0    0    0 -0.00000000000E+00 -0.00000000000E+00 -0.45593999997E+02  0.45594000000E+02  0.51100000000E-03 0. -1.
    9900012    2    1    2    0    0 -0.41544424100E+02 -0.12066292580E+02  0.34766550032E+01  0.47787288941E+02  0.20000081596E+02 0.  0.
        -12    1    1    2    0    0  0.41544424100E+02  0.12066292580E+02 -0.34766550032E+01  0.43400711059E+02  0.00000000000E+00 0.  1.
         11    1    3    3    0    0 -0.12408904855E+02 -0.68002100425E+01 -0.58994027641E+01  0.15330581514E+02  0.51100000000E-03 0. -1.
        -11    1    3    3    0    0 -0.14524254166E+02 -0.47328247563E+01  0.92045224936E+01  0.17834708403E+02  0.51100000000E-03 0.  1.
        -12    1    3    3    0    0 -0.14611265079E+02 -0.53325778085E+00  0.17153527365E+00  0.14621999023E+02  0.00000000000E+00 0.  1.
</event>
<event>
 7    1  0.2886681E-010  0.4778729E+02  0.7816164E-02  0.1312668E+00
        -11   -1    0    0    0    0  0.00000000000E+00  0.00000000000E+00  0.45593999997E+02  0.45594000000E+02  0.51100000000E-03 0.  1.
         11   -1    0    0    0    0 -0.00000000000E+00 -0.00000000000E+00 -0.45593999997E+02  0.45594000000E+02  0.51100000000E-03 0. -1.
    9900012    2    1    2    0    0 -0.57957539313E+01  0.14747594334E+02 -0.40404695050E+02  0.47787289356E+02  0.20000083492E+02 0.  0.
        -12    1    1    2    0    0  0.57957539313E+01 -0.14747594334E+02  0.40404695050E+02  0.43400710644E+02  0.00000000000E+00 0.  1.
         11    1    3    3    0    0  0.32858495411E+01  0.10934287369E+01 -0.31424182712E+01  0.46762363565E+01  0.51100000000E-03 0. -1.
        -11    1    3    3    0    0 -0.10719695059E+02  0.15664029716E+02 -0.34048728939E+02  0.38981914162E+02  0.51100000000E-03 0.  1.
        -12    1    3    3    0    0  0.16380915869E+01 -0.20098641190E+01 -0.32135478397E+01  0.41291388378E+01  0.00000000000E+00 0.  1.
</event>
<event>
 7    1  0.2886681E-010  0.4778726E+02  0.7816164E-02  0.1312668E+00
        -11   -1    0    0    0    0  0.00000000000E+00  0.00000000000E+00  0.45593999997E+02  0.45594000000E+02  0.51100000000E-03 0.  1.
         11   -1    0    0    0    0 -0.00000000000E+00 -0.00000000000E+00 -0.45593999997E+02  0.45594000000E+02  0.51100000000E-03 0. -1.
    9900012    2    1    2    0    0 -0.22483196774E+02  0.27299963469E+02 -0.25156359081E+02  0.47787256403E+02  0.19999933243E+02 0.  0.
        -12    1    1    2    0    0  0.22483196774E+02 -0.27299963469E+02  0.25156359081E+02  0.43400743597E+02  0.00000000000E+00 0.  1.
         11    1    3    3    0    0  0.10794617991E+01  0.31259408853E+00 -0.44583613915E+01  0.45978189827E+01  0.51100000000E-03 0. -1.
        -11    1    3    3    0    0 -0.11513736464E+02  0.20502174294E+02 -0.89665678842E+01  0.25165544262E+02  0.51100000000E-03 0.  1.
        -12    1    3    3    0    0 -0.12048922109E+02  0.64851950871E+01 -0.11731429805E+02  0.18023893158E+02  0.00000000000E+00 0.  1.
</event>
<event>
 7    1  0.2886681E-010  0.4778727E+02  0.7816164E-02  0.1312668E+00
        -11   -1    0    0    0    0  0.00000000000E+00  0.00000000000E+00  0.45593999997E+02  0.45594000000E+02  0.51100000000E-03 0.  1.
         11   -1    0    0    0    0 -0.00000000000E+00 -0.00000000000E+00 -0.45593999997E+02  0.45594000000E+02  0.51100000000E-03 0. -1.
    9900012    2    1    2    0    0 -0.17911838282E+02 -0.22587957900E+02 -0.32443388205E+02  0.47787271539E+02  0.20000002255E+02 0.  0.
        -12    1    1    2    0    0  0.17911838282E+02  0.22587957900E+02  0.32443388205E+02  0.43400728461E+02  0.00000000000E+00 0.  1.
         11    1    3    3    0    0 -0.82317086918E+01 -0.14757027226E+02 -0.23400404619E+02  0.28863641786E+02  0.51100000000E-03 0. -1.
        -11    1    3    3    0    0  0.72307730713E+00 -0.24266824012E+01  0.16778019244E+01  0.30375397655E+01  0.51100000000E-03 0.  1.
        -12    1    3    3    0    0 -0.10403206897E+02 -0.54042482726E+01 -0.10720785510E+02  0.15886089988E+02  0.00000000000E+00 0.  1.
</event>
<event>
 7    1  0.2886681E-010  0.4778727E+02  0.7816164E-02  0.1312668E+00
        -11   -1    0    0    0    0  0.00000000000E+00  0.00000000000E+00  0.45593999997E+02  0.45594000000E+02  0.51100000000E-03 0. -1.
         11   -1    0    0    0    0 -0.00000000000E+00 -0.00000000000E+00 -0.45593999997E+02  0.45594000000E+02  0.51100000000E-03 0.  1.
    9900012    2    1    2    0    0 -0.25992327591E+02  0.33687019992E+02 -0.85560897049E+01  0.47787273271E+02  0.20000010154E+02 0.  0.
        -12    1    1    2    0    0  0.25992327591E+02 -0.33687019992E+02  0.85560897049E+01  0.43400726729E+02  0.00000000000E+00 0.  1.
         11    1    3    3    0    0 -0.21640451941E+02  0.28613255964E+02 -0.13302735927E+02  0.38262126972E+02  0.51100000000E-03 0. -1.
        -11    1    3    3    0    0 -0.21562892467E+01  0.54538864307E+01  0.42486520492E+01  0.72419268852E+01  0.51100000000E-03 0.  1.
         12    1    3    3    0    0 -0.21955864033E+01 -0.38012240264E+00  0.49799417255E+00  0.22832194137E+01  0.00000000000E+00 0. -1.
</event>
<event>
 7    1  0.2886681E-010  0.4778727E+02  0.7816164E-02  0.1312668E+00
        -11   -1    0    0    0    0  0.00000000000E+00  0.00000000000E+00  0.45593999997E+02  0.45594000000E+02  0.51100000000E-03 0.  1.
         11   -1    0    0    0    0 -0.00000000000E+00 -0.00000000000E+00 -0.45593999997E+02  0.45594000000E+02  0.51100000000E-03 0. -1.
    9900012    2    1    2    0    0  0.32205618782E+02  0.27145044353E+02 -0.10467479310E+02  0.47787269163E+02  0.19999991423E+02 0.  0.
        -12    1    1    2    0    0 -0.32205618782E+02 -0.27145044353E+02  0.10467479310E+02  0.43400730837E+02  0.00000000000E+00 0.  1.
         11    1    3    3    0    0  0.25963798908E+02  0.14650177522E+02 -0.23183595227E+01  0.29901861920E+02  0.51100000000E-03 0. -1.
        -11    1    3    3    0    0  0.64415380777E+01  0.12529374325E+02 -0.91928234524E+01  0.16822206665E+02  0.51100000000E-03 0.  1.
        -12    1    3    3    0    0 -0.19971820413E+00 -0.34507493700E-01  0.10437036651E+01  0.10632005779E+01  0.00000000000E+00 0.  1.
</event>
<event>
 7    1  0.2886681E-010  0.4778727E+02  0.7816164E-02  0.1312668E+00
        -11   -1    0    0    0    0  0.00000000000E+00  0.00000000000E+00  0.45593999997E+02  0.45594000000E+02  0.51100000000E-03 0.  1.
         11   -1    0    0    0    0 -0.00000000000E+00 -0.00000000000E+00 -0.45593999997E+02  0.45594000000E+02  0.51100000000E-03 0. -1.
    9900012    2    1    2    0    0  0.14904815044E+02  0.29049939078E+02 -0.28593189875E+02  0.47787274440E+02  0.20000015480E+02 0.  0.
        -12    1    1    2    0    0 -0.14904815044E+02 -0.29049939078E+02  0.28593189875E+02  0.43400725560E+02  0.00000000000E+00 0.  1.
         11    1    3    3    0    0  0.53170451437E+01  0.23099546480E+01 -0.58797391025E+00  0.58268836540E+01  0.51100000000E-03 0.  1.
        -11    1    3    3    0    0  0.68341848534E+01  0.26491702777E+02 -0.28066495622E+02  0.39194955994E+02  0.51100000000E-03 0. -1.
         12    1    3    3    0    0  0.27535850466E+01  0.24828165380E+00  0.61279657785E-01  0.27654347913E+01  0.00000000000E+00 0. -1.
</event>
<event>
 7    1  0.2886681E-010  0.4778725E+02  0.7816164E-02  0.1312668E+00
        -11   -1    0    0    0    0  0.00000000000E+00  0.00000000000E+00  0.45593999997E+02  0.45594000000E+02  0.51100000000E-03 0. -1.
         11   -1    0    0    0    0 -0.00000000000E+00 -0.00000000000E+00 -0.45593999997E+02  0.45594000000E+02  0.51100000000E-03 0.  1.
    9900012    2    1    2    0    0 -0.13802473159E+02 -0.10221643233E+02  0.39857685462E+02  0.47787247172E+02  0.19999891154E+02 0.  0.
        -12    1    1    2    0    0  0.13802473159E+02  0.10221643233E+02 -0.39857685462E+02  0.43400752828E+02  0.00000000000E+00 0.  1.
         11    1    3    3    0    0 -0.11822166845E+02 -0.43045372168E+01  0.18259713927E+02  0.22174530942E+02  0.51100000000E-03 0. -1.
        -11    1    3    3    0    0  0.14095887964E+01  0.19292656875E+01  0.47445604862E-02  0.23893575370E+01  0.51100000000E-03 0.  1.
        -12    1    3    3    0    0 -0.33898951104E+01 -0.78463717042E+01  0.21593226974E+02  0.23223358692E+02  0.00000000000E+00 0.  1.
</event>
<event>
 7    1  0.2886681E-010  0.4778728E+02  0.7816164E-02  0.1312668E+00
        -11   -1    0    0    0    0  0.00000000000E+00  0.00000000000E+00  0.45593999997E+02  0.45594000000E+02  0.51100000000E-03 0. -1.
         11   -1    0    0    0    0 -0.00000000000E+00 -0.00000000000E+00 -0.45593999997E+02  0.45594000000E+02  0.51100000000E-03 0.  1.
    9900012    2    1    2    0    0 -0.35674597725E+02 -0.24619003861E+02 -0.22023367345E+01  0.47787279257E+02  0.20000037445E+02 0.  0.
        -12    1    1    2    0    0  0.35674597725E+02  0.24619003861E+02  0.22023367345E+01  0.43400720743E+02  0.00000000000E+00 0.  1.
         11    1    3    3    0    0 -0.53397661662E+01 -0.58001200948E+01  0.23595673729E+01  0.82293410594E+01  0.51100000000E-03 0. -1.
        -11    1    3    3    0    0 -0.28579565674E+02 -0.15683668734E+02  0.13630352219E+01  0.32628620939E+02  0.51100000000E-03 0.  1.
        -12    1    3    3    0    0 -0.17552658840E+01 -0.31352150319E+01 -0.59249393293E+01  0.69293172590E+01  0.00000000000E+00 0.  1.
</event>
<event>
 7    1  0.2886681E-010  0.4778728E+02  0.7816164E-02  0.1312668E+00
        -11   -1    0    0    0    0  0.00000000000E+00  0.00000000000E+00  0.45593999997E+02  0.45594000000E+02  0.51100000000E-03 0.  1.
         11   -1    0    0    0    0 -0.00000000000E+00 -0.00000000000E+00 -0.45593999997E+02  0.45594000000E+02  0.51100000000E-03 0. -1.
    9900012    2    1    2    0    0 -0.10343654250E+02 -0.34840258683E+02  0.23723155411E+02  0.47787275225E+02  0.20000019063E+02 0.  0.
        -12    1    1    2    0    0  0.10343654250E+02  0.34840258683E+02 -0.23723155411E+02  0.43400724775E+02  0.00000000000E+00 0.  1.
         11    1    3    3    0    0  0.34248794677E+01 -0.13497832778E+02  0.66618806684E+01  0.15437031560E+02  0.51100000000E-03 0. -1.
        -11    1    3    3    0    0 -0.61347436575E+01 -0.12275798399E+02  0.14981343380E+02  0.20316765387E+02  0.51100000000E-03 0.  1.
         12    1    3    3    0    0 -0.76337900597E+01 -0.90666275057E+01  0.20799313623E+01  0.12033478278E+02  0.00000000000E+00 0. -1.
</event>
<event>
 7    1  0.2886681E-010  0.4778727E+02  0.7816164E-02  0.1312668E+00
        -11   -1    0    0    0    0  0.00000000000E+00  0.00000000000E+00  0.45593999997E+02  0.45594000000E+02  0.51100000000E-03 0.  1.
         11   -1    0    0    0    0 -0.00000000000E+00 -0.00000000000E+00 -0.45593999997E+02  0.45594000000E+02  0.51100000000E-03 0. -1.
    9900012    2    1    2    0    0 -0.33121685819E+02 -0.20881474297E+02 -0.18722752174E+02  0.47787268563E+02  0.19999988685E+02 0.  0.
        -12    1    1    2    0    0  0.33121685819E+02  0.20881474297E+02  0.18722752174E+02  0.43400731437E+02  0.00000000000E+00 0.  1.
         11    1    3    3    0    0 -0.21195858877E+02 -0.13539947862E+02 -0.15329936980E+02  0.29455077487E+02  0.51100000000E-03 0. -1.
        -11    1    3    3    0    0 -0.34041978388E+01 -0.64694694033E+01 -0.59136269886E+01  0.94028496589E+01  0.51100000000E-03 0.  1.
         12    1    3    3    0    0 -0.85216291032E+01 -0.87205703178E+00  0.25208117953E+01  0.89293414173E+01  0.00000000000E+00 0. -1.
</event>
<event>
 7    1  0.2886681E-010  0.4778727E+02  0.7816164E-02  0.1312668E+00
        -11   -1    0    0    0    0  0.00000000000E+00  0.00000000000E+00  0.45593999997E+02  0.45594000000E+02  0.51100000000E-03 0.  1.
         11   -1    0    0    0    0 -0.00000000000E+00 -0.00000000000E+00 -0.45593999997E+02  0.45594000000E+02  0.51100000000E-03 0. -1.
    9900012    2    1    2    0    0 -0.36573905152E+02  0.59084810669E+01 -0.22606690671E+02  0.47787272475E+02  0.20000006524E+02 0.  0.
        -12    1    1    2    0    0  0.36573905152E+02 -0.59084810669E+01  0.22606690671E+02  0.43400727525E+02  0.00000000000E+00 0.  1.
         11    1    3    3    0    0 -0.14848934500E+02  0.46602406922E+01 -0.18012083679E+02  0.23804282342E+02  0.51100000000E-03 0.  1.
        -11    1    3    3    0    0 -0.15370103655E+02  0.47933038237E+01 -0.18513413650E+01  0.16206273879E+02  0.51100000000E-03 0. -1.
         12    1    3    3    0    0 -0.63548669970E+01 -0.35450634490E+01 -0.27432656271E+01  0.77767162548E+01  0.00000000000E+00 0. -1.
</event>
<event>
 7    1  0.2886681E-010  0.4778727E+02  0.7816164E-02  0.1312668E+00
        -11   -1    0    0    0    0  0.00000000000E+00  0.00000000000E+00  0.45593999997E+02  0.45594000000E+02  0.51100000000E-03 0. -1.
         11   -1    0    0    0    0 -0.00000000000E+00 -0.00000000000E+00 -0.45593999997E+02  0.45594000000E+02  0.51100000000E-03 0.  1.
    9900012    2    1    2    0    0 -0.32283622264E+02 -0.21790517806E+02  0.19145873585E+02  0.47787269499E+02  0.19999992953E+02 0.  0.
        -12    1    1    2    0    0  0.32283622264E+02  0.21790517806E+02 -0.19145873585E+02  0.43400730501E+02  0.00000000000E+00 0.  1.
         11    1    3    3    0    0 -0.76588903447E+01 -0.66526675728E+01  0.90519717425E+01  0.13596131061E+02  0.51100000000E-03 0. -1.
        -11    1    3    3    0    0 -0.99485617798E+01 -0.14833866968E+02  0.40387298924E+01  0.18311985969E+02  0.51100000000E-03 0.  1.
        -12    1    3    3    0    0 -0.14676170139E+02 -0.30398326476E+00  0.60551719500E+01  0.15879152469E+02  0.00000000000E+00 0.  1.
</event>
<event>
 7    1  0.2886681E-010  0.4778729E+02  0.7816164E-02  0.1312668E+00
        -11   -1    0    0    0    0  0.00000000000E+00  0.00000000000E+00  0.45593999997E+02  0.45594000000E+02  0.51100000000E-03 0.  1.
         11   -1    0    0    0    0 -0.00000000000E+00 -0.00000000000E+00 -0.45593999997E+02  0.45594000000E+02  0.51100000000E-03 0. -1.
    9900012    2    1    2    0    0 -0.42016736147E+01 -0.13696875270E+02 -0.40967831769E+02  0.47787289254E+02  0.20000083027E+02 0.  0.
        -12    1    1    2    0    0  0.42016736147E+01  0.13696875270E+02  0.40967831769E+02  0.43400710746E+02  0.00000000000E+00 0.  1.
         11    1    3    3    0    0  0.54463161275E+00  0.41773987128E+00 -0.94992239166E+01  0.95239899975E+01  0.51100000000E-03 0. -1.
        -11    1    3    3    0    0  0.45509694351E+01 -0.11054643939E+02 -0.18200865977E+02  0.21775858146E+02  0.51100000000E-03 0.  1.
        -12    1    3    3    0    0 -0.92972746625E+01 -0.30599712027E+01 -0.13267741876E+02  0.16487441111E+02  0.00000000000E+00 0.  1.
</event>
<event>
 7    1  0.2886681E-010  0.4778727E+02  0.7816164E-02  0.1312668E+00
        -11   -1    0    0    0    0  0.00000000000E+00  0.00000000000E+00  0.45593999997E+02  0.45594000000E+02  0.51100000000E-03 0. -1.
         11   -1    0    0    0    0 -0.00000000000E+00 -0.00000000000E+00 -0.45593999997E+02  0.45594000000E+02  0.51100000000E-03 0.  1.
    9900012    2    1    2    0    0  0.29977495052E+02 -0.25405415985E+02  0.18426555502E+02  0.47787270529E+02  0.19999997651E+02 0.  0.
        -12    1    1    2    0    0 -0.29977495052E+02  0.25405415985E+02 -0.18426555502E+02  0.43400729471E+02  0.00000000000E+00 0.  1.
         11    1    3    3    0    0  0.12744519549E+02 -0.12125643632E+02  0.23733340574E+01  0.17750682433E+02  0.51100000000E-03 0. -1.
        -11    1    3    3    0    0  0.15290171157E+02 -0.98610941769E+01  0.18048042467E+02  0.25627375003E+02  0.51100000000E-03 0.  1.
        -12    1    3    3    0    0  0.19428043457E+01 -0.34186781755E+01 -0.19948210224E+01  0.44092130936E+01  0.00000000000E+00 0.  1.
</event>
<event>
 7    1  0.2886681E-010  0.4778727E+02  0.7816164E-02  0.1312668E+00
        -11   -1    0    0    0    0  0.00000000000E+00  0.00000000000E+00  0.45593999997E+02  0.45594000000E+02  0.51100000000E-03 0.  1.
         11   -1    0    0    0    0 -0.00000000000E+00 -0.00000000000E+00 -0.45593999997E+02  0.45594000000E+02  0.51100000000E-03 0. -1.
    9900012    2    1    2    0    0  0.20210572263E+02 -0.32477453266E+02 -0.20502949070E+02  0.47787272790E+02  0.20000007957E+02 0.  0.
        -12    1    1    2    0    0 -0.20210572263E+02  0.32477453266E+02  0.20502949070E+02  0.43400727210E+02  0.00000000000E+00 0.  1.
         11    1    3    3    0    0  0.17591049953E+02 -0.31309218469E+02 -0.13987475539E+02  0.38540390135E+02  0.51100000000E-03 0. -1.
        -11    1    3    3    0    0 -0.13346584544E+01  0.11434317343E+00 -0.43663628303E+01  0.45672214943E+01  0.51100000000E-03 0.  1.
        -12    1    3    3    0    0  0.39541807646E+01 -0.12825779704E+01 -0.21491107003E+01  0.46796611599E+01  0.00000000000E+00 0.  1.
</event>
<event>
 7    1  0.2886681E-010  0.4778727E+02  0.7816164E-02  0.1312668E+00
        -11   -1    0    0    0    0  0.00000000000E+00  0.00000000000E+00  0.45593999997E+02  0.45594000000E+02  0.51100000000E-03 0.  1.
         11   -1    0    0    0    0 -0.00000000000E+00 -0.00000000000E+00 -0.45593999997E+02  0.45594000000E+02  0.51100000000E-03 0. -1.
    9900012    2    1    2    0    0 -0.16686760158E+02 -0.32983910681E+01 -0.39928638368E+02  0.47787268323E+02  0.19999987592E+02 0.  0.
        -12    1    1    2    0    0  0.16686760158E+02  0.32983910681E+01  0.39928638368E+02  0.43400731677E+02  0.00000000000E+00 0.  1.
         11    1    3    3    0    0 -0.60803881081E+01 -0.79190706925E+01 -0.16828758449E+02  0.19567572956E+02  0.51100000000E-03 0. -1.
        -11    1    3    3    0    0 -0.10100084778E+02  0.72856182261E+01 -0.22024726003E+02  0.25301788498E+02  0.51100000000E-03 0.  1.
        -12    1    3    3    0    0 -0.50628727181E+00 -0.26649386017E+01 -0.10751539158E+01  0.29179068688E+01  0.00000000000E+00 0.  1.
</event>
<event>
 7    1  0.2886681E-010  0.4778727E+02  0.7816164E-02  0.1312668E+00
        -11   -1    0    0    0    0  0.00000000000E+00  0.00000000000E+00  0.45593999997E+02  0.45594000000E+02  0.51100000000E-03 0. -1.
         11   -1    0    0    0    0 -0.00000000000E+00 -0.00000000000E+00 -0.45593999997E+02  0.45594000000E+02  0.51100000000E-03 0.  1.
    9900012    2    1    2    0    0 -0.42520671598E+02  0.86719193186E+01  0.64343245330E+00  0.47787266099E+02  0.19999977453E+02 0.  0.
        -12    1    1    2    0    0  0.42520671598E+02 -0.86719193186E+01 -0.64343245330E+00  0.43400733901E+02  0.00000000000E+00 0.  1.
         11    1    3    3    0    0 -0.18453861174E+02  0.43841880606E+01  0.44047442976E+01  0.19472233302E+02  0.51100000000E-03 0. -1.
        -11    1    3    3    0    0 -0.35327299777E+01 -0.40304106615E+01 -0.30110535632E+01  0.61474250721E+01  0.51100000000E-03 0.  1.
        -12    1    3    3    0    0 -0.20534080446E+02  0.83181419195E+01 -0.75025828116E+00  0.22167607725E+02  0.00000000000E+00 0.  1.
</event>
<event>
 7    1  0.2886681E-010  0.4778728E+02  0.7816164E-02  0.1312668E+00
        -11   -1    0    0    0    0  0.00000000000E+00  0.00000000000E+00  0.45593999997E+02  0.45594000000E+02  0.51100000000E-03 0. -1.
         11   -1    0    0    0    0 -0.00000000000E+00 -0.00000000000E+00 -0.45593999997E+02  0.45594000000E+02  0.51100000000E-03 0.  1.
    9900012    2    1    2    0    0 -0.35301177744E+02  0.25185533070E+02 -0.17714036704E+01  0.47787284602E+02  0.20000061814E+02 0.  0.
        -12    1    1    2    0    0  0.35301177744E+02 -0.25185533070E+02  0.17714036704E+01  0.43400715398E+02  0.00000000000E+00 0.  1.
         11    1    3    3    0    0 -0.29265005586E+02  0.20109305844E+02  0.31550345917E+01  0.35647986998E+02  0.51100000000E-03 0. -1.
        -11    1    3    3    0    0 -0.44639075174E+01  0.67441856527E+01 -0.18392210577E+01  0.82941693256E+01  0.51100000000E-03 0.  1.
         12    1    3    3    0    0 -0.15722646405E+01 -0.16679584264E+01 -0.30872172044E+01  0.38451282786E+01  0.00000000000E+00 0. -1.
</event>
<event>
 7    1  0.2886681E-010  0.4778728E+02  0.7816164E-02  0.1312668E+00
        -11   -1    0    0    0    0  0.00000000000E+00  0.00000000000E+00  0.45593999997E+02  0.45594000000E+02  0.51100000000E-03 0. -1.
         11   -1    0    0    0    0 -0.00000000000E+00 -0.00000000000E+00 -0.45593999997E+02  0.45594000000E+02  0.51100000000E-03 0.  1.
    9900012    2    1    2    0    0 -0.22547985291E+02  0.36893000989E+02  0.37573551646E+01  0.47787275577E+02  0.20000020665E+02 0.  0.
        -12    1    1    2    0    0  0.22547985291E+02 -0.36893000989E+02 -0.37573551646E+01  0.43400724423E+02  0.00000000000E+00 0.  1.
         11    1    3    3    0    0 -0.18981880035E+01  0.36012753083E+01  0.25839113125E+01  0.48217112600E+01  0.51100000000E-03 0. -1.
        -11    1    3    3    0    0 -0.98919562514E+01  0.29398903063E+02  0.37327830777E+01  0.31242278559E+02  0.51100000000E-03 0.  1.
        -12    1    3    3    0    0 -0.10757841036E+02  0.38928226169E+01 -0.25593392256E+01  0.11723285758E+02  0.00000000000E+00 0.  1.
</event>
<event>
 7    1  0.2886681E-010  0.4778727E+02  0.7816164E-02  0.1312668E+00
        -11   -1    0    0    0    0  0.00000000000E+00  0.00000000000E+00  0.45593999997E+02  0.45594000000E+02  0.51100000000E-03 0. -1.
         11   -1    0    0    0    0 -0.00000000000E+00 -0.00000000000E+00 -0.45593999997E+02  0.45594000000E+02  0.51100000000E-03 0.  1.
    9900012    2    1    2    0    0 -0.29498869935E+02 -0.73359609106E+01  0.30977795269E+02  0.47787269019E+02  0.19999990766E+02 0.  0.
        -12    1    1    2    0    0  0.29498869935E+02  0.73359609106E+01 -0.30977795269E+02  0.43400730981E+02  0.00000000000E+00 0.  1.
         11    1    3    3    0    0  0.39424672197E+00  0.81576215355E+00  0.27632710399E+01  0.29080174466E+01  0.51100000000E-03 0. -1.
        -11    1    3    3    0    0 -0.21243699969E+02  0.18472496204E+01  0.20460203005E+02  0.29552106977E+02  0.51100000000E-03 0.  1.
        -12    1    3    3    0    0 -0.86494166883E+01 -0.99989726846E+01  0.77543212243E+01  0.15327144595E+02  0.00000000000E+00 0.  1.
</event>
<event>
 7    1  0.2886681E-010  0.4778727E+02  0.7816164E-02  0.1312668E+00
        -11   -1    0    0    0    0  0.00000000000E+00  0.00000000000E+00  0.45593999997E+02  0.45594000000E+02  0.51100000000E-03 0.  1.
         11   -1    0    0    0    0 -0.00000000000E+00 -0.00000000000E+00 -0.45593999997E+02  0.45594000000E+02  0.51100000000E-03 0. -1.
    9900012    2    1    2    0    0  0.22428587956E+02 -0.15054348665E+02 -0.33969812135E+02  0.47787272957E+02  0.20000008719E+02 0.  0.
        -12    1    1    2    0    0 -0.22428587956E+02  0.15054348665E+02  0.33969812135E+02  0.43400727043E+02  0.00000000000E+00 0.  1.
         11    1    3    3    0    0  0.20277764505E+00 -0.67338891480E+01 -0.11139580064E+01  0.68284174252E+01  0.51100000000E-03 0. -1.
        -11    1    3    3    0    0  0.92274268699E+01 -0.61448267346E+00 -0.10729775713E+02  0.14165136170E+02  0.51100000000E-03 0.  1.
         12    1    3    3    0    0  0.12998383441E+02 -0.77059768431E+01 -0.22126078416E+02  0.26793719362E+02  0.00000000000E+00 0. -1.
</event>
<event>
 7    1  0.2886681E-010  0.4778724E+02  0.7816164E-02  0.1312668E+00
        -11   -1    0    0    0    0  0.00000000000E+00  0.00000000000E+00  0.45593999997E+02  0.45594000000E+02  0.51100000000E-03 0.  1.
         11   -1    0    0    0    0 -0.00000000000E+00 -0.00000000000E+00 -0.45593999997E+02  0.45594000000E+02  0.51100000000E-03 0. -1.
    9900012    2    1    2    0    0 -0.27548998834E+02  0.24832206430E+02 -0.22539738138E+02  0.47787244151E+02  0.19999877383E+02 0.  0.
        -12    1    1    2    0    0  0.27548998834E+02 -0.24832206430E+02  0.22539738138E+02  0.43400755849E+02  0.00000000000E+00 0.  1.
         11    1    3    3    0    0 -0.24411686271E+02  0.21017456683E+02 -0.18182815593E+02  0.36990251353E+02  0.51100000000E-03 0. -1.
        -11    1    3    3    0    0 -0.41313895945E+01  0.47825448575E+01 -0.10106502992E+00  0.63207064239E+01  0.51100000000E-03 0.  1.
         12    1    3    3    0    0  0.99407703163E+00 -0.96779511052E+00 -0.42558575148E+01  0.44762863745E+01  0.00000000000E+00 0. -1.
</event>
<event>
 7    1  0.2886681E-010  0.4778727E+02  0.7816164E-02  0.1312668E+00
        -11   -1    0    0    0    0  0.00000000000E+00  0.00000000000E+00  0.45593999997E+02  0.45594000000E+02  0.51100000000E-03 0.  1.
         11   -1    0    0    0    0 -0.00000000000E+00 -0.00000000000E+00 -0.45593999997E+02  0.45594000000E+02  0.51100000000E-03 0. -1.
    9900012    2    1    2    0    0  0.41586809244E+02  0.14110104087E+01 -0.12335703955E+02  0.47787271371E+02  0.20000001490E+02 0.  0.
        -12    1    1    2    0    0 -0.41586809244E+02 -0.14110104087E+01  0.12335703955E+02  0.43400728629E+02  0.00000000000E+00 0.  1.
         11    1    3    3    0    0  0.30216779794E+02  0.39800649664E+01 -0.19769860216E+01  0.30541826603E+02  0.51100000000E-03 0. -1.
        -11    1    3    3    0    0  0.56230100754E+01 -0.41938777782E+00 -0.53636124728E+00  0.56640808668E+01  0.51100000000E-03 0.  1.
         12    1    3    3    0    0  0.57470193744E+01 -0.21496667799E+01 -0.98223566861E+01  0.11581363902E+02  0.00000000000E+00 0. -1.
</event>
<event>
 7    1  0.2886681E-010  0.4778727E+02  0.7816164E-02  0.1312668E+00
        -11   -1    0    0    0    0  0.00000000000E+00  0.00000000000E+00  0.45593999997E+02  0.45594000000E+02  0.51100000000E-03 0. -1.
         11   -1    0    0    0    0 -0.00000000000E+00 -0.00000000000E+00 -0.45593999997E+02  0.45594000000E+02  0.51100000000E-03 0.  1.
    9900012    2    1    2    0    0  0.43303177110E+02 -0.21375831049E+01 -0.19720533901E+01  0.47787269546E+02  0.19999993167E+02 0.  0.
        -12    1    1    2    0    0 -0.43303177110E+02  0.21375831049E+01  0.19720533901E+01  0.43400730454E+02  0.00000000000E+00 0.  1.
         11    1    3    3    0    0  0.24031318237E+02 -0.18472082834E+01  0.82872162434E+01  0.25487141620E+02  0.51100000000E-03 0. -1.
        -11    1    3    3    0    0  0.77293040271E+01  0.20878769628E+01 -0.44760392416E+01  0.91725840693E+01  0.51100000000E-03 0.  1.
        -12    1    3    3    0    0  0.11542554847E+02 -0.23782517843E+01 -0.57832303920E+01  0.13127543857E+02  0.00000000000E+00 0.  1.
</event>
<event>
 7    1  0.2886681E-010  0.4778727E+02  0.7816164E-02  0.1312668E+00
        -11   -1    0    0    0    0  0.00000000000E+00  0.00000000000E+00  0.45593999997E+02  0.45594000000E+02  0.51100000000E-03 0.  1.
         11   -1    0    0    0    0 -0.00000000000E+00 -0.00000000000E+00 -0.45593999997E+02  0.45594000000E+02  0.51100000000E-03 0. -1.
    9900012    2    1    2    0    0  0.84251151627E+01 -0.15012752913E+02 -0.39840407017E+02  0.47787270204E+02  0.19999996167E+02 0.  0.
        -12    1    1    2    0    0 -0.84251151627E+01  0.15012752913E+02  0.39840407017E+02  0.43400729796E+02  0.00000000000E+00 0.  1.
         11    1    3    3    0    0  0.98019862427E+01 -0.30962900110E+01 -0.11711856934E+02  0.15583117122E+02  0.51100000000E-03 0. -1.
        -11    1    3    3    0    0 -0.35897532187E+01 -0.84933954295E+01 -0.26039585788E+02  0.27623977309E+02  0.51100000000E-03 0.  1.
        -12    1    3    3    0    0  0.22128821388E+01 -0.34230674729E+01 -0.20889642953E+01  0.45801757729E+01  0.00000000000E+00 0.  1.
</event>
<event>
 7    1  0.2886681E-010  0.4778726E+02  0.7816164E-02  0.1312668E+00
        -11   -1    0    0    0    0  0.00000000000E+00  0.00000000000E+00  0.45593999997E+02  0.45594000000E+02  0.51100000000E-03 0.  1.
         11   -1    0    0    0    0 -0.00000000000E+00 -0.00000000000E+00 -0.45593999997E+02  0.45594000000E+02  0.51100000000E-03 0. -1.
    9900012    2    1    2    0    0 -0.11023624072E+02  0.17700849266E+02 -0.38062898141E+02  0.47787256143E+02  0.19999932059E+02 0.  0.
        -12    1    1    2    0    0  0.11023624072E+02 -0.17700849266E+02  0.38062898141E+02  0.43400743857E+02  0.00000000000E+00 0.  1.
         11    1    3    3    0    0  0.19645159465E+01  0.27119145282E+01  0.10936751577E+01  0.35227729027E+01  0.51100000000E-03 0.  1.
        -11    1    3    3    0    0 -0.76527709076E+01  0.12416549156E+02 -0.30024361483E+02  0.33379602728E+02  0.51100000000E-03 0. -1.
        -12    1    3    3    0    0 -0.53353691113E+01  0.25723855817E+01 -0.91322118154E+01  0.10884880513E+02  0.00000000000E+00 0.  1.
</event>
<event>
 7    1  0.2886681E-010  0.4778724E+02  0.7816164E-02  0.1312668E+00
        -11   -1    0    0    0    0  0.00000000000E+00  0.00000000000E+00  0.45593999997E+02  0.45594000000E+02  0.51100000000E-03 0. -1.
         11   -1    0    0    0    0 -0.00000000000E+00 -0.00000000000E+00 -0.45593999997E+02  0.45594000000E+02  0.51100000000E-03 0.  1.
    9900012    2    1    2    0    0 -0.12283222872E+02 -0.40129127759E+02 -0.11063528032E+02  0.47787238355E+02  0.19999850957E+02 0.  0.
        -12    1    1    2    0    0  0.12283222872E+02  0.40129127759E+02  0.11063528032E+02  0.43400761645E+02  0.00000000000E+00 0.  1.
         11    1    3    3    0    0 -0.11103279009E+02 -0.20912282098E+02 -0.98048665114E+01  0.25626973190E+02  0.51100000000E-03 0. -1.
        -11    1    3    3    0    0  0.37248527870E+01 -0.10677184332E+02  0.25658655985E+01  0.11595708693E+02  0.51100000000E-03 0.  1.
        -12    1    3    3    0    0 -0.49047966501E+01 -0.85396613287E+01 -0.38245271191E+01  0.10564556473E+02  0.00000000000E+00 0.  1.
</event>
<event>
 7    1  0.2886681E-010  0.4778728E+02  0.7816164E-02  0.1312668E+00
        -11   -1    0    0    0    0  0.00000000000E+00  0.00000000000E+00  0.45593999997E+02  0.45594000000E+02  0.51100000000E-03 0.  1.
         11   -1    0    0    0    0 -0.00000000000E+00 -0.00000000000E+00 -0.45593999997E+02  0.45594000000E+02  0.51100000000E-03 0. -1.
    9900012    2    1    2    0    0 -0.32607029485E+00  0.19007097704E+02 -0.39015981190E+02  0.47787275661E+02  0.20000021047E+02 0.  0.
        -12    1    1    2    0    0  0.32607029485E+00 -0.19007097704E+02  0.39015981190E+02  0.43400724339E+02  0.00000000000E+00 0.  1.
         11    1    3    3    0    0  0.15985812685E+01  0.51393741558E+01 -0.78704854275E+01  0.95348397947E+01  0.51100000000E-03 0. -1.
        -11    1    3    3    0    0 -0.31786838376E+00  0.16371230273E+02 -0.16272628072E+02  0.23084987450E+02  0.51100000000E-03 0.  1.
        -12    1    3    3    0    0 -0.16067831796E+01 -0.25035067243E+01 -0.14872867690E+02  0.15167448416E+02  0.00000000000E+00 0.  1.
</event>
<event>
 7    1  0.2886681E-010  0.4778727E+02  0.7816164E-02  0.1312668E+00
        -11   -1    0    0    0    0  0.00000000000E+00  0.00000000000E+00  0.45593999997E+02  0.45594000000E+02  0.51100000000E-03 0.  1.
         11   -1    0    0    0    0 -0.00000000000E+00 -0.00000000000E+00 -0.45593999997E+02  0.45594000000E+02  0.51100000000E-03 0. -1.
    9900012    2    1    2    0    0 -0.80253311396E+01  0.18063381621E+02 -0.38638469124E+02  0.47787274295E+02  0.20000014819E+02 0.  0.
        -12    1    1    2    0    0  0.80253311396E+01 -0.18063381621E+02  0.38638469124E+02  0.43400725705E+02  0.00000000000E+00 0.  1.
         11    1    3    3    0    0 -0.11084785999E+02  0.12030442177E+02 -0.18788871690E+02  0.24912360773E+02  0.51100000000E-03 0. -1.
        -11    1    3    3    0    0 -0.30278968069E+01  0.15275860153E+01 -0.35926809800E+01  0.49405500699E+01  0.51100000000E-03 0.  1.
         12    1    3    3    0    0  0.60873516668E+01  0.45053534285E+01 -0.16256916454E+02  0.17934363452E+02  0.00000000000E+00 0. -1.
</event>
<event>
 7    1  0.2886681E-010  0.4778729E+02  0.7816164E-02  0.1312668E+00
        -11   -1    0    0    0    0  0.00000000000E+00  0.00000000000E+00  0.45593999997E+02  0.45594000000E+02  0.51100000000E-03 0.  1.
         11   -1    0    0    0    0 -0.00000000000E+00 -0.00000000000E+00 -0.45593999997E+02  0.45594000000E+02  0.51100000000E-03 0. -1.
    9900012    2    1    2    0    0 -0.16629388766E+02 -0.35579090116E+02 -0.18471966755E+02  0.47787288255E+02  0.20000078468E+02 0.  0.
        -12    1    1    2    0    0  0.16629388766E+02  0.35579090116E+02  0.18471966755E+02  0.43400711745E+02  0.00000000000E+00 0.  1.
         11    1    3    3    0    0 -0.10652547841E+02 -0.31504314387E+02 -0.14667368661E+02  0.36347356220E+02  0.51100000000E-03 0. -1.
        -11    1    3    3    0    0 -0.29910055445E+01 -0.21580025170E+01 -0.61610042069E+01  0.71806031871E+01  0.51100000000E-03 0.  1.
         12    1    3    3    0    0 -0.29858353808E+01 -0.19167732121E+01  0.23564061126E+01  0.42593288480E+01  0.00000000000E+00 0. -1.
</event>
<event>
 7    1  0.2886681E-010  0.4778733E+02  0.7816164E-02  0.1312667E+00
        -11   -1    0    0    0    0  0.00000000000E+00  0.00000000000E+00  0.45593999997E+02  0.45594000000E+02  0.51100000000E-03 0.  1.
         11   -1    0    0    0    0 -0.00000000000E+00 -0.00000000000E+00 -0.45593999997E+02  0.45594000000E+02  0.51100000000E-03 0. -1.
    9900012    2    1    2    0    0  0.22686722722E+02  0.11736829613E+02 -0.35088140933E+02  0.47787329598E+02  0.20000266966E+02 0.  0.
        -12    1    1    2    0    0 -0.22686722722E+02 -0.11736829613E+02  0.35088140933E+02  0.43400670402E+02  0.00000000000E+00 0.  1.
         11    1    3    3    0    0  0.50182940314E+01  0.18976375646E+01 -0.69860580473E+01  0.88084794723E+01  0.51100000000E-03 0. -1.
        -11    1    3    3    0    0  0.18508604889E+02  0.50838605730E+01 -0.28242861646E+02  0.34147815853E+02  0.51100000000E-03 0.  1.
        -12    1    3    3    0    0 -0.84017619831E+00  0.47553314756E+01  0.14077876067E+00  0.48310342729E+01  0.00000000000E+00 0.  1.
</event>
<event>
 7    1  0.2886681E-010  0.4778727E+02  0.7816164E-02  0.1312668E+00
        -11   -1    0    0    0    0  0.00000000000E+00  0.00000000000E+00  0.45593999997E+02  0.45594000000E+02  0.51100000000E-03 0. -1.
         11   -1    0    0    0    0 -0.00000000000E+00 -0.00000000000E+00 -0.45593999997E+02  0.45594000000E+02  0.51100000000E-03 0.  1.
    9900012    2    1    2    0    0 -0.25205690449E+02 -0.13824651342E+02  0.32514240402E+02  0.47787266773E+02  0.19999980524E+02 0.  0.
        -12    1    1    2    0    0  0.25205690449E+02  0.13824651342E+02 -0.32514240402E+02  0.43400733227E+02  0.00000000000E+00 0.  1.
         11    1    3    3    0    0 -0.17300316177E+02 -0.14148882998E+02  0.17814865807E+02  0.28580785047E+02  0.51100000000E-03 0. -1.
        -11    1    3    3    0    0 -0.53174028645E+01  0.42792243517E+01  0.51464354001E+01  0.85482355995E+01  0.51100000000E-03 0.  1.
         12    1    3    3    0    0 -0.25879714075E+01 -0.39549926954E+01  0.95529391948E+01  0.10658246126E+02  0.00000000000E+00 0. -1.
</event>
<event>
 7    1  0.2886681E-010  0.4778727E+02  0.7816164E-02  0.1312668E+00
        -11   -1    0    0    0    0  0.00000000000E+00  0.00000000000E+00  0.45593999997E+02  0.45594000000E+02  0.51100000000E-03 0. -1.
         11   -1    0    0    0    0 -0.00000000000E+00 -0.00000000000E+00 -0.45593999997E+02  0.45594000000E+02  0.51100000000E-03 0.  1.
    9900012    2    1    2    0    0  0.15766093534E+02 -0.37488870256E+02  0.15153812086E+02  0.47787272827E+02  0.20000008127E+02 0.  0.
        -12    1    1    2    0    0 -0.15766093534E+02  0.37488870256E+02 -0.15153812086E+02  0.43400727173E+02  0.00000000000E+00 0.  1.
         11    1    3    3    0    0 -0.35574509455E+00 -0.72780690053E+01  0.42844275433E+01  0.84529972586E+01  0.51100000000E-03 0.  1.
        -11    1    3    3    0    0  0.10544497091E+02 -0.26044036330E+02  0.14350856358E+02  0.31550361737E+02  0.51100000000E-03 0. -1.
        -12    1    3    3    0    0  0.55773415375E+01 -0.41667649206E+01 -0.34814718154E+01  0.77839138311E+01  0.00000000000E+00 0.  1.
</event>
<event>
 7    1  0.2886681E-010  0.4778727E+02  0.7816164E-02  0.1312668E+00
        -11   -1    0    0    0    0  0.00000000000E+00  0.00000000000E+00  0.45593999997E+02  0.45594000000E+02  0.51100000000E-03 0. -1.
         11   -1    0    0    0    0 -0.00000000000E+00 -0.00000000000E+00 -0.45593999997E+02  0.45594000000E+02  0.51100000000E-03 0.  1.
    9900012    2    1    2    0    0  0.41269884195E+02 -0.44225517266E+01  0.12683108306E+02  0.47787267960E+02  0.19999985938E+02 0.  0.
        -12    1    1    2    0    0 -0.41269884195E+02  0.44225517266E+01 -0.12683108306E+02  0.43400732040E+02  0.00000000000E+00 0.  1.
         11    1    3    3    0    0  0.25684025360E+02  0.68335950754E+01  0.77354380249E+01  0.27680393459E+02  0.51100000000E-03 0. -1.
        -11    1    3    3    0    0  0.95744693163E+01 -0.87584030572E+01  0.31322920176E+01  0.13348832921E+02  0.51100000000E-03 0.  1.
         12    1    3    3    0    0  0.60113895185E+01 -0.24977437448E+01  0.18153782638E+01  0.67580415801E+01  0.00000000000E+00 0. -1.
</event>
<event>
 7    1  0.2886681E-010  0.4778729E+02  0.7816164E-02  0.1312668E+00
        -11   -1    0    0    0    0  0.00000000000E+00  0.00000000000E+00  0.45593999997E+02  0.45594000000E+02  0.51100000000E-03 0.  1.
         11   -1    0    0    0    0 -0.00000000000E+00 -0.00000000000E+00 -0.45593999997E+02  0.45594000000E+02  0.51100000000E-03 0. -1.
    9900012    2    1    2    0    0  0.38712449261E+02 -0.23636571951E+01 -0.19477707027E+02  0.47787289474E+02  0.20000084027E+02 0.  0.
        -12    1    1    2    0    0 -0.38712449261E+02  0.23636571951E+01  0.19477707027E+02  0.43400710526E+02  0.00000000000E+00 0.  1.
         11    1    3    3    0    0  0.92984113973E+01 -0.15256646215E+01 -0.43237578930E+01  0.10367400331E+02  0.51100000000E-03 0. -1.
        -11    1    3    3    0    0  0.28392850334E+02 -0.10235487690E+01 -0.70808831701E+01  0.29280377540E+02  0.51100000000E-03 0.  1.
        -12    1    3    3    0    0  0.10211875304E+01  0.18555619536E+00 -0.80730659640E+01  0.81395116029E+01  0.00000000000E+00 0.  1.
</event>
<event>
 7    1  0.2886681E-010  0.4778727E+02  0.7816164E-02  0.1312668E+00
        -11   -1    0    0    0    0  0.00000000000E+00  0.00000000000E+00  0.45593999997E+02  0.45594000000E+02  0.51100000000E-03 0.  1.
         11   -1    0    0    0    0 -0.00000000000E+00 -0.00000000000E+00 -0.45593999997E+02  0.45594000000E+02  0.51100000000E-03 0. -1.
    9900012    2    1    2    0    0  0.25671775056E+02 -0.21298820675E+01 -0.34929168769E+02  0.47787271169E+02  0.20000000568E+02 0.  0.
        -12    1    1    2    0    0 -0.25671775056E+02  0.21298820675E+01  0.34929168769E+02  0.43400728831E+02  0.00000000000E+00 0.  1.
         11    1    3    3    0    0 -0.20686361241E+01 -0.65011058174E+00 -0.10565317480E+02  0.10785538136E+02  0.51100000000E-03 0. -1.
        -11    1    3    3    0    0  0.10816954048E+02 -0.12682045286E+01 -0.86728408700E+01  0.13922392274E+02  0.51100000000E-03 0.  1.
         12    1    3    3    0    0  0.16923457132E+02 -0.21156695714E+00 -0.15691010420E+02  0.23079340759E+02  0.00000000000E+00 0. -1.
</event>
<event>
 7    1  0.2886681E-010  0.4778728E+02  0.7816164E-02  0.1312668E+00
        -11   -1    0    0    0    0  0.00000000000E+00  0.00000000000E+00  0.45593999997E+02  0.45594000000E+02  0.51100000000E-03 0.  1.
         11   -1    0    0    0    0 -0.00000000000E+00 -0.00000000000E+00 -0.45593999997E+02  0.45594000000E+02  0.51100000000E-03 0. -1.
    9900012    2    1    2    0    0 -0.13869821210E+02  0.39554182234E+02  0.11256888735E+02  0.47787276312E+02  0.20000024018E+02 0.  0.
        -12    1    1    2    0    0  0.13869821210E+02 -0.39554182234E+02 -0.11256888735E+02  0.43400723688E+02  0.00000000000E+00 0.  1.
         11    1    3    3    0    0  0.21118941786E+01  0.87463567155E+01  0.47976084484E+01  0.10196857354E+02  0.51100000000E-03 0. -1.
        -11    1    3    3    0    0 -0.17553867225E+02  0.25092697183E+02  0.76047002236E+01  0.31553338528E+02  0.51100000000E-03 0.  1.
         12    1    3    3    0    0  0.15721518369E+01  0.57151283356E+01 -0.11454199367E+01  0.60370804303E+01  0.00000000000E+00 0. -1.
</event>
<event>
 7    1  0.2886681E-010  0.4778726E+02  0.7816164E-02  0.1312668E+00
        -11   -1    0    0    0    0  0.00000000000E+00  0.00000000000E+00  0.45593999997E+02  0.45594000000E+02  0.51100000000E-03 0. -1.
         11   -1    0    0    0    0 -0.00000000000E+00 -0.00000000000E+00 -0.45593999997E+02  0.45594000000E+02  0.51100000000E-03 0.  1.
    9900012    2    1    2    0    0  0.45608722074E+01 -0.26935980460E+02  0.33723513615E+02  0.47787263034E+02  0.19999963476E+02 0.  0.
        -12    1    1    2    0    0 -0.45608722074E+01  0.26935980460E+02 -0.33723513615E+02  0.43400736966E+02  0.00000000000E+00 0.  1.
         11    1    3    3    0    0 -0.35786123526E+01 -0.13345572928E+02  0.10538635033E+02  0.17377387945E+02  0.51100000000E-03 0. -1.
        -11    1    3    3    0    0  0.89625344657E+01 -0.11499176427E+02  0.23947686307E+02  0.28036579004E+02  0.51100000000E-03 0.  1.
         12    1    3    3    0    0 -0.82304990570E+00 -0.20912311053E+01 -0.76280772453E+00  0.23732960851E+01  0.00000000000E+00 0. -1.
</event>
<event>
 7    1  0.2886681E-010  0.4778727E+02  0.7816164E-02  0.1312668E+00
        -11   -1    0    0    0    0  0.00000000000E+00  0.00000000000E+00  0.45593999997E+02  0.45594000000E+02  0.51100000000E-03 0.  1.
         11   -1    0    0    0    0 -0.00000000000E+00 -0.00000000000E+00 -0.45593999997E+02  0.45594000000E+02  0.51100000000E-03 0. -1.
    9900012    2    1    2    0    0 -0.94259493375E+01 -0.93767856086E+01 -0.41314049880E+02  0.47787270205E+02  0.19999996174E+02 0.  0.
        -12    1    1    2    0    0  0.94259493375E+01  0.93767856086E+01  0.41314049880E+02  0.43400729795E+02  0.00000000000E+00 0.  1.
         11    1    3    3    0    0 -0.34629997940E+01 -0.45623260195E+01 -0.78854332976E+01  0.97461399966E+01  0.51100000000E-03 0. -1.
        -11    1    3    3    0    0 -0.15632444918E+01 -0.94008652526E+01 -0.10202047506E+02  0.13960722561E+02  0.51100000000E-03 0.  1.
        -12    1    3    3    0    0 -0.43997050517E+01  0.45864056635E+01 -0.23226569076E+02  0.24080407648E+02  0.00000000000E+00 0.  1.
</event>
<event>
 7    1  0.2886681E-010  0.4778727E+02  0.7816164E-02  0.1312668E+00
        -11   -1    0    0    0    0  0.00000000000E+00  0.00000000000E+00  0.45593999997E+02  0.45594000000E+02  0.51100000000E-03 0. -1.
         11   -1    0    0    0    0 -0.00000000000E+00 -0.00000000000E+00 -0.45593999997E+02  0.45594000000E+02  0.51100000000E-03 0.  1.
    9900012    2    1    2    0    0  0.19815619928E+02  0.25292366547E+02  0.29176373597E+02  0.47787269880E+02  0.19999994691E+02 0.  0.
        -12    1    1    2    0    0 -0.19815619928E+02 -0.25292366547E+02 -0.29176373597E+02  0.43400730120E+02  0.00000000000E+00 0.  1.
         11    1    3    3    0    0  0.62850730105E+01  0.20806756068E+00  0.97419027410E+01  0.11595262142E+02  0.51100000000E-03 0. -1.
        -11    1    3    3    0    0  0.11827684672E+02  0.13660080161E+02  0.74417145567E+01  0.19541520681E+02  0.51100000000E-03 0.  1.
         12    1    3    3    0    0  0.17028622446E+01  0.11424218826E+02  0.11992756299E+02  0.16650487058E+02  0.00000000000E+00 0. -1.
</event>
<event>
 7    1  0.2886681E-010  0.4778727E+02  0.7816164E-02  0.1312668E+00
        -11   -1    0    0    0    0  0.00000000000E+00  0.00000000000E+00  0.45593999997E+02  0.45594000000E+02  0.51100000000E-03 0.  1.
         11   -1    0    0    0    0 -0.00000000000E+00 -0.00000000000E+00 -0.45593999997E+02  0.45594000000E+02  0.51100000000E-03 0. -1.
    9900012    2    1    2    0    0  0.32625073261E+02 -0.26341904714E+02  0.11195184960E+02  0.47787268260E+02  0.19999987304E+02 0.  0.
        -12    1    1    2    0    0 -0.32625073261E+02  0.26341904714E+02 -0.11195184960E+02  0.43400731740E+02  0.00000000000E+00 0.  1.
         11    1    3    3    0    0  0.35677842639E+01 -0.47518825474E+00 -0.34095981918E+01  0.49578471661E+01  0.51100000000E-03 0. -1.
        -11    1    3    3    0    0  0.13864083508E+02 -0.11877456900E+02  0.12378585960E+02  0.22057111882E+02  0.51100000000E-03 0.  1.
         12    1    3    3    0    0  0.15193205490E+02 -0.13989259560E+02  0.22261971918E+01  0.20772309212E+02  0.00000000000E+00 0. -1.
</event>
<event>
 7    1  0.2886681E-010  0.4778727E+02  0.7816164E-02  0.1312668E+00
        -11   -1    0    0    0    0  0.00000000000E+00  0.00000000000E+00  0.45593999997E+02  0.45594000000E+02  0.51100000000E-03 0. -1.
         11   -1    0    0    0    0 -0.00000000000E+00 -0.00000000000E+00 -0.45593999997E+02  0.45594000000E+02  0.51100000000E-03 0.  1.
    9900012    2    1    2    0    0 -0.28210945135E+00  0.30474598543E+02  0.30900526514E+02  0.47787270963E+02  0.19999999628E+02 0.  0.
        -12    1    1    2    0    0  0.28210945135E+00 -0.30474598543E+02 -0.30900526514E+02  0.43400729037E+02  0.00000000000E+00 0.  1.
         11    1    3    3    0    0  0.61643715807E+01  0.13198203997E+02  0.15374491892E+02  0.21179401950E+02  0.51100000000E-03 0. -1.
        -11    1    3    3    0    0 -0.55091569589E+01  0.58004311197E+01  0.12260592155E+02  0.14639601492E+02  0.51100000000E-03 0.  1.
        -12    1    3    3    0    0 -0.93732407316E+00  0.11475963426E+02  0.32654424667E+01  0.11968267522E+02  0.00000000000E+00 0.  1.
</event>
<event>
 7    1  0.2886681E-010  0.4778728E+02  0.7816164E-02  0.1312668E+00
        -11   -1    0    0    0    0  0.00000000000E+00  0.00000000000E+00  0.45593999997E+02  0.45594000000E+02  0.51100000000E-03 0. -1.
         11   -1    0    0    0    0 -0.00000000000E+00 -0.00000000000E+00 -0.45593999997E+02  0.45594000000E+02  0.51100000000E-03 0.  1.
    9900012    2    1    2    0    0 -0.10597321281E+02  0.16348102395E+01  0.42055284178E+02  0.47787277078E+02  0.20000027508E+02 0.  0.
        -12    1    1    2    0    0  0.10597321281E+02 -0.16348102395E+01 -0.42055284178E+02  0.43400722922E+02  0.00000000000E+00 0.  1.
         11    1    3    3    0    0 -0.10885046889E+02 -0.23689324227E+01  0.16138995040E+02  0.19610284234E+02  0.51100000000E-03 0. -1.
        -11    1    3    3    0    0  0.21805730131E+00  0.64024047547E+01  0.24639764834E+02  0.25458914882E+02  0.51100000000E-03 0.  1.
        -12    1    3    3    0    0  0.69668305988E-01 -0.23986620924E+01  0.12765243046E+01  0.27180779618E+01  0.00000000000E+00 0.  1.
</event>
<event>
 7    1  0.2886681E-010  0.4778727E+02  0.7816164E-02  0.1312668E+00
        -11   -1    0    0    0    0  0.00000000000E+00  0.00000000000E+00  0.45593999997E+02  0.45594000000E+02  0.51100000000E-03 0.  1.
         11   -1    0    0    0    0 -0.00000000000E+00 -0.00000000000E+00 -0.45593999997E+02  0.45594000000E+02  0.51100000000E-03 0. -1.
    9900012    2    1    2    0    0  0.14089714708E+02 -0.30362528797E+02 -0.27626443373E+02  0.47787267415E+02  0.19999983452E+02 0.  0.
        -12    1    1    2    0    0 -0.14089714708E+02  0.30362528797E+02  0.27626443373E+02  0.43400732585E+02  0.00000000000E+00 0.  1.
         11    1    3    3    0    0 -0.41472840262E+01 -0.97658714162E+01 -0.94208161115E+01  0.14188868376E+02  0.51100000000E-03 0. -1.
        -11    1    3    3    0    0  0.15008645985E+02 -0.19809087233E+02 -0.16751187254E+02  0.29971013763E+02  0.51100000000E-03 0.  1.
        -12    1    3    3    0    0  0.32283527488E+01 -0.78757014727E+00 -0.14544400078E+01  0.36273852765E+01  0.00000000000E+00 0.  1.
</event>
<event>
 7    1  0.2886681E-010  0.4778733E+02  0.7816164E-02  0.1312667E+00
        -11   -1    0    0    0    0  0.00000000000E+00  0.00000000000E+00  0.45593999997E+02  0.45594000000E+02  0.51100000000E-03 0. -1.
         11   -1    0    0    0    0 -0.00000000000E+00 -0.00000000000E+00 -0.45593999997E+02  0.45594000000E+02  0.51100000000E-03 0.  1.
    9900012    2    1    2    0    0 -0.31200383295E+02 -0.24229864703E+02  0.17974088451E+02  0.47787330455E+02  0.20000270876E+02 0.  0.
        -12    1    1    2    0    0  0.31200383295E+02  0.24229864703E+02 -0.17974088451E+02  0.43400669545E+02  0.00000000000E+00 0.  1.
         11    1    3    3    0    0 -0.17903899637E+02 -0.14294415133E+02  0.17078370200E+02  0.28575350482E+02  0.51100000000E-03 0. -1.
        -11    1    3    3    0    0 -0.33012272779E+01 -0.73162195128E+01  0.31735602602E+01  0.86311444482E+01  0.51100000000E-03 0.  1.
         12    1    3    3    0    0 -0.99952563805E+01 -0.26192300571E+01 -0.22778420089E+01  0.10580835526E+02  0.00000000000E+00 0. -1.
</event>
<event>
 7    1  0.2886681E-010  0.4778728E+02  0.7816164E-02  0.1312668E+00
        -11   -1    0    0    0    0  0.00000000000E+00  0.00000000000E+00  0.45593999997E+02  0.45594000000E+02  0.51100000000E-03 0.  1.
         11   -1    0    0    0    0 -0.00000000000E+00 -0.00000000000E+00 -0.45593999997E+02  0.45594000000E+02  0.51100000000E-03 0. -1.
    9900012    2    1    2    0    0 -0.68328424438E+01 -0.25584907048E+02 -0.34385275660E+02  0.47787281265E+02  0.20000046597E+02 0.  0.
        -12    1    1    2    0    0  0.68328424438E+01  0.25584907048E+02  0.34385275660E+02  0.43400718735E+02  0.00000000000E+00 0.  1.
         11    1    3    3    0    0 -0.88750233081E+01 -0.20324407593E+02 -0.19415932663E+02  0.29475854935E+02  0.51100000000E-03 0. -1.
        -11    1    3    3    0    0  0.40748337654E+01 -0.65162996131E+01 -0.87338979290E+01  0.11633890328E+02  0.51100000000E-03 0.  1.
        -12    1    3    3    0    0 -0.20326529012E+01  0.12558001579E+01 -0.62354450681E+01  0.66775360015E+01  0.00000000000E+00 0.  1.
</event>
<event>
 7    1  0.2886681E-010  0.4778728E+02  0.7816164E-02  0.1312668E+00
        -11   -1    0    0    0    0  0.00000000000E+00  0.00000000000E+00  0.45593999997E+02  0.45594000000E+02  0.51100000000E-03 0.  1.
         11   -1    0    0    0    0 -0.00000000000E+00 -0.00000000000E+00 -0.45593999997E+02  0.45594000000E+02  0.51100000000E-03 0. -1.
    9900012    2    1    2    0    0  0.42635687611E+00 -0.60860156619E+01 -0.42969771521E+02  0.47787278447E+02  0.20000033750E+02 0.  0.
        -12    1    1    2    0    0 -0.42635687611E+00  0.60860156619E+01  0.42969771521E+02  0.43400721553E+02  0.00000000000E+00 0.  1.
         11    1    3    3    0    0  0.53018357104E+01  0.66370939799E+00 -0.49784390500E+01  0.73030697451E+01  0.51100000000E-03 0. -1.
        -11    1    3    3    0    0 -0.65629990485E+01 -0.46995351571E+01 -0.12662543916E+02  0.15016610999E+02  0.51100000000E-03 0.  1.
         12    1    3    3    0    0  0.16875202142E+01 -0.20501899028E+01 -0.25328788554E+02  0.25467597702E+02  0.00000000000E+00 0. -1.
</event>
<event>
 7    1  0.2886681E-010  0.4778726E+02  0.7816164E-02  0.1312668E+00
        -11   -1    0    0    0    0  0.00000000000E+00  0.00000000000E+00  0.45593999997E+02  0.45594000000E+02  0.51100000000E-03 0. -1.
         11   -1    0    0    0    0 -0.00000000000E+00 -0.00000000000E+00 -0.45593999997E+02  0.45594000000E+02  0.51100000000E-03 0.  1.
    9900012    2    1    2    0    0  0.28036301318E+02  0.24305310126E+01  0.33040615624E+02  0.47787263216E+02  0.19999964306E+02 0.  0.
        -12    1    1    2    0    0 -0.28036301318E+02 -0.24305310126E+01 -0.33040615624E+02  0.43400736784E+02  0.00000000000E+00 0.  1.
         11    1    3    3    0    0  0.24838467059E+02 -0.47916452657E+01  0.29222538167E+02  0.38650563351E+02  0.51100000000E-03 0. -1.
        -11    1    3    3    0    0  0.90075747906E+00  0.26104794582E+01  0.64538623928E-01  0.27622694534E+01  0.51100000000E-03 0.  1.
         12    1    3    3    0    0  0.22970767793E+01  0.46116968201E+01  0.37535388337E+01  0.63744304112E+01  0.00000000000E+00 0. -1.
</event>
<event>
 7    1  0.2886681E-010  0.4778727E+02  0.7816164E-02  0.1312668E+00
        -11   -1    0    0    0    0  0.00000000000E+00  0.00000000000E+00  0.45593999997E+02  0.45594000000E+02  0.51100000000E-03 0.  1.
         11   -1    0    0    0    0 -0.00000000000E+00 -0.00000000000E+00 -0.45593999997E+02  0.45594000000E+02  0.51100000000E-03 0. -1.
    9900012    2    1    2    0    0  0.37708256291E+02  0.20622002946E+01 -0.21388268070E+02  0.47787271047E+02  0.20000000012E+02 0.  0.
        -12    1    1    2    0    0 -0.37708256291E+02 -0.20622002946E+01  0.21388268070E+02  0.43400728953E+02  0.00000000000E+00 0.  1.
         11    1    3    3    0    0  0.14037519071E+02 -0.14503793507E+01  0.41673181458E+00  0.14118399611E+02  0.51100000000E-03 0. -1.
        -11    1    3    3    0    0  0.15495490475E+02 -0.60957184714E+00 -0.17987049206E+02  0.23749015607E+02  0.51100000000E-03 0.  1.
        -12    1    3    3    0    0  0.81752467457E+01  0.41221514924E+01 -0.38179506789E+01  0.99198558289E+01  0.00000000000E+00 0.  1.
</event>
<event>
 7    1  0.2886681E-010  0.4778727E+02  0.7816164E-02  0.1312668E+00
        -11   -1    0    0    0    0  0.00000000000E+00  0.00000000000E+00  0.45593999997E+02  0.45594000000E+02  0.51100000000E-03 0. -1.
         11   -1    0    0    0    0 -0.00000000000E+00 -0.00000000000E+00 -0.45593999997E+02  0.45594000000E+02  0.51100000000E-03 0.  1.
    9900012    2    1    2    0    0  0.23366732029E+02 -0.26860031055E+02  0.24822526813E+02  0.47787271073E+02  0.20000000130E+02 0.  0.
        -12    1    1    2    0    0 -0.23366732029E+02  0.26860031055E+02 -0.24822526813E+02  0.43400728927E+02  0.00000000000E+00 0.  1.
         11    1    3    3    0    0  0.15942100711E+02 -0.83397134162E+01  0.14111313956E+02  0.22865488772E+02  0.51100000000E-03 0. -1.
        -11    1    3    3    0    0 -0.24519724431E+01 -0.47699428264E+01  0.11734362464E+01  0.54901253459E+01  0.51100000000E-03 0.  1.
        -12    1    3    3    0    0  0.98766037610E+01 -0.13750374812E+02  0.95377766114E+01  0.19431656955E+02  0.00000000000E+00 0.  1.
</event>
<event>
 7    1  0.2886681E-010  0.4778726E+02  0.7816164E-02  0.1312668E+00
        -11   -1    0    0    0    0  0.00000000000E+00  0.00000000000E+00  0.45593999997E+02  0.45594000000E+02  0.51100000000E-03 0.  1.
         11   -1    0    0    0    0 -0.00000000000E+00 -0.00000000000E+00 -0.45593999997E+02  0.45594000000E+02  0.51100000000E-03 0. -1.
    9900012    2    1    2    0    0  0.15949981225E+02  0.24416425333E+02 -0.32141253634E+02  0.47787263690E+02  0.19999966466E+02 0.  0.
        -12    1    1    2    0    0 -0.15949981225E+02 -0.24416425333E+02  0.32141253634E+02  0.43400736310E+02  0.00000000000E+00 0.  1.
         11    1    3    3    0    0  0.30507050020E+01  0.12267698999E+02 -0.95411573745E+01  0.15837832050E+02  0.51100000000E-03 0. -1.
        -11    1    3    3    0    0 -0.11649985916E+01  0.24933789752E-01 -0.86408006396E+01  0.87190182571E+01  0.51100000000E-03 0.  1.
        -12    1    3    3    0    0  0.14064274814E+02  0.12123792544E+02 -0.13959295620E+02  0.23230413382E+02  0.00000000000E+00 0.  1.
</event>
<event>
 7    1  0.2886681E-010  0.4778727E+02  0.7816164E-02  0.1312668E+00
        -11   -1    0    0    0    0  0.00000000000E+00  0.00000000000E+00  0.45593999997E+02  0.45594000000E+02  0.51100000000E-03 0.  1.
         11   -1    0    0    0    0 -0.00000000000E+00 -0.00000000000E+00 -0.45593999997E+02  0.45594000000E+02  0.51100000000E-03 0. -1.
    9900012    2    1    2    0    0 -0.80942677771E+01 -0.13076555762E+01 -0.42619198334E+02  0.47787271889E+02  0.20000003849E+02 0.  0.
        -12    1    1    2    0    0  0.80942677771E+01  0.13076555762E+01  0.42619198334E+02  0.43400728111E+02  0.00000000000E+00 0.  1.
         11    1    3    3    0    0 -0.35102079310E+01 -0.84182382623E+01 -0.20122436060E+02  0.22093001797E+02  0.51100000000E-03 0. -1.
        -11    1    3    3    0    0 -0.71469291173E+01  0.65164357934E+01 -0.16161238083E+02  0.18834228094E+02  0.51100000000E-03 0.  1.
         12    1    3    3    0    0  0.25628692712E+01  0.59414689275E+00 -0.63355241907E+01  0.68600419972E+01  0.00000000000E+00 0. -1.
</event>
<event>
 7    1  0.2886681E-010  0.4778727E+02  0.7816164E-02  0.1312668E+00
        -11   -1    0    0    0    0  0.00000000000E+00  0.00000000000E+00  0.45593999997E+02  0.45594000000E+02  0.51100000000E-03 0. -1.
         11   -1    0    0    0    0 -0.00000000000E+00 -0.00000000000E+00 -0.45593999997E+02  0.45594000000E+02  0.51100000000E-03 0.  1.
    9900012    2    1    2    0    0  0.33909596022E+02  0.13245426418E+02  0.23628820622E+02  0.47787272042E+02  0.20000004547E+02 0.  0.
        -12    1    1    2    0    0 -0.33909596022E+02 -0.13245426418E+02 -0.23628820622E+02  0.43400727958E+02  0.00000000000E+00 0.  1.
         11    1    3    3    0    0  0.15809041217E+02  0.53713541349E+01  0.19208472899E+02  0.25450789002E+02  0.51100000000E-03 0. -1.
        -11    1    3    3    0    0  0.39420231485E+01 -0.16201267539E+00 -0.24738121922E+01  0.46567737366E+01  0.51100000000E-03 0.  1.
        -12    1    3    3    0    0  0.14158531656E+02  0.80360849583E+01  0.68941599150E+01  0.17679709304E+02  0.00000000000E+00 0.  1.
</event>
<event>
 7    1  0.2886681E-010  0.4778727E+02  0.7816164E-02  0.1312668E+00
        -11   -1    0    0    0    0  0.00000000000E+00  0.00000000000E+00  0.45593999997E+02  0.45594000000E+02  0.51100000000E-03 0. -1.
         11   -1    0    0    0    0 -0.00000000000E+00 -0.00000000000E+00 -0.45593999997E+02  0.45594000000E+02  0.51100000000E-03 0.  1.
    9900012    2    1    2    0    0 -0.21057268793E+02  0.26703461168E+02  0.26965527143E+02  0.47787273492E+02  0.20000011158E+02 0.  0.
        -12    1    1    2    0    0  0.21057268793E+02 -0.26703461168E+02 -0.26965527143E+02  0.43400726508E+02  0.00000000000E+00 0.  1.
         11    1    3    3    0    0 -0.18810727176E+02  0.11966754357E+02  0.11846677640E+02  0.25246592604E+02  0.51100000000E-03 0. -1.
        -11    1    3    3    0    0 -0.53768351485E+00  0.28604245346E+01 -0.38535458403E+00  0.29359207238E+01  0.51100000000E-03 0.  1.
         12    1    3    3    0    0 -0.17088581013E+01  0.11876282276E+02  0.15504204087E+02  0.19604760164E+02  0.00000000000E+00 0. -1.
</event>
<event>
 7    1  0.2886681E-010  0.4778727E+02  0.7816164E-02  0.1312668E+00
        -11   -1    0    0    0    0  0.00000000000E+00  0.00000000000E+00  0.45593999997E+02  0.45594000000E+02  0.51100000000E-03 0. -1.
         11   -1    0    0    0    0 -0.00000000000E+00 -0.00000000000E+00 -0.45593999997E+02  0.45594000000E+02  0.51100000000E-03 0.  1.
    9900012    2    1    2    0    0 -0.27423361756E+02  0.21540547487E+02  0.25837711810E+02  0.47787270656E+02  0.19999998228E+02 0.  0.
        -12    1    1    2    0    0  0.27423361756E+02 -0.21540547487E+02 -0.25837711810E+02  0.43400729344E+02  0.00000000000E+00 0.  1.
         11    1    3    3    0    0 -0.20239607092E+02  0.65970323402E+01  0.12177547351E+02  0.24524583394E+02  0.51100000000E-03 0. -1.
        -11    1    3    3    0    0 -0.57943916542E+01  0.15911836399E+02  0.13296901768E+02  0.21530655101E+02  0.51100000000E-03 0.  1.
        -12    1    3    3    0    0 -0.13893630098E+01 -0.96832125171E+00  0.36326269153E+00  0.17320321598E+01  0.00000000000E+00 0.  1.
</event>
<event>
 7    1  0.2886681E-010  0.4778728E+02  0.7816164E-02  0.1312668E+00
        -11   -1    0    0    0    0  0.00000000000E+00  0.00000000000E+00  0.45593999997E+02  0.45594000000E+02  0.51100000000E-03 0. -1.
         11   -1    0    0    0    0 -0.00000000000E+00 -0.00000000000E+00 -0.45593999997E+02  0.45594000000E+02  0.51100000000E-03 0.  1.
    9900012    2    1    2    0    0 -0.32629192828E+02  0.19325923761E+02  0.21106097914E+02  0.47787275087E+02  0.20000018432E+02 0.  0.
        -12    1    1    2    0    0  0.32629192828E+02 -0.19325923761E+02 -0.21106097914E+02  0.43400724913E+02  0.00000000000E+00 0.  1.
         11    1    3    3    0    0 -0.80973868554E+01  0.24446132014E+01  0.10689580332E+02  0.13631248495E+02  0.51100000000E-03 0.  1.
        -11    1    3    3    0    0 -0.24433695773E+02  0.17603770984E+02  0.11996241495E+02  0.32416169611E+02  0.51100000000E-03 0. -1.
        -12    1    3    3    0    0 -0.98110199494E-01 -0.72246042439E+00 -0.15797239127E+01  0.17398569816E+01  0.00000000000E+00 0.  1.
</event>
<event>
 7    1  0.2886681E-010  0.4778727E+02  0.7816164E-02  0.1312668E+00
        -11   -1    0    0    0    0  0.00000000000E+00  0.00000000000E+00  0.45593999997E+02  0.45594000000E+02  0.51100000000E-03 0. -1.
         11   -1    0    0    0    0 -0.00000000000E+00 -0.00000000000E+00 -0.45593999997E+02  0.45594000000E+02  0.51100000000E-03 0.  1.
    9900012    2    1    2    0    0  0.39610231234E+02 -0.53039251452E+01  0.16926950340E+02  0.47787266272E+02  0.19999978239E+02 0.  0.
        -12    1    1    2    0    0 -0.39610231234E+02  0.53039251452E+01 -0.16926950340E+02  0.43400733728E+02  0.00000000000E+00 0.  1.
         11    1    3    3    0    0  0.20274646743E+02 -0.74901993219E+01  0.15763293179E+02  0.26751556937E+02  0.51100000000E-03 0. -1.
        -11    1    3    3    0    0  0.15833362741E+02 -0.13039221061E+01  0.20295267120E+01  0.16016072161E+02  0.51100000000E-03 0.  1.
         12    1    3    3    0    0  0.35022217499E+01  0.34901962828E+01 -0.86586955061E+00  0.50196371738E+01  0.00000000000E+00 0. -1.
</event>
<event>
 7    1  0.2886681E-010  0.4778727E+02  0.7816164E-02  0.1312668E+00
        -11   -1    0    0    0    0  0.00000000000E+00  0.00000000000E+00  0.45593999997E+02  0.45594000000E+02  0.51100000000E-03 0.  1.
         11   -1    0    0    0    0 -0.00000000000E+00 -0.00000000000E+00 -0.45593999997E+02  0.45594000000E+02  0.51100000000E-03 0. -1.
    9900012    2    1    2    0    0  0.72180030069E+01 -0.34507898420E+02 -0.25312613202E+02  0.47787274109E+02  0.20000013973E+02 0.  0.
        -12    1    1    2    0    0 -0.72180030069E+01  0.34507898420E+02  0.25312613202E+02  0.43400725891E+02  0.00000000000E+00 0.  1.
         11    1    3    3    0    0  0.10811809444E+02 -0.13828117213E+02 -0.57892842262E+01  0.18483177790E+02  0.51100000000E-03 0. -1.
        -11    1    3    3    0    0 -0.20373761095E+01 -0.75520722845E+01 -0.11273707659E+02  0.13721559016E+02  0.51100000000E-03 0.  1.
         12    1    3    3    0    0 -0.15564303279E+01 -0.13127708922E+02 -0.82496213168E+01  0.15582537303E+02  0.00000000000E+00 0. -1.
</event>
<event>
 7    1  0.2886681E-010  0.4778729E+02  0.7816164E-02  0.1312668E+00
        -11   -1    0    0    0    0  0.00000000000E+00  0.00000000000E+00  0.45593999997E+02  0.45594000000E+02  0.51100000000E-03 0.  1.
         11   -1    0    0    0    0 -0.00000000000E+00 -0.00000000000E+00 -0.45593999997E+02  0.45594000000E+02  0.51100000000E-03 0. -1.
    9900012    2    1    2    0    0 -0.30468698833E+02  0.12328046092E+02 -0.28342530400E+02  0.47787293111E+02  0.20000100609E+02 0.  0.
        -12    1    1    2    0    0  0.30468698833E+02 -0.12328046092E+02  0.28342530400E+02  0.43400706889E+02  0.00000000000E+00 0.  1.
         11    1    3    3    0    0 -0.30449051704E+01  0.16530890410E+01 -0.40881523828E+01  0.53588376575E+01  0.51100000000E-03 0. -1.
        -11    1    3    3    0    0 -0.21034519784E+02  0.13470166525E+02 -0.25091407994E+02  0.35404451191E+02  0.51100000000E-03 0.  1.
        -12    1    3    3    0    0 -0.63892738785E+01 -0.27952094736E+01  0.83702997683E+00  0.70240042624E+01  0.00000000000E+00 0.  1.
</event>
<event>
 7    1  0.2886681E-010  0.4778727E+02  0.7816164E-02  0.1312668E+00
        -11   -1    0    0    0    0  0.00000000000E+00  0.00000000000E+00  0.45593999997E+02  0.45594000000E+02  0.51100000000E-03 0.  1.
         11   -1    0    0    0    0 -0.00000000000E+00 -0.00000000000E+00 -0.45593999997E+02  0.45594000000E+02  0.51100000000E-03 0. -1.
    9900012    2    1    2    0    0  0.39834837461E+02  0.11854758101E+02 -0.12500941527E+02  0.47787272999E+02  0.20000008910E+02 0.  0.
        -12    1    1    2    0    0 -0.39834837461E+02 -0.11854758101E+02  0.12500941527E+02  0.43400727001E+02  0.00000000000E+00 0.  1.
         11    1    3    3    0    0  0.25569352349E+02  0.55525784077E+01 -0.51581782650E+01  0.26668890300E+02  0.51100000000E-03 0. -1.
        -11    1    3    3    0    0  0.13394870732E+01  0.19651798253E+01 -0.70938752548E+01  0.74819264736E+01  0.51100000000E-03 0.  1.
        -12    1    3    3    0    0  0.12925998038E+02  0.43369998679E+01 -0.24888800712E+00  0.13636456225E+02  0.00000000000E+00 0.  1.
</event>
<event>
 7    1  0.2886681E-010  0.4778727E+02  0.7816164E-02  0.1312668E+00
        -11   -1    0    0    0    0  0.00000000000E+00  0.00000000000E+00  0.45593999997E+02  0.45594000000E+02  0.51100000000E-03 0. -1.
         11   -1    0    0    0    0 -0.00000000000E+00 -0.00000000000E+00 -0.45593999997E+02  0.45594000000E+02  0.51100000000E-03 0.  1.
    9900012    2    1    2    0    0 -0.23609140192E+02  0.19648678824E+02  0.30662051509E+02  0.47787268636E+02  0.19999989019E+02 0.  0.
        -12    1    1    2    0    0  0.23609140192E+02 -0.19648678824E+02 -0.30662051509E+02  0.43400731364E+02  0.00000000000E+00 0.  1.
         11    1    3    3    0    0 -0.13857217127E+01  0.71176669865E+01  0.12674150992E+02  0.14601900959E+02  0.51100000000E-03 0.  1.
        -11    1    3    3    0    0 -0.15273638571E+02  0.13616575208E+02  0.10836402321E+02  0.23154325105E+02  0.51100000000E-03 0. -1.
         12    1    3    3    0    0 -0.69497799091E+01 -0.10855633697E+01  0.71514981964E+01  0.10031042571E+02  0.00000000000E+00 0. -1.
</event>
<event>
 7    1  0.2886681E-010  0.4778727E+02  0.7816164E-02  0.1312668E+00
        -11   -1    0    0    0    0  0.00000000000E+00  0.00000000000E+00  0.45593999997E+02  0.45594000000E+02  0.51100000000E-03 0. -1.
         11   -1    0    0    0    0 -0.00000000000E+00 -0.00000000000E+00 -0.45593999997E+02  0.45594000000E+02  0.51100000000E-03 0.  1.
    9900012    2    1    2    0    0  0.84466133946E+01  0.32792472599E+02  0.27146488903E+02  0.47787269629E+02  0.19999993544E+02 0.  0.
        -12    1    1    2    0    0 -0.84466133946E+01 -0.32792472599E+02 -0.27146488903E+02  0.43400730371E+02  0.00000000000E+00 0.  1.
         11    1    3    3    0    0  0.23382149869E+00  0.28278969896E+02  0.18795709867E+02  0.33956347279E+02  0.51100000000E-03 0. -1.
        -11    1    3    3    0    0  0.39459402030E+01 -0.93492415253E+00  0.24610517647E+01  0.47435538688E+01  0.51100000000E-03 0.  1.
         12    1    3    3    0    0  0.42668516929E+01  0.54484268559E+01  0.58897272715E+01  0.90873684808E+01  0.00000000000E+00 0. -1.
</event>
<event>
 7    1  0.2886681E-010  0.4778727E+02  0.7816164E-02  0.1312668E+00
        -11   -1    0    0    0    0  0.00000000000E+00  0.00000000000E+00  0.45593999997E+02  0.45594000000E+02  0.51100000000E-03 0. -1.
         11   -1    0    0    0    0 -0.00000000000E+00 -0.00000000000E+00 -0.45593999997E+02  0.45594000000E+02  0.51100000000E-03 0.  1.
    9900012    2    1    2    0    0  0.24060241643E+01  0.42108790046E+02  0.10231535540E+02  0.47787268774E+02  0.19999989649E+02 0.  0.
        -12    1    1    2    0    0 -0.24060241643E+01 -0.42108790046E+02 -0.10231535540E+02  0.43400731226E+02  0.00000000000E+00 0.  1.
         11    1    3    3    0    0  0.61222345668E+01  0.27632325341E+02  0.12902681470E+02  0.31104764092E+02  0.51100000000E-03 0. -1.
        -11    1    3    3    0    0 -0.51372067409E+01  0.14085702871E+02 -0.24588645462E+01  0.15193549078E+02  0.51100000000E-03 0.  1.
         12    1    3    3    0    0  0.14209963383E+01  0.39076183359E+00 -0.21228138366E+00  0.14889556038E+01  0.00000000000E+00 0. -1.
</event>
<event>
 7    1  0.2886681E-010  0.4778727E+02  0.7816164E-02  0.1312668E+00
        -11   -1    0    0    0    0  0.00000000000E+00  0.00000000000E+00  0.45593999997E+02  0.45594000000E+02  0.51100000000E-03 0.  1.
         11   -1    0    0    0    0 -0.00000000000E+00 -0.00000000000E+00 -0.45593999997E+02  0.45594000000E+02  0.51100000000E-03 0. -1.
    9900012    2    1    2    0    0 -0.20198067014E+01 -0.11655079338E+02 -0.41757665360E+02  0.47787272935E+02  0.20000008619E+02 0.  0.
        -12    1    1    2    0    0  0.20198067014E+01  0.11655079338E+02  0.41757665360E+02  0.43400727065E+02  0.00000000000E+00 0.  1.
         11    1    3    3    0    0 -0.69740864383E+01 -0.37983351609E+01 -0.11103434299E+02  0.13651061685E+02  0.51100000000E-03 0.  1.
        -11    1    3    3    0    0  0.87098253213E+01 -0.38331782644E+01 -0.19391064829E+02  0.21600178430E+02  0.51100000000E-03 0. -1.
         12    1    3    3    0    0 -0.37555455844E+01 -0.40235659130E+01 -0.11263166232E+02  0.12536032820E+02  0.00000000000E+00 0. -1.
</event>
<event>
 7    1  0.2886681E-010  0.4778727E+02  0.7816164E-02  0.1312668E+00
        -11   -1    0    0    0    0  0.00000000000E+00  0.00000000000E+00  0.45593999997E+02  0.45594000000E+02  0.51100000000E-03 0.  1.
         11   -1    0    0    0    0 -0.00000000000E+00 -0.00000000000E+00 -0.45593999997E+02  0.45594000000E+02  0.51100000000E-03 0. -1.
    9900012    2    1    2    0    0 -0.24168106680E+02  0.11935526003E+01 -0.36029178104E+02  0.47787267021E+02  0.19999981654E+02 0.  0.
        -12    1    1    2    0    0  0.24168106680E+02 -0.11935526003E+01  0.36029178104E+02  0.43400732979E+02  0.00000000000E+00 0.  1.
         11    1    3    3    0    0 -0.19283030557E+02 -0.78242409274E+01 -0.23246899287E+02  0.31200518270E+02  0.51100000000E-03 0. -1.
        -11    1    3    3    0    0 -0.31390527707E+01  0.36943991076E+01 -0.46967931259E+01  0.67499705919E+01  0.51100000000E-03 0.  1.
         12    1    3    3    0    0 -0.17460233519E+01  0.53233944200E+01 -0.80854856909E+01  0.98367781593E+01  0.00000000000E+00 0. -1.
</event>
<event>
 7    1  0.2886681E-010  0.4778727E+02  0.7816164E-02  0.1312668E+00
        -11   -1    0    0    0    0  0.00000000000E+00  0.00000000000E+00  0.45593999997E+02  0.45594000000E+02  0.51100000000E-03 0.  1.
         11   -1    0    0    0    0 -0.00000000000E+00 -0.00000000000E+00 -0.45593999997E+02  0.45594000000E+02  0.51100000000E-03 0. -1.
    9900012    2    1    2    0    0  0.12246425746E+02 -0.32673842572E+02 -0.25808295302E+02  0.47787273757E+02  0.20000012369E+02 0.  0.
        -12    1    1    2    0    0 -0.12246425746E+02  0.32673842572E+02  0.25808295302E+02  0.43400726243E+02  0.00000000000E+00 0.  1.
         11    1    3    3    0    0  0.88508096977E+01 -0.23228122409E+02 -0.78684159016E+01  0.26072868504E+02  0.51100000000E-03 0.  1.
        -11    1    3    3    0    0 -0.88430216877E+00 -0.59359994157E+01 -0.12904059799E+02  0.14231403267E+02  0.51100000000E-03 0. -1.
         12    1    3    3    0    0  0.42799182170E+01 -0.35097207472E+01 -0.50358196011E+01  0.74830019861E+01  0.00000000000E+00 0. -1.
</event>
<event>
 7    1  0.2886681E-010  0.4778727E+02  0.7816164E-02  0.1312668E+00
        -11   -1    0    0    0    0  0.00000000000E+00  0.00000000000E+00  0.45593999997E+02  0.45594000000E+02  0.51100000000E-03 0.  1.
         11   -1    0    0    0    0 -0.00000000000E+00 -0.00000000000E+00 -0.45593999997E+02  0.45594000000E+02  0.51100000000E-03 0. -1.
    9900012    2    1    2    0    0  0.22207815907E+02 -0.15632971481E+02 -0.33853306799E+02  0.47787271136E+02  0.20000000416E+02 0.  0.
        -12    1    1    2    0    0 -0.22207815907E+02  0.15632971481E+02  0.33853306799E+02  0.43400728864E+02  0.00000000000E+00 0.  1.
         11    1    3    3    0    0  0.11912628211E+02  0.41907932752E+00 -0.19441458990E+02  0.22804750959E+02  0.51100000000E-03 0. -1.
        -11    1    3    3    0    0  0.36036686741E+01 -0.11339227907E+02 -0.10675936874E+02  0.15985623099E+02  0.51100000000E-03 0.  1.
        -12    1    3    3    0    0  0.66915190219E+01 -0.47128229011E+01 -0.37359109352E+01  0.89968970780E+01  0.00000000000E+00 0.  1.
</event>
<event>
 7    1  0.2886681E-010  0.4778729E+02  0.7816164E-02  0.1312668E+00
        -11   -1    0    0    0    0  0.00000000000E+00  0.00000000000E+00  0.45593999997E+02  0.45594000000E+02  0.51100000000E-03 0. -1.
         11   -1    0    0    0    0 -0.00000000000E+00 -0.00000000000E+00 -0.45593999997E+02  0.45594000000E+02  0.51100000000E-03 0.  1.
    9900012    2    1    2    0    0 -0.22552422709E+02  0.27635384167E+02  0.24724395086E+02  0.47787286406E+02  0.20000070041E+02 0.  0.
        -12    1    1    2    0    0  0.22552422709E+02 -0.27635384167E+02 -0.24724395086E+02  0.43400713594E+02  0.00000000000E+00 0.  1.
         11    1    3    3    0    0 -0.10949670750E+02  0.13376444460E+01  0.54865834797E+01  0.12320194022E+02  0.51100000000E-03 0.  1.
        -11    1    3    3    0    0 -0.97457025106E+01  0.19106477663E+02  0.17865128411E+02  0.27914136554E+02  0.51100000000E-03 0. -1.
        -12    1    3    3    0    0 -0.18570494486E+01  0.71912620573E+01  0.13726831950E+01  0.75529558310E+01  0.00000000000E+00 0.  1.
</event>
<event>
 7    1  0.2886681E-010  0.4778727E+02  0.7816164E-02  0.1312668E+00
        -11   -1    0    0    0    0  0.00000000000E+00  0.00000000000E+00  0.45593999997E+02  0.45594000000E+02  0.51100000000E-03 0. -1.
         11   -1    0    0    0    0 -0.00000000000E+00 -0.00000000000E+00 -0.45593999997E+02  0.45594000000E+02  0.51100000000E-03 0.  1.
    9900012    2    1    2    0    0 -0.10725283578E+02 -0.25064547945E+02  0.33769214252E+02  0.47787273017E+02  0.20000008993E+02 0.  0.
        -12    1    1    2    0    0  0.10725283578E+02  0.25064547945E+02 -0.33769214252E+02  0.43400726983E+02  0.00000000000E+00 0.  1.
         11    1    3    3    0    0 -0.46445301582E+01 -0.72996353770E+01  0.12325131067E+02  0.15058724816E+02  0.51100000000E-03 0.  1.
        -11    1    3    3    0    0 -0.96656596847E+01 -0.17327582449E+02  0.13489244390E+02  0.23992286367E+02  0.51100000000E-03 0. -1.
        -12    1    3    3    0    0  0.35849062645E+01 -0.43733011865E+00  0.79548387951E+01  0.87362618329E+01  0.00000000000E+00 0.  1.
</event>
<event>
 7    1  0.2886681E-010  0.4778727E+02  0.7816164E-02  0.1312668E+00
        -11   -1    0    0    0    0  0.00000000000E+00  0.00000000000E+00  0.45593999997E+02  0.45594000000E+02  0.51100000000E-03 0.  1.
         11   -1    0    0    0    0 -0.00000000000E+00 -0.00000000000E+00 -0.45593999997E+02  0.45594000000E+02  0.51100000000E-03 0. -1.
    9900012    2    1    2    0    0  0.42013143486E+02 -0.74608333829E+01 -0.79281123033E+01  0.47787271607E+02  0.20000002564E+02 0.  0.
        -12    1    1    2    0    0 -0.42013143486E+02  0.74608333829E+01  0.79281123033E+01  0.43400728393E+02  0.00000000000E+00 0.  1.
         11    1    3    3    0    0  0.26584120113E+02 -0.54053466930E+01 -0.18872582869E+01  0.27193656598E+02  0.51100000000E-03 0. -1.
        -11    1    3    3    0    0  0.34290683433E+00 -0.11648733798E+00  0.29184672883E+01  0.29408512324E+01  0.51100000000E-03 0.  1.
        -12    1    3    3    0    0  0.15086116539E+02 -0.19389993519E+01 -0.89593213047E+01  0.17652763776E+02  0.00000000000E+00 0.  1.
</event>
<event>
 7    1  0.2886681E-010  0.4778727E+02  0.7816164E-02  0.1312668E+00
        -11   -1    0    0    0    0  0.00000000000E+00  0.00000000000E+00  0.45593999997E+02  0.45594000000E+02  0.51100000000E-03 0.  1.
         11   -1    0    0    0    0 -0.00000000000E+00 -0.00000000000E+00 -0.45593999997E+02  0.45594000000E+02  0.51100000000E-03 0. -1.
    9900012    2    1    2    0    0 -0.19150521952E+02 -0.37906749647E+02 -0.89419795983E+01  0.47787272368E+02  0.20000006037E+02 0.  0.
        -12    1    1    2    0    0  0.19150521952E+02  0.37906749647E+02  0.89419795983E+01  0.43400727632E+02  0.00000000000E+00 0.  1.
         11    1    3    3    0    0 -0.15034656349E+02 -0.23016232143E+02  0.95081550706E+00  0.27508033080E+02  0.51100000000E-03 0.  1.
        -11    1    3    3    0    0 -0.34019935640E+01 -0.13649727252E+02 -0.11468929188E+02  0.18150067527E+02  0.51100000000E-03 0. -1.
        -12    1    3    3    0    0 -0.71387203888E+00 -0.12407902526E+01  0.15761340831E+01  0.21291717607E+01  0.00000000000E+00 0.  1.
</event>
<event>
 7    1  0.2886681E-010  0.4778727E+02  0.7816164E-02  0.1312668E+00
        -11   -1    0    0    0    0  0.00000000000E+00  0.00000000000E+00  0.45593999997E+02  0.45594000000E+02  0.51100000000E-03 0.  1.
         11   -1    0    0    0    0 -0.00000000000E+00 -0.00000000000E+00 -0.45593999997E+02  0.45594000000E+02  0.51100000000E-03 0. -1.
    9900012    2    1    2    0    0  0.37648681625E+02  0.30864121890E+00 -0.21589470930E+02  0.47787265645E+02  0.19999975380E+02 0.  0.
        -12    1    1    2    0    0 -0.37648681625E+02 -0.30864121890E+00  0.21589470930E+02  0.43400734355E+02  0.00000000000E+00 0.  1.
         11    1    3    3    0    0  0.23503783101E+02  0.19060274435E+01 -0.12490487669E+02  0.26684696797E+02  0.51100000000E-03 0. -1.
        -11    1    3    3    0    0 -0.16008017691E+01 -0.27995451127E+01 -0.11550858502E+01  0.34255280943E+01  0.51100000000E-03 0.  1.
        -12    1    3    3    0    0  0.15745700294E+02  0.12021588881E+01 -0.79438974106E+01  0.17677040754E+02  0.00000000000E+00 0.  1.
</event>
<event>
 7    1  0.2886681E-010  0.4778727E+02  0.7816164E-02  0.1312668E+00
        -11   -1    0    0    0    0  0.00000000000E+00  0.00000000000E+00  0.45593999997E+02  0.45594000000E+02  0.51100000000E-03 0.  1.
         11   -1    0    0    0    0 -0.00000000000E+00 -0.00000000000E+00 -0.45593999997E+02  0.45594000000E+02  0.51100000000E-03 0. -1.
    9900012    2    1    2    0    0  0.22553564894E+02  0.43249030098E+01 -0.36827377219E+02  0.47787265118E+02  0.19999972978E+02 0.  0.
        -12    1    1    2    0    0 -0.22553564894E+02 -0.43249030098E+01  0.36827377219E+02  0.43400734882E+02  0.00000000000E+00 0.  1.
         11    1    3    3    0    0  0.12138300401E+02  0.55465145572E+01 -0.97593588388E+01  0.16533216431E+02  0.51100000000E-03 0. -1.
        -11    1    3    3    0    0 -0.14563435411E+01 -0.32531313789E+01 -0.55935650092E+01  0.66326291960E+01  0.51100000000E-03 0.  1.
         12    1    3    3    0    0  0.11871608034E+02  0.20315198315E+01 -0.21474453371E+02  0.24621419491E+02  0.00000000000E+00 0. -1.
</event>
<event>
 7    1  0.2886681E-010  0.4778727E+02  0.7816164E-02  0.1312668E+00
        -11   -1    0    0    0    0  0.00000000000E+00  0.00000000000E+00  0.45593999997E+02  0.45594000000E+02  0.51100000000E-03 0.  1.
         11   -1    0    0    0    0 -0.00000000000E+00 -0.00000000000E+00 -0.45593999997E+02  0.45594000000E+02  0.51100000000E-03 0. -1.
    9900012    2    1    2    0    0  0.27192104298E+02  0.25242071978E+02 -0.22517780312E+02  0.47787272310E+02  0.20000005768E+02 0.  0.
        -12    1    1    2    0    0 -0.27192104298E+02 -0.25242071978E+02  0.22517780312E+02  0.43400727690E+02  0.00000000000E+00 0.  1.
         11    1    3    3    0    0  0.15958346883E+02  0.10222694540E+02 -0.21591141503E+02  0.28728900267E+02  0.51100000000E-03 0. -1.
        -11    1    3    3    0    0  0.39350591242E+01  0.67935793768E+01  0.92954316293E+00  0.79057866030E+01  0.51100000000E-03 0.  1.
         12    1    3    3    0    0  0.72986982907E+01  0.82257980605E+01 -0.18561819719E+01  0.11152585439E+02  0.00000000000E+00 0. -1.
</event>
<event>
 7    1  0.2886681E-010  0.4778727E+02  0.7816164E-02  0.1312668E+00
        -11   -1    0    0    0    0  0.00000000000E+00  0.00000000000E+00  0.45593999997E+02  0.45594000000E+02  0.51100000000E-03 0. -1.
         11   -1    0    0    0    0 -0.00000000000E+00 -0.00000000000E+00 -0.45593999997E+02  0.45594000000E+02  0.51100000000E-03 0.  1.
    9900012    2    1    2    0    0  0.35798075535E+02  0.54060624654E+01  0.23935233803E+02  0.47787272580E+02  0.20000007003E+02 0.  0.
        -12    1    1    2    0    0 -0.35798075535E+02 -0.54060624654E+01 -0.23935233803E+02  0.43400727420E+02  0.00000000000E+00 0.  1.
         11    1    3    3    0    0  0.14263193541E+02  0.10392077555E+02  0.10077288649E+02  0.20322049913E+02  0.51100000000E-03 0. -1.
        -11    1    3    3    0    0  0.84697511421E+01 -0.19602293924E+01  0.77223734982E+00  0.87278596726E+01  0.51100000000E-03 0.  1.
         12    1    3    3    0    0  0.13065130851E+02 -0.30257856976E+01  0.13085707804E+02  0.18737362994E+02  0.00000000000E+00 0. -1.
</event>
<event>
 7    1  0.2886681E-010  0.4778727E+02  0.7816164E-02  0.1312668E+00
        -11   -1    0    0    0    0  0.00000000000E+00  0.00000000000E+00  0.45593999997E+02  0.45594000000E+02  0.51100000000E-03 0.  1.
         11   -1    0    0    0    0 -0.00000000000E+00 -0.00000000000E+00 -0.45593999997E+02  0.45594000000E+02  0.51100000000E-03 0. -1.
    9900012    2    1    2    0    0 -0.20973705264E+02  0.27070097760E+02 -0.26663392655E+02  0.47787274048E+02  0.20000013697E+02 0.  0.
        -12    1    1    2    0    0  0.20973705264E+02 -0.27070097760E+02  0.26663392655E+02  0.43400725952E+02  0.00000000000E+00 0.  1.
         11    1    3    3    0    0 -0.19708873187E+02  0.24614528289E+02 -0.25838442543E+02  0.40766895865E+02  0.51100000000E-03 0. -1.
        -11    1    3    3    0    0  0.24599928906E+01  0.17914890931E+01 -0.10777151124E+01  0.32283847845E+01  0.51100000000E-03 0.  1.
        -12    1    3    3    0    0 -0.37248249681E+01  0.66408037813E+00  0.25276500040E+00  0.37919933988E+01  0.00000000000E+00 0.  1.
</event>
<event>
 7    1  0.2886681E-010  0.4778727E+02  0.7816164E-02  0.1312668E+00
        -11   -1    0    0    0    0  0.00000000000E+00  0.00000000000E+00  0.45593999997E+02  0.45594000000E+02  0.51100000000E-03 0.  1.
         11   -1    0    0    0    0 -0.00000000000E+00 -0.00000000000E+00 -0.45593999997E+02  0.45594000000E+02  0.51100000000E-03 0. -1.
    9900012    2    1    2    0    0  0.42733792236E+02 -0.79365632434E+00  0.75376657891E+01  0.47787270804E+02  0.19999998903E+02 0.  0.
        -12    1    1    2    0    0 -0.42733792236E+02  0.79365632434E+00 -0.75376657891E+01  0.43400729196E+02  0.00000000000E+00 0.  1.
         11    1    3    3    0    0  0.28702995226E+02 -0.10069202234E+00  0.26857926371E+01  0.28828554528E+02  0.51100000000E-03 0. -1.
        -11    1    3    3    0    0 -0.37158481280E+00 -0.38813431191E+00  0.45173813178E+01  0.45492260604E+01  0.51100000000E-03 0.  1.
        -12    1    3    3    0    0  0.14402381823E+02 -0.30482999009E+00  0.33449183428E+00  0.14409490216E+02  0.00000000000E+00 0.  1.
</event>
<event>
 7    1  0.2886681E-010  0.4778727E+02  0.7816164E-02  0.1312668E+00
        -11   -1    0    0    0    0  0.00000000000E+00  0.00000000000E+00  0.45593999997E+02  0.45594000000E+02  0.51100000000E-03 0. -1.
         11   -1    0    0    0    0 -0.00000000000E+00 -0.00000000000E+00 -0.45593999997E+02  0.45594000000E+02  0.51100000000E-03 0.  1.
    9900012    2    1    2    0    0 -0.37350578478E+02 -0.21962026721E+02  0.24954126353E+01  0.47787269424E+02  0.19999992611E+02 0.  0.
        -12    1    1    2    0    0  0.37350578478E+02  0.21962026721E+02 -0.24954126353E+01  0.43400730576E+02  0.00000000000E+00 0.  1.
         11    1    3    3    0    0 -0.12963879289E+02 -0.90073195456E+01  0.62070121900E+01  0.16962339821E+02  0.51100000000E-03 0. -1.
        -11    1    3    3    0    0 -0.10284114465E+02 -0.55535907258E+01 -0.82005056804E+01  0.14277733502E+02  0.51100000000E-03 0.  1.
        -12    1    3    3    0    0 -0.14102584724E+02 -0.74011164500E+01  0.44889061257E+01  0.16547196101E+02  0.00000000000E+00 0.  1.
</event>
<event>
 7    1  0.2886681E-010  0.4778727E+02  0.7816164E-02  0.1312668E+00
        -11   -1    0    0    0    0  0.00000000000E+00  0.00000000000E+00  0.45593999997E+02  0.45594000000E+02  0.51100000000E-03 0.  1.
         11   -1    0    0    0    0 -0.00000000000E+00 -0.00000000000E+00 -0.45593999997E+02  0.45594000000E+02  0.51100000000E-03 0. -1.
    9900012    2    1    2    0    0 -0.13918880356E+02  0.19085574959E+02 -0.36409189856E+02  0.47787268349E+02  0.19999987709E+02 0.  0.
        -12    1    1    2    0    0  0.13918880356E+02 -0.19085574959E+02  0.36409189856E+02  0.43400731651E+02  0.00000000000E+00 0.  1.
         11    1    3    3    0    0  0.14112727647E+01  0.22730562925E+01  0.13605150132E+01  0.30015790990E+01  0.51100000000E-03 0. -1.
        -11    1    3    3    0    0 -0.15654555299E+01 -0.35006910711E+00 -0.55055310809E+01  0.57344635441E+01  0.51100000000E-03 0.  1.
         12    1    3    3    0    0 -0.13764697591E+02  0.17162587774E+02 -0.32264173788E+02  0.39051225706E+02  0.00000000000E+00 0. -1.
</event>
<event>
 7    1  0.2886681E-010  0.4778726E+02  0.7816164E-02  0.1312668E+00
        -11   -1    0    0    0    0  0.00000000000E+00  0.00000000000E+00  0.45593999997E+02  0.45594000000E+02  0.51100000000E-03 0. -1.
         11   -1    0    0    0    0 -0.00000000000E+00 -0.00000000000E+00 -0.45593999997E+02  0.45594000000E+02  0.51100000000E-03 0.  1.
    9900012    2    1    2    0    0 -0.32538812352E+02  0.16223284714E+02  0.23699259828E+02  0.47787260461E+02  0.19999951744E+02 0.  0.
        -12    1    1    2    0    0  0.32538812352E+02 -0.16223284714E+02 -0.23699259828E+02  0.43400739539E+02  0.00000000000E+00 0.  1.
         11    1    3    3    0    0 -0.19743568240E+02 -0.21720732248E+00  0.66517396091E+01  0.20835097935E+02  0.51100000000E-03 0. -1.
        -11    1    3    3    0    0 -0.58982945142E+01  0.79526079519E+01  0.89125381617E+01  0.13321681131E+02  0.51100000000E-03 0.  1.
         12    1    3    3    0    0 -0.68969495983E+01  0.84878840843E+01  0.81349820568E+01  0.13630481395E+02  0.00000000000E+00 0. -1.
</event>
<event>
 7    1  0.2886681E-010  0.4778727E+02  0.7816164E-02  0.1312668E+00
        -11   -1    0    0    0    0  0.00000000000E+00  0.00000000000E+00  0.45593999997E+02  0.45594000000E+02  0.51100000000E-03 0.  1.
         11   -1    0    0    0    0 -0.00000000000E+00 -0.00000000000E+00 -0.45593999997E+02  0.45594000000E+02  0.51100000000E-03 0. -1.
    9900012    2    1    2    0    0 -0.10301138970E+02  0.17637053976E+01 -0.42123619716E+02  0.47787268914E+02  0.19999990287E+02 0.  0.
        -12    1    1    2    0    0  0.10301138970E+02 -0.17637053976E+01  0.42123619716E+02  0.43400731086E+02  0.00000000000E+00 0.  1.
         11    1    3    3    0    0 -0.11735387618E+02 -0.16999386036E+01 -0.11379741589E+02  0.16434951557E+02  0.51100000000E-03 0. -1.
        -11    1    3    3    0    0  0.28790487311E+01  0.35159370725E+01 -0.19886644980E+02  0.20399249592E+02  0.51100000000E-03 0.  1.
         12    1    3    3    0    0 -0.14448000833E+01 -0.52293071249E-01 -0.10857233148E+02  0.10953067765E+02  0.00000000000E+00 0. -1.
</event>
<event>
 7    1  0.2886681E-010  0.4778728E+02  0.7816164E-02  0.1312668E+00
        -11   -1    0    0    0    0  0.00000000000E+00  0.00000000000E+00  0.45593999997E+02  0.45594000000E+02  0.51100000000E-03 0. -1.
         11   -1    0    0    0    0 -0.00000000000E+00 -0.00000000000E+00 -0.45593999997E+02  0.45594000000E+02  0.51100000000E-03 0.  1.
    9900012    2    1    2    0    0 -0.22086785584E+00 -0.16431252845E+02  0.40169483223E+02  0.47787283012E+02  0.20000054563E+02 0.  0.
        -12    1    1    2    0    0  0.22086785584E+00  0.16431252845E+02 -0.40169483223E+02  0.43400716988E+02  0.00000000000E+00 0.  1.
         11    1    3    3    0    0  0.11823020779E+01 -0.44055142918E+01  0.10551403499E+02  0.11495151606E+02  0.51100000000E-03 0. -1.
        -11    1    3    3    0    0 -0.36748011429E+01 -0.15197849963E+02  0.17057398873E+02  0.23139439568E+02  0.51100000000E-03 0.  1.
        -12    1    3    3    0    0  0.22716312091E+01  0.31721114094E+01  0.12560680851E+02  0.13152691838E+02  0.00000000000E+00 0.  1.
</event>
<event>
 7    1  0.2886681E-010  0.4778729E+02  0.7816164E-02  0.1312668E+00
        -11   -1    0    0    0    0  0.00000000000E+00  0.00000000000E+00  0.45593999997E+02  0.45594000000E+02  0.51100000000E-03 0.  1.
         11   -1    0    0    0    0 -0.00000000000E+00 -0.00000000000E+00 -0.45593999997E+02  0.45594000000E+02  0.51100000000E-03 0. -1.
    9900012    2    1    2    0    0  0.69580225109E+01  0.27444281730E+02 -0.32894061445E+02  0.47787286235E+02  0.20000069262E+02 0.  0.
        -12    1    1    2    0    0 -0.69580225109E+01 -0.27444281730E+02  0.32894061445E+02  0.43400713765E+02  0.00000000000E+00 0.  1.
         11    1    3    3    0    0  0.11220456771E+02  0.18514767204E+02 -0.18839793567E+02  0.28699008288E+02  0.51100000000E-03 0. -1.
        -11    1    3    3    0    0 -0.39225981030E+01  0.21011145641E+00 -0.62470706900E+01  0.73794861047E+01  0.51100000000E-03 0.  1.
         12    1    3    3    0    0 -0.33983615746E+00  0.87194030691E+01 -0.78071971879E+01  0.11708791843E+02  0.00000000000E+00 0. -1.
</event>
<event>
 7    1  0.2886681E-010  0.4778725E+02  0.7816164E-02  0.1312668E+00
        -11   -1    0    0    0    0  0.00000000000E+00  0.00000000000E+00  0.45593999997E+02  0.45594000000E+02  0.51100000000E-03 0.  1.
         11   -1    0    0    0    0 -0.00000000000E+00 -0.00000000000E+00 -0.45593999997E+02  0.45594000000E+02  0.51100000000E-03 0. -1.
    9900012    2    1    2    0    0  0.20403165378E+02  0.31790808368E+02 -0.21370076367E+02  0.47787253255E+02  0.19999918889E+02 0.  0.
        -12    1    1    2    0    0 -0.20403165378E+02 -0.31790808368E+02  0.21370076367E+02  0.43400746745E+02  0.00000000000E+00 0.  1.
         11    1    3    3    0    0  0.13212369287E+01  0.10095613589E+02 -0.11121427219E+02  0.15078236781E+02  0.51100000000E-03 0. -1.
        -11    1    3    3    0    0  0.11849992472E+02  0.49936929223E+01 -0.44562851009E+01  0.13609473456E+02  0.51100000000E-03 0.  1.
        -12    1    3    3    0    0  0.72319359776E+01  0.16701501857E+02 -0.57923640469E+01  0.19099543018E+02  0.00000000000E+00 0.  1.
</event>
<event>
 7    1  0.2886681E-010  0.4778727E+02  0.7816164E-02  0.1312668E+00
        -11   -1    0    0    0    0  0.00000000000E+00  0.00000000000E+00  0.45593999997E+02  0.45594000000E+02  0.51100000000E-03 0. -1.
         11   -1    0    0    0    0 -0.00000000000E+00 -0.00000000000E+00 -0.45593999997E+02  0.45594000000E+02  0.51100000000E-03 0.  1.
    9900012    2    1    2    0    0 -0.32033661326E+01  0.39625393627E+02  0.17412349179E+02  0.47787270990E+02  0.19999999753E+02 0.  0.
        -12    1    1    2    0    0  0.32033661326E+01 -0.39625393627E+02 -0.17412349179E+02  0.43400729010E+02  0.00000000000E+00 0.  1.
         11    1    3    3    0    0  0.47912996972E+01  0.22741562521E+02  0.12012295999E+02  0.26161622161E+02  0.51100000000E-03 0. -1.
        -11    1    3    3    0    0 -0.86206005494E+01  0.91209767087E+01  0.58037065630E+01  0.13827146491E+02  0.51100000000E-03 0.  1.
         12    1    3    3    0    0  0.62593471954E+00  0.77628543972E+01 -0.40365338306E+00  0.77985023382E+01  0.00000000000E+00 0. -1.
</event>
<event>
 7    1  0.2886681E-010  0.4778727E+02  0.7816164E-02  0.1312668E+00
        -11   -1    0    0    0    0  0.00000000000E+00  0.00000000000E+00  0.45593999997E+02  0.45594000000E+02  0.51100000000E-03 0.  1.
         11   -1    0    0    0    0 -0.00000000000E+00 -0.00000000000E+00 -0.45593999997E+02  0.45594000000E+02  0.51100000000E-03 0. -1.
    9900012    2    1    2    0    0 -0.23854564972E+02  0.52004756105E+01 -0.35882280547E+02  0.47787271045E+02  0.20000000002E+02 0.  0.
        -12    1    1    2    0    0  0.23854564972E+02 -0.52004756105E+01  0.35882280547E+02  0.43400728955E+02  0.00000000000E+00 0.  1.
         11    1    3    3    0    0 -0.75073142066E+01  0.29791295592E+01 -0.19414684317E+02  0.21027718538E+02  0.51100000000E-03 0. -1.
        -11    1    3    3    0    0 -0.41852941922E+01  0.54936955726E+01 -0.11090795183E+02  0.13065340278E+02  0.51100000000E-03 0.  1.
         12    1    3    3    0    0 -0.12161956573E+02 -0.32723495214E+01 -0.53768010470E+01  0.13694212229E+02  0.00000000000E+00 0. -1.
</event>
<event>
 7    1  0.2886681E-010  0.4778727E+02  0.7816164E-02  0.1312668E+00
        -11   -1    0    0    0    0  0.00000000000E+00  0.00000000000E+00  0.45593999997E+02  0.45594000000E+02  0.51100000000E-03 0. -1.
         11   -1    0    0    0    0 -0.00000000000E+00 -0.00000000000E+00 -0.45593999997E+02  0.45594000000E+02  0.51100000000E-03 0.  1.
    9900012    2    1    2    0    0  0.18732139831E+02  0.38966977126E+02  0.37822040864E+01  0.47787269168E+02  0.19999991444E+02 0.  0.
        -12    1    1    2    0    0 -0.18732139831E+02 -0.38966977126E+02 -0.37822040864E+01  0.43400730832E+02  0.00000000000E+00 0.  1.
         11    1    3    3    0    0  0.13390272610E+02  0.31097601649E+02  0.24783203922E+01  0.33948524284E+02  0.51100000000E-03 0. -1.
        -11    1    3    3    0    0  0.37644888136E+01  0.34801668059E+01  0.55328618499E+01  0.75429104154E+01  0.51100000000E-03 0.  1.
         12    1    3    3    0    0  0.15773784077E+01  0.43892086718E+01 -0.42289781557E+01  0.62958344679E+01  0.00000000000E+00 0. -1.
</event>
<event>
 7    1  0.2886681E-010  0.4778727E+02  0.7816164E-02  0.1312668E+00
        -11   -1    0    0    0    0  0.00000000000E+00  0.00000000000E+00  0.45593999997E+02  0.45594000000E+02  0.51100000000E-03 0.  1.
         11   -1    0    0    0    0 -0.00000000000E+00 -0.00000000000E+00 -0.45593999997E+02  0.45594000000E+02  0.51100000000E-03 0. -1.
    9900012    2    1    2    0    0  0.17173458527E+02  0.77938921591E+01 -0.39089013080E+02  0.47787269864E+02  0.19999994619E+02 0.  0.
        -12    1    1    2    0    0 -0.17173458527E+02 -0.77938921591E+01  0.39089013080E+02  0.43400730136E+02  0.00000000000E+00 0.  1.
         11    1    3    3    0    0  0.18807532085E+02  0.55725789749E+01 -0.36487127545E+02  0.41425684983E+02  0.51100000000E-03 0. -1.
        -11    1    3    3    0    0  0.59815410809E+00  0.24746794598E+01  0.43625443230E+00  0.25830495459E+01  0.51100000000E-03 0.  1.
         12    1    3    3    0    0 -0.22322276657E+01 -0.25336627571E+00 -0.30381399674E+01  0.37785353356E+01  0.00000000000E+00 0. -1.
</event>
<event>
 7    1  0.2886681E-010  0.4778727E+02  0.7816164E-02  0.1312668E+00
        -11   -1    0    0    0    0  0.00000000000E+00  0.00000000000E+00  0.45593999997E+02  0.45594000000E+02  0.51100000000E-03 0. -1.
         11   -1    0    0    0    0 -0.00000000000E+00 -0.00000000000E+00 -0.45593999997E+02  0.45594000000E+02  0.51100000000E-03 0.  1.
    9900012    2    1    2    0    0  0.40380550087E+02 -0.80193876255E+01  0.13737688785E+02  0.47787268481E+02  0.19999988312E+02 0.  0.
        -12    1    1    2    0    0 -0.40380550087E+02  0.80193876255E+01 -0.13737688785E+02  0.43400731519E+02  0.00000000000E+00 0.  1.
         11    1    3    3    0    0  0.20640424783E+01 -0.16650613418E+01  0.64848166928E+01  0.70061079370E+01  0.51100000000E-03 0. -1.
        -11    1    3    3    0    0  0.28215559491E+02 -0.40073541454E+00  0.69055208023E+01  0.29051068897E+02  0.51100000000E-03 0.  1.
        -12    1    3    3    0    0  0.10100948118E+02 -0.59535908692E+01  0.34735128949E+00  0.11730091647E+02  0.00000000000E+00 0.  1.
</event>
<event>
 7    1  0.2886681E-010  0.4778727E+02  0.7816164E-02  0.1312668E+00
        -11   -1    0    0    0    0  0.00000000000E+00  0.00000000000E+00  0.45593999997E+02  0.45594000000E+02  0.51100000000E-03 0.  1.
         11   -1    0    0    0    0 -0.00000000000E+00 -0.00000000000E+00 -0.45593999997E+02  0.45594000000E+02  0.51100000000E-03 0. -1.
    9900012    2    1    2    0    0  0.36739520807E+02 -0.10943218659E+02 -0.20348877327E+02  0.47787271525E+02  0.20000002189E+02 0.  0.
        -12    1    1    2    0    0 -0.36739520807E+02  0.10943218659E+02  0.20348877327E+02  0.43400728475E+02  0.00000000000E+00 0.  1.
         11    1    3    3    0    0  0.21989405861E+02 -0.97654726007E+01 -0.14542265847E+02  0.28113625193E+02  0.51100000000E-03 0. -1.
        -11    1    3    3    0    0  0.24917366757E+01 -0.26123687895E+01  0.28490533475E+01  0.45989485311E+01  0.51100000000E-03 0.  1.
        -12    1    3    3    0    0  0.12258378269E+02  0.14346227310E+01 -0.86556648276E+01  0.15074697801E+02  0.00000000000E+00 0.  1.
</event>
<event>
 7    1  0.2886681E-010  0.4778726E+02  0.7816164E-02  0.1312668E+00
        -11   -1    0    0    0    0  0.00000000000E+00  0.00000000000E+00  0.45593999997E+02  0.45594000000E+02  0.51100000000E-03 0.  1.
         11   -1    0    0    0    0 -0.00000000000E+00 -0.00000000000E+00 -0.45593999997E+02  0.45594000000E+02  0.51100000000E-03 0. -1.
    9900012    2    1    2    0    0 -0.31857599638E+02  0.54989058964E+01 -0.28956506001E+02  0.47787264286E+02  0.19999969185E+02 0.  0.
        -12    1    1    2    0    0  0.31857599638E+02 -0.54989058964E+01  0.28956506001E+02  0.43400735714E+02  0.00000000000E+00 0.  1.
         11    1    3    3    0    0 -0.49762234154E+01  0.13464473983E+01 -0.69106678702E+01  0.86216617163E+01  0.51100000000E-03 0. -1.
        -11    1    3    3    0    0 -0.21247333494E+02  0.50725731963E+01 -0.67880425256E+01  0.22874826798E+02  0.51100000000E-03 0.  1.
        -12    1    3    3    0    0 -0.56340427289E+01 -0.92011469817E+00 -0.15257795605E+02  0.16290775772E+02  0.00000000000E+00 0.  1.
</event>
<event>
 7    1  0.2886681E-010  0.4778727E+02  0.7816164E-02  0.1312668E+00
        -11   -1    0    0    0    0  0.00000000000E+00  0.00000000000E+00  0.45593999997E+02  0.45594000000E+02  0.51100000000E-03 0.  1.
         11   -1    0    0    0    0 -0.00000000000E+00 -0.00000000000E+00 -0.45593999997E+02  0.45594000000E+02  0.51100000000E-03 0. -1.
    9900012    2    1    2    0    0  0.76329233461E+01 -0.42571629627E+02  0.36080348322E+01  0.47787273240E+02  0.20000010013E+02 0.  0.
        -12    1    1    2    0    0 -0.76329233461E+01  0.42571629627E+02 -0.36080348322E+01  0.43400726760E+02  0.00000000000E+00 0.  1.
         11    1    3    3    0    0 -0.26776698358E+01 -0.77769219322E+01  0.56314520673E+01  0.99681333827E+01  0.51100000000E-03 0. -1.
        -11    1    3    3    0    0  0.89087162263E+01 -0.18778174592E+02 -0.52130333692E+01  0.21428037310E+02  0.51100000000E-03 0.  1.
        -12    1    3    3    0    0  0.14018769555E+01 -0.16016533103E+02  0.31896161340E+01  0.16391102547E+02  0.00000000000E+00 0.  1.
</event>
<event>
 7    1  0.2886681E-010  0.4778727E+02  0.7816164E-02  0.1312668E+00
        -11   -1    0    0    0    0  0.00000000000E+00  0.00000000000E+00  0.45593999997E+02  0.45594000000E+02  0.51100000000E-03 0.  1.
         11   -1    0    0    0    0 -0.00000000000E+00 -0.00000000000E+00 -0.45593999997E+02  0.45594000000E+02  0.51100000000E-03 0. -1.
    9900012    2    1    2    0    0 -0.14464226548E+02 -0.76395682026E+01 -0.40200079849E+02  0.47787271068E+02  0.20000000105E+02 0.  0.
        -12    1    1    2    0    0  0.14464226548E+02  0.76395682026E+01  0.40200079849E+02  0.43400728932E+02  0.00000000000E+00 0.  1.
         11    1    3    3    0    0  0.14199197224E+01  0.76733789158E+00 -0.93910764405E+01  0.95287615370E+01  0.51100000000E-03 0. -1.
        -11    1    3    3    0    0 -0.11885072861E+02  0.14527078229E+01 -0.17803570551E+02  0.21455359274E+02  0.51100000000E-03 0.  1.
        -12    1    3    3    0    0 -0.39990734095E+01 -0.98596139171E+01 -0.13005432858E+02  0.16803150257E+02  0.00000000000E+00 0.  1.
</event>
<event>
 7    1  0.2886681E-010  0.4778727E+02  0.7816164E-02  0.1312668E+00
        -11   -1    0    0    0    0  0.00000000000E+00  0.00000000000E+00  0.45593999997E+02  0.45594000000E+02  0.51100000000E-03 0.  1.
         11   -1    0    0    0    0 -0.00000000000E+00 -0.00000000000E+00 -0.45593999997E+02  0.45594000000E+02  0.51100000000E-03 0. -1.
    9900012    2    1    2    0    0 -0.40558029334E+01 -0.10436426840E+02 -0.41931548160E+02  0.47787271047E+02  0.20000000009E+02 0.  0.
        -12    1    1    2    0    0  0.40558029334E+01  0.10436426840E+02  0.41931548160E+02  0.43400728953E+02  0.00000000000E+00 0.  1.
         11    1    3    3    0    0 -0.22518968620E+00  0.70643713094E+00 -0.21378053222E+01  0.22627363239E+01  0.51100000000E-03 0. -1.
        -11    1    3    3    0    0 -0.99506020196E+01 -0.94956497079E+01 -0.17006912007E+02  0.21872743317E+02  0.51100000000E-03 0.  1.
        -12    1    3    3    0    0  0.61199887724E+01 -0.16472142631E+01 -0.22786830831E+02  0.23651791406E+02  0.00000000000E+00 0.  1.
</event>
<event>
 7    1  0.2886681E-010  0.4778727E+02  0.7816164E-02  0.1312668E+00
        -11   -1    0    0    0    0  0.00000000000E+00  0.00000000000E+00  0.45593999997E+02  0.45594000000E+02  0.51100000000E-03 0.  1.
         11   -1    0    0    0    0 -0.00000000000E+00 -0.00000000000E+00 -0.45593999997E+02  0.45594000000E+02  0.51100000000E-03 0. -1.
    9900012    2    1    2    0    0  0.27377953300E+02 -0.21445330142E+02 -0.25964757601E+02  0.47787272483E+02  0.20000006557E+02 0.  0.
        -12    1    1    2    0    0 -0.27377953300E+02  0.21445330142E+02  0.25964757601E+02  0.43400727517E+02  0.00000000000E+00 0.  1.
         11    1    3    3    0    0  0.50320397671E+01 -0.17289569580E+01 -0.14933155110E+02  0.15852754908E+02  0.51100000000E-03 0. -1.
        -11    1    3    3    0    0  0.10409923444E+02 -0.10769803521E+02 -0.44104612995E+01  0.15614331338E+02  0.51100000000E-03 0.  1.
         12    1    3    3    0    0  0.11935990089E+02 -0.89465696624E+01 -0.66211411916E+01  0.16320186237E+02  0.00000000000E+00 0. -1.
</event>
<event>
 7    1  0.2886681E-010  0.4778727E+02  0.7816164E-02  0.1312668E+00
        -11   -1    0    0    0    0  0.00000000000E+00  0.00000000000E+00  0.45593999997E+02  0.45594000000E+02  0.51100000000E-03 0.  1.
         11   -1    0    0    0    0 -0.00000000000E+00 -0.00000000000E+00 -0.45593999997E+02  0.45594000000E+02  0.51100000000E-03 0. -1.
    9900012    2    1    2    0    0 -0.15027512318E+02  0.26360168932E+02 -0.31031257253E+02  0.47787267757E+02  0.19999985010E+02 0.  0.
        -12    1    1    2    0    0  0.15027512318E+02 -0.26360168932E+02  0.31031257253E+02  0.43400732243E+02  0.00000000000E+00 0.  1.
         11    1    3    3    0    0 -0.30179980219E+01  0.32054251213E+01 -0.79417501883E+01  0.90804437437E+01  0.51100000000E-03 0. -1.
        -11    1    3    3    0    0 -0.13200829292E+02  0.20151333989E+02 -0.25188404785E+02  0.34853893490E+02  0.51100000000E-03 0.  1.
        -12    1    3    3    0    0  0.11913149951E+01  0.30034098217E+01  0.20988977209E+01  0.38529305233E+01  0.00000000000E+00 0.  1.
</event>
<event>
 7    1  0.2886681E-010  0.4778727E+02  0.7816164E-02  0.1312668E+00
        -11   -1    0    0    0    0  0.00000000000E+00  0.00000000000E+00  0.45593999997E+02  0.45594000000E+02  0.51100000000E-03 0.  1.
         11   -1    0    0    0    0 -0.00000000000E+00 -0.00000000000E+00 -0.45593999997E+02  0.45594000000E+02  0.51100000000E-03 0. -1.
    9900012    2    1    2    0    0 -0.36406096381E+02 -0.19336846369E+02 -0.13575927447E+02  0.47787270890E+02  0.19999999295E+02 0.  0.
        -12    1    1    2    0    0  0.36406096381E+02  0.19336846369E+02  0.13575927447E+02  0.43400729110E+02  0.00000000000E+00 0.  1.
         11    1    3    3    0    0 -0.55654606383E+01 -0.38817014893E+01 -0.90556565620E+01  0.11315779894E+02  0.51100000000E-03 0. -1.
        -11    1    3    3    0    0 -0.10409946526E+02 -0.99240285373E+01  0.15142951686E+01  0.14461895422E+02  0.51100000000E-03 0.  1.
         12    1    3    3    0    0 -0.20430689217E+02 -0.55311163428E+01 -0.60345660535E+01  0.22009595574E+02  0.00000000000E+00 0. -1.
</event>
<event>
 7    1  0.2886681E-010  0.4778727E+02  0.7816164E-02  0.1312668E+00
        -11   -1    0    0    0    0  0.00000000000E+00  0.00000000000E+00  0.45593999997E+02  0.45594000000E+02  0.51100000000E-03 0.  1.
         11   -1    0    0    0    0 -0.00000000000E+00 -0.00000000000E+00 -0.45593999997E+02  0.45594000000E+02  0.51100000000E-03 0. -1.
    9900012    2    1    2    0    0  0.12782161850E+01 -0.13918406724E+02 -0.41088535118E+02  0.47787267282E+02  0.19999982845E+02 0.  0.
        -12    1    1    2    0    0 -0.12782161850E+01  0.13918406724E+02  0.41088535118E+02  0.43400732718E+02  0.00000000000E+00 0.  1.
         11    1    3    3    0    0  0.27117557235E+01 -0.12891884512E+02 -0.33090330885E+02  0.35616348826E+02  0.51100000000E-03 0. -1.
        -11    1    3    3    0    0  0.72409288200E+00 -0.13006869942E+00  0.18807036233E+01  0.20194738790E+01  0.51100000000E-03 0.  1.
         12    1    3    3    0    0 -0.21576324205E+01 -0.89645351243E+00 -0.98789078564E+01  0.10151444577E+02  0.00000000000E+00 0. -1.
</event>
<event>
 7    1  0.2886681E-010  0.4778725E+02  0.7816164E-02  0.1312668E+00
        -11   -1    0    0    0    0  0.00000000000E+00  0.00000000000E+00  0.45593999997E+02  0.45594000000E+02  0.51100000000E-03 0.  1.
         11   -1    0    0    0    0 -0.00000000000E+00 -0.00000000000E+00 -0.45593999997E+02  0.45594000000E+02  0.51100000000E-03 0. -1.
    9900012    2    1    2    0    0  0.11487587274E+02  0.32429824849E+02 -0.26456885472E+02  0.47787251274E+02  0.19999909858E+02 0.  0.
        -12    1    1    2    0    0 -0.11487587274E+02 -0.32429824849E+02  0.26456885472E+02  0.43400748726E+02  0.00000000000E+00 0.  1.
         11    1    3    3    0    0  0.56253853610E+01  0.10377672441E+02  0.98689499041E+00  0.11845463593E+02  0.51100000000E-03 0.  1.
        -11    1    3    3    0    0  0.35976891096E+01  0.17815715484E+02 -0.23611383776E+02  0.29796652987E+02  0.51100000000E-03 0. -1.
         12    1    3    3    0    0  0.22645128034E+01  0.42364369235E+01 -0.38323966860E+01  0.61451346936E+01  0.00000000000E+00 0. -1.
</event>
<event>
 7    1  0.2886681E-010  0.4778726E+02  0.7816164E-02  0.1312668E+00
        -11   -1    0    0    0    0  0.00000000000E+00  0.00000000000E+00  0.45593999997E+02  0.45594000000E+02  0.51100000000E-03 0. -1.
         11   -1    0    0    0    0 -0.00000000000E+00 -0.00000000000E+00 -0.45593999997E+02  0.45594000000E+02  0.51100000000E-03 0.  1.
    9900012    2    1    2    0    0 -0.28991101158E+02  0.68035317690E+00  0.32290515022E+02  0.47787260522E+02  0.19999952025E+02 0.  0.
        -12    1    1    2    0    0  0.28991101158E+02 -0.68035317690E+00 -0.32290515022E+02  0.43400739478E+02  0.00000000000E+00 0.  1.
         11    1    3    3    0    0 -0.16811375890E+02  0.62326730313E+01  0.15070431980E+02  0.23421923335E+02  0.51100000000E-03 0. -1.
        -11    1    3    3    0    0 -0.96322590688E+00 -0.22819972303E+01  0.10705506700E+02  0.10988320594E+02  0.51100000000E-03 0.  1.
         12    1    3    3    0    0 -0.11216499362E+02 -0.32703226241E+01  0.65145763424E+01  0.13377016593E+02  0.00000000000E+00 0. -1.
</event>
<event>
 7    1  0.2886681E-010  0.4778723E+02  0.7816164E-02  0.1312668E+00
        -11   -1    0    0    0    0  0.00000000000E+00  0.00000000000E+00  0.45593999997E+02  0.45594000000E+02  0.51100000000E-03 0. -1.
         11   -1    0    0    0    0 -0.00000000000E+00 -0.00000000000E+00 -0.45593999997E+02  0.45594000000E+02  0.51100000000E-03 0.  1.
    9900012    2    1    2    0    0 -0.39245251461E+02 -0.18531939645E+02  0.62306165111E-01  0.47787234669E+02  0.19999834148E+02 0.  0.
        -12    1    1    2    0    0  0.39245251461E+02  0.18531939645E+02 -0.62306165111E-01  0.43400765331E+02  0.00000000000E+00 0.  1.
         11    1    3    3    0    0 -0.24126534809E+02 -0.90573417425E+01  0.82861281525E+01  0.27070002611E+02  0.51100000000E-03 0. -1.
        -11    1    3    3    0    0 -0.26017981141E+01 -0.30817286821E+01 -0.47653849872E+01  0.62430200572E+01  0.51100000000E-03 0.  1.
         12    1    3    3    0    0 -0.12516918539E+02 -0.63928692203E+01 -0.34584370001E+01  0.14474212001E+02  0.00000000000E+00 0. -1.
</event>
<event>
 7    1  0.2886681E-010  0.4778727E+02  0.7816164E-02  0.1312668E+00
        -11   -1    0    0    0    0  0.00000000000E+00  0.00000000000E+00  0.45593999997E+02  0.45594000000E+02  0.51100000000E-03 0.  1.
         11   -1    0    0    0    0 -0.00000000000E+00 -0.00000000000E+00 -0.45593999997E+02  0.45594000000E+02  0.51100000000E-03 0. -1.
    9900012    2    1    2    0    0 -0.64866993504E+01  0.28487533332E+02 -0.32093713675E+02  0.47787270960E+02  0.19999999614E+02 0.  0.
        -12    1    1    2    0    0  0.64866993504E+01 -0.28487533332E+02  0.32093713675E+02  0.43400729040E+02  0.00000000000E+00 0.  1.
         11    1    3    3    0    0 -0.38401999218E+01  0.22885294419E+02 -0.25785636490E+02  0.34689809534E+02  0.51100000000E-03 0. -1.
        -11    1    3    3    0    0 -0.58982752232E+01  0.14642809317E+01 -0.23644669878E+01  0.65210791785E+01  0.51100000000E-03 0.  1.
        -12    1    3    3    0    0  0.32517757946E+01  0.41379579811E+01 -0.39436101971E+01  0.65763822470E+01  0.00000000000E+00 0.  1.
</event>
<event>
 7    1  0.2886681E-010  0.4778727E+02  0.7816164E-02  0.1312668E+00
        -11   -1    0    0    0    0  0.00000000000E+00  0.00000000000E+00  0.45593999997E+02  0.45594000000E+02  0.51100000000E-03 0. -1.
         11   -1    0    0    0    0 -0.00000000000E+00 -0.00000000000E+00 -0.45593999997E+02  0.45594000000E+02  0.51100000000E-03 0.  1.
    9900012    2    1    2    0    0 -0.36690339590E+02 -0.20379278849E+02  0.11051115394E+02  0.47787272159E+02  0.20000005082E+02 0.  0.
        -12    1    1    2    0    0  0.36690339590E+02  0.20379278849E+02 -0.11051115394E+02  0.43400727841E+02  0.00000000000E+00 0.  1.
         11    1    3    3    0    0 -0.20693154738E+02 -0.19836831273E+02  0.10336132324E+02  0.30471989755E+02  0.51100000000E-03 0. -1.
        -11    1    3    3    0    0 -0.60593237059E+01 -0.17165499345E+01 -0.25422525859E+01  0.67915385534E+01  0.51100000000E-03 0.  1.
         12    1    3    3    0    0 -0.99378611467E+01  0.11741023579E+01  0.32572356556E+01  0.10523743851E+02  0.00000000000E+00 0. -1.
</event>
<event>
 7    1  0.2886681E-010  0.4778727E+02  0.7816164E-02  0.1312668E+00
        -11   -1    0    0    0    0  0.00000000000E+00  0.00000000000E+00  0.45593999997E+02  0.45594000000E+02  0.51100000000E-03 0. -1.
         11   -1    0    0    0    0 -0.00000000000E+00 -0.00000000000E+00 -0.45593999997E+02  0.45594000000E+02  0.51100000000E-03 0.  1.
    9900012    2    1    2    0    0  0.22872610747E+02 -0.17421960888E+02  0.32510650536E+02  0.47787269109E+02  0.19999991177E+02 0.  0.
        -12    1    1    2    0    0 -0.22872610747E+02  0.17421960888E+02 -0.32510650536E+02  0.43400730891E+02  0.00000000000E+00 0.  1.
         11    1    3    3    0    0  0.87994717785E+01 -0.14660134237E+02  0.12081969293E+02  0.20936194059E+02  0.51100000000E-03 0. -1.
        -11    1    3    3    0    0  0.12131063302E+02  0.12968131937E+01  0.11100212702E+02  0.16494215459E+02  0.51100000000E-03 0.  1.
        -12    1    3    3    0    0  0.19420756665E+01 -0.40586398453E+01  0.93284685410E+01  0.10356859592E+02  0.00000000000E+00 0.  1.
</event>
<event>
 7    1  0.2886681E-010  0.4778727E+02  0.7816164E-02  0.1312668E+00
        -11   -1    0    0    0    0  0.00000000000E+00  0.00000000000E+00  0.45593999997E+02  0.45594000000E+02  0.51100000000E-03 0.  1.
         11   -1    0    0    0    0 -0.00000000000E+00 -0.00000000000E+00 -0.45593999997E+02  0.45594000000E+02  0.51100000000E-03 0. -1.
    9900012    2    1    2    0    0 -0.10291861101E+02  0.73659924812E+01 -0.41514370769E+02  0.47787271544E+02  0.20000002279E+02 0.  0.
        -12    1    1    2    0    0  0.10291861101E+02 -0.73659924812E+01  0.41514370769E+02  0.43400728456E+02  0.00000000000E+00 0.  1.
         11    1    3    3    0    0 -0.32878975531E+01 -0.51094366359E+01 -0.12888600171E+02  0.14248951810E+02  0.51100000000E-03 0. -1.
        -11    1    3    3    0    0 -0.68174780134E+01  0.22169699941E+01 -0.10588351175E+02  0.12786952072E+02  0.51100000000E-03 0.  1.
         12    1    3    3    0    0 -0.18648553455E+00  0.10258459123E+02 -0.18037419422E+02  0.20751367662E+02  0.00000000000E+00 0. -1.
</event>
<event>
 7    1  0.2886681E-010  0.4778727E+02  0.7816164E-02  0.1312668E+00
        -11   -1    0    0    0    0  0.00000000000E+00  0.00000000000E+00  0.45593999997E+02  0.45594000000E+02  0.51100000000E-03 0.  1.
         11   -1    0    0    0    0 -0.00000000000E+00 -0.00000000000E+00 -0.45593999997E+02  0.45594000000E+02  0.51100000000E-03 0. -1.
    9900012    2    1    2    0    0  0.26675070876E+02 -0.27423291425E+02 -0.20494565691E+02  0.47787267959E+02  0.19999985933E+02 0.  0.
        -12    1    1    2    0    0 -0.26675070876E+02  0.27423291425E+02  0.20494565691E+02  0.43400732041E+02  0.00000000000E+00 0.  1.
         11    1    3    3    0    0  0.14118979133E+01 -0.71492025641E+01 -0.20386561602E+01  0.75670781825E+01  0.51100000000E-03 0. -1.
        -11    1    3    3    0    0  0.38759597700E+01 -0.56008626178E+01  0.20976471433E+01  0.71269102703E+01  0.51100000000E-03 0.  1.
         12    1    3    3    0    0  0.21387213193E+02 -0.14673226243E+02 -0.20553556674E+02  0.33093279506E+02  0.00000000000E+00 0. -1.
</event>
<event>
 7    1  0.2886681E-010  0.4778729E+02  0.7816164E-02  0.1312668E+00
        -11   -1    0    0    0    0  0.00000000000E+00  0.00000000000E+00  0.45593999997E+02  0.45594000000E+02  0.51100000000E-03 0.  1.
         11   -1    0    0    0    0 -0.00000000000E+00 -0.00000000000E+00 -0.45593999997E+02  0.45594000000E+02  0.51100000000E-03 0. -1.
    9900012    2    1    2    0    0 -0.98775185392E+01  0.36944834150E+02 -0.20521576971E+02  0.47787294196E+02  0.20000105559E+02 0.  0.
        -12    1    1    2    0    0  0.98775185392E+01 -0.36944834150E+02  0.20521576971E+02  0.43400705804E+02  0.00000000000E+00 0.  1.
         11    1    3    3    0    0 -0.64965145281E+00  0.19721138361E+02 -0.14973079189E+02  0.24769708232E+02  0.51100000000E-03 0. -1.
        -11    1    3    3    0    0 -0.73428977405E+01  0.42299457717E+01  0.64843739649E+00  0.84988857962E+01  0.51100000000E-03 0.  1.
        -12    1    3    3    0    0 -0.18849693459E+01  0.12993750018E+02 -0.61969351786E+01  0.14518700168E+02  0.00000000000E+00 0.  1.
</event>
<event>
 7    1  0.2886681E-010  0.4778727E+02  0.7816164E-02  0.1312668E+00
        -11   -1    0    0    0    0  0.00000000000E+00  0.00000000000E+00  0.45593999997E+02  0.45594000000E+02  0.51100000000E-03 0.  1.
         11   -1    0    0    0    0 -0.00000000000E+00 -0.00000000000E+00 -0.45593999997E+02  0.45594000000E+02  0.51100000000E-03 0. -1.
    9900012    2    1    2    0    0  0.26508211902E+01 -0.21541565550E+02 -0.37584006534E+02  0.47787269056E+02  0.19999990932E+02 0.  0.
        -12    1    1    2    0    0 -0.26508211902E+01  0.21541565550E+02  0.37584006534E+02  0.43400730944E+02  0.00000000000E+00 0.  1.
         11    1    3    3    0    0  0.68079668575E+01 -0.21366342496E+02 -0.25652822386E+02  0.34072515331E+02  0.51100000000E-03 0. -1.
        -11    1    3    3    0    0 -0.53102102893E+01 -0.90541917175E+00 -0.91849784714E+01  0.10648095932E+02  0.51100000000E-03 0.  1.
         12    1    3    3    0    0  0.11530646220E+01  0.73019611773E+00 -0.27462056773E+01  0.30666577923E+01  0.00000000000E+00 0. -1.
</event>
<event>
 7    1  0.2886681E-010  0.4778727E+02  0.7816164E-02  0.1312668E+00
        -11   -1    0    0    0    0  0.00000000000E+00  0.00000000000E+00  0.45593999997E+02  0.45594000000E+02  0.51100000000E-03 0.  1.
         11   -1    0    0    0    0 -0.00000000000E+00 -0.00000000000E+00 -0.45593999997E+02  0.45594000000E+02  0.51100000000E-03 0. -1.
    9900012    2    1    2    0    0  0.30690821644E+02 -0.11327430070E+02 -0.28519928580E+02  0.47787268078E+02  0.19999986475E+02 0.  0.
        -12    1    1    2    0    0 -0.30690821644E+02  0.11327430070E+02  0.28519928580E+02  0.43400731922E+02  0.00000000000E+00 0.  1.
         11    1    3    3    0    0  0.96997899857E+01  0.31278891100E+01 -0.13785430279E+02  0.17143736590E+02  0.51100000000E-03 0. -1.
        -11    1    3    3    0    0  0.51197523967E+01  0.25112245014E+00 -0.17886544818E+01  0.54290157675E+01  0.51100000000E-03 0.  1.
         12    1    3    3    0    0  0.15871279262E+02 -0.14706441630E+02 -0.12945843820E+02  0.25214515720E+02  0.00000000000E+00 0. -1.
</event>
<event>
 7    1  0.2886681E-010  0.4778727E+02  0.7816164E-02  0.1312668E+00
        -11   -1    0    0    0    0  0.00000000000E+00  0.00000000000E+00  0.45593999997E+02  0.45594000000E+02  0.51100000000E-03 0.  1.
         11   -1    0    0    0    0 -0.00000000000E+00 -0.00000000000E+00 -0.45593999997E+02  0.45594000000E+02  0.51100000000E-03 0. -1.
    9900012    2    1    2    0    0  0.27230636488E+02 -0.82683746293E+01 -0.32768123008E+02  0.47787268808E+02  0.19999989802E+02 0.  0.
        -12    1    1    2    0    0 -0.27230636488E+02  0.82683746293E+01  0.32768123008E+02  0.43400731192E+02  0.00000000000E+00 0.  1.
         11    1    3    3    0    0  0.26126428150E+02 -0.10850451001E+02 -0.32186091591E+02  0.42851686396E+02  0.51100000000E-03 0. -1.
        -11    1    3    3    0    0  0.21396292657E+01  0.25475685615E+01  0.58188490064E+00  0.33773820141E+01  0.51100000000E-03 0.  1.
         12    1    3    3    0    0 -0.10354209275E+01  0.34507809973E-01 -0.11639163172E+01  0.15582003978E+01  0.00000000000E+00 0. -1.
</event>
<event>
 7    1  0.2886681E-010  0.4778727E+02  0.7816164E-02  0.1312668E+00
        -11   -1    0    0    0    0  0.00000000000E+00  0.00000000000E+00  0.45593999997E+02  0.45594000000E+02  0.51100000000E-03 0. -1.
         11   -1    0    0    0    0 -0.00000000000E+00 -0.00000000000E+00 -0.45593999997E+02  0.45594000000E+02  0.51100000000E-03 0.  1.
    9900012    2    1    2    0    0 -0.41468549506E+02  0.54443081212E+00  0.12793989255E+02  0.47787272309E+02  0.20000005767E+02 0.  0.
        -12    1    1    2    0    0  0.41468549506E+02 -0.54443081212E+00 -0.12793989255E+02  0.43400727691E+02  0.00000000000E+00 0.  1.
         11    1    3    3    0    0 -0.15373133300E+02  0.66532904617E+00  0.70775939920E+01  0.16937184748E+02  0.51100000000E-03 0.  1.
        -11    1    3    3    0    0 -0.26704336419E+02 -0.31298455006E+01  0.36132391346E+01  0.27128822565E+02  0.51100000000E-03 0. -1.
        -12    1    3    3    0    0  0.60892021311E+00  0.30089472666E+01  0.21031561280E+01  0.37212649970E+01  0.00000000000E+00 0.  1.
</event>
<event>
 7    1  0.2886681E-010  0.4778727E+02  0.7816164E-02  0.1312668E+00
        -11   -1    0    0    0    0  0.00000000000E+00  0.00000000000E+00  0.45593999997E+02  0.45594000000E+02  0.51100000000E-03 0.  1.
         11   -1    0    0    0    0 -0.00000000000E+00 -0.00000000000E+00 -0.45593999997E+02  0.45594000000E+02  0.51100000000E-03 0. -1.
    9900012    2    1    2    0    0 -0.41355401252E+02 -0.12698290095E+02  0.34796068583E+01  0.47787269039E+02  0.19999990857E+02 0.  0.
        -12    1    1    2    0    0  0.41355401252E+02  0.12698290095E+02 -0.34796068583E+01  0.43400730961E+02  0.00000000000E+00 0.  1.
         11    1    3    3    0    0 -0.11362883830E+02 -0.81407425834E+01  0.81358854405E+01  0.16173418034E+02  0.51100000000E-03 0. -1.
        -11    1    3    3    0    0 -0.19285261160E+02  0.75832048277E+00 -0.33453602509E+01  0.19587949955E+02  0.51100000000E-03 0.  1.
         12    1    3    3    0    0 -0.10707256263E+02 -0.53158679945E+01 -0.13109183313E+01  0.12025901051E+02  0.00000000000E+00 0. -1.
</event>
<event>
 7    1  0.2886681E-010  0.4778727E+02  0.7816164E-02  0.1312668E+00
        -11   -1    0    0    0    0  0.00000000000E+00  0.00000000000E+00  0.45593999997E+02  0.45594000000E+02  0.51100000000E-03 0.  1.
         11   -1    0    0    0    0 -0.00000000000E+00 -0.00000000000E+00 -0.45593999997E+02  0.45594000000E+02  0.51100000000E-03 0. -1.
    9900012    2    1    2    0    0  0.42702959660E+02 -0.35745178726E+01 -0.68777429131E+01  0.47787270866E+02  0.19999999189E+02 0.  0.
        -12    1    1    2    0    0 -0.42702959660E+02  0.35745178726E+01  0.68777429131E+01  0.43400729134E+02  0.00000000000E+00 0.  1.
         11    1    3    3    0    0  0.18206621494E+02 -0.42782925056E+01 -0.18780594313E+01  0.18796594385E+02  0.51100000000E-03 0. -1.
        -11    1    3    3    0    0  0.27283709862E+01  0.55598834031E+01 -0.31707504514E+00  0.62013586044E+01  0.51100000000E-03 0.  1.
        -12    1    3    3    0    0  0.21767967180E+02 -0.48561087702E+01 -0.46826084366E+01  0.22789317877E+02  0.00000000000E+00 0.  1.
</event>
<event>
 7    1  0.2886681E-010  0.4778727E+02  0.7816164E-02  0.1312668E+00
        -11   -1    0    0    0    0  0.00000000000E+00  0.00000000000E+00  0.45593999997E+02  0.45594000000E+02  0.51100000000E-03 0.  1.
         11   -1    0    0    0    0 -0.00000000000E+00 -0.00000000000E+00 -0.45593999997E+02  0.45594000000E+02  0.51100000000E-03 0. -1.
    9900012    2    1    2    0    0 -0.17545474482E+02 -0.31842254893E+02  0.23703379818E+02  0.47787273206E+02  0.20000009854E+02 0.  0.
        -12    1    1    2    0    0  0.17545474482E+02  0.31842254893E+02 -0.23703379818E+02  0.43400726794E+02  0.00000000000E+00 0.  1.
         11    1    3    3    0    0 -0.34246070883E+01 -0.98564871641E+01  0.87061502634E+00  0.10470732721E+02  0.51100000000E-03 0. -1.
        -11    1    3    3    0    0 -0.53272464397E+01 -0.13889681375E+02  0.20183567294E+02  0.25073475872E+02  0.51100000000E-03 0.  1.
        -12    1    3    3    0    0 -0.87936209544E+01 -0.80960863535E+01  0.26491974976E+01  0.12243064613E+02  0.00000000000E+00 0.  1.
</event>
<event>
 7    1  0.2886681E-010  0.4778727E+02  0.7816164E-02  0.1312668E+00
        -11   -1    0    0    0    0  0.00000000000E+00  0.00000000000E+00  0.45593999997E+02  0.45594000000E+02  0.51100000000E-03 0.  1.
         11   -1    0    0    0    0 -0.00000000000E+00 -0.00000000000E+00 -0.45593999997E+02  0.45594000000E+02  0.51100000000E-03 0. -1.
    9900012    2    1    2    0    0  0.50051136433E+01  0.31661276029E+02 -0.29259801333E+02  0.47787268020E+02  0.19999986209E+02 0.  0.
        -12    1    1    2    0    0 -0.50051136433E+01 -0.31661276029E+02  0.29259801333E+02  0.43400731980E+02  0.00000000000E+00 0.  1.
         11    1    3    3    0    0  0.96315002351E+01  0.11698156157E+02 -0.59498209139E+01  0.16279220602E+02  0.51100000000E-03 0. -1.
        -11    1    3    3    0    0 -0.72146259045E+00  0.39791547751E+01 -0.18003013220E+01  0.44266540530E+01  0.51100000000E-03 0.  1.
         12    1    3    3    0    0 -0.39049240014E+01  0.15983965097E+02 -0.21509679097E+02  0.27081393364E+02  0.00000000000E+00 0. -1.
</event>
<event>
 7    1  0.2886681E-010  0.4778726E+02  0.7816164E-02  0.1312668E+00
        -11   -1    0    0    0    0  0.00000000000E+00  0.00000000000E+00  0.45593999997E+02  0.45594000000E+02  0.51100000000E-03 0.  1.
         11   -1    0    0    0    0 -0.00000000000E+00 -0.00000000000E+00 -0.45593999997E+02  0.45594000000E+02  0.51100000000E-03 0. -1.
    9900012    2    1    2    0    0 -0.11889353110E+02  0.12817505363E+01 -0.41720794088E+02  0.47787259671E+02  0.19999948143E+02 0.  0.
        -12    1    1    2    0    0  0.11889353110E+02 -0.12817505363E+01  0.41720794088E+02  0.43400740329E+02  0.00000000000E+00 0.  1.
         11    1    3    3    0    0  0.44922103659E+01  0.10101761366E+01 -0.94799340016E+01  0.10538954347E+02  0.51100000000E-03 0. -1.
        -11    1    3    3    0    0 -0.21731125794E+00 -0.14176976758E-02  0.60315371130E+00  0.64110908063E+00  0.51100000000E-03 0.  1.
         12    1    3    3    0    0 -0.16164252218E+02  0.27299209740E+00 -0.32844013797E+02  0.36607196243E+02  0.00000000000E+00 0. -1.
</event>
<event>
 7    1  0.2886681E-010  0.4778726E+02  0.7816164E-02  0.1312668E+00
        -11   -1    0    0    0    0  0.00000000000E+00  0.00000000000E+00  0.45593999997E+02  0.45594000000E+02  0.51100000000E-03 0. -1.
         11   -1    0    0    0    0 -0.00000000000E+00 -0.00000000000E+00 -0.45593999997E+02  0.45594000000E+02  0.51100000000E-03 0.  1.
    9900012    2    1    2    0    0 -0.37154156044E+02 -0.12425802429E+02 -0.18675973838E+02  0.47787264106E+02  0.19999968367E+02 0.  0.
        -12    1    1    2    0    0  0.37154156044E+02  0.12425802429E+02  0.18675973838E+02  0.43400735894E+02  0.00000000000E+00 0.  1.
         11    1    3    3    0    0 -0.21094513119E+02 -0.16351744168E+01 -0.19617871799E+01  0.21248550264E+02  0.51100000000E-03 0. -1.
        -11    1    3    3    0    0 -0.12016917925E+02 -0.98654460352E+01 -0.95086855710E+01  0.18224940149E+02  0.51100000000E-03 0.  1.
         12    1    3    3    0    0 -0.40427249994E+01 -0.92518197660E+00 -0.72055010872E+01  0.83137736936E+01  0.00000000000E+00 0. -1.
</event>
<event>
 7    1  0.2886681E-010  0.4778727E+02  0.7816164E-02  0.1312668E+00
        -11   -1    0    0    0    0  0.00000000000E+00  0.00000000000E+00  0.45593999997E+02  0.45594000000E+02  0.51100000000E-03 0. -1.
         11   -1    0    0    0    0 -0.00000000000E+00 -0.00000000000E+00 -0.45593999997E+02  0.45594000000E+02  0.51100000000E-03 0.  1.
    9900012    2    1    2    0    0  0.15926155006E+01  0.17408767094E+02  0.39724317634E+02  0.47787274115E+02  0.20000014001E+02 0.  0.
        -12    1    1    2    0    0 -0.15926155006E+01 -0.17408767094E+02 -0.39724317634E+02  0.43400725885E+02  0.00000000000E+00 0.  1.
         11    1    3    3    0    0 -0.44764257078E+00  0.98436771294E+01  0.35827645264E+02  0.37158021055E+02  0.51100000000E-03 0. -1.
        -11    1    3    3    0    0 -0.40528755031E+00  0.62794317997E+01  0.58980439652E+00  0.63200784182E+01  0.51100000000E-03 0.  1.
         12    1    3    3    0    0  0.24455456217E+01  0.12856581649E+01  0.33068679734E+01  0.43091746423E+01  0.00000000000E+00 0. -1.
</event>
<event>
 7    1  0.2886681E-010  0.4778722E+02  0.7816164E-02  0.1312668E+00
        -11   -1    0    0    0    0  0.00000000000E+00  0.00000000000E+00  0.45593999997E+02  0.45594000000E+02  0.51100000000E-03 0.  1.
         11   -1    0    0    0    0 -0.00000000000E+00 -0.00000000000E+00 -0.45593999997E+02  0.45594000000E+02  0.51100000000E-03 0. -1.
    9900012    2    1    2    0    0  0.42140248581E+02  0.58905797597E+01  0.85514790465E+01  0.47787224958E+02  0.19999789874E+02 0.  0.
        -12    1    1    2    0    0 -0.42140248581E+02 -0.58905797597E+01 -0.85514790465E+01  0.43400775042E+02  0.00000000000E+00 0.  1.
         11    1    3    3    0    0  0.15747936680E+02  0.26575731672E+01 -0.55457889233E+01  0.16906092981E+02  0.51100000000E-03 0. -1.
        -11    1    3    3    0    0  0.14759785940E+02  0.50678142577E+01  0.92895306821E+01  0.18161205987E+02  0.51100000000E-03 0.  1.
         12    1    3    3    0    0  0.11632525961E+02 -0.18348076651E+01  0.48077372877E+01  0.12719925991E+02  0.00000000000E+00 0. -1.
</event>
<event>
 7    1  0.2886681E-010  0.4778728E+02  0.7816164E-02  0.1312668E+00
        -11   -1    0    0    0    0  0.00000000000E+00  0.00000000000E+00  0.45593999997E+02  0.45594000000E+02  0.51100000000E-03 0. -1.
         11   -1    0    0    0    0 -0.00000000000E+00 -0.00000000000E+00 -0.45593999997E+02  0.45594000000E+02  0.51100000000E-03 0.  1.
    9900012    2    1    2    0    0  0.26904994632E+02 -0.14245009717E+01  0.34025210028E+02  0.47787275851E+02  0.20000021917E+02 0.  0.
        -12    1    1    2    0    0 -0.26904994632E+02  0.14245009717E+01 -0.34025210028E+02  0.43400724149E+02  0.00000000000E+00 0.  1.
         11    1    3    3    0    0  0.21672607730E+01  0.19894743883E+01  0.16923398370E+02  0.17177206998E+02  0.51100000000E-03 0. -1.
        -11    1    3    3    0    0  0.22381873557E+02 -0.16477772612E+01  0.15160455988E+02  0.27083257926E+02  0.51100000000E-03 0.  1.
        -12    1    3    3    0    0  0.23558603017E+01 -0.17661980988E+01  0.19413556702E+01  0.35268109282E+01  0.00000000000E+00 0.  1.
</event>
<event>
 7    1  0.2886681E-010  0.4778727E+02  0.7816164E-02  0.1312668E+00
        -11   -1    0    0    0    0  0.00000000000E+00  0.00000000000E+00  0.45593999997E+02  0.45594000000E+02  0.51100000000E-03 0.  1.
         11   -1    0    0    0    0 -0.00000000000E+00 -0.00000000000E+00 -0.45593999997E+02  0.45594000000E+02  0.51100000000E-03 0. -1.
    9900012    2    1    2    0    0 -0.91606208020E+01  0.38660457184E+02 -0.17466407712E+02  0.47787270496E+02  0.19999997499E+02 0.  0.
        -12    1    1    2    0    0  0.91606208020E+01 -0.38660457184E+02  0.17466407712E+02  0.43400729504E+02  0.00000000000E+00 0.  1.
         11    1    3    3    0    0  0.25243184329E+01  0.18099936034E+01  0.14821900217E+01  0.34416780669E+01  0.51100000000E-03 0. -1.
        -11    1    3    3    0    0 -0.86572447320E+01  0.11284789945E+02 -0.50774859124E+01  0.15102159909E+02  0.51100000000E-03 0.  1.
         12    1    3    3    0    0 -0.30276945029E+01  0.25565673635E+02 -0.13871111821E+02  0.29243432520E+02  0.00000000000E+00 0. -1.
</event>
<event>
 7    1  0.2886681E-010  0.4778727E+02  0.7816164E-02  0.1312668E+00
        -11   -1    0    0    0    0  0.00000000000E+00  0.00000000000E+00  0.45593999997E+02  0.45594000000E+02  0.51100000000E-03 0.  1.
         11   -1    0    0    0    0 -0.00000000000E+00 -0.00000000000E+00 -0.45593999997E+02  0.45594000000E+02  0.51100000000E-03 0. -1.
    9900012    2    1    2    0    0  0.11881904395E+02  0.31769297675E+02 -0.27076840183E+02  0.47787271882E+02  0.20000003820E+02 0.  0.
        -12    1    1    2    0    0 -0.11881904395E+02 -0.31769297675E+02  0.27076840183E+02  0.43400728118E+02  0.00000000000E+00 0.  1.
         11    1    3    3    0    0 -0.12958066253E+01  0.21155730662E+02 -0.13914003852E+02  0.25354359746E+02  0.51100000000E-03 0.  1.
        -11    1    3    3    0    0  0.46658778465E+01  0.41172177965E+00 -0.20552394302E+01  0.51150699193E+01  0.51100000000E-03 0. -1.
         12    1    3    3    0    0  0.85118331742E+01  0.10201845234E+02 -0.11107596901E+02  0.17317842217E+02  0.00000000000E+00 0. -1.
</event>
<event>
 7    1  0.2886681E-010  0.4778727E+02  0.7816164E-02  0.1312668E+00
        -11   -1    0    0    0    0  0.00000000000E+00  0.00000000000E+00  0.45593999997E+02  0.45594000000E+02  0.51100000000E-03 0.  1.
         11   -1    0    0    0    0 -0.00000000000E+00 -0.00000000000E+00 -0.45593999997E+02  0.45594000000E+02  0.51100000000E-03 0. -1.
    9900012    2    1    2    0    0 -0.10819612164E+02 -0.27685293065E+01 -0.41939173658E+02  0.47787273635E+02  0.20000011811E+02 0.  0.
        -12    1    1    2    0    0  0.10819612164E+02  0.27685293065E+01  0.41939173658E+02  0.43400726365E+02  0.00000000000E+00 0.  1.
         11    1    3    3    0    0 -0.62619324424E+01  0.82721251394E+00 -0.31649045571E+02  0.32273180263E+02  0.51100000000E-03 0. -1.
        -11    1    3    3    0    0 -0.39197041662E+01  0.32964782049E+00  0.54599008767E+00  0.39712534385E+01  0.51100000000E-03 0.  1.
        -12    1    3    3    0    0 -0.63797555572E+00 -0.39253896409E+01 -0.10836118175E+02  0.11542839934E+02  0.00000000000E+00 0.  1.
</event>
<event>
 7    1  0.2886681E-010  0.4778727E+02  0.7816164E-02  0.1312668E+00
        -11   -1    0    0    0    0  0.00000000000E+00  0.00000000000E+00  0.45593999997E+02  0.45594000000E+02  0.51100000000E-03 0.  1.
         11   -1    0    0    0    0 -0.00000000000E+00 -0.00000000000E+00 -0.45593999997E+02  0.45594000000E+02  0.51100000000E-03 0. -1.
    9900012    2    1    2    0    0 -0.14095443365E+02 -0.17993126678E+02 -0.36894294726E+02  0.47787272879E+02  0.20000008364E+02 0.  0.
        -12    1    1    2    0    0  0.14095443365E+02  0.17993126678E+02  0.36894294726E+02  0.43400727121E+02  0.00000000000E+00 0.  1.
         11    1    3    3    0    0  0.26668783547E-01 -0.36903536491E+01 -0.13669311395E+01  0.39354697662E+01  0.51100000000E-03 0. -1.
        -11    1    3    3    0    0 -0.85653699373E-01  0.27775085906E+01 -0.12124602451E+01  0.30318229886E+01  0.51100000000E-03 0.  1.
        -12    1    3    3    0    0 -0.14036458450E+02 -0.17080281619E+02 -0.34314903342E+02  0.40819980124E+02  0.00000000000E+00 0.  1.
</event>
<event>
 7    1  0.2886681E-010  0.4778726E+02  0.7816164E-02  0.1312668E+00
        -11   -1    0    0    0    0  0.00000000000E+00  0.00000000000E+00  0.45593999997E+02  0.45594000000E+02  0.51100000000E-03 0.  1.
         11   -1    0    0    0    0 -0.00000000000E+00 -0.00000000000E+00 -0.45593999997E+02  0.45594000000E+02  0.51100000000E-03 0. -1.
    9900012    2    1    2    0    0 -0.35126120814E+02  0.53804718855E+01  0.24916468968E+02  0.47787259603E+02  0.19999947834E+02 0.  0.
        -12    1    1    2    0    0  0.35126120814E+02 -0.53804718855E+01 -0.24916468968E+02  0.43400740397E+02  0.00000000000E+00 0.  1.
         11    1    3    3    0    0 -0.17289036896E+02 -0.28532225352E+01  0.67945663900E+01  0.18794089717E+02  0.51100000000E-03 0. -1.
        -11    1    3    3    0    0 -0.18154034031E+02  0.96732938307E+01  0.14746985614E+02  0.25310376333E+02  0.51100000000E-03 0.  1.
        -12    1    3    3    0    0  0.31695011300E+00 -0.14395994100E+01  0.33749169646E+01  0.36827935529E+01  0.00000000000E+00 0.  1.
</event>
<event>
 7    1  0.2886681E-010  0.4778727E+02  0.7816164E-02  0.1312668E+00
        -11   -1    0    0    0    0  0.00000000000E+00  0.00000000000E+00  0.45593999997E+02  0.45594000000E+02  0.51100000000E-03 0.  1.
         11   -1    0    0    0    0 -0.00000000000E+00 -0.00000000000E+00 -0.45593999997E+02  0.45594000000E+02  0.51100000000E-03 0. -1.
    9900012    2    1    2    0    0 -0.38503088479E+02  0.16183459515E+02  0.11799610429E+02  0.47787274309E+02  0.20000014882E+02 0.  0.
        -12    1    1    2    0    0  0.38503088479E+02 -0.16183459515E+02 -0.11799610429E+02  0.43400725691E+02  0.00000000000E+00 0.  1.
         11    1    3    3    0    0 -0.16447403759E+02  0.93243336205E+01  0.38468216034E+01  0.19293997113E+02  0.51100000000E-03 0. -1.
        -11    1    3    3    0    0 -0.10793770333E+02  0.49543005169E+01  0.11501476078E+02  0.16532831695E+02  0.51100000000E-03 0.  1.
        -12    1    3    3    0    0 -0.11261914386E+02  0.19048253777E+01 -0.35486872524E+01  0.11960445501E+02  0.00000000000E+00 0.  1.
</event>
<event>
 7    1  0.2886681E-010  0.4778728E+02  0.7816164E-02  0.1312668E+00
        -11   -1    0    0    0    0  0.00000000000E+00  0.00000000000E+00  0.45593999997E+02  0.45594000000E+02  0.51100000000E-03 0. -1.
         11   -1    0    0    0    0 -0.00000000000E+00 -0.00000000000E+00 -0.45593999997E+02  0.45594000000E+02  0.51100000000E-03 0.  1.
    9900012    2    1    2    0    0  0.23885200378E+02 -0.20851732030E+02  0.29636550398E+02  0.47787278286E+02  0.20000033019E+02 0.  0.
        -12    1    1    2    0    0 -0.23885200378E+02  0.20851732030E+02 -0.29636550398E+02  0.43400721714E+02  0.00000000000E+00 0.  1.
         11    1    3    3    0    0  0.90902780570E+01 -0.94034194975E+01  0.19123191948E+02  0.23167950361E+02  0.51100000000E-03 0. -1.
        -11    1    3    3    0    0  0.90978346437E+01 -0.55086989636E+01 -0.75845116700E+00  0.10662626689E+02  0.51100000000E-03 0.  1.
        -12    1    3    3    0    0  0.56970876774E+01 -0.59396135688E+01  0.11271809617E+02  0.13956701236E+02  0.00000000000E+00 0.  1.
</event>
<event>
 7    1  0.2886681E-010  0.4778726E+02  0.7816164E-02  0.1312668E+00
        -11   -1    0    0    0    0  0.00000000000E+00  0.00000000000E+00  0.45593999997E+02  0.45594000000E+02  0.51100000000E-03 0.  1.
         11   -1    0    0    0    0 -0.00000000000E+00 -0.00000000000E+00 -0.45593999997E+02  0.45594000000E+02  0.51100000000E-03 0. -1.
    9900012    2    1    2    0    0 -0.34659158742E+01 -0.32395631635E+02 -0.28672885902E+02  0.47787263741E+02  0.19999966699E+02 0.  0.
        -12    1    1    2    0    0  0.34659158742E+01  0.32395631635E+02  0.28672885902E+02  0.43400736259E+02  0.00000000000E+00 0.  1.
         11    1    3    3    0    0 -0.58733150450E+01 -0.23298482409E+02 -0.14704388588E+02  0.28169738306E+02  0.51100000000E-03 0. -1.
        -11    1    3    3    0    0 -0.24768813913E+01  0.68812882701E+00 -0.43512612932E+01  0.50539032255E+01  0.51100000000E-03 0.  1.
         12    1    3    3    0    0  0.48842805621E+01 -0.97852780530E+01 -0.96172360208E+01  0.14563622210E+02  0.00000000000E+00 0. -1.
</event>
<event>
 7    1  0.2886681E-010  0.4778727E+02  0.7816164E-02  0.1312668E+00
        -11   -1    0    0    0    0  0.00000000000E+00  0.00000000000E+00  0.45593999997E+02  0.45594000000E+02  0.51100000000E-03 0.  1.
         11   -1    0    0    0    0 -0.00000000000E+00 -0.00000000000E+00 -0.45593999997E+02  0.45594000000E+02  0.51100000000E-03 0. -1.
    9900012    2    1    2    0    0  0.27042260981E+02 -0.90087676393E+01 -0.32728912380E+02  0.47787268683E+02  0.19999989231E+02 0.  0.
        -12    1    1    2    0    0 -0.27042260981E+02  0.90087676393E+01  0.32728912380E+02  0.43400731317E+02  0.00000000000E+00 0.  1.
         11    1    3    3    0    0  0.26093563011E+01 -0.50879980538E+01 -0.14426270286E+02  0.15518174478E+02  0.51100000000E-03 0.  1.
        -11    1    3    3    0    0  0.19061183753E+02 -0.28358777382E+01 -0.18597084393E+02  0.26781009630E+02  0.51100000000E-03 0. -1.
         12    1    3    3    0    0  0.53717209264E+01 -0.10848918472E+01  0.29444229903E+00  0.54880845747E+01  0.00000000000E+00 0. -1.
</event>
<event>
 7    1  0.2886681E-010  0.4778728E+02  0.7816164E-02  0.1312668E+00
        -11   -1    0    0    0    0  0.00000000000E+00  0.00000000000E+00  0.45593999997E+02  0.45594000000E+02  0.51100000000E-03 0. -1.
         11   -1    0    0    0    0 -0.00000000000E+00 -0.00000000000E+00 -0.45593999997E+02  0.45594000000E+02  0.51100000000E-03 0.  1.
    9900012    2    1    2    0    0 -0.38400492491E+02 -0.19572899386E+02  0.50918253876E+01  0.47787275355E+02  0.20000019656E+02 0.  0.
        -12    1    1    2    0    0  0.38400492491E+02  0.19572899386E+02 -0.50918253876E+01  0.43400724645E+02  0.00000000000E+00 0.  1.
         11    1    3    3    0    0 -0.22514576172E+02 -0.14486519407E+02  0.71889036810E+01  0.27720853543E+02  0.51100000000E-03 0. -1.
        -11    1    3    3    0    0 -0.12587640455E+02 -0.15977410109E+01 -0.58504121153E+01  0.13972429665E+02  0.51100000000E-03 0.  1.
        -12    1    3    3    0    0 -0.32982758637E+01 -0.34886389677E+01  0.37533338219E+01  0.60939921479E+01  0.00000000000E+00 0.  1.
</event>
<event>
 7    1  0.2886681E-010  0.4778727E+02  0.7816164E-02  0.1312668E+00
        -11   -1    0    0    0    0  0.00000000000E+00  0.00000000000E+00  0.45593999997E+02  0.45594000000E+02  0.51100000000E-03 0.  1.
         11   -1    0    0    0    0 -0.00000000000E+00 -0.00000000000E+00 -0.45593999997E+02  0.45594000000E+02  0.51100000000E-03 0. -1.
    9900012    2    1    2    0    0  0.98853530142E+01  0.78965689608E+01 -0.41515628429E+02  0.47787269483E+02  0.19999992880E+02 0.  0.
        -12    1    1    2    0    0 -0.98853530142E+01 -0.78965689608E+01  0.41515628429E+02  0.43400730517E+02  0.00000000000E+00 0.  1.
         11    1    3    3    0    0  0.16717178083E+00 -0.18286352933E+01 -0.12651106605E+02  0.12783675216E+02  0.51100000000E-03 0. -1.
        -11    1    3    3    0    0  0.41137793682E+01  0.95147417878E+01 -0.71905346149E+01  0.12615755241E+02  0.51100000000E-03 0.  1.
        -12    1    3    3    0    0  0.56044018652E+01  0.21046246624E+00 -0.21673987209E+02  0.22387839026E+02  0.00000000000E+00 0.  1.
</event>
<event>
 7    1  0.2886681E-010  0.4778727E+02  0.7816164E-02  0.1312668E+00
        -11   -1    0    0    0    0  0.00000000000E+00  0.00000000000E+00  0.45593999997E+02  0.45594000000E+02  0.51100000000E-03 0.  1.
         11   -1    0    0    0    0 -0.00000000000E+00 -0.00000000000E+00 -0.45593999997E+02  0.45594000000E+02  0.51100000000E-03 0. -1.
    9900012    2    1    2    0    0 -0.18553612202E+02  0.35414302891E+02 -0.16888274027E+02  0.47787272188E+02  0.20000005216E+02 0.  0.
        -12    1    1    2    0    0  0.18553612202E+02 -0.35414302891E+02  0.16888274027E+02  0.43400727812E+02  0.00000000000E+00 0.  1.
         11    1    3    3    0    0 -0.46569024416E+01  0.48104131355E+00 -0.47347521046E+01  0.66585297813E+01  0.51100000000E-03 0. -1.
        -11    1    3    3    0    0 -0.11846887024E+02  0.30126822187E+02 -0.14412853949E+02  0.35435921132E+02  0.51100000000E-03 0.  1.
        -12    1    3    3    0    0 -0.20498227363E+01  0.48064393899E+01  0.22593320273E+01  0.56928212750E+01  0.00000000000E+00 0.  1.
</event>
<event>
 7    1  0.2886681E-010  0.4778727E+02  0.7816164E-02  0.1312668E+00
        -11   -1    0    0    0    0  0.00000000000E+00  0.00000000000E+00  0.45593999997E+02  0.45594000000E+02  0.51100000000E-03 0. -1.
         11   -1    0    0    0    0 -0.00000000000E+00 -0.00000000000E+00 -0.45593999997E+02  0.45594000000E+02  0.51100000000E-03 0.  1.
    9900012    2    1    2    0    0 -0.82564684263E+01  0.26993482688E+02  0.32966741022E+02  0.47787269682E+02  0.19999993788E+02 0.  0.
        -12    1    1    2    0    0  0.82564684263E+01 -0.26993482688E+02 -0.32966741022E+02  0.43400730318E+02  0.00000000000E+00 0.  1.
         11    1    3    3    0    0  0.35521384898E+01  0.17465290617E+01  0.74642856810E+01  0.84488823286E+01  0.51100000000E-03 0.  1.
        -11    1    3    3    0    0 -0.13101248703E+02  0.17357506336E+02  0.16495755905E+02  0.27295342220E+02  0.51100000000E-03 0. -1.
         12    1    3    3    0    0  0.12926417872E+01  0.78894472905E+01  0.90066994364E+01  0.12043045133E+02  0.00000000000E+00 0. -1.
</event>
<event>
 7    1  0.2886681E-010  0.4778727E+02  0.7816164E-02  0.1312668E+00
        -11   -1    0    0    0    0  0.00000000000E+00  0.00000000000E+00  0.45593999997E+02  0.45594000000E+02  0.51100000000E-03 0.  1.
         11   -1    0    0    0    0 -0.00000000000E+00 -0.00000000000E+00 -0.45593999997E+02  0.45594000000E+02  0.51100000000E-03 0. -1.
    9900012    2    1    2    0    0 -0.16980476989E+02  0.38623787544E+02  0.10172985340E+02  0.47787271968E+02  0.20000004210E+02 0.  0.
        -12    1    1    2    0    0  0.16980476989E+02 -0.38623787544E+02 -0.10172985340E+02  0.43400728032E+02  0.00000000000E+00 0.  1.
         11    1    3    3    0    0  0.33490333583E+00  0.11122186883E+01 -0.36483694359E+01  0.38288105799E+01  0.51100000000E-03 0. -1.
        -11    1    3    3    0    0 -0.65108150851E+01  0.17777005998E+02  0.37091631783E+01  0.19291722242E+02  0.51100000000E-03 0.  1.
         12    1    3    3    0    0 -0.10804565239E+02  0.19734562858E+02  0.10112191597E+02  0.24666739146E+02  0.00000000000E+00 0. -1.
</event>
<event>
 7    1  0.2886681E-010  0.4778727E+02  0.7816164E-02  0.1312668E+00
        -11   -1    0    0    0    0  0.00000000000E+00  0.00000000000E+00  0.45593999997E+02  0.45594000000E+02  0.51100000000E-03 0. -1.
         11   -1    0    0    0    0 -0.00000000000E+00 -0.00000000000E+00 -0.45593999997E+02  0.45594000000E+02  0.51100000000E-03 0.  1.
    9900012    2    1    2    0    0 -0.26835287710E+02  0.28144050414E+02  0.19271825246E+02  0.47787268571E+02  0.19999988725E+02 0.  0.
        -12    1    1    2    0    0  0.26835287710E+02 -0.28144050414E+02 -0.19271825246E+02  0.43400731429E+02  0.00000000000E+00 0.  1.
         11    1    3    3    0    0 -0.20220054444E+02  0.19930079833E+02  0.18973754730E+02  0.34147650763E+02  0.51100000000E-03 0. -1.
        -11    1    3    3    0    0 -0.84789766628E+01  0.73255017964E+01 -0.91919534089E+00  0.11242817358E+02  0.51100000000E-03 0.  1.
         12    1    3    3    0    0  0.18637433961E+01  0.88846878452E+00  0.12172658576E+01  0.23968004497E+01  0.00000000000E+00 0. -1.
</event>
<event>
 7    1  0.2886681E-010  0.4778727E+02  0.7816164E-02  0.1312668E+00
        -11   -1    0    0    0    0  0.00000000000E+00  0.00000000000E+00  0.45593999997E+02  0.45594000000E+02  0.51100000000E-03 0.  1.
         11   -1    0    0    0    0 -0.00000000000E+00 -0.00000000000E+00 -0.45593999997E+02  0.45594000000E+02  0.51100000000E-03 0. -1.
    9900012    2    1    2    0    0 -0.23027203664E+01 -0.21031821138E+02 -0.37894373512E+02  0.47787267687E+02  0.19999984691E+02 0.  0.
        -12    1    1    2    0    0  0.23027203664E+01  0.21031821138E+02  0.37894373512E+02  0.43400732313E+02  0.00000000000E+00 0.  1.
         11    1    3    3    0    0 -0.55921359504E+00 -0.16428329173E+02 -0.39053400812E+02  0.42371816512E+02  0.51100000000E-03 0. -1.
        -11    1    3    3    0    0 -0.58951185295E+00 -0.25028963662E+01 -0.33210723569E+00  0.25927417769E+01  0.51100000000E-03 0.  1.
         12    1    3    3    0    0 -0.11539949185E+01 -0.21005955991E+01  0.14911345358E+01  0.28227093981E+01  0.00000000000E+00 0. -1.
</event>
<event>
 7    1  0.2886681E-010  0.4778727E+02  0.7816164E-02  0.1312668E+00
        -11   -1    0    0    0    0  0.00000000000E+00  0.00000000000E+00  0.45593999997E+02  0.45594000000E+02  0.51100000000E-03 0.  1.
         11   -1    0    0    0    0 -0.00000000000E+00 -0.00000000000E+00 -0.45593999997E+02  0.45594000000E+02  0.51100000000E-03 0. -1.
    9900012    2    1    2    0    0 -0.27087744928E+02 -0.32332085994E+02 -0.10223185927E+02  0.47787271429E+02  0.20000001753E+02 0.  0.
        -12    1    1    2    0    0  0.27087744928E+02  0.32332085994E+02  0.10223185927E+02  0.43400728571E+02  0.00000000000E+00 0.  1.
         11    1    3    3    0    0 -0.70233573889E+01 -0.23302837530E+02 -0.43034576197E+01  0.24715774997E+02  0.51100000000E-03 0. -1.
        -11    1    3    3    0    0 -0.46760456480E+01 -0.67812993119E+00 -0.54243173747E+00  0.47559957482E+01  0.51100000000E-03 0.  1.
         12    1    3    3    0    0 -0.15388341891E+02 -0.83511185333E+01 -0.53772965701E+01  0.18315500684E+02  0.00000000000E+00 0. -1.
</event>
<event>
 7    1  0.2886681E-010  0.4778727E+02  0.7816164E-02  0.1312668E+00
        -11   -1    0    0    0    0  0.00000000000E+00  0.00000000000E+00  0.45593999997E+02  0.45594000000E+02  0.51100000000E-03 0. -1.
         11   -1    0    0    0    0 -0.00000000000E+00 -0.00000000000E+00 -0.45593999997E+02  0.45594000000E+02  0.51100000000E-03 0.  1.
    9900012    2    1    2    0    0  0.13067416756E+02  0.35544065063E+02  0.21201069132E+02  0.47787271041E+02  0.19999999982E+02 0.  0.
        -12    1    1    2    0    0 -0.13067416756E+02 -0.35544065063E+02 -0.21201069132E+02  0.43400728959E+02  0.00000000000E+00 0.  1.
         11    1    3    3    0    0  0.12125005400E+02  0.21365025153E+02  0.19834302209E+02  0.31573400198E+02  0.51100000000E-03 0.  1.
        -11    1    3    3    0    0 -0.85203988482E+00  0.14323096979E+02  0.10581230258E+01  0.14387380013E+02  0.51100000000E-03 0. -1.
        -12    1    3    3    0    0  0.17944512409E+01 -0.14405706859E+00  0.30864389776E+00  0.18264908296E+01  0.00000000000E+00 0.  1.
</event>
<event>
 7    1  0.2886681E-010  0.4778727E+02  0.7816164E-02  0.1312668E+00
        -11   -1    0    0    0    0  0.00000000000E+00  0.00000000000E+00  0.45593999997E+02  0.45594000000E+02  0.51100000000E-03 0.  1.
         11   -1    0    0    0    0 -0.00000000000E+00 -0.00000000000E+00 -0.45593999997E+02  0.45594000000E+02  0.51100000000E-03 0. -1.
    9900012    2    1    2    0    0 -0.17741517324E+02  0.31545755847E+02 -0.23952605366E+02  0.47787268984E+02  0.19999990606E+02 0.  0.
        -12    1    1    2    0    0  0.17741517324E+02 -0.31545755847E+02  0.23952605366E+02  0.43400731016E+02  0.00000000000E+00 0.  1.
         11    1    3    3    0    0 -0.95994015631E+01  0.28201126566E+02 -0.16395135179E+02  0.34003713147E+02  0.51100000000E-03 0. -1.
        -11    1    3    3    0    0 -0.25342034456E+01  0.27517402315E+01  0.67857871211E+00  0.38019377605E+01  0.51100000000E-03 0.  1.
         12    1    3    3    0    0 -0.56079123150E+01  0.59288904910E+00 -0.82360488991E+01  0.99816180765E+01  0.00000000000E+00 0. -1.
</event>
<event>
 7    1  0.2886681E-010  0.4778727E+02  0.7816164E-02  0.1312668E+00
        -11   -1    0    0    0    0  0.00000000000E+00  0.00000000000E+00  0.45593999997E+02  0.45594000000E+02  0.51100000000E-03 0.  1.
         11   -1    0    0    0    0 -0.00000000000E+00 -0.00000000000E+00 -0.45593999997E+02  0.45594000000E+02  0.51100000000E-03 0. -1.
    9900012    2    1    2    0    0 -0.18415794747E+02  0.63737727246E+01 -0.38779593458E+02  0.47787270241E+02  0.19999996335E+02 0.  0.
        -12    1    1    2    0    0  0.18415794747E+02 -0.63737727246E+01  0.38779593458E+02  0.43400729759E+02  0.00000000000E+00 0.  1.
         11    1    3    3    0    0 -0.17178358992E+02  0.10697224425E+02 -0.26263897252E+02  0.33155978755E+02  0.51100000000E-03 0. -1.
        -11    1    3    3    0    0  0.99924392319E+00 -0.16402592105E+01 -0.32244827112E+00  0.19475399468E+01  0.51100000000E-03 0.  1.
         12    1    3    3    0    0 -0.22366796782E+01 -0.26831924898E+01 -0.12193247934E+02  0.12683751539E+02  0.00000000000E+00 0. -1.
</event>
<event>
 7    1  0.2886681E-010  0.4778727E+02  0.7816164E-02  0.1312668E+00
        -11   -1    0    0    0    0  0.00000000000E+00  0.00000000000E+00  0.45593999997E+02  0.45594000000E+02  0.51100000000E-03 0.  1.
         11   -1    0    0    0    0 -0.00000000000E+00 -0.00000000000E+00 -0.45593999997E+02  0.45594000000E+02  0.51100000000E-03 0. -1.
    9900012    2    1    2    0    0  0.98418849349E+01  0.77096115098E+01 -0.41561068740E+02  0.47787271394E+02  0.20000001595E+02 0.  0.
        -12    1    1    2    0    0 -0.98418849349E+01 -0.77096115098E+01  0.41561068740E+02  0.43400728606E+02  0.00000000000E+00 0.  1.
         11    1    3    3    0    0  0.93655025982E+01 -0.35227032588E+01 -0.23634808309E+02  0.25665662689E+02  0.51100000000E-03 0. -1.
        -11    1    3    3    0    0  0.28763723581E+01  0.77026111324E+01 -0.87822891334E+01  0.12030475422E+02  0.51100000000E-03 0.  1.
         12    1    3    3    0    0 -0.23999900214E+01  0.35297036362E+01 -0.91439712970E+01  0.10091133283E+02  0.00000000000E+00 0. -1.
</event>
<event>
 7    1  0.2886681E-010  0.4778727E+02  0.7816164E-02  0.1312668E+00
        -11   -1    0    0    0    0  0.00000000000E+00  0.00000000000E+00  0.45593999997E+02  0.45594000000E+02  0.51100000000E-03 0.  1.
         11   -1    0    0    0    0 -0.00000000000E+00 -0.00000000000E+00 -0.45593999997E+02  0.45594000000E+02  0.51100000000E-03 0. -1.
    9900012    2    1    2    0    0  0.29732780676E+02  0.29522589089E+02  0.11313799526E+02  0.47787267598E+02  0.19999984288E+02 0.  0.
        -12    1    1    2    0    0 -0.29732780676E+02 -0.29522589089E+02 -0.11313799526E+02  0.43400732402E+02  0.00000000000E+00 0.  1.
         11    1    3    3    0    0  0.11988362796E+02  0.11528956154E+02 -0.22170947246E+01  0.16779546532E+02  0.51100000000E-03 0. -1.
        -11    1    3    3    0    0  0.19084086021E+02  0.18385251186E+02  0.12973960244E+02  0.29504973227E+02  0.51100000000E-03 0.  1.
        -12    1    3    3    0    0 -0.13396681411E+01 -0.39161825067E+00  0.55693400620E+00  0.15027478397E+01  0.00000000000E+00 0.  1.
</event>
<event>
 7    1  0.2886681E-010  0.4778727E+02  0.7816164E-02  0.1312668E+00
        -11   -1    0    0    0    0  0.00000000000E+00  0.00000000000E+00  0.45593999997E+02  0.45594000000E+02  0.51100000000E-03 0. -1.
         11   -1    0    0    0    0 -0.00000000000E+00 -0.00000000000E+00 -0.45593999997E+02  0.45594000000E+02  0.51100000000E-03 0.  1.
    9900012    2    1    2    0    0  0.76455972550E+01  0.34649242991E+02  0.24991956502E+02  0.47787273197E+02  0.20000009815E+02 0.  0.
        -12    1    1    2    0    0 -0.76455972550E+01 -0.34649242991E+02 -0.24991956502E+02  0.43400726803E+02  0.00000000000E+00 0.  1.
         11    1    3    3    0    0  0.10961339455E+02  0.17789730038E+02  0.17198774750E+02  0.27063320392E+02  0.51100000000E-03 0. -1.
        -11    1    3    3    0    0 -0.35640365473E+01  0.29034020910E+01 -0.26859221007E+00  0.46048064290E+01  0.51100000000E-03 0.  1.
         12    1    3    3    0    0  0.24829434694E+00  0.13956110862E+02  0.80617739619E+01  0.16119146376E+02  0.00000000000E+00 0. -1.
</event>
<event>
 7    1  0.2886681E-010  0.4778727E+02  0.7816164E-02  0.1312668E+00
        -11   -1    0    0    0    0  0.00000000000E+00  0.00000000000E+00  0.45593999997E+02  0.45594000000E+02  0.51100000000E-03 0.  1.
         11   -1    0    0    0    0 -0.00000000000E+00 -0.00000000000E+00 -0.45593999997E+02  0.45594000000E+02  0.51100000000E-03 0. -1.
    9900012    2    1    2    0    0 -0.84341812549E+01 -0.40135169661E+02 -0.14200558194E+02  0.47787272930E+02  0.20000008599E+02 0.  0.
        -12    1    1    2    0    0  0.84341812549E+01  0.40135169661E+02  0.14200558194E+02  0.43400727070E+02  0.00000000000E+00 0.  1.
         11    1    3    3    0    0 -0.34924793719E+01 -0.73718364985E+00 -0.45081825243E+01  0.57501792868E+01  0.51100000000E-03 0. -1.
        -11    1    3    3    0    0 -0.19670674227E+01 -0.13381021528E+01 -0.19679600365E+01  0.30875133333E+01  0.51100000000E-03 0.  1.
         12    1    3    3    0    0 -0.29746344603E+01 -0.38059883858E+02 -0.77244156336E+01  0.38949580310E+02  0.00000000000E+00 0. -1.
</event>
<event>
 7    1  0.2886681E-010  0.4778727E+02  0.7816164E-02  0.1312668E+00
        -11   -1    0    0    0    0  0.00000000000E+00  0.00000000000E+00  0.45593999997E+02  0.45594000000E+02  0.51100000000E-03 0.  1.
         11   -1    0    0    0    0 -0.00000000000E+00 -0.00000000000E+00 -0.45593999997E+02  0.45594000000E+02  0.51100000000E-03 0. -1.
    9900012    2    1    2    0    0 -0.43948971703E+01 -0.41606599956E+02 -0.11541208925E+02  0.47787265162E+02  0.19999973180E+02 0.  0.
        -12    1    1    2    0    0  0.43948971703E+01  0.41606599956E+02  0.11541208925E+02  0.43400734838E+02  0.00000000000E+00 0.  1.
         11    1    3    3    0    0 -0.54708476052E+01 -0.11378217417E+02 -0.36927064862E+01  0.13154090108E+02  0.51100000000E-03 0. -1.
        -11    1    3    3    0    0 -0.91651937900E+00  0.11955588089E+01  0.11390008919E+01  0.18885687518E+01  0.51100000000E-03 0.  1.
        -12    1    3    3    0    0  0.19924698139E+01 -0.31423941347E+02 -0.89875033310E+01  0.32744606302E+02  0.00000000000E+00 0.  1.
</event>
<event>
 7    1  0.2886681E-010  0.4778728E+02  0.7816164E-02  0.1312668E+00
        -11   -1    0    0    0    0  0.00000000000E+00  0.00000000000E+00  0.45593999997E+02  0.45594000000E+02  0.51100000000E-03 0.  1.
         11   -1    0    0    0    0 -0.00000000000E+00 -0.00000000000E+00 -0.45593999997E+02  0.45594000000E+02  0.51100000000E-03 0. -1.
    9900012    2    1    2    0    0  0.20604518721E+02  0.19304194641E+02 -0.32960957594E+02  0.47787275951E+02  0.20000022371E+02 0.  0.
        -12    1    1    2    0    0 -0.20604518721E+02 -0.19304194641E+02  0.32960957594E+02  0.43400724049E+02  0.00000000000E+00 0.  1.
         11    1    3    3    0    0  0.60395126675E+01  0.23835220497E+01 -0.36273194074E+01  0.74373608872E+01  0.51100000000E-03 0. -1.
        -11    1    3    3    0    0 -0.12733252504E+01  0.58362737222E+01 -0.10107379899E+01  0.60584684285E+01  0.51100000000E-03 0.  1.
        -12    1    3    3    0    0  0.15838331304E+02  0.11084398869E+02 -0.28322900197E+02  0.34291446635E+02  0.00000000000E+00 0.  1.
</event>
<event>
 7    1  0.2886681E-010  0.4778727E+02  0.7816164E-02  0.1312668E+00
        -11   -1    0    0    0    0  0.00000000000E+00  0.00000000000E+00  0.45593999997E+02  0.45594000000E+02  0.51100000000E-03 0.  1.
         11   -1    0    0    0    0 -0.00000000000E+00 -0.00000000000E+00 -0.45593999997E+02  0.45594000000E+02  0.51100000000E-03 0. -1.
    9900012    2    1    2    0    0 -0.41322370716E+02  0.13163743237E+02 -0.16734676406E+01  0.47787274758E+02  0.20000016931E+02 0.  0.
        -12    1    1    2    0    0  0.41322370716E+02 -0.13163743237E+02  0.16734676406E+01  0.43400725242E+02  0.00000000000E+00 0.  1.
         11    1    3    3    0    0 -0.61835253693E+01 -0.11887940358E+01 -0.11731750115E+01  0.64051196024E+01  0.51100000000E-03 0.  1.
        -11    1    3    3    0    0 -0.36517180367E+02  0.11935708116E+02  0.51135017299E+00  0.38421700502E+02  0.51100000000E-03 0. -1.
        -12    1    3    3    0    0  0.13783350200E+01  0.24168291565E+01 -0.10116428021E+01  0.29604546539E+01  0.00000000000E+00 0.  1.
</event>
<event>
 7    1  0.2886681E-010  0.4778727E+02  0.7816164E-02  0.1312668E+00
        -11   -1    0    0    0    0  0.00000000000E+00  0.00000000000E+00  0.45593999997E+02  0.45594000000E+02  0.51100000000E-03 0. -1.
         11   -1    0    0    0    0 -0.00000000000E+00 -0.00000000000E+00 -0.45593999997E+02  0.45594000000E+02  0.51100000000E-03 0.  1.
    9900012    2    1    2    0    0 -0.34914233787E+02  0.25235428208E+02  0.52718549721E+01  0.47787274054E+02  0.20000013724E+02 0.  0.
        -12    1    1    2    0    0  0.34914233787E+02 -0.25235428208E+02 -0.52718549721E+01  0.43400725946E+02  0.00000000000E+00 0.  1.
         11    1    3    3    0    0 -0.10796155445E+02  0.36334929345E+01  0.29133287872E+01  0.11757836884E+02  0.51100000000E-03 0. -1.
        -11    1    3    3    0    0 -0.14567870695E+02  0.85932311370E+01 -0.58848110342E+01  0.17908028343E+02  0.51100000000E-03 0.  1.
        -12    1    3    3    0    0 -0.95502076468E+01  0.13008704136E+02  0.82433372191E+01  0.18121408828E+02  0.00000000000E+00 0.  1.
</event>
<event>
 7    1  0.2155551E-009  0.4778727E+02  0.7816164E-02  0.1312668E+00
        -11   -1    0    0    0    0  0.00000000000E+00  0.00000000000E+00  0.45593999997E+02  0.45594000000E+02  0.51100000000E-03 0.  1.
         11   -1    0    0    0    0 -0.00000000000E+00 -0.00000000000E+00 -0.45593999997E+02  0.45594000000E+02  0.51100000000E-03 0. -1.
    9900012    2    1    2    0    0  0.72507415366E+00  0.39256156265E+02 -0.18494641376E+02  0.47787270780E+02  0.19999998793E+02 0.  0.
        -12    1    1    2    0    0 -0.72507415366E+00 -0.39256156265E+02  0.18494641376E+02  0.43400729220E+02  0.00000000000E+00 0.  1.
         11    1    3    3    0    0 -0.70887940891E+01  0.11589269644E+02 -0.87283127024E+01  0.16147619496E+02  0.51100000000E-03 0. -1.
        -11    1    3    3    0    0  0.43624904264E+01  0.47001165873E+01 -0.44753814091E+01  0.78199397487E+01  0.51100000000E-03 0.  1.
         12    1    3    3    0    0  0.34513778163E+01  0.22966770034E+02 -0.52909472643E+01  0.23819711534E+02  0.00000000000E+00 0. -1.
</event>
<event>
 7    1  0.2886681E-010  0.4778728E+02  0.7816164E-02  0.1312668E+00
        -11   -1    0    0    0    0  0.00000000000E+00  0.00000000000E+00  0.45593999997E+02  0.45594000000E+02  0.51100000000E-03 0.  1.
         11   -1    0    0    0    0 -0.00000000000E+00 -0.00000000000E+00 -0.45593999997E+02  0.45594000000E+02  0.51100000000E-03 0. -1.
    9900012    2    1    2    0    0  0.40819869967E+02 -0.11782606524E+02  0.88617838165E+01  0.47787276354E+02  0.20000024209E+02 0.  0.
        -12    1    1    2    0    0 -0.40819869967E+02  0.11782606524E+02 -0.88617838165E+01  0.43400723646E+02  0.00000000000E+00 0.  1.
         11    1    3    3    0    0  0.17484966803E+02 -0.86762258422E+01  0.12709258908E+02  0.23292192280E+02  0.51100000000E-03 0.  1.
        -11    1    3    3    0    0  0.10059341153E+02 -0.22802331719E+01 -0.43265734281E+01  0.11185215493E+02  0.51100000000E-03 0. -1.
        -12    1    3    3    0    0  0.13275562011E+02 -0.82614750957E+00  0.47909833659E+00  0.13309868581E+02  0.00000000000E+00 0.  1.
</event>
<event>
 7    1  0.2886681E-010  0.4778728E+02  0.7816164E-02  0.1312668E+00
        -11   -1    0    0    0    0  0.00000000000E+00  0.00000000000E+00  0.45593999997E+02  0.45594000000E+02  0.51100000000E-03 0. -1.
         11   -1    0    0    0    0 -0.00000000000E+00 -0.00000000000E+00 -0.45593999997E+02  0.45594000000E+02  0.51100000000E-03 0.  1.
    9900012    2    1    2    0    0  0.33908627657E+02 -0.12276956771E+02 -0.24147547275E+02  0.47787277235E+02  0.20000028225E+02 0.  0.
        -12    1    1    2    0    0 -0.33908627657E+02  0.12276956771E+02  0.24147547275E+02  0.43400722765E+02  0.00000000000E+00 0.  1.
         11    1    3    3    0    0  0.88920807950E+01 -0.25364042274E+01 -0.54171895120E+01  0.10716734099E+02  0.51100000000E-03 0. -1.
        -11    1    3    3    0    0  0.16424133315E+02  0.84561233345E+00 -0.38542929843E+01  0.16891500526E+02  0.51100000000E-03 0.  1.
        -12    1    3    3    0    0  0.85924135476E+01 -0.10586164877E+02 -0.14876064778E+02  0.20179042610E+02  0.00000000000E+00 0.  1.
</event>
<event>
 7    1  0.2886681E-010  0.4778727E+02  0.7816164E-02  0.1312668E+00
        -11   -1    0    0    0    0  0.00000000000E+00  0.00000000000E+00  0.45593999997E+02  0.45594000000E+02  0.51100000000E-03 0.  1.
         11   -1    0    0    0    0 -0.00000000000E+00 -0.00000000000E+00 -0.45593999997E+02  0.45594000000E+02  0.51100000000E-03 0. -1.
    9900012    2    1    2    0    0 -0.36186322566E+02  0.18696054081E+02 -0.14987690778E+02  0.47787271274E+02  0.20000001048E+02 0.  0.
        -12    1    1    2    0    0  0.36186322566E+02 -0.18696054081E+02  0.14987690778E+02  0.43400728726E+02  0.00000000000E+00 0.  1.
         11    1    3    3    0    0 -0.33604558720E+02  0.92777569281E+01 -0.12153799477E+02  0.36919615144E+02  0.51100000000E-03 0. -1.
        -11    1    3    3    0    0 -0.29236958698E+01  0.96190469976E+01 -0.29049404845E+01  0.10464833595E+02  0.51100000000E-03 0.  1.
         12    1    3    3    0    0  0.34193202377E+00 -0.20074984468E+00  0.71049183381E-01  0.40282253596E+00  0.00000000000E+00 0. -1.
</event>
<event>
 7    1  0.2886681E-010  0.4778729E+02  0.7816164E-02  0.1312668E+00
        -11   -1    0    0    0    0  0.00000000000E+00  0.00000000000E+00  0.45593999997E+02  0.45594000000E+02  0.51100000000E-03 0. -1.
         11   -1    0    0    0    0 -0.00000000000E+00 -0.00000000000E+00 -0.45593999997E+02  0.45594000000E+02  0.51100000000E-03 0.  1.
    9900012    2    1    2    0    0  0.28643329453E+02  0.30698843818E+02  0.10989196920E+02  0.47787288221E+02  0.20000078317E+02 0.  0.
        -12    1    1    2    0    0 -0.28643329453E+02 -0.30698843818E+02 -0.10989196920E+02  0.43400711779E+02  0.00000000000E+00 0.  1.
         11    1    3    3    0    0  0.21891456972E+02  0.19193234473E+02  0.12336106936E+02  0.31619545735E+02  0.51100000000E-03 0. -1.
        -11    1    3    3    0    0 -0.18209830954E+01  0.37217596064E+01  0.11957916315E+01  0.43124693493E+01  0.51100000000E-03 0.  1.
         12    1    3    3    0    0  0.85728555765E+01  0.77838497383E+01 -0.25427016474E+01  0.11855273137E+02  0.00000000000E+00 0. -1.
</event>
<event>
 7    1  0.2886681E-010  0.4778727E+02  0.7816164E-02  0.1312668E+00
        -11   -1    0    0    0    0  0.00000000000E+00  0.00000000000E+00  0.45593999997E+02  0.45594000000E+02  0.51100000000E-03 0.  1.
         11   -1    0    0    0    0 -0.00000000000E+00 -0.00000000000E+00 -0.45593999997E+02  0.45594000000E+02  0.51100000000E-03 0. -1.
    9900012    2    1    2    0    0  0.33936095341E+02 -0.80296068708E+01 -0.25835834249E+02  0.47787268614E+02  0.19999988918E+02 0.  0.
        -12    1    1    2    0    0 -0.33936095341E+02  0.80296068708E+01  0.25835834249E+02  0.43400731386E+02  0.00000000000E+00 0.  1.
         11    1    3    3    0    0  0.23634205284E+02 -0.47528278712E+01 -0.25041869275E+02  0.34760038107E+02  0.51100000000E-03 0. -1.
        -11    1    3    3    0    0  0.95130809033E+00  0.39402357559E+00  0.22969154118E+01  0.25171536168E+01  0.51100000000E-03 0.  1.
         12    1    3    3    0    0  0.93505819669E+01 -0.36708025751E+01 -0.30908803864E+01  0.10510076890E+02  0.00000000000E+00 0. -1.
</event>
<event>
 7    1  0.2886681E-010  0.4778727E+02  0.7816164E-02  0.1312668E+00
        -11   -1    0    0    0    0  0.00000000000E+00  0.00000000000E+00  0.45593999997E+02  0.45594000000E+02  0.51100000000E-03 0. -1.
         11   -1    0    0    0    0 -0.00000000000E+00 -0.00000000000E+00 -0.45593999997E+02  0.45594000000E+02  0.51100000000E-03 0.  1.
    9900012    2    1    2    0    0 -0.17289982258E+02 -0.38797485204E+02  0.89126182300E+01  0.47787272951E+02  0.20000008693E+02 0.  0.
        -12    1    1    2    0    0  0.17289982258E+02  0.38797485204E+02 -0.89126182300E+01  0.43400727049E+02  0.00000000000E+00 0.  1.
         11    1    3    3    0    0 -0.87378593931E+01 -0.25159173685E+02  0.11757779912E+02  0.29113220296E+02  0.51100000000E-03 0. -1.
        -11    1    3    3    0    0 -0.35942908533E+01 -0.11008385935E+02 -0.50640487670E+01  0.12639148619E+02  0.51100000000E-03 0.  1.
        -12    1    3    3    0    0 -0.49578320112E+01 -0.26299255843E+01  0.22188870856E+01  0.60349040364E+01  0.00000000000E+00 0.  1.
</event>
<event>
 7    1  0.2886681E-010  0.4778727E+02  0.7816164E-02  0.1312668E+00
        -11   -1    0    0    0    0  0.00000000000E+00  0.00000000000E+00  0.45593999997E+02  0.45594000000E+02  0.51100000000E-03 0.  1.
         11   -1    0    0    0    0 -0.00000000000E+00 -0.00000000000E+00 -0.45593999997E+02  0.45594000000E+02  0.51100000000E-03 0. -1.
    9900012    2    1    2    0    0 -0.29467085929E+02  0.73669342694E+01 -0.31000685191E+02  0.47787270098E+02  0.19999995687E+02 0.  0.
        -12    1    1    2    0    0  0.29467085929E+02 -0.73669342694E+01  0.31000685191E+02  0.43400729902E+02  0.00000000000E+00 0.  1.
         11    1    3    3    0    0 -0.81738932123E+01  0.40465789760E+01 -0.22135952594E+02  0.23941339335E+02  0.51100000000E-03 0. -1.
        -11    1    3    3    0    0 -0.66820748138E+01 -0.63076236491E+00 -0.99108516782E+00  0.67845585744E+01  0.51100000000E-03 0.  1.
         12    1    3    3    0    0 -0.14611117903E+02  0.39511176583E+01 -0.78736474290E+01  0.17061372189E+02  0.00000000000E+00 0. -1.
</event>
<event>
 7    1  0.2886681E-010  0.4778727E+02  0.7816164E-02  0.1312668E+00
        -11   -1    0    0    0    0  0.00000000000E+00  0.00000000000E+00  0.45593999997E+02  0.45594000000E+02  0.51100000000E-03 0.  1.
         11   -1    0    0    0    0 -0.00000000000E+00 -0.00000000000E+00 -0.45593999997E+02  0.45594000000E+02  0.51100000000E-03 0. -1.
    9900012    2    1    2    0    0 -0.24263793817E+02  0.35144443193E+02 -0.77304511651E+01  0.47787268981E+02  0.19999990593E+02 0.  0.
        -12    1    1    2    0    0  0.24263793817E+02 -0.35144443193E+02  0.77304511651E+01  0.43400731019E+02  0.00000000000E+00 0.  1.
         11    1    3    3    0    0 -0.60385512653E+01  0.19814577286E+02  0.13895232662E+01  0.20760836919E+02  0.51100000000E-03 0. -1.
        -11    1    3    3    0    0 -0.16083633509E+02  0.15720344898E+02 -0.10081670587E+02  0.24646553362E+02  0.51100000000E-03 0.  1.
        -12    1    3    3    0    0 -0.21416090428E+01 -0.39047899018E+00  0.96169615539E+00  0.23798787005E+01  0.00000000000E+00 0.  1.
</event>
<event>
 7    1  0.2886681E-010  0.4778727E+02  0.7816164E-02  0.1312668E+00
        -11   -1    0    0    0    0  0.00000000000E+00  0.00000000000E+00  0.45593999997E+02  0.45594000000E+02  0.51100000000E-03 0.  1.
         11   -1    0    0    0    0 -0.00000000000E+00 -0.00000000000E+00 -0.45593999997E+02  0.45594000000E+02  0.51100000000E-03 0. -1.
    9900012    2    1    2    0    0  0.74298038509E+01  0.37178056509E+02 -0.21123761045E+02  0.47787272451E+02  0.20000006415E+02 0.  0.
        -12    1    1    2    0    0 -0.74298038509E+01 -0.37178056509E+02  0.21123761045E+02  0.43400727549E+02  0.00000000000E+00 0.  1.
         11    1    3    3    0    0  0.18556827898E+01 -0.10554405590E+01 -0.54710670685E+01  0.58728262803E+01  0.51100000000E-03 0.  1.
        -11    1    3    3    0    0  0.35232302432E+00  0.16920601351E+02 -0.62485435540E+01  0.18040930641E+02  0.51100000000E-03 0. -1.
         12    1    3    3    0    0  0.52217980368E+01  0.21312895718E+02 -0.94041504222E+01  0.23873515530E+02  0.00000000000E+00 0. -1.
</event>
<event>
 7    1  0.2886681E-010  0.4778723E+02  0.7816164E-02  0.1312668E+00
        -11   -1    0    0    0    0  0.00000000000E+00  0.00000000000E+00  0.45593999997E+02  0.45594000000E+02  0.51100000000E-03 0. -1.
         11   -1    0    0    0    0 -0.00000000000E+00 -0.00000000000E+00 -0.45593999997E+02  0.45594000000E+02  0.51100000000E-03 0.  1.
    9900012    2    1    2    0    0  0.18739587914E+02  0.29700651815E+02  0.25501481504E+02  0.47787234658E+02  0.19999834099E+02 0.  0.
        -12    1    1    2    0    0 -0.18739587914E+02 -0.29700651815E+02 -0.25501481504E+02  0.43400765342E+02  0.00000000000E+00 0.  1.
         11    1    3    3    0    0  0.78805973168E+01  0.14543073314E+02  0.16725753433E+02  0.23523512145E+02  0.51100000000E-03 0. -1.
        -11    1    3    3    0    0  0.12820409994E+01  0.43660045596E+01 -0.31587046695E+01  0.55392274180E+01  0.51100000000E-03 0.  1.
        -12    1    3    3    0    0  0.95769495977E+01  0.10791573941E+02  0.11934432740E+02  0.18724495095E+02  0.00000000000E+00 0.  1.
</event>
<event>
 7    1  0.2886681E-010  0.4778726E+02  0.7816164E-02  0.1312668E+00
        -11   -1    0    0    0    0  0.00000000000E+00  0.00000000000E+00  0.45593999997E+02  0.45594000000E+02  0.51100000000E-03 0. -1.
         11   -1    0    0    0    0 -0.00000000000E+00 -0.00000000000E+00 -0.45593999997E+02  0.45594000000E+02  0.51100000000E-03 0.  1.
    9900012    2    1    2    0    0  0.42451478914E+02 -0.85503999748E+01 -0.28959765507E+01  0.47787261736E+02  0.19999957557E+02 0.  0.
        -12    1    1    2    0    0 -0.42451478914E+02  0.85503999748E+01  0.28959765507E+01  0.43400738264E+02  0.00000000000E+00 0.  1.
         11    1    3    3    0    0  0.11593753921E+02 -0.37194137588E+01 -0.14816178078E+01  0.12265576231E+02  0.51100000000E-03 0. -1.
        -11    1    3    3    0    0  0.50912631428E+01 -0.56875042730E+01 -0.55145892956E+01  0.94169719445E+01  0.51100000000E-03 0.  1.
        -12    1    3    3    0    0  0.25766461850E+02  0.85651805697E+00  0.41002305527E+01  0.26104713560E+02  0.00000000000E+00 0.  1.
</event>
<event>
 7    1  0.2886681E-010  0.4778727E+02  0.7816164E-02  0.1312668E+00
        -11   -1    0    0    0    0  0.00000000000E+00  0.00000000000E+00  0.45593999997E+02  0.45594000000E+02  0.51100000000E-03 0. -1.
         11   -1    0    0    0    0 -0.00000000000E+00 -0.00000000000E+00 -0.45593999997E+02  0.45594000000E+02  0.51100000000E-03 0.  1.
    9900012    2    1    2    0    0 -0.14163994818E+02  0.28046006822E+02  0.29940373212E+02  0.47787271942E+02  0.20000004093E+02 0.  0.
        -12    1    1    2    0    0  0.14163994818E+02 -0.28046006822E+02 -0.29940373212E+02  0.43400728058E+02  0.00000000000E+00 0.  1.
         11    1    3    3    0    0 -0.43825519543E+01 -0.18871273560E+01  0.48703207495E+01  0.68182135310E+01  0.51100000000E-03 0. -1.
        -11    1    3    3    0    0 -0.82567884772E+00  0.13432822293E+02  0.84175462345E+01  0.15873800591E+02  0.51100000000E-03 0.  1.
         12    1    3    3    0    0 -0.89557640157E+01  0.16500311885E+02  0.16652506228E+02  0.25095257821E+02  0.00000000000E+00 0. -1.
</event>
<event>
 7    1  0.2886681E-010  0.4778727E+02  0.7816164E-02  0.1312668E+00
        -11   -1    0    0    0    0  0.00000000000E+00  0.00000000000E+00  0.45593999997E+02  0.45594000000E+02  0.51100000000E-03 0.  1.
         11   -1    0    0    0    0 -0.00000000000E+00 -0.00000000000E+00 -0.45593999997E+02  0.45594000000E+02  0.51100000000E-03 0. -1.
    9900012    2    1    2    0    0 -0.14245304333E+02  0.35185154740E+02 -0.21040420281E+02  0.47787273103E+02  0.20000009385E+02 0.  0.
        -12    1    1    2    0    0  0.14245304333E+02 -0.35185154740E+02  0.21040420281E+02  0.43400726897E+02  0.00000000000E+00 0.  1.
         11    1    3    3    0    0 -0.74267550307E+01  0.29310216689E+02 -0.17463547140E+02  0.34917344854E+02  0.51100000000E-03 0. -1.
        -11    1    3    3    0    0 -0.19567798930E+01  0.70453480561E+01 -0.26904521456E+01  0.77913060388E+01  0.51100000000E-03 0.  1.
         12    1    3    3    0    0 -0.48617694099E+01 -0.11704100056E+01 -0.88642099507E+00  0.50786222104E+01  0.00000000000E+00 0. -1.
</event>
<event>
 7    1  0.2886681E-010  0.4778727E+02  0.7816164E-02  0.1312668E+00
        -11   -1    0    0    0    0  0.00000000000E+00  0.00000000000E+00  0.45593999997E+02  0.45594000000E+02  0.51100000000E-03 0.  1.
         11   -1    0    0    0    0 -0.00000000000E+00 -0.00000000000E+00 -0.45593999997E+02  0.45594000000E+02  0.51100000000E-03 0. -1.
    9900012    2    1    2    0    0 -0.15020674502E+02 -0.38326400978E+02 -0.13750984646E+02  0.47787271283E+02  0.20000001089E+02 0.  0.
        -12    1    1    2    0    0  0.15020674502E+02  0.38326400978E+02  0.13750984646E+02  0.43400728717E+02  0.00000000000E+00 0.  1.
         11    1    3    3    0    0 -0.57608409139E+01 -0.18803389481E+02 -0.67266795483E+01  0.20784680946E+02  0.51100000000E-03 0. -1.
        -11    1    3    3    0    0  0.23957524010E+01 -0.17378018258E+01  0.23349370772E+01  0.37698164635E+01  0.51100000000E-03 0.  1.
        -12    1    3    3    0    0 -0.11655585989E+02 -0.17785209671E+02 -0.93592421751E+01  0.23232773874E+02  0.00000000000E+00 0.  1.
</event>
<event>
 7    1  0.2886681E-010  0.4778727E+02  0.7816164E-02  0.1312668E+00
        -11   -1    0    0    0    0  0.00000000000E+00  0.00000000000E+00  0.45593999997E+02  0.45594000000E+02  0.51100000000E-03 0.  1.
         11   -1    0    0    0    0 -0.00000000000E+00 -0.00000000000E+00 -0.45593999997E+02  0.45594000000E+02  0.51100000000E-03 0. -1.
    9900012    2    1    2    0    0 -0.15146666769E+02  0.26755725835E+02 -0.30632221952E+02  0.47787269581E+02  0.19999993329E+02 0.  0.
        -12    1    1    2    0    0  0.15146666769E+02 -0.26755725835E+02  0.30632221952E+02  0.43400730419E+02  0.00000000000E+00 0.  1.
         11    1    3    3    0    0 -0.38592575483E+01  0.16195328140E+02 -0.25620635304E+02  0.30554860105E+02  0.51100000000E-03 0. -1.
        -11    1    3    3    0    0 -0.81040507580E+01  0.75607999786E+01 -0.72324784531E+00  0.11106953800E+02  0.51100000000E-03 0.  1.
         12    1    3    3    0    0 -0.31833584624E+01  0.29995977163E+01 -0.42883388021E+01  0.61254556762E+01  0.00000000000E+00 0. -1.
</event>
<event>
 7    1  0.2886681E-010  0.4778727E+02  0.7816164E-02  0.1312668E+00
        -11   -1    0    0    0    0  0.00000000000E+00  0.00000000000E+00  0.45593999997E+02  0.45594000000E+02  0.51100000000E-03 0. -1.
         11   -1    0    0    0    0 -0.00000000000E+00 -0.00000000000E+00 -0.45593999997E+02  0.45594000000E+02  0.51100000000E-03 0.  1.
    9900012    2    1    2    0    0 -0.25990080388E+02 -0.24197038015E+02  0.24952797565E+02  0.47787273813E+02  0.20000012622E+02 0.  0.
        -12    1    1    2    0    0  0.25990080388E+02  0.24197038015E+02 -0.24952797565E+02  0.43400726187E+02  0.00000000000E+00 0.  1.
         11    1    3    3    0    0 -0.75580971504E+01 -0.14213876539E+00  0.19378557733E+01  0.78038657870E+01  0.51100000000E-03 0. -1.
        -11    1    3    3    0    0 -0.16883330032E+02 -0.17976322339E+02  0.22982770401E+02  0.33710573020E+02  0.51100000000E-03 0.  1.
        -12    1    3    3    0    0 -0.15486532059E+01 -0.60785769104E+01  0.32171391040E-01  0.62728350055E+01  0.00000000000E+00 0.  1.
</event>
<event>
 7    1  0.2886681E-010  0.4778727E+02  0.7816164E-02  0.1312668E+00
        -11   -1    0    0    0    0  0.00000000000E+00  0.00000000000E+00  0.45593999997E+02  0.45594000000E+02  0.51100000000E-03 0.  1.
         11   -1    0    0    0    0 -0.00000000000E+00 -0.00000000000E+00 -0.45593999997E+02  0.45594000000E+02  0.51100000000E-03 0. -1.
    9900012    2    1    2    0    0  0.32858816945E+02 -0.80202417769E+01 -0.27195531672E+02  0.47787273369E+02  0.20000010597E+02 0.  0.
        -12    1    1    2    0    0 -0.32858816945E+02  0.80202417769E+01  0.27195531672E+02  0.43400726631E+02  0.00000000000E+00 0.  1.
         11    1    3    3    0    0  0.67309942854E+01 -0.41265763859E+01 -0.59833620359E+01  0.99063382868E+01  0.51100000000E-03 0. -1.
        -11    1    3    3    0    0  0.20815417060E+02 -0.59560175682E+01 -0.23305065501E+02  0.31810089766E+02  0.51100000000E-03 0.  1.
        -12    1    3    3    0    0  0.53124055996E+01  0.20623521771E+01  0.20928958641E+01  0.60708453163E+01  0.00000000000E+00 0.  1.
</event>
<event>
 7    1  0.2886681E-010  0.4778727E+02  0.7816164E-02  0.1312668E+00
        -11   -1    0    0    0    0  0.00000000000E+00  0.00000000000E+00  0.45593999997E+02  0.45594000000E+02  0.51100000000E-03 0. -1.
         11   -1    0    0    0    0 -0.00000000000E+00 -0.00000000000E+00 -0.45593999997E+02  0.45594000000E+02  0.51100000000E-03 0.  1.
    9900012    2    1    2    0    0  0.23766150801E+02  0.25259609759E+02 -0.26091100163E+02  0.47787270550E+02  0.19999997746E+02 0.  0.
        -12    1    1    2    0    0 -0.23766150801E+02 -0.25259609759E+02  0.26091100163E+02  0.43400729450E+02  0.00000000000E+00 0.  1.
         11    1    3    3    0    0  0.72341468019E+00 -0.16478171085E+01  0.12809669716E+01  0.22089605397E+01  0.51100000000E-03 0. -1.
        -11    1    3    3    0    0  0.11251257744E+02  0.71630277638E+01 -0.83748198763E+01  0.15749202386E+02  0.51100000000E-03 0.  1.
         12    1    3    3    0    0  0.11791478377E+02  0.19744399104E+02 -0.18997247259E+02  0.29829107625E+02  0.00000000000E+00 0. -1.
</event>
<event>
 7    1  0.2886681E-010  0.4778727E+02  0.7816164E-02  0.1312668E+00
        -11   -1    0    0    0    0  0.00000000000E+00  0.00000000000E+00  0.45593999997E+02  0.45594000000E+02  0.51100000000E-03 0.  1.
         11   -1    0    0    0    0 -0.00000000000E+00 -0.00000000000E+00 -0.45593999997E+02  0.45594000000E+02  0.51100000000E-03 0. -1.
    9900012    2    1    2    0    0 -0.42532363384E+02 -0.85347999840E+01 -0.13335723705E+01  0.47787272344E+02  0.20000005925E+02 0.  0.
        -12    1    1    2    0    0  0.42532363384E+02  0.85347999840E+01  0.13335723705E+01  0.43400727656E+02  0.00000000000E+00 0.  1.
         11    1    3    3    0    0 -0.30210522137E+02 -0.12950035637E+02 -0.68732942530E+00  0.32876305948E+02  0.51100000000E-03 0. -1.
        -11    1    3    3    0    0 -0.84946980082E+01  0.19298718026E+01 -0.36530169661E+01  0.94461014520E+01  0.51100000000E-03 0.  1.
         12    1    3    3    0    0 -0.38271432390E+01  0.24853638507E+01  0.30067740210E+01  0.54648649439E+01  0.00000000000E+00 0. -1.
</event>
<event>
 7    1  0.2886681E-010  0.4778728E+02  0.7816164E-02  0.1312668E+00
        -11   -1    0    0    0    0  0.00000000000E+00  0.00000000000E+00  0.45593999997E+02  0.45594000000E+02  0.51100000000E-03 0.  1.
         11   -1    0    0    0    0 -0.00000000000E+00 -0.00000000000E+00 -0.45593999997E+02  0.45594000000E+02  0.51100000000E-03 0. -1.
    9900012    2    1    2    0    0  0.20927457084E+02  0.29678112326E+02 -0.23767075345E+02  0.47787277867E+02  0.20000031107E+02 0.  0.
        -12    1    1    2    0    0 -0.20927457084E+02 -0.29678112326E+02  0.23767075345E+02  0.43400722133E+02  0.00000000000E+00 0.  1.
         11    1    3    3    0    0  0.11962915757E+02  0.64464105419E+01 -0.14023092062E+02  0.19527280239E+02  0.51100000000E-03 0. -1.
        -11    1    3    3    0    0 -0.99131448637E+00  0.88126575261E+01 -0.19372006615E+01  0.90773555481E+01  0.51100000000E-03 0.  1.
         12    1    3    3    0    0  0.99558558128E+01  0.14419044258E+02 -0.78067826212E+01  0.19182642080E+02  0.00000000000E+00 0. -1.
</event>
<event>
 7    1  0.2886681E-010  0.4778727E+02  0.7816164E-02  0.1312668E+00
        -11   -1    0    0    0    0  0.00000000000E+00  0.00000000000E+00  0.45593999997E+02  0.45594000000E+02  0.51100000000E-03 0. -1.
         11   -1    0    0    0    0 -0.00000000000E+00 -0.00000000000E+00 -0.45593999997E+02  0.45594000000E+02  0.51100000000E-03 0.  1.
    9900012    2    1    2    0    0  0.21195461725E+01 -0.33819811451E+02  0.27117367650E+02  0.47787265550E+02  0.19999974948E+02 0.  0.
        -12    1    1    2    0    0 -0.21195461725E+01  0.33819811451E+02 -0.27117367650E+02  0.43400734450E+02  0.00000000000E+00 0.  1.
         11    1    3    3    0    0  0.29056042355E+01 -0.22610941390E+02  0.15280535457E+02  0.27444343144E+02  0.51100000000E-03 0. -1.
        -11    1    3    3    0    0 -0.57828145659E+01 -0.97553921440E+01  0.80711154535E+01  0.13919465691E+02  0.51100000000E-03 0.  1.
        -12    1    3    3    0    0  0.49967565029E+01 -0.14534779169E+01  0.37657167402E+01  0.64234567152E+01  0.00000000000E+00 0.  1.
</event>
<event>
 7    1  0.2886681E-010  0.4778727E+02  0.7816164E-02  0.1312668E+00
        -11   -1    0    0    0    0  0.00000000000E+00  0.00000000000E+00  0.45593999997E+02  0.45594000000E+02  0.51100000000E-03 0.  1.
         11   -1    0    0    0    0 -0.00000000000E+00 -0.00000000000E+00 -0.45593999997E+02  0.45594000000E+02  0.51100000000E-03 0. -1.
    9900012    2    1    2    0    0 -0.38354022029E+02  0.20281825727E+02 -0.11134026991E+01  0.47787272746E+02  0.20000007759E+02 0.  0.
        -12    1    1    2    0    0  0.38354022029E+02 -0.20281825727E+02  0.11134026991E+01  0.43400727254E+02  0.00000000000E+00 0.  1.
         11    1    3    3    0    0 -0.14269072987E+02  0.13758239058E+02 -0.33195040882E+01  0.20097629052E+02  0.51100000000E-03 0.  1.
        -11    1    3    3    0    0 -0.50059897445E+01  0.51861727791E+01 -0.30925165149E+01  0.78434673502E+01  0.51100000000E-03 0. -1.
        -12    1    3    3    0    0 -0.19078959297E+02  0.13374138903E+01  0.52986179040E+01  0.19846176344E+02  0.00000000000E+00 0.  1.
</event>
<event>
 7    1  0.2886681E-010  0.4778727E+02  0.7816164E-02  0.1312668E+00
        -11   -1    0    0    0    0  0.00000000000E+00  0.00000000000E+00  0.45593999997E+02  0.45594000000E+02  0.51100000000E-03 0.  1.
         11   -1    0    0    0    0 -0.00000000000E+00 -0.00000000000E+00 -0.45593999997E+02  0.45594000000E+02  0.51100000000E-03 0. -1.
    9900012    2    1    2    0    0  0.20434448041E+02  0.93729444192E+01 -0.37124177232E+02  0.47787270870E+02  0.19999999204E+02 0.  0.
        -12    1    1    2    0    0 -0.20434448041E+02 -0.93729444192E+01  0.37124177232E+02  0.43400729130E+02  0.00000000000E+00 0.  1.
         11    1    3    3    0    0  0.42396369343E+01  0.73000715161E+01 -0.46574477767E+01  0.96414410504E+01  0.51100000000E-03 0. -1.
        -11    1    3    3    0    0  0.12667176724E+02  0.52267148567E+01 -0.29587782195E+02  0.32606943583E+02  0.51100000000E-03 0.  1.
        -12    1    3    3    0    0  0.35276343831E+01 -0.31538419536E+01 -0.28789472606E+01  0.55388862363E+01  0.00000000000E+00 0.  1.
</event>
<event>
 7    1  0.2886681E-010  0.4778726E+02  0.7816164E-02  0.1312668E+00
        -11   -1    0    0    0    0  0.00000000000E+00  0.00000000000E+00  0.45593999997E+02  0.45594000000E+02  0.51100000000E-03 0.  1.
         11   -1    0    0    0    0 -0.00000000000E+00 -0.00000000000E+00 -0.45593999997E+02  0.45594000000E+02  0.51100000000E-03 0. -1.
    9900012    2    1    2    0    0  0.13132131485E+01  0.12100760680E+01 -0.43363983515E+02  0.47787264071E+02  0.19999968206E+02 0.  0.
        -12    1    1    2    0    0 -0.13132131485E+01 -0.12100760680E+01  0.43363983515E+02  0.43400735929E+02  0.00000000000E+00 0.  1.
         11    1    3    3    0    0 -0.20515064246E+00 -0.47310448254E+01 -0.28391570269E+02  0.28783782492E+02  0.51100000000E-03 0. -1.
        -11    1    3    3    0    0  0.32530261734E+01  0.81987973637E+01 -0.10662086211E+02  0.13837721638E+02  0.51100000000E-03 0.  1.
        -12    1    3    3    0    0 -0.17346623825E+01 -0.22576764703E+01 -0.43103270348E+01  0.51657599414E+01  0.00000000000E+00 0.  1.
</event>
<event>
 7    1  0.2886681E-010  0.4778729E+02  0.7816164E-02  0.1312668E+00
        -11   -1    0    0    0    0  0.00000000000E+00  0.00000000000E+00  0.45593999997E+02  0.45594000000E+02  0.51100000000E-03 0. -1.
         11   -1    0    0    0    0 -0.00000000000E+00 -0.00000000000E+00 -0.45593999997E+02  0.45594000000E+02  0.51100000000E-03 0.  1.
    9900012    2    1    2    0    0 -0.14159225604E+01 -0.40897809389E+02 -0.14456357052E+02  0.47787286771E+02  0.20000071706E+02 0.  0.
        -12    1    1    2    0    0  0.14159225604E+01  0.40897809389E+02  0.14456357052E+02  0.43400713229E+02  0.00000000000E+00 0.  1.
         11    1    3    3    0    0  0.48273735838E+01 -0.95044479106E+01 -0.26559403612E+01  0.10985994960E+02  0.51100000000E-03 0. -1.
        -11    1    3    3    0    0  0.45300447992E+00 -0.13996107712E+02  0.12296724280E+01  0.14057323311E+02  0.51100000000E-03 0.  1.
        -12    1    3    3    0    0 -0.66963006242E+01 -0.17397253767E+02 -0.13030089119E+02  0.22743968500E+02  0.00000000000E+00 0.  1.
</event>
<event>
 7    1  0.2886681E-010  0.4778727E+02  0.7816164E-02  0.1312668E+00
        -11   -1    0    0    0    0  0.00000000000E+00  0.00000000000E+00  0.45593999997E+02  0.45594000000E+02  0.51100000000E-03 0.  1.
         11   -1    0    0    0    0 -0.00000000000E+00 -0.00000000000E+00 -0.45593999997E+02  0.45594000000E+02  0.51100000000E-03 0. -1.
    9900012    2    1    2    0    0 -0.29893309352E+02  0.29596246296E+02  0.10680616714E+02  0.47787270602E+02  0.19999997984E+02 0.  0.
        -12    1    1    2    0    0  0.29893309352E+02 -0.29596246296E+02 -0.10680616714E+02  0.43400729398E+02  0.00000000000E+00 0.  1.
         11    1    3    3    0    0 -0.90292186119E+01  0.19354225543E+02  0.84095089035E+01  0.22952835889E+02  0.51100000000E-03 0. -1.
        -11    1    3    3    0    0 -0.60400259035E+01  0.49352572592E+01  0.43847615077E+01  0.89478942143E+01  0.51100000000E-03 0.  1.
         12    1    3    3    0    0 -0.14824064837E+02  0.53067634945E+01 -0.21136536972E+01  0.15886540499E+02  0.00000000000E+00 0. -1.
</event>
<event>
 7    1  0.2886681E-010  0.4778724E+02  0.7816164E-02  0.1312668E+00
        -11   -1    0    0    0    0  0.00000000000E+00  0.00000000000E+00  0.45593999997E+02  0.45594000000E+02  0.51100000000E-03 0.  1.
         11   -1    0    0    0    0 -0.00000000000E+00 -0.00000000000E+00 -0.45593999997E+02  0.45594000000E+02  0.51100000000E-03 0. -1.
    9900012    2    1    2    0    0  0.43798966082E+01 -0.43085938562E+02 -0.28362396760E+01  0.47787241348E+02  0.19999864600E+02 0.  0.
        -12    1    1    2    0    0 -0.43798966082E+01  0.43085938562E+02  0.28362396760E+01  0.43400758652E+02  0.00000000000E+00 0.  1.
         11    1    3    3    0    0 -0.24028433531E+01 -0.30334527739E+02 -0.35494222161E+01  0.30635855262E+02  0.51100000000E-03 0. -1.
        -11    1    3    3    0    0  0.93002078314E+00  0.12141851568E+01 -0.11238664500E+01  0.18979621468E+01  0.51100000000E-03 0.  1.
         12    1    3    3    0    0  0.58527191782E+01 -0.13965595980E+02  0.18370489901E+01  0.15253423939E+02  0.00000000000E+00 0. -1.
</event>
<event>
 7    1  0.2886681E-010  0.4778726E+02  0.7816164E-02  0.1312668E+00
        -11   -1    0    0    0    0  0.00000000000E+00  0.00000000000E+00  0.45593999997E+02  0.45594000000E+02  0.51100000000E-03 0.  1.
         11   -1    0    0    0    0 -0.00000000000E+00 -0.00000000000E+00 -0.45593999997E+02  0.45594000000E+02  0.51100000000E-03 0. -1.
    9900012    2    1    2    0    0  0.18191255904E+02  0.36875067033E+02 -0.13889979125E+02  0.47787264060E+02  0.19999968155E+02 0.  0.
        -12    1    1    2    0    0 -0.18191255904E+02 -0.36875067033E+02  0.13889979125E+02  0.43400735940E+02  0.00000000000E+00 0.  1.
         11    1    3    3    0    0  0.11015199796E+02  0.99983350181E+01 -0.42539293806E+01  0.15472467325E+02  0.51100000000E-03 0. -1.
        -11    1    3    3    0    0  0.78292688205E+01  0.27926719974E+02 -0.10456492330E+02  0.30830786089E+02  0.51100000000E-03 0.  1.
        -12    1    3    3    0    0 -0.65321271275E+00 -0.10499879586E+01  0.82044258630E+00  0.14840106464E+01  0.00000000000E+00 0.  1.
</event>
<event>
 7    1  0.2886681E-010  0.4778727E+02  0.7816164E-02  0.1312668E+00
        -11   -1    0    0    0    0  0.00000000000E+00  0.00000000000E+00  0.45593999997E+02  0.45594000000E+02  0.51100000000E-03 0.  1.
         11   -1    0    0    0    0 -0.00000000000E+00 -0.00000000000E+00 -0.45593999997E+02  0.45594000000E+02  0.51100000000E-03 0. -1.
    9900012    2    1    2    0    0 -0.10692107103E+02  0.11677017582E+02 -0.40409774612E+02  0.47787265235E+02  0.19999973513E+02 0.  0.
        -12    1    1    2    0    0  0.10692107103E+02 -0.11677017582E+02  0.40409774612E+02  0.43400734765E+02  0.00000000000E+00 0.  1.
         11    1    3    3    0    0 -0.13961472158E+02  0.56076600438E+01 -0.23618427503E+02  0.28003547524E+02  0.51100000000E-03 0. -1.
        -11    1    3    3    0    0  0.45069576816E+01  0.35366323688E+01 -0.48257263459E+01  0.74905320961E+01  0.51100000000E-03 0.  1.
        -12    1    3    3    0    0 -0.12375926268E+01  0.25327251692E+01 -0.11965620764E+02  0.12293185615E+02  0.00000000000E+00 0.  1.
</event>
<event>
 7    1  0.2886681E-010  0.4778726E+02  0.7816164E-02  0.1312668E+00
        -11   -1    0    0    0    0  0.00000000000E+00  0.00000000000E+00  0.45593999997E+02  0.45594000000E+02  0.51100000000E-03 0.  1.
         11   -1    0    0    0    0 -0.00000000000E+00 -0.00000000000E+00 -0.45593999997E+02  0.45594000000E+02  0.51100000000E-03 0. -1.
    9900012    2    1    2    0    0  0.38167491283E+02 -0.66850953400E+01 -0.19549323946E+02  0.47787263171E+02  0.19999964103E+02 0.  0.
        -12    1    1    2    0    0 -0.38167491283E+02  0.66850953400E+01  0.19549323946E+02  0.43400736829E+02  0.00000000000E+00 0.  1.
         11    1    3    3    0    0  0.37556447039E+01 -0.76497132553E+00 -0.80108507948E+01  0.88805280805E+01  0.51100000000E-03 0. -1.
        -11    1    3    3    0    0  0.14662502505E+02  0.30914534082E+01 -0.17262833236E+01  0.15083968916E+02  0.51100000000E-03 0.  1.
        -12    1    3    3    0    0  0.19749344074E+02 -0.90115774227E+01 -0.98121898273E+01  0.23822766175E+02  0.00000000000E+00 0.  1.
</event>
<event>
 7    1  0.2886681E-010  0.4778728E+02  0.7816164E-02  0.1312668E+00
        -11   -1    0    0    0    0  0.00000000000E+00  0.00000000000E+00  0.45593999997E+02  0.45594000000E+02  0.51100000000E-03 0. -1.
         11   -1    0    0    0    0 -0.00000000000E+00 -0.00000000000E+00 -0.45593999997E+02  0.45594000000E+02  0.51100000000E-03 0.  1.
    9900012    2    1    2    0    0  0.11481292584E+02  0.17663425930E+02  0.37944778039E+02  0.47787275635E+02  0.20000020932E+02 0.  0.
        -12    1    1    2    0    0 -0.11481292584E+02 -0.17663425930E+02 -0.37944778039E+02  0.43400724365E+02  0.00000000000E+00 0.  1.
         11    1    3    3    0    0 -0.79770538416E+00  0.10542171501E+02  0.27284646664E+02  0.29261333833E+02  0.51100000000E-03 0. -1.
        -11    1    3    3    0    0  0.96719414217E+01  0.37566971475E+01  0.96085686656E+01  0.14141563435E+02  0.51100000000E-03 0.  1.
        -12    1    3    3    0    0  0.26070565465E+01  0.33645572816E+01  0.10515627085E+01  0.43843783673E+01  0.00000000000E+00 0.  1.
</event>
<event>
 7    1  0.2886681E-010  0.4778727E+02  0.7816164E-02  0.1312668E+00
        -11   -1    0    0    0    0  0.00000000000E+00  0.00000000000E+00  0.45593999997E+02  0.45594000000E+02  0.51100000000E-03 0. -1.
         11   -1    0    0    0    0 -0.00000000000E+00 -0.00000000000E+00 -0.45593999997E+02  0.45594000000E+02  0.51100000000E-03 0.  1.
    9900012    2    1    2    0    0 -0.23445396147E+02  0.34858839673E+02 -0.10899462054E+02  0.47787267553E+02  0.19999984082E+02 0.  0.
        -12    1    1    2    0    0  0.23445396147E+02 -0.34858839673E+02  0.10899462054E+02  0.43400732447E+02  0.00000000000E+00 0.  1.
         11    1    3    3    0    0  0.49447199913E+00 -0.96309799404E+00 -0.10798221780E+00  0.10879893035E+01  0.51100000000E-03 0. -1.
        -11    1    3    3    0    0 -0.11142621177E+02  0.55724854306E+01 -0.13930055517E+01  0.12535990798E+02  0.51100000000E-03 0.  1.
         12    1    3    3    0    0 -0.12797246970E+02  0.30249452237E+02 -0.93984742847E+01  0.34163287451E+02  0.00000000000E+00 0. -1.
</event>
<event>
 7    1  0.2886681E-010  0.4778727E+02  0.7816164E-02  0.1312668E+00
        -11   -1    0    0    0    0  0.00000000000E+00  0.00000000000E+00  0.45593999997E+02  0.45594000000E+02  0.51100000000E-03 0.  1.
         11   -1    0    0    0    0 -0.00000000000E+00 -0.00000000000E+00 -0.45593999997E+02  0.45594000000E+02  0.51100000000E-03 0. -1.
    9900012    2    1    2    0    0 -0.82416124326E+01  0.86131593153E+00 -0.42602312846E+02  0.47787273042E+02  0.20000009109E+02 0.  0.
        -12    1    1    2    0    0  0.82416124326E+01 -0.86131593153E+00  0.42602312846E+02  0.43400726958E+02  0.00000000000E+00 0.  1.
         11    1    3    3    0    0 -0.10576304367E+02 -0.41889560590E+01 -0.12149100520E+02  0.16643503556E+02  0.51100000000E-03 0. -1.
        -11    1    3    3    0    0  0.26108362869E+01  0.27443776848E+01 -0.23737940007E+02  0.24038258486E+02  0.51100000000E-03 0.  1.
         12    1    3    3    0    0 -0.27614435293E+00  0.23058943058E+01 -0.67152723192E+01  0.71055110002E+01  0.00000000000E+00 0. -1.
</event>
<event>
 7    1  0.2886681E-010  0.4778727E+02  0.7816164E-02  0.1312668E+00
        -11   -1    0    0    0    0  0.00000000000E+00  0.00000000000E+00  0.45593999997E+02  0.45594000000E+02  0.51100000000E-03 0.  1.
         11   -1    0    0    0    0 -0.00000000000E+00 -0.00000000000E+00 -0.45593999997E+02  0.45594000000E+02  0.51100000000E-03 0. -1.
    9900012    2    1    2    0    0 -0.54222225739E+01  0.40255217093E+01 -0.42872109629E+02  0.47787272970E+02  0.20000008781E+02 0.  0.
        -12    1    1    2    0    0  0.54222225739E+01 -0.40255217093E+01  0.42872109629E+02  0.43400727030E+02  0.00000000000E+00 0.  1.
         11    1    3    3    0    0 -0.59176979823E+01 -0.29613247479E+01 -0.28664143845E+02  0.29418051198E+02  0.51100000000E-03 0. -1.
        -11    1    3    3    0    0  0.13056014564E+01  0.89373769113E+01 -0.13284174201E+02  0.16063952991E+02  0.51100000000E-03 0.  1.
        -12    1    3    3    0    0 -0.81012604794E+00 -0.19505304542E+01 -0.92379158291E+00  0.23052687815E+01  0.00000000000E+00 0.  1.
</event>
<event>
 7    1  0.2886681E-010  0.4778728E+02  0.7816164E-02  0.1312668E+00
        -11   -1    0    0    0    0  0.00000000000E+00  0.00000000000E+00  0.45593999997E+02  0.45594000000E+02  0.51100000000E-03 0. -1.
         11   -1    0    0    0    0 -0.00000000000E+00 -0.00000000000E+00 -0.45593999997E+02  0.45594000000E+02  0.51100000000E-03 0.  1.
    9900012    2    1    2    0    0  0.33585099980E+02  0.13422042099E+01  0.27456554334E+02  0.47787276173E+02  0.20000023383E+02 0.  0.
        -12    1    1    2    0    0 -0.33585099980E+02 -0.13422042099E+01 -0.27456554334E+02  0.43400723827E+02  0.00000000000E+00 0.  1.
         11    1    3    3    0    0  0.20516676949E+02  0.17585282538E+01  0.89443014912E+01  0.22450545296E+02  0.51100000000E-03 0. -1.
        -11    1    3    3    0    0  0.92966993773E+01  0.20204799078E+01  0.18548622253E+02  0.20846159026E+02  0.51100000000E-03 0.  1.
        -12    1    3    3    0    0  0.37717236540E+01 -0.24368039518E+01 -0.36369410707E-01  0.44905718518E+01  0.00000000000E+00 0.  1.
</event>
<event>
 7    1  0.2886681E-010  0.4778727E+02  0.7816164E-02  0.1312668E+00
        -11   -1    0    0    0    0  0.00000000000E+00  0.00000000000E+00  0.45593999997E+02  0.45594000000E+02  0.51100000000E-03 0.  1.
         11   -1    0    0    0    0 -0.00000000000E+00 -0.00000000000E+00 -0.45593999997E+02  0.45594000000E+02  0.51100000000E-03 0. -1.
    9900012    2    1    2    0    0 -0.38679763466E+02 -0.18929592999E+02 -0.54009085112E+01  0.47787269526E+02  0.19999993077E+02 0.  0.
        -12    1    1    2    0    0  0.38679763466E+02  0.18929592999E+02  0.54009085112E+01  0.43400730474E+02  0.00000000000E+00 0.  1.
         11    1    3    3    0    0 -0.13505540880E+02 -0.16026002743E+02  0.11298003104E+01  0.20988302633E+02  0.51100000000E-03 0. -1.
        -11    1    3    3    0    0 -0.18155103886E+02 -0.30405814348E+01 -0.71576650326E+01  0.19750572183E+02  0.51100000000E-03 0.  1.
         12    1    3    3    0    0 -0.70191186996E+01  0.13699117867E+00  0.62695621099E+00  0.70483947104E+01  0.00000000000E+00 0. -1.
</event>
<event>
 7    1  0.2886681E-010  0.4778732E+02  0.7816164E-02  0.1312668E+00
        -11   -1    0    0    0    0  0.00000000000E+00  0.00000000000E+00  0.45593999997E+02  0.45594000000E+02  0.51100000000E-03 0.  1.
         11   -1    0    0    0    0 -0.00000000000E+00 -0.00000000000E+00 -0.45593999997E+02  0.45594000000E+02  0.51100000000E-03 0. -1.
    9900012    2    1    2    0    0 -0.21520877585E+02 -0.48253331078E+01 -0.37378961691E+02  0.47787322716E+02  0.20000235589E+02 0.  0.
        -12    1    1    2    0    0  0.21520877585E+02  0.48253331078E+01  0.37378961691E+02  0.43400677284E+02  0.00000000000E+00 0.  1.
         11    1    3    3    0    0 -0.35787693077E+01 -0.51366729783E+01 -0.76547258903E+01  0.98887728137E+01  0.51100000000E-03 0. -1.
        -11    1    3    3    0    0 -0.52287469139E+01  0.65487117236E+01 -0.61371700768E+01  0.10387024422E+02  0.51100000000E-03 0.  1.
        -12    1    3    3    0    0 -0.12713361364E+02 -0.62373718531E+01 -0.23587065724E+02  0.27511525480E+02  0.00000000000E+00 0.  1.
</event>
<event>
 7    1  0.2886681E-010  0.4778727E+02  0.7816164E-02  0.1312668E+00
        -11   -1    0    0    0    0  0.00000000000E+00  0.00000000000E+00  0.45593999997E+02  0.45594000000E+02  0.51100000000E-03 0. -1.
         11   -1    0    0    0    0 -0.00000000000E+00 -0.00000000000E+00 -0.45593999997E+02  0.45594000000E+02  0.51100000000E-03 0.  1.
    9900012    2    1    2    0    0 -0.22488879728E+02 -0.82732045076E+01  0.36186015426E+02  0.47787270321E+02  0.19999996702E+02 0.  0.
        -12    1    1    2    0    0  0.22488879728E+02  0.82732045076E+01 -0.36186015426E+02  0.43400729679E+02  0.00000000000E+00 0.  1.
         11    1    3    3    0    0 -0.44091595662E+01  0.32397830132E+01  0.19846755477E+01  0.58202937506E+01  0.51100000000E-03 0.  1.
        -11    1    3    3    0    0 -0.16042751431E+02 -0.13789818291E+02  0.28433144188E+02  0.35439704438E+02  0.51100000000E-03 0. -1.
         12    1    3    3    0    0 -0.20369687306E+01  0.22768307707E+01  0.57681956905E+01  0.65272721325E+01  0.00000000000E+00 0. -1.
</event>
<event>
 7    1  0.2886681E-010  0.4778725E+02  0.7816164E-02  0.1312668E+00
        -11   -1    0    0    0    0  0.00000000000E+00  0.00000000000E+00  0.45593999997E+02  0.45594000000E+02  0.51100000000E-03 0.  1.
         11   -1    0    0    0    0 -0.00000000000E+00 -0.00000000000E+00 -0.45593999997E+02  0.45594000000E+02  0.51100000000E-03 0. -1.
    9900012    2    1    2    0    0 -0.19945231328E+02 -0.19667202469E+02 -0.33151380659E+02  0.47787249485E+02  0.19999901702E+02 0.  0.
        -12    1    1    2    0    0  0.19945231328E+02  0.19667202469E+02  0.33151380659E+02  0.43400750515E+02  0.00000000000E+00 0.  1.
         11    1    3    3    0    0 -0.14014134921E+01 -0.95680501080E+01 -0.19211550863E+02  0.21508027094E+02  0.51100000000E-03 0. -1.
        -11    1    3    3    0    0 -0.16267326677E+02 -0.77448531513E+01 -0.14275800951E+02  0.22987108574E+02  0.51100000000E-03 0.  1.
         12    1    3    3    0    0 -0.22764911584E+01 -0.23542992101E+01  0.33597115537E+00  0.32921138167E+01  0.00000000000E+00 0. -1.
</event>
<event>
 7    1  0.2886681E-010  0.4778727E+02  0.7816164E-02  0.1312668E+00
        -11   -1    0    0    0    0  0.00000000000E+00  0.00000000000E+00  0.45593999997E+02  0.45594000000E+02  0.51100000000E-03 0. -1.
         11   -1    0    0    0    0 -0.00000000000E+00 -0.00000000000E+00 -0.45593999997E+02  0.45594000000E+02  0.51100000000E-03 0.  1.
    9900012    2    1    2    0    0  0.40771606597E+02 -0.65001850568E+01  0.13380840742E+02  0.47787271790E+02  0.20000003397E+02 0.  0.
        -12    1    1    2    0    0 -0.40771606597E+02  0.65001850568E+01 -0.13380840742E+02  0.43400728210E+02  0.00000000000E+00 0.  1.
         11    1    3    3    0    0  0.13958181886E+02 -0.10204245799E+02  0.66142150028E+01  0.18512301700E+02  0.51100000000E-03 0. -1.
        -11    1    3    3    0    0  0.16433520922E+02  0.51668074790E+01  0.87171084334E+00  0.17248663411E+02  0.51100000000E-03 0.  1.
        -12    1    3    3    0    0  0.10379903789E+02 -0.14627467367E+01  0.58949148957E+01  0.12026306678E+02  0.00000000000E+00 0.  1.
</event>
<event>
 7    1  0.2886681E-010  0.4778727E+02  0.7816164E-02  0.1312668E+00
        -11   -1    0    0    0    0  0.00000000000E+00  0.00000000000E+00  0.45593999997E+02  0.45594000000E+02  0.51100000000E-03 0.  1.
         11   -1    0    0    0    0 -0.00000000000E+00 -0.00000000000E+00 -0.45593999997E+02  0.45594000000E+02  0.51100000000E-03 0. -1.
    9900012    2    1    2    0    0 -0.38010624419E+02 -0.93284123774E+01 -0.18756235747E+02  0.47787271600E+02  0.20000002535E+02 0.  0.
        -12    1    1    2    0    0  0.38010624419E+02  0.93284123774E+01  0.18756235747E+02  0.43400728400E+02  0.00000000000E+00 0.  1.
         11    1    3    3    0    0 -0.28909578978E+02 -0.18197774735E+01 -0.14828428769E+02  0.32541629442E+02  0.51100000000E-03 0. -1.
        -11    1    3    3    0    0 -0.48863124422E+01 -0.79198807945E+01  0.23299833596E+00  0.93088586609E+01  0.51100000000E-03 0.  1.
        -12    1    3    3    0    0 -0.42147329987E+01  0.41124589065E+00 -0.41608053139E+01  0.59367834972E+01  0.00000000000E+00 0.  1.
</event>
<event>
 7    1  0.2886681E-010  0.4778727E+02  0.7816164E-02  0.1312668E+00
        -11   -1    0    0    0    0  0.00000000000E+00  0.00000000000E+00  0.45593999997E+02  0.45594000000E+02  0.51100000000E-03 0.  1.
         11   -1    0    0    0    0 -0.00000000000E+00 -0.00000000000E+00 -0.45593999997E+02  0.45594000000E+02  0.51100000000E-03 0. -1.
    9900012    2    1    2    0    0  0.38520455122E+02  0.19837831626E+02  0.25016546564E+01  0.47787270715E+02  0.19999998500E+02 0.  0.
        -12    1    1    2    0    0 -0.38520455122E+02 -0.19837831626E+02 -0.25016546564E+01  0.43400729285E+02  0.00000000000E+00 0.  1.
         11    1    3    3    0    0  0.33220690459E+02  0.18632558728E+02  0.43964254617E+01  0.38342079709E+02  0.51100000000E-03 0. -1.
        -11    1    3    3    0    0  0.13684121396E+01 -0.30557568833E+01 -0.75167248929E-02  0.33481724382E+01  0.51100000000E-03 0.  1.
        -12    1    3    3    0    0  0.39313525234E+01  0.42610297809E+01 -0.18872540803E+01  0.60970185682E+01  0.00000000000E+00 0.  1.
</event>
<event>
 7    1  0.2886681E-010  0.4778727E+02  0.7816164E-02  0.1312668E+00
        -11   -1    0    0    0    0  0.00000000000E+00  0.00000000000E+00  0.45593999997E+02  0.45594000000E+02  0.51100000000E-03 0.  1.
         11   -1    0    0    0    0 -0.00000000000E+00 -0.00000000000E+00 -0.45593999997E+02  0.45594000000E+02  0.51100000000E-03 0. -1.
    9900012    2    1    2    0    0  0.35236467039E+02 -0.21358953580E+02 -0.13631202777E+02  0.47787271935E+02  0.20000004062E+02 0.  0.
        -12    1    1    2    0    0 -0.35236467039E+02  0.21358953580E+02  0.13631202777E+02  0.43400728065E+02  0.00000000000E+00 0.  1.
         11    1    3    3    0    0  0.22021230750E+02 -0.19855110681E+02 -0.11147920468E+02  0.31677060390E+02  0.51100000000E-03 0. -1.
        -11    1    3    3    0    0  0.96495030527E+01 -0.32835857396E+01  0.16986928922E+01  0.10333460324E+02  0.51100000000E-03 0.  1.
         12    1    3    3    0    0  0.35657332354E+01  0.17797428405E+01 -0.41819752015E+01  0.57767512210E+01  0.00000000000E+00 0. -1.
</event>
<event>
 7    1  0.2886681E-010  0.4778727E+02  0.7816164E-02  0.1312668E+00
        -11   -1    0    0    0    0  0.00000000000E+00  0.00000000000E+00  0.45593999997E+02  0.45594000000E+02  0.51100000000E-03 0.  1.
         11   -1    0    0    0    0 -0.00000000000E+00 -0.00000000000E+00 -0.45593999997E+02  0.45594000000E+02  0.51100000000E-03 0. -1.
    9900012    2    1    2    0    0 -0.36470379708E+01 -0.18736142255E+02 -0.38977932076E+02  0.47787273031E+02  0.20000009058E+02 0.  0.
        -12    1    1    2    0    0  0.36470379708E+01  0.18736142255E+02  0.38977932076E+02  0.43400726969E+02  0.00000000000E+00 0.  1.
         11    1    3    3    0    0 -0.10881936168E+02 -0.12506028068E+02 -0.28546221493E+02  0.33010665468E+02  0.51100000000E-03 0. -1.
        -11    1    3    3    0    0  0.64164268627E+01 -0.46803976244E+01 -0.10317561295E+02  0.13020319771E+02  0.51100000000E-03 0.  1.
         12    1    3    3    0    0  0.81847133463E+00 -0.15497165623E+01 -0.11414928692E+00  0.17562877921E+01  0.00000000000E+00 0. -1.
</event>
<event>
 7    1  0.2886681E-010  0.4778725E+02  0.7816164E-02  0.1312668E+00
        -11   -1    0    0    0    0  0.00000000000E+00  0.00000000000E+00  0.45593999997E+02  0.45594000000E+02  0.51100000000E-03 0.  1.
         11   -1    0    0    0    0 -0.00000000000E+00 -0.00000000000E+00 -0.45593999997E+02  0.45594000000E+02  0.51100000000E-03 0. -1.
    9900012    2    1    2    0    0 -0.21084180211E+02  0.13934155343E+02  0.35283443430E+02  0.47787254377E+02  0.19999924008E+02 0.  0.
        -12    1    1    2    0    0  0.21084180211E+02 -0.13934155343E+02 -0.35283443430E+02  0.43400745623E+02  0.00000000000E+00 0.  1.
         11    1    3    3    0    0 -0.15543161264E+02  0.13244957078E+01  0.16327759657E+02  0.22581848610E+02  0.51100000000E-03 0. -1.
        -11    1    3    3    0    0 -0.26370891717E+01  0.12729382252E+02  0.12101876606E+02  0.17760822883E+02  0.51100000000E-03 0.  1.
        -12    1    3    3    0    0 -0.29039297752E+01 -0.11972261686E+00  0.68538071669E+01  0.74445828846E+01  0.00000000000E+00 0.  1.
</event>
<event>
 7    1  0.2886681E-010  0.4778727E+02  0.7816164E-02  0.1312668E+00
        -11   -1    0    0    0    0  0.00000000000E+00  0.00000000000E+00  0.45593999997E+02  0.45594000000E+02  0.51100000000E-03 0. -1.
         11   -1    0    0    0    0 -0.00000000000E+00 -0.00000000000E+00 -0.45593999997E+02  0.45594000000E+02  0.51100000000E-03 0.  1.
    9900012    2    1    2    0    0  0.30292912689E+01  0.64161552813E+01  0.42816814680E+02  0.47787271049E+02  0.20000000020E+02 0.  0.
        -12    1    1    2    0    0 -0.30292912689E+01 -0.64161552813E+01 -0.42816814680E+02  0.43400728951E+02  0.00000000000E+00 0.  1.
         11    1    3    3    0    0 -0.25598312902E+01  0.63119158363E+00  0.31895213135E+02  0.32003996004E+02  0.51100000000E-03 0. -1.
        -11    1    3    3    0    0 -0.80659031177E+00  0.48059666828E+01  0.39609172557E+01  0.62798701782E+01  0.51100000000E-03 0.  1.
         12    1    3    3    0    0  0.63957128709E+01  0.97899701486E+00  0.69606842890E+01  0.95034048663E+01  0.00000000000E+00 0. -1.
</event>
<event>
 7    1  0.2886681E-010  0.4778727E+02  0.7816164E-02  0.1312668E+00
        -11   -1    0    0    0    0  0.00000000000E+00  0.00000000000E+00  0.45593999997E+02  0.45594000000E+02  0.51100000000E-03 0.  1.
         11   -1    0    0    0    0 -0.00000000000E+00 -0.00000000000E+00 -0.45593999997E+02  0.45594000000E+02  0.51100000000E-03 0. -1.
    9900012    2    1    2    0    0  0.16783911433E+02 -0.39472864341E+02 -0.66194404338E+01  0.47787266205E+02  0.19999977935E+02 0.  0.
        -12    1    1    2    0    0 -0.16783911433E+02  0.39472864341E+02  0.66194404338E+01  0.43400733795E+02  0.00000000000E+00 0.  1.
         11    1    3    3    0    0  0.12076608481E+02 -0.19939385233E+02 -0.21352313062E+01  0.23409031780E+02  0.51100000000E-03 0. -1.
        -11    1    3    3    0    0 -0.88048927597E-01 -0.18890655705E+02 -0.49181302664E+01  0.19520569437E+02  0.51100000000E-03 0.  1.
        -12    1    3    3    0    0  0.47953518797E+01 -0.64282340300E+00  0.43392113871E+00  0.48576649877E+01  0.00000000000E+00 0.  1.
</event>
<event>
 7    1  0.2886681E-010  0.4778727E+02  0.7816164E-02  0.1312668E+00
        -11   -1    0    0    0    0  0.00000000000E+00  0.00000000000E+00  0.45593999997E+02  0.45594000000E+02  0.51100000000E-03 0. -1.
         11   -1    0    0    0    0 -0.00000000000E+00 -0.00000000000E+00 -0.45593999997E+02  0.45594000000E+02  0.51100000000E-03 0.  1.
    9900012    2    1    2    0    0  0.34420891492E+02  0.10119437854E+01  0.26415932503E+02  0.47787270843E+02  0.19999999082E+02 0.  0.
        -12    1    1    2    0    0 -0.34420891492E+02 -0.10119437854E+01 -0.26415932503E+02  0.43400729157E+02  0.00000000000E+00 0.  1.
         11    1    3    3    0    0  0.50535784297E+01 -0.36011323547E+01 -0.13181116814E+01  0.63438338445E+01  0.51100000000E-03 0. -1.
        -11    1    3    3    0    0  0.58031736289E+01  0.12041803434E+01  0.17045353567E+01  0.61670345799E+01  0.51100000000E-03 0.  1.
         12    1    3    3    0    0  0.23564139434E+02  0.34088957966E+01  0.26029508827E+02  0.35276402419E+02  0.00000000000E+00 0. -1.
</event>
<event>
 7    1  0.2886681E-010  0.4778726E+02  0.7816164E-02  0.1312668E+00
        -11   -1    0    0    0    0  0.00000000000E+00  0.00000000000E+00  0.45593999997E+02  0.45594000000E+02  0.51100000000E-03 0.  1.
         11   -1    0    0    0    0 -0.00000000000E+00 -0.00000000000E+00 -0.45593999997E+02  0.45594000000E+02  0.51100000000E-03 0. -1.
    9900012    2    1    2    0    0  0.24487363166E+02  0.42867590770E+01 -0.35575505553E+02  0.47787264367E+02  0.19999969553E+02 0.  0.
        -12    1    1    2    0    0 -0.24487363166E+02 -0.42867590770E+01  0.35575505553E+02  0.43400735633E+02  0.00000000000E+00 0.  1.
         11    1    3    3    0    0  0.12724857701E+02  0.93905218539E+01 -0.18546456822E+02  0.24373653093E+02  0.51100000000E-03 0. -1.
        -11    1    3    3    0    0  0.69848959755E+01 -0.78896838761E+01 -0.11044908848E+02  0.15265185723E+02  0.51100000000E-03 0.  1.
        -12    1    3    3    0    0  0.47776094894E+01  0.27859210992E+01 -0.59841398833E+01  0.81484255502E+01  0.00000000000E+00 0.  1.
</event>
<event>
 7    1  0.2886681E-010  0.4778727E+02  0.7816164E-02  0.1312668E+00
        -11   -1    0    0    0    0  0.00000000000E+00  0.00000000000E+00  0.45593999997E+02  0.45594000000E+02  0.51100000000E-03 0.  1.
         11   -1    0    0    0    0 -0.00000000000E+00 -0.00000000000E+00 -0.45593999997E+02  0.45594000000E+02  0.51100000000E-03 0. -1.
    9900012    2    1    2    0    0  0.37667169300E+00 -0.12140433829E+02 -0.41666429425E+02  0.47787270097E+02  0.19999995678E+02 0.  0.
        -12    1    1    2    0    0 -0.37667169300E+00  0.12140433829E+02  0.41666429425E+02  0.43400729903E+02  0.00000000000E+00 0.  1.
         11    1    3    3    0    0 -0.18696226123E+01  0.17144650642E+01 -0.16201320089E+02  0.16398708853E+02  0.51100000000E-03 0. -1.
        -11    1    3    3    0    0  0.31119442990E+01 -0.45160326262E+01 -0.15486594408E+01  0.56988678108E+01  0.51100000000E-03 0.  1.
         12    1    3    3    0    0 -0.86564999372E+00 -0.93388662672E+01 -0.23916449896E+02  0.25689693433E+02  0.00000000000E+00 0. -1.
</event>
<event>
 7    1  0.3065759E-010  0.4778727E+02  0.7816164E-02  0.1312668E+00
        -11   -1    0    0    0    0  0.00000000000E+00  0.00000000000E+00  0.45593999997E+02  0.45594000000E+02  0.51100000000E-03 0. -1.
         11   -1    0    0    0    0 -0.00000000000E+00 -0.00000000000E+00 -0.45593999997E+02  0.45594000000E+02  0.51100000000E-03 0.  1.
    9900012    2    1    2    0    0 -0.26505901874E+02  0.30170130063E+02 -0.16456727073E+02  0.47787269037E+02  0.19999990845E+02 0.  0.
        -12    1    1    2    0    0  0.26505901874E+02 -0.30170130063E+02  0.16456727073E+02  0.43400730963E+02  0.00000000000E+00 0.  1.
         11    1    3    3    0    0 -0.81572423633E+01  0.11131010259E+00 -0.31267314187E+01  0.87366722806E+01  0.51100000000E-03 0. -1.
        -11    1    3    3    0    0 -0.20199903138E+01  0.89736407573E+00  0.13029762375E+01  0.25658079602E+01  0.51100000000E-03 0.  1.
         12    1    3    3    0    0 -0.16328669197E+02  0.29161455885E+02 -0.14632971892E+02  0.36484788796E+02  0.00000000000E+00 0. -1.
</event>
<event>
 7    1  0.2886681E-010  0.4778727E+02  0.7816164E-02  0.1312668E+00
        -11   -1    0    0    0    0  0.00000000000E+00  0.00000000000E+00  0.45593999997E+02  0.45594000000E+02  0.51100000000E-03 0.  1.
         11   -1    0    0    0    0 -0.00000000000E+00 -0.00000000000E+00 -0.45593999997E+02  0.45594000000E+02  0.51100000000E-03 0. -1.
    9900012    2    1    2    0    0  0.39283878079E+01 -0.34137019319E+02 -0.26511408080E+02  0.47787273311E+02  0.20000010332E+02 0.  0.
        -12    1    1    2    0    0 -0.39283878079E+01  0.34137019319E+02  0.26511408080E+02  0.43400726689E+02  0.00000000000E+00 0.  1.
         11    1    3    3    0    0  0.50928436649E+01 -0.22695799193E+02 -0.24008745551E+02  0.33428374486E+02  0.51100000000E-03 0. -1.
        -11    1    3    3    0    0  0.12822556891E+01 -0.76995933830E+01  0.19538723099E+01  0.80464610345E+01  0.51100000000E-03 0.  1.
         12    1    3    3    0    0 -0.24467115460E+01 -0.37416267428E+01 -0.44565348396E+01  0.63124377897E+01  0.00000000000E+00 0. -1.
</event>
<event>
 7    1  0.2886681E-010  0.4778727E+02  0.7816164E-02  0.1312668E+00
        -11   -1    0    0    0    0  0.00000000000E+00  0.00000000000E+00  0.45593999997E+02  0.45594000000E+02  0.51100000000E-03 0.  1.
         11   -1    0    0    0    0 -0.00000000000E+00 -0.00000000000E+00 -0.45593999997E+02  0.45594000000E+02  0.51100000000E-03 0. -1.
    9900012    2    1    2    0    0 -0.53890599361E+01  0.27597506014E+02 -0.33059933417E+02  0.47787268408E+02  0.19999987980E+02 0.  0.
        -12    1    1    2    0    0  0.53890599361E+01 -0.27597506014E+02  0.33059933417E+02  0.43400731592E+02  0.00000000000E+00 0.  1.
         11    1    3    3    0    0 -0.57596060578E+01  0.15997637050E+02 -0.12038429680E+02  0.20833176487E+02  0.51100000000E-03 0. -1.
        -11    1    3    3    0    0 -0.18758845850E+01  0.49062028414E+00 -0.12815177246E+02  0.12961034656E+02  0.51100000000E-03 0.  1.
         12    1    3    3    0    0  0.22464307066E+01  0.11109248680E+02 -0.82063264906E+01  0.13993057265E+02  0.00000000000E+00 0. -1.
</event>
<event>
 7    1  0.2886681E-010  0.4778727E+02  0.7816164E-02  0.1312668E+00
        -11   -1    0    0    0    0  0.00000000000E+00  0.00000000000E+00  0.45593999997E+02  0.45594000000E+02  0.51100000000E-03 0.  1.
         11   -1    0    0    0    0 -0.00000000000E+00 -0.00000000000E+00 -0.45593999997E+02  0.45594000000E+02  0.51100000000E-03 0. -1.
    9900012    2    1    2    0    0 -0.38485207441E+02 -0.19539368157E+02 -0.45525125442E+01  0.47787268783E+02  0.19999989687E+02 0.  0.
        -12    1    1    2    0    0  0.38485207441E+02  0.19539368157E+02  0.45525125442E+01  0.43400731217E+02  0.00000000000E+00 0.  1.
         11    1    3    3    0    0 -0.16540730326E+01  0.19582927033E+01  0.23711325364E+01  0.34918673622E+01  0.51100000000E-03 0.  1.
        -11    1    3    3    0    0 -0.35901828650E+02 -0.20137943150E+02 -0.84811177124E+01  0.42028649903E+02  0.51100000000E-03 0. -1.
         12    1    3    3    0    0 -0.92930575817E+00 -0.13597177099E+01  0.15574726318E+01  0.22667515174E+01  0.00000000000E+00 0. -1.
</event>
<event>
 7    1  0.2886681E-010  0.4778728E+02  0.7816164E-02  0.1312668E+00
        -11   -1    0    0    0    0  0.00000000000E+00  0.00000000000E+00  0.45593999997E+02  0.45594000000E+02  0.51100000000E-03 0. -1.
         11   -1    0    0    0    0 -0.00000000000E+00 -0.00000000000E+00 -0.45593999997E+02  0.45594000000E+02  0.51100000000E-03 0.  1.
    9900012    2    1    2    0    0 -0.15148002046E+02 -0.36342057033E+02  0.18259674994E+02  0.47787276432E+02  0.20000024564E+02 0.  0.
        -12    1    1    2    0    0  0.15148002046E+02  0.36342057033E+02 -0.18259674994E+02  0.43400723568E+02  0.00000000000E+00 0.  1.
         11    1    3    3    0    0 -0.12525076802E+02 -0.30759766518E+02  0.11145228357E+02  0.35032226600E+02  0.51100000000E-03 0. -1.
        -11    1    3    3    0    0  0.14674805122E+01 -0.35145097312E+01  0.72282935081E+01  0.81702818191E+01  0.51100000000E-03 0.  1.
         12    1    3    3    0    0 -0.40904057566E+01 -0.20677807830E+01 -0.11384687173E+00  0.45847680127E+01  0.00000000000E+00 0. -1.
</event>
<event>
 7    1  0.2886681E-010  0.4778727E+02  0.7816164E-02  0.1312668E+00
        -11   -1    0    0    0    0  0.00000000000E+00  0.00000000000E+00  0.45593999997E+02  0.45594000000E+02  0.51100000000E-03 0. -1.
         11   -1    0    0    0    0 -0.00000000000E+00 -0.00000000000E+00 -0.45593999997E+02  0.45594000000E+02  0.51100000000E-03 0.  1.
    9900012    2    1    2    0    0  0.20238015728E+02  0.21098307128E+02  0.32076587009E+02  0.47787270992E+02  0.19999999759E+02 0.  0.
        -12    1    1    2    0    0 -0.20238015728E+02 -0.21098307128E+02 -0.32076587009E+02  0.43400729008E+02  0.00000000000E+00 0.  1.
         11    1    3    3    0    0  0.13959694412E+02  0.17025549678E+02  0.21243209726E+02  0.30594384609E+02  0.51100000000E-03 0. -1.
        -11    1    3    3    0    0 -0.25408110199E+01  0.11641818726E+00  0.57150292509E+01  0.62554642859E+01  0.51100000000E-03 0.  1.
        -12    1    3    3    0    0  0.88191323367E+01  0.39563392622E+01  0.51183480327E+01  0.10937422096E+02  0.00000000000E+00 0.  1.
</event>
<event>
 7    1  0.2886681E-010  0.4778727E+02  0.7816164E-02  0.1312668E+00
        -11   -1    0    0    0    0  0.00000000000E+00  0.00000000000E+00  0.45593999997E+02  0.45594000000E+02  0.51100000000E-03 0. -1.
         11   -1    0    0    0    0 -0.00000000000E+00 -0.00000000000E+00 -0.45593999997E+02  0.45594000000E+02  0.51100000000E-03 0.  1.
    9900012    2    1    2    0    0 -0.35580570990E+02  0.24678296356E+02 -0.29373533082E+01  0.47787269736E+02  0.19999994032E+02 0.  0.
        -12    1    1    2    0    0  0.35580570990E+02 -0.24678296356E+02  0.29373533082E+01  0.43400730264E+02  0.00000000000E+00 0.  1.
         11    1    3    3    0    0 -0.15343772277E+02  0.12988685192E+02 -0.99276125024E+01  0.22420855937E+02  0.51100000000E-03 0.  1.
        -11    1    3    3    0    0 -0.15134544442E+02  0.11295116964E+02  0.35918576904E+01  0.19223307328E+02  0.51100000000E-03 0. -1.
         12    1    3    3    0    0 -0.51022542713E+01  0.39449420017E+00  0.33984015038E+01  0.61431064702E+01  0.00000000000E+00 0. -1.
</event>
<event>
 7    1  0.2886681E-010  0.4778727E+02  0.7816164E-02  0.1312668E+00
        -11   -1    0    0    0    0  0.00000000000E+00  0.00000000000E+00  0.45593999997E+02  0.45594000000E+02  0.51100000000E-03 0.  1.
         11   -1    0    0    0    0 -0.00000000000E+00 -0.00000000000E+00 -0.45593999997E+02  0.45594000000E+02  0.51100000000E-03 0. -1.
    9900012    2    1    2    0    0  0.10200778509E+02  0.57884196635E+01 -0.41785905000E+02  0.47787267966E+02  0.19999985965E+02 0.  0.
        -12    1    1    2    0    0 -0.10200778509E+02 -0.57884196635E+01  0.41785905000E+02  0.43400732034E+02  0.00000000000E+00 0.  1.
         11    1    3    3    0    0  0.10175238240E+02  0.37774943486E+01 -0.24252894080E+02  0.26570807446E+02  0.51100000000E-03 0. -1.
        -11    1    3    3    0    0 -0.54390254838E+01 -0.12532721049E+01 -0.82578300416E+01  0.99672185909E+01  0.51100000000E-03 0.  1.
        -12    1    3    3    0    0  0.54645657520E+01  0.32641974197E+01 -0.92751808790E+01  0.11249241930E+02  0.00000000000E+00 0.  1.
</event>
<event>
 7    1  0.2886681E-010  0.4778727E+02  0.7816164E-02  0.1312668E+00
        -11   -1    0    0    0    0  0.00000000000E+00  0.00000000000E+00  0.45593999997E+02  0.45594000000E+02  0.51100000000E-03 0.  1.
         11   -1    0    0    0    0 -0.00000000000E+00 -0.00000000000E+00 -0.45593999997E+02  0.45594000000E+02  0.51100000000E-03 0. -1.
    9900012    2    1    2    0    0 -0.14738096750E+02 -0.20425976506E+02 -0.35343899617E+02  0.47787271294E+02  0.20000001139E+02 0.  0.
        -12    1    1    2    0    0  0.14738096750E+02  0.20425976506E+02  0.35343899617E+02  0.43400728706E+02  0.00000000000E+00 0.  1.
         11    1    3    3    0    0 -0.13461268796E+02 -0.67735393444E+01 -0.18477410644E+02  0.23843265238E+02  0.51100000000E-03 0. -1.
        -11    1    3    3    0    0  0.40492355998E+01 -0.54309571902E+01 -0.95895196905E+01  0.11740974964E+02  0.51100000000E-03 0.  1.
        -12    1    3    3    0    0 -0.53260635539E+01 -0.82214799709E+01 -0.72769692826E+01  0.12203031092E+02  0.00000000000E+00 0.  1.
</event>
<event>
 7    1  0.2886681E-010  0.4778727E+02  0.7816164E-02  0.1312668E+00
        -11   -1    0    0    0    0  0.00000000000E+00  0.00000000000E+00  0.45593999997E+02  0.45594000000E+02  0.51100000000E-03 0. -1.
         11   -1    0    0    0    0 -0.00000000000E+00 -0.00000000000E+00 -0.45593999997E+02  0.45594000000E+02  0.51100000000E-03 0.  1.
    9900012    2    1    2    0    0  0.12932266263E+01  0.42717254487E+02 -0.75621910607E+01  0.47787274204E+02  0.20000014404E+02 0.  0.
        -12    1    1    2    0    0 -0.12932266263E+01 -0.42717254487E+02  0.75621910607E+01  0.43400725796E+02  0.00000000000E+00 0.  1.
         11    1    3    3    0    0  0.22291102580E+01  0.25645274746E+02 -0.11413204079E+02  0.28158662557E+02  0.51100000000E-03 0. -1.
        -11    1    3    3    0    0  0.32874704106E+01  0.29292779328E+01  0.12146053663E+00  0.44048704671E+01  0.51100000000E-03 0.  1.
         12    1    3    3    0    0 -0.42233540423E+01  0.14142701808E+02  0.37295524821E+01  0.15223741180E+02  0.00000000000E+00 0. -1.
</event>
<event>
 7    1  0.2886681E-010  0.4778727E+02  0.7816164E-02  0.1312668E+00
        -11   -1    0    0    0    0  0.00000000000E+00  0.00000000000E+00  0.45593999997E+02  0.45594000000E+02  0.51100000000E-03 0. -1.
         11   -1    0    0    0    0 -0.00000000000E+00 -0.00000000000E+00 -0.45593999997E+02  0.45594000000E+02  0.51100000000E-03 0.  1.
    9900012    2    1    2    0    0 -0.35137348915E+02 -0.18133503723E+02 -0.17893186131E+02  0.47787270099E+02  0.19999995689E+02 0.  0.
        -12    1    1    2    0    0  0.35137348915E+02  0.18133503723E+02  0.17893186131E+02  0.43400729901E+02  0.00000000000E+00 0.  1.
         11    1    3    3    0    0 -0.11184981977E+02 -0.82395374438E+01  0.88037219056E-01  0.13892499772E+02  0.51100000000E-03 0. -1.
        -11    1    3    3    0    0 -0.58166172505E+01  0.16594377196E+01 -0.84060140606E+01  0.10356053420E+02  0.51100000000E-03 0.  1.
        -12    1    3    3    0    0 -0.18135749688E+02 -0.11553403999E+02 -0.95752092890E+01  0.23538716907E+02  0.00000000000E+00 0.  1.
</event>
<event>
 7    1  0.2886681E-010  0.4778727E+02  0.7816164E-02  0.1312668E+00
        -11   -1    0    0    0    0  0.00000000000E+00  0.00000000000E+00  0.45593999997E+02  0.45594000000E+02  0.51100000000E-03 0.  1.
         11   -1    0    0    0    0 -0.00000000000E+00 -0.00000000000E+00 -0.45593999997E+02  0.45594000000E+02  0.51100000000E-03 0. -1.
    9900012    2    1    2    0    0 -0.75966261390E+01 -0.33908975300E+02 -0.26001843853E+02  0.47787271684E+02  0.20000002917E+02 0.  0.
        -12    1    1    2    0    0  0.75966261390E+01  0.33908975300E+02  0.26001843853E+02  0.43400728316E+02  0.00000000000E+00 0.  1.
         11    1    3    3    0    0 -0.95757858103E+01 -0.25038010580E+02 -0.22085027658E+02  0.34732493354E+02  0.51100000000E-03 0. -1.
        -11    1    3    3    0    0  0.12773533738E+01 -0.77735592893E+01  0.10249576145E+01  0.79442050602E+01  0.51100000000E-03 0.  1.
        -12    1    3    3    0    0  0.70180629743E+00 -0.10974054299E+01 -0.49417738097E+01  0.51105732696E+01  0.00000000000E+00 0.  1.
</event>
<event>
 7    1  0.2886681E-010  0.4778727E+02  0.7816164E-02  0.1312668E+00
        -11   -1    0    0    0    0  0.00000000000E+00  0.00000000000E+00  0.45593999997E+02  0.45594000000E+02  0.51100000000E-03 0.  1.
         11   -1    0    0    0    0 -0.00000000000E+00 -0.00000000000E+00 -0.45593999997E+02  0.45594000000E+02  0.51100000000E-03 0. -1.
    9900012    2    1    2    0    0  0.52439963915E+01  0.24792668635E+02 -0.35234175210E+02  0.47787273982E+02  0.20000013393E+02 0.  0.
        -12    1    1    2    0    0 -0.52439963915E+01 -0.24792668635E+02  0.35234175210E+02  0.43400726018E+02  0.00000000000E+00 0.  1.
         11    1    3    3    0    0  0.32841246009E+01  0.23784976579E+01 -0.17121366463E+02  0.17594996883E+02  0.51100000000E-03 0. -1.
        -11    1    3    3    0    0 -0.13857308923E+01  0.18019597252E+01  0.37296753613E+00  0.23035654975E+01  0.51100000000E-03 0.  1.
         12    1    3    3    0    0  0.33456026829E+01  0.20612211252E+02 -0.18485776283E+02  0.27888711601E+02  0.00000000000E+00 0. -1.
</event>
<event>
 7    1  0.2886681E-010  0.4778727E+02  0.7816164E-02  0.1312668E+00
        -11   -1    0    0    0    0  0.00000000000E+00  0.00000000000E+00  0.45593999997E+02  0.45594000000E+02  0.51100000000E-03 0.  1.
         11   -1    0    0    0    0 -0.00000000000E+00 -0.00000000000E+00 -0.45593999997E+02  0.45594000000E+02  0.51100000000E-03 0. -1.
    9900012    2    1    2    0    0 -0.33410015698E+02  0.24670145576E+02 -0.12600709597E+02  0.47787272886E+02  0.20000008396E+02 0.  0.
        -12    1    1    2    0    0  0.33410015698E+02 -0.24670145576E+02  0.12600709597E+02  0.43400727114E+02  0.00000000000E+00 0.  1.
         11    1    3    3    0    0 -0.21067384961E+02  0.10633594192E+02 -0.14151047339E+02  0.27516543670E+02  0.51100000000E-03 0. -1.
        -11    1    3    3    0    0 -0.33280006861E+01  0.50310369688E+01  0.40766699679E+01  0.72805329362E+01  0.51100000000E-03 0.  1.
        -12    1    3    3    0    0 -0.90146300512E+01  0.90055144160E+01 -0.25263322256E+01  0.12990196279E+02  0.00000000000E+00 0.  1.
</event>
<event>
 7    1  0.2886681E-010  0.4778726E+02  0.7816164E-02  0.1312668E+00
        -11   -1    0    0    0    0  0.00000000000E+00  0.00000000000E+00  0.45593999997E+02  0.45594000000E+02  0.51100000000E-03 0.  1.
         11   -1    0    0    0    0 -0.00000000000E+00 -0.00000000000E+00 -0.45593999997E+02  0.45594000000E+02  0.51100000000E-03 0. -1.
    9900012    2    1    2    0    0  0.22990849255E+02 -0.26350774285E+02 -0.25703735503E+02  0.47787257222E+02  0.19999936978E+02 0.  0.
        -12    1    1    2    0    0 -0.22990849255E+02  0.26350774285E+02  0.25703735503E+02  0.43400742778E+02  0.00000000000E+00 0.  1.
         11    1    3    3    0    0  0.90203523822E+01 -0.48806281299E+01 -0.49304535034E+01  0.11379659927E+02  0.51100000000E-03 0. -1.
        -11    1    3    3    0    0  0.17187948594E+02 -0.15651921185E+02 -0.16408290499E+02  0.28454177391E+02  0.51100000000E-03 0.  1.
        -12    1    3    3    0    0 -0.32174517205E+01 -0.58182249701E+01 -0.43649915001E+01  0.79534199042E+01  0.00000000000E+00 0.  1.
</event>
<event>
 7    1  0.2886681E-010  0.4778727E+02  0.7816164E-02  0.1312668E+00
        -11   -1    0    0    0    0  0.00000000000E+00  0.00000000000E+00  0.45593999997E+02  0.45594000000E+02  0.51100000000E-03 0. -1.
         11   -1    0    0    0    0 -0.00000000000E+00 -0.00000000000E+00 -0.45593999997E+02  0.45594000000E+02  0.51100000000E-03 0.  1.
    9900012    2    1    2    0    0  0.71230525629E+01  0.23254043349E+02  0.35946279044E+02  0.47787269741E+02  0.19999994059E+02 0.  0.
        -12    1    1    2    0    0 -0.71230525629E+01 -0.23254043349E+02 -0.35946279044E+02  0.43400730259E+02  0.00000000000E+00 0.  1.
         11    1    3    3    0    0  0.11990180731E+02  0.11133613225E+02  0.14782971190E+02  0.22051258805E+02  0.51100000000E-03 0. -1.
        -11    1    3    3    0    0 -0.28349215621E+01  0.11611430243E+02  0.14725021832E+02  0.18965451768E+02  0.51100000000E-03 0.  1.
        -12    1    3    3    0    0 -0.20322066060E+01  0.50899988187E+00  0.64382860209E+01  0.67705591686E+01  0.00000000000E+00 0.  1.
</event>
<event>
 7    1  0.2886681E-010  0.4778727E+02  0.7816164E-02  0.1312668E+00
        -11   -1    0    0    0    0  0.00000000000E+00  0.00000000000E+00  0.45593999997E+02  0.45594000000E+02  0.51100000000E-03 0.  1.
         11   -1    0    0    0    0 -0.00000000000E+00 -0.00000000000E+00 -0.45593999997E+02  0.45594000000E+02  0.51100000000E-03 0. -1.
    9900012    2    1    2    0    0  0.15311651629E+02 -0.35417662730E+02  0.19868722013E+02  0.47787267019E+02  0.19999981646E+02 0.  0.
        -12    1    1    2    0    0 -0.15311651629E+02  0.35417662730E+02 -0.19868722013E+02  0.43400732981E+02  0.00000000000E+00 0.  1.
         11    1    3    3    0    0  0.11750016257E+02 -0.34567938774E+02  0.13128773566E+02  0.38799097525E+02  0.51100000000E-03 0. -1.
        -11    1    3    3    0    0  0.25009744064E+01 -0.21004793816E+01  0.65730705038E+01  0.73397644869E+01  0.51100000000E-03 0.  1.
         12    1    3    3    0    0  0.10606609653E+01  0.12507554261E+01  0.16687794377E+00  0.16484050071E+01  0.00000000000E+00 0. -1.
</event>
<event>
 7    1  0.2886681E-010  0.4778727E+02  0.7816164E-02  0.1312668E+00
        -11   -1    0    0    0    0  0.00000000000E+00  0.00000000000E+00  0.45593999997E+02  0.45594000000E+02  0.51100000000E-03 0. -1.
         11   -1    0    0    0    0 -0.00000000000E+00 -0.00000000000E+00 -0.45593999997E+02  0.45594000000E+02  0.51100000000E-03 0.  1.
    9900012    2    1    2    0    0  0.32477332857E+02 -0.23860763644E+02  0.16109319346E+02  0.47787270041E+02  0.19999995424E+02 0.  0.
        -12    1    1    2    0    0 -0.32477332857E+02  0.23860763644E+02 -0.16109319346E+02  0.43400729959E+02  0.00000000000E+00 0.  1.
         11    1    3    3    0    0  0.14172173729E+02 -0.66359501606E+01  0.75829029661E+01  0.17389271417E+02  0.51100000000E-03 0. -1.
        -11    1    3    3    0    0  0.11648526693E+02 -0.18102843362E+02  0.96492918326E+01  0.23590463010E+02  0.51100000000E-03 0.  1.
        -12    1    3    3    0    0  0.66566324356E+01  0.87802987939E+00 -0.11228754525E+01  0.68075356139E+01  0.00000000000E+00 0.  1.
</event>
<event>
 7    1  0.2886681E-010  0.4778727E+02  0.7816164E-02  0.1312668E+00
        -11   -1    0    0    0    0  0.00000000000E+00  0.00000000000E+00  0.45593999997E+02  0.45594000000E+02  0.51100000000E-03 0.  1.
         11   -1    0    0    0    0 -0.00000000000E+00 -0.00000000000E+00 -0.45593999997E+02  0.45594000000E+02  0.51100000000E-03 0. -1.
    9900012    2    1    2    0    0 -0.38145283950E+01 -0.27213664769E+02 -0.33592988250E+02  0.47787273778E+02  0.20000012465E+02 0.  0.
        -12    1    1    2    0    0  0.38145283950E+01  0.27213664769E+02  0.33592988250E+02  0.43400726222E+02  0.00000000000E+00 0.  1.
         11    1    3    3    0    0 -0.77766253412E+00 -0.10038823069E+02 -0.19523965836E+02  0.21967429751E+02  0.51100000000E-03 0. -1.
        -11    1    3    3    0    0 -0.21651347114E+01 -0.76026856287E+01 -0.14149283507E+02  0.16207740777E+02  0.51100000000E-03 0.  1.
        -12    1    3    3    0    0 -0.87173114947E+00 -0.95721560715E+01  0.80261093192E-01  0.96121032505E+01  0.00000000000E+00 0.  1.
</event>
<event>
 7    1  0.2886681E-010  0.4778727E+02  0.7816164E-02  0.1312668E+00
        -11   -1    0    0    0    0  0.00000000000E+00  0.00000000000E+00  0.45593999997E+02  0.45594000000E+02  0.51100000000E-03 0. -1.
         11   -1    0    0    0    0 -0.00000000000E+00 -0.00000000000E+00 -0.45593999997E+02  0.45594000000E+02  0.51100000000E-03 0.  1.
    9900012    2    1    2    0    0  0.11038606667E+02  0.28033755739E+02  0.31239098669E+02  0.47787267476E+02  0.19999983729E+02 0.  0.
        -12    1    1    2    0    0 -0.11038606667E+02 -0.28033755739E+02 -0.31239098669E+02  0.43400732524E+02  0.00000000000E+00 0.  1.
         11    1    3    3    0    0  0.26469947066E+01 -0.13676591446E+01  0.11341063695E+01  0.31879883989E+01  0.51100000000E-03 0. -1.
        -11    1    3    3    0    0  0.45113865761E+01  0.15276867580E+01  0.44070901433E+01  0.64891354942E+01  0.51100000000E-03 0.  1.
         12    1    3    3    0    0  0.38802253838E+01  0.27873728126E+02  0.25697902156E+02  0.38110143583E+02  0.00000000000E+00 0. -1.
</event>
<event>
 7    1  0.2886681E-010  0.4778727E+02  0.7816164E-02  0.1312668E+00
        -11   -1    0    0    0    0  0.00000000000E+00  0.00000000000E+00  0.45593999997E+02  0.45594000000E+02  0.51100000000E-03 0. -1.
         11   -1    0    0    0    0 -0.00000000000E+00 -0.00000000000E+00 -0.45593999997E+02  0.45594000000E+02  0.51100000000E-03 0.  1.
    9900012    2    1    2    0    0  0.14627652702E+02 -0.33017046428E+02  0.24073428617E+02  0.47787267935E+02  0.19999985825E+02 0.  0.
        -12    1    1    2    0    0 -0.14627652702E+02  0.33017046428E+02 -0.24073428617E+02  0.43400732065E+02  0.00000000000E+00 0.  1.
         11    1    3    3    0    0  0.80910030971E+01 -0.14721833929E+02  0.10704938576E+02  0.19919649483E+02  0.51100000000E-03 0. -1.
        -11    1    3    3    0    0 -0.14876490626E+01  0.54461543956E+00 -0.17897451756E+01  0.23901660539E+01  0.51100000000E-03 0.  1.
        -12    1    3    3    0    0  0.80242986672E+01 -0.18839827938E+02  0.15158235216E+02  0.25477452399E+02  0.00000000000E+00 0.  1.
</event>
<event>
 7    1  0.2886681E-010  0.4778727E+02  0.7816164E-02  0.1312668E+00
        -11   -1    0    0    0    0  0.00000000000E+00  0.00000000000E+00  0.45593999997E+02  0.45594000000E+02  0.51100000000E-03 0.  1.
         11   -1    0    0    0    0 -0.00000000000E+00 -0.00000000000E+00 -0.45593999997E+02  0.45594000000E+02  0.51100000000E-03 0. -1.
    9900012    2    1    2    0    0  0.35082598588E+02 -0.25550400473E+02  0.10769713302E+00  0.47787270897E+02  0.19999999327E+02 0.  0.
        -12    1    1    2    0    0 -0.35082598588E+02  0.25550400473E+02 -0.10769713302E+00  0.43400729103E+02  0.00000000000E+00 0.  1.
         11    1    3    3    0    0  0.13114007432E+02 -0.89200406751E+01  0.57518575358E+01  0.16870927121E+02  0.51100000000E-03 0. -1.
        -11    1    3    3    0    0  0.46772995746E+01 -0.24204616605E+01 -0.66860204582E+01  0.85110889895E+01  0.51100000000E-03 0.  1.
        -12    1    3    3    0    0  0.17291291582E+02 -0.14209898137E+02  0.10418600554E+01  0.22405254786E+02  0.00000000000E+00 0.  1.
</event>
<event>
 7    1  0.2886681E-010  0.4778728E+02  0.7816164E-02  0.1312668E+00
        -11   -1    0    0    0    0  0.00000000000E+00  0.00000000000E+00  0.45593999997E+02  0.45594000000E+02  0.51100000000E-03 0. -1.
         11   -1    0    0    0    0 -0.00000000000E+00 -0.00000000000E+00 -0.45593999997E+02  0.45594000000E+02  0.51100000000E-03 0.  1.
    9900012    2    1    2    0    0  0.11635745933E+02 -0.41308407194E+02  0.64689498318E+01  0.47787281109E+02  0.20000045887E+02 0.  0.
        -12    1    1    2    0    0 -0.11635745933E+02  0.41308407194E+02 -0.64689498318E+01  0.43400718891E+02  0.00000000000E+00 0.  1.
         11    1    3    3    0    0  0.32785026941E+01 -0.14893892243E+00  0.28444884217E+01  0.43430262905E+01  0.51100000000E-03 0. -1.
        -11    1    3    3    0    0  0.10332915767E+02 -0.35068398529E+02  0.49865419693E+01  0.36897524642E+02  0.51100000000E-03 0.  1.
         12    1    3    3    0    0 -0.19756725280E+01 -0.60910697430E+01 -0.13620805591E+01  0.65467301763E+01  0.00000000000E+00 0. -1.
</event>
<event>
 7    1  0.2886681E-010  0.4778727E+02  0.7816164E-02  0.1312668E+00
        -11   -1    0    0    0    0  0.00000000000E+00  0.00000000000E+00  0.45593999997E+02  0.45594000000E+02  0.51100000000E-03 0. -1.
         11   -1    0    0    0    0 -0.00000000000E+00 -0.00000000000E+00 -0.45593999997E+02  0.45594000000E+02  0.51100000000E-03 0.  1.
    9900012    2    1    2    0    0 -0.14788489079E+01  0.42843290520E+02 -0.67741035008E+01  0.47787274028E+02  0.20000013604E+02 0.  0.
        -12    1    1    2    0    0  0.14788489079E+01 -0.42843290520E+02  0.67741035008E+01  0.43400725972E+02  0.00000000000E+00 0.  1.
         11    1    3    3    0    0 -0.58096347101E+00  0.20477491891E+02 -0.11392032628E+01  0.20517382314E+02  0.51100000000E-03 0. -1.
        -11    1    3    3    0    0  0.32074578477E+01  0.88242386116E+01 -0.86902908928E+01  0.12793597187E+02  0.51100000000E-03 0.  1.
        -12    1    3    3    0    0 -0.41053432845E+01  0.13541560017E+02  0.30553906549E+01  0.14476294527E+02  0.00000000000E+00 0.  1.
</event>
<event>
 7    1  0.2886681E-010  0.4778727E+02  0.7816164E-02  0.1312668E+00
        -11   -1    0    0    0    0  0.00000000000E+00  0.00000000000E+00  0.45593999997E+02  0.45594000000E+02  0.51100000000E-03 0.  1.
         11   -1    0    0    0    0 -0.00000000000E+00 -0.00000000000E+00 -0.45593999997E+02  0.45594000000E+02  0.51100000000E-03 0. -1.
    9900012    2    1    2    0    0  0.15992628012E+02 -0.37763191650E+02 -0.14205646818E+02  0.47787271944E+02  0.20000004100E+02 0.  0.
        -12    1    1    2    0    0 -0.15992628012E+02  0.37763191650E+02  0.14205646818E+02  0.43400728056E+02  0.00000000000E+00 0.  1.
         11    1    3    3    0    0  0.69507654928E+01 -0.13829961226E+02  0.22451382937E+01  0.15640384096E+02  0.51100000000E-03 0. -1.
        -11    1    3    3    0    0  0.26308242358E+00 -0.99340076369E+01 -0.10816975458E+02  0.14688794315E+02  0.51100000000E-03 0.  1.
         12    1    3    3    0    0  0.87787800953E+01 -0.13999222787E+02 -0.56338096535E+01  0.17458093533E+02  0.00000000000E+00 0. -1.
</event>
<event>
 7    1  0.2886681E-010  0.4778727E+02  0.7816164E-02  0.1312668E+00
        -11   -1    0    0    0    0  0.00000000000E+00  0.00000000000E+00  0.45593999997E+02  0.45594000000E+02  0.51100000000E-03 0. -1.
         11   -1    0    0    0    0 -0.00000000000E+00 -0.00000000000E+00 -0.45593999997E+02  0.45594000000E+02  0.51100000000E-03 0.  1.
    9900012    2    1    2    0    0  0.77250347701E+01 -0.37077713556E+02  0.21194108781E+02  0.47787271299E+02  0.20000001162E+02 0.  0.
        -12    1    1    2    0    0 -0.77250347701E+01  0.37077713556E+02 -0.21194108781E+02  0.43400728701E+02  0.00000000000E+00 0.  1.
         11    1    3    3    0    0  0.55779160850E+01 -0.12668986687E+02  0.14364485879E+02  0.19948805136E+02  0.51100000000E-03 0. -1.
        -11    1    3    3    0    0 -0.15100587621E+00 -0.11625337497E+02 -0.24425142272E+01  0.11880115770E+02  0.51100000000E-03 0.  1.
         12    1    3    3    0    0  0.22981245613E+01 -0.12783389372E+02  0.92721371289E+01  0.15958350393E+02  0.00000000000E+00 0. -1.
</event>
<event>
 7    1  0.2886681E-010  0.4778727E+02  0.7816164E-02  0.1312668E+00
        -11   -1    0    0    0    0  0.00000000000E+00  0.00000000000E+00  0.45593999997E+02  0.45594000000E+02  0.51100000000E-03 0.  1.
         11   -1    0    0    0    0 -0.00000000000E+00 -0.00000000000E+00 -0.45593999997E+02  0.45594000000E+02  0.51100000000E-03 0. -1.
    9900012    2    1    2    0    0  0.75467258278E+01 -0.34532196538E+02 -0.25183284963E+02  0.47787268325E+02  0.19999987599E+02 0.  0.
        -12    1    1    2    0    0 -0.75467258278E+01  0.34532196538E+02  0.25183284963E+02  0.43400731675E+02  0.00000000000E+00 0.  1.
         11    1    3    3    0    0 -0.39133625731E+01 -0.15329447331E+02 -0.35584264949E+01  0.16216311587E+02  0.51100000000E-03 0. -1.
        -11    1    3    3    0    0  0.89283346123E+01 -0.12472260474E+02 -0.11587096236E+02  0.19223247377E+02  0.51100000000E-03 0.  1.
         12    1    3    3    0    0  0.25317537886E+01 -0.67304887328E+01 -0.10037762232E+02  0.12347709360E+02  0.00000000000E+00 0. -1.
</event>
<event>
 7    1  0.2886681E-010  0.4778727E+02  0.7816164E-02  0.1312668E+00
        -11   -1    0    0    0    0  0.00000000000E+00  0.00000000000E+00  0.45593999997E+02  0.45594000000E+02  0.51100000000E-03 0. -1.
         11   -1    0    0    0    0 -0.00000000000E+00 -0.00000000000E+00 -0.45593999997E+02  0.45594000000E+02  0.51100000000E-03 0.  1.
    9900012    2    1    2    0    0  0.40883785674E+02 -0.40542321650E-01  0.14564946335E+02  0.47787271475E+02  0.20000001964E+02 0.  0.
        -12    1    1    2    0    0 -0.40883785674E+02  0.40542321650E-01 -0.14564946335E+02  0.43400728525E+02  0.00000000000E+00 0.  1.
         11    1    3    3    0    0  0.11059471178E+02  0.75742309400E+01  0.72858492833E+01  0.15256620763E+02  0.51100000000E-03 0. -1.
        -11    1    3    3    0    0  0.15540078709E+02 -0.72636428829E+01  0.60494230044E+01  0.18189284570E+02  0.51100000000E-03 0.  1.
         12    1    3    3    0    0  0.14284235787E+02 -0.35113037870E+00  0.12296740474E+01  0.14341366142E+02  0.00000000000E+00 0. -1.
</event>
<event>
 7    1  0.2886681E-010  0.4778727E+02  0.7816164E-02  0.1312668E+00
        -11   -1    0    0    0    0  0.00000000000E+00  0.00000000000E+00  0.45593999997E+02  0.45594000000E+02  0.51100000000E-03 0.  1.
         11   -1    0    0    0    0 -0.00000000000E+00 -0.00000000000E+00 -0.45593999997E+02  0.45594000000E+02  0.51100000000E-03 0. -1.
    9900012    2    1    2    0    0  0.30866967668E+02  0.26713113764E+02 -0.14739859619E+02  0.47787267269E+02  0.19999982788E+02 0.  0.
        -12    1    1    2    0    0 -0.30866967668E+02 -0.26713113764E+02  0.14739859619E+02  0.43400732731E+02  0.00000000000E+00 0.  1.
         11    1    3    3    0    0  0.11749099847E+02  0.25813040620E+01 -0.35122920068E+01  0.12531587021E+02  0.51100000000E-03 0. -1.
        -11    1    3    3    0    0  0.34184341903E+01  0.11846255701E+02 -0.88549641617E+01  0.15179916239E+02  0.51100000000E-03 0.  1.
        -12    1    3    3    0    0  0.15699433631E+02  0.12285554001E+02 -0.23726034503E+01  0.20075764009E+02  0.00000000000E+00 0.  1.
</event>
<event>
 7    1  0.2886681E-010  0.4778723E+02  0.7816164E-02  0.1312668E+00
        -11   -1    0    0    0    0  0.00000000000E+00  0.00000000000E+00  0.45593999997E+02  0.45594000000E+02  0.51100000000E-03 0.  1.
         11   -1    0    0    0    0 -0.00000000000E+00 -0.00000000000E+00 -0.45593999997E+02  0.45594000000E+02  0.51100000000E-03 0. -1.
    9900012    2    1    2    0    0 -0.40753898610E+02 -0.10953089063E+02 -0.10137864672E+02  0.47787231435E+02  0.19999819403E+02 0.  0.
        -12    1    1    2    0    0  0.40753898610E+02  0.10953089063E+02  0.10137864672E+02  0.43400768565E+02  0.00000000000E+00 0.  1.
         11    1    3    3    0    0 -0.11272617392E+02 -0.23690859611E+01  0.32703631830E+00  0.11523516137E+02  0.51100000000E-03 0. -1.
        -11    1    3    3    0    0 -0.10777208478E+02 -0.32624998743E+01  0.40832848616E+01  0.11977701930E+02  0.51100000000E-03 0.  1.
        -12    1    3    3    0    0 -0.18704072740E+02 -0.53215032272E+01 -0.14548185852E+02  0.24286013367E+02  0.00000000000E+00 0.  1.
</event>
<event>
 7    1  0.2886681E-010  0.4778727E+02  0.7816164E-02  0.1312668E+00
        -11   -1    0    0    0    0  0.00000000000E+00  0.00000000000E+00  0.45593999997E+02  0.45594000000E+02  0.51100000000E-03 0.  1.
         11   -1    0    0    0    0 -0.00000000000E+00 -0.00000000000E+00 -0.45593999997E+02  0.45594000000E+02  0.51100000000E-03 0. -1.
    9900012    2    1    2    0    0  0.15201296151E+02 -0.14300952578E+02 -0.38052945401E+02  0.47787270709E+02  0.19999998469E+02 0.  0.
        -12    1    1    2    0    0 -0.15201296151E+02  0.14300952578E+02  0.38052945401E+02  0.43400729291E+02  0.00000000000E+00 0.  1.
         11    1    3    3    0    0  0.42570853381E+01 -0.59342072643E+01 -0.13627058401E+02  0.15460734535E+02  0.51100000000E-03 0. -1.
        -11    1    3    3    0    0  0.66864844517E+01 -0.11455103258E+02 -0.90011244978E+01  0.16029619692E+02  0.51100000000E-03 0.  1.
        -12    1    3    3    0    0  0.42577263616E+01  0.30883579446E+01 -0.15424762503E+02  0.16296916482E+02  0.00000000000E+00 0.  1.
</event>
<event>
 7    1  0.2886681E-010  0.4778730E+02  0.7816164E-02  0.1312668E+00
        -11   -1    0    0    0    0  0.00000000000E+00  0.00000000000E+00  0.45593999997E+02  0.45594000000E+02  0.51100000000E-03 0.  1.
         11   -1    0    0    0    0 -0.00000000000E+00 -0.00000000000E+00 -0.45593999997E+02  0.45594000000E+02  0.51100000000E-03 0. -1.
    9900012    2    1    2    0    0 -0.56978826562E+00  0.47678819101E+01 -0.43134251660E+02  0.47787296978E+02  0.20000118240E+02 0.  0.
        -12    1    1    2    0    0  0.56978826562E+00 -0.47678819101E+01  0.43134251660E+02  0.43400703022E+02  0.00000000000E+00 0.  1.
         11    1    3    3    0    0 -0.15592769141E+01 -0.42632441062E+00 -0.26593295288E+02  0.26642380741E+02  0.51100000000E-03 0. -1.
        -11    1    3    3    0    0  0.80602191492E+00 -0.28301054738E+01 -0.21243357640E+00  0.29503044937E+01  0.51100000000E-03 0.  1.
        -12    1    3    3    0    0  0.18346673360E+00  0.80243117944E+01 -0.16328522795E+02  0.18194611743E+02  0.00000000000E+00 0.  1.
</event>
<event>
 7    1  0.2886681E-010  0.4778728E+02  0.7816164E-02  0.1312668E+00
        -11   -1    0    0    0    0  0.00000000000E+00  0.00000000000E+00  0.45593999997E+02  0.45594000000E+02  0.51100000000E-03 0.  1.
         11   -1    0    0    0    0 -0.00000000000E+00 -0.00000000000E+00 -0.45593999997E+02  0.45594000000E+02  0.51100000000E-03 0. -1.
    9900012    2    1    2    0    0  0.29130077780E+02  0.14321074267E+02 -0.28809166533E+02  0.47787277933E+02  0.20000031406E+02 0.  0.
        -12    1    1    2    0    0 -0.29130077780E+02 -0.14321074267E+02  0.28809166533E+02  0.43400722067E+02  0.00000000000E+00 0.  1.
         11    1    3    3    0    0 -0.48419971805E+00 -0.29448848043E+01 -0.19020498067E+01  0.35390096928E+01  0.51100000000E-03 0. -1.
        -11    1    3    3    0    0  0.19781381372E+01 -0.53397405932E+00 -0.28644362994E+01  0.35218112329E+01  0.51100000000E-03 0.  1.
         12    1    3    3    0    0  0.27636139361E+02  0.17799933130E+02 -0.24042680427E+02  0.40726457007E+02  0.00000000000E+00 0. -1.
</event>
<event>
 7    1  0.2886681E-010  0.4778727E+02  0.7816164E-02  0.1312668E+00
        -11   -1    0    0    0    0  0.00000000000E+00  0.00000000000E+00  0.45593999997E+02  0.45594000000E+02  0.51100000000E-03 0.  1.
         11   -1    0    0    0    0 -0.00000000000E+00 -0.00000000000E+00 -0.45593999997E+02  0.45594000000E+02  0.51100000000E-03 0. -1.
    9900012    2    1    2    0    0 -0.18140916079E+02  0.36911372224E+02 -0.13859330155E+02  0.47787271112E+02  0.20000000310E+02 0.  0.
        -12    1    1    2    0    0  0.18140916079E+02 -0.36911372224E+02  0.13859330155E+02  0.43400728888E+02  0.00000000000E+00 0.  1.
         11    1    3    3    0    0 -0.74835513046E+01  0.15935590266E+02 -0.11977082697E+02  0.21293123009E+02  0.51100000000E-03 0. -1.
        -11    1    3    3    0    0 -0.12045538245E+02  0.11170959841E+02 -0.77155059197E-01  0.16428368408E+02  0.51100000000E-03 0.  1.
        -12    1    3    3    0    0  0.13881734707E+01  0.98048221163E+01 -0.18050923991E+01  0.10065779696E+02  0.00000000000E+00 0.  1.
</event>
<event>
 7    1  0.2886681E-010  0.4778727E+02  0.7816164E-02  0.1312668E+00
        -11   -1    0    0    0    0  0.00000000000E+00  0.00000000000E+00  0.45593999997E+02  0.45594000000E+02  0.51100000000E-03 0.  1.
         11   -1    0    0    0    0 -0.00000000000E+00 -0.00000000000E+00 -0.45593999997E+02  0.45594000000E+02  0.51100000000E-03 0. -1.
    9900012    2    1    2    0    0  0.14540786393E+02 -0.21290103096E+02 -0.34913035673E+02  0.47787273984E+02  0.20000013403E+02 0.  0.
        -12    1    1    2    0    0 -0.14540786393E+02  0.21290103096E+02  0.34913035673E+02  0.43400726016E+02  0.00000000000E+00 0.  1.
         11    1    3    3    0    0  0.13170508291E+02 -0.45430175942E+01 -0.11281086005E+02  0.17926633795E+02  0.51100000000E-03 0. -1.
        -11    1    3    3    0    0  0.73142678805E+00 -0.11853408655E+02 -0.10573990622E+02  0.15901181083E+02  0.51100000000E-03 0.  1.
         12    1    3    3    0    0  0.63885131423E+00 -0.48936768469E+01 -0.13057959047E+02  0.13959459107E+02  0.00000000000E+00 0. -1.
</event>
<event>
 7    1  0.2886681E-010  0.4778729E+02  0.7816164E-02  0.1312668E+00
        -11   -1    0    0    0    0  0.00000000000E+00  0.00000000000E+00  0.45593999997E+02  0.45594000000E+02  0.51100000000E-03 0. -1.
         11   -1    0    0    0    0 -0.00000000000E+00 -0.00000000000E+00 -0.45593999997E+02  0.45594000000E+02  0.51100000000E-03 0.  1.
    9900012    2    1    2    0    0  0.24569145886E+02  0.23563001066E+02 -0.26921433357E+02  0.47787291218E+02  0.20000091979E+02 0.  0.
        -12    1    1    2    0    0 -0.24569145886E+02 -0.23563001066E+02  0.26921433357E+02  0.43400708782E+02  0.00000000000E+00 0.  1.
         11    1    3    3    0    0  0.22588278538E+02  0.14827231791E+02 -0.17734901831E+02  0.32320332194E+02  0.51100000000E-03 0. -1.
        -11    1    3    3    0    0 -0.18088320811E+01  0.15258254148E+01  0.87383026775E+00  0.25226169531E+01  0.51100000000E-03 0.  1.
         12    1    3    3    0    0  0.37896994283E+01  0.72099438601E+01 -0.10060361794E+02  0.12944342071E+02  0.00000000000E+00 0. -1.
</event>
<event>
 7    1  0.2886681E-010  0.4778726E+02  0.7816164E-02  0.1312668E+00
        -11   -1    0    0    0    0  0.00000000000E+00  0.00000000000E+00  0.45593999997E+02  0.45594000000E+02  0.51100000000E-03 0.  1.
         11   -1    0    0    0    0 -0.00000000000E+00 -0.00000000000E+00 -0.45593999997E+02  0.45594000000E+02  0.51100000000E-03 0. -1.
    9900012    2    1    2    0    0 -0.54014025043E+01  0.23583911968E+02 -0.36031212215E+02  0.47787259149E+02  0.19999945764E+02 0.  0.
        -12    1    1    2    0    0  0.54014025043E+01 -0.23583911968E+02  0.36031212215E+02  0.43400740851E+02  0.00000000000E+00 0.  1.
         11    1    3    3    0    0 -0.23286172049E+01  0.57845950913E+00 -0.23290124118E+01  0.33438559428E+01  0.51100000000E-03 0. -1.
        -11    1    3    3    0    0 -0.85578914898E+01  0.88031871338E+01 -0.82716577913E+01  0.14803848599E+02  0.51100000000E-03 0.  1.
        -12    1    3    3    0    0  0.54851061905E+01  0.14202265325E+02 -0.25430542012E+02  0.29639554607E+02  0.00000000000E+00 0.  1.
</event>
<event>
 7    1  0.2886681E-010  0.4778726E+02  0.7816164E-02  0.1312668E+00
        -11   -1    0    0    0    0  0.00000000000E+00  0.00000000000E+00  0.45593999997E+02  0.45594000000E+02  0.51100000000E-03 0.  1.
         11   -1    0    0    0    0 -0.00000000000E+00 -0.00000000000E+00 -0.45593999997E+02  0.45594000000E+02  0.51100000000E-03 0. -1.
    9900012    2    1    2    0    0 -0.82177233850E+01 -0.11245758757E+02 -0.41105063007E+02  0.47787259540E+02  0.19999947546E+02 0.  0.
        -12    1    1    2    0    0  0.82177233850E+01  0.11245758757E+02  0.41105063007E+02  0.43400740460E+02  0.00000000000E+00 0.  1.
         11    1    3    3    0    0 -0.16328903832E+01  0.44709211512E-01 -0.20350864929E+02  0.20416317825E+02  0.51100000000E-03 0. -1.
        -11    1    3    3    0    0 -0.77566416129E+01 -0.10913847391E+02 -0.10426751653E+02  0.16970406721E+02  0.51100000000E-03 0.  1.
        -12    1    3    3    0    0  0.11718086110E+01 -0.37662057743E+00 -0.10327446426E+02  0.10400534994E+02  0.00000000000E+00 0.  1.
</event>
<event>
 7    1  0.2886681E-010  0.4778730E+02  0.7816164E-02  0.1312668E+00
        -11   -1    0    0    0    0  0.00000000000E+00  0.00000000000E+00  0.45593999997E+02  0.45594000000E+02  0.51100000000E-03 0.  1.
         11   -1    0    0    0    0 -0.00000000000E+00 -0.00000000000E+00 -0.45593999997E+02  0.45594000000E+02  0.51100000000E-03 0. -1.
    9900012    2    1    2    0    0  0.74933487969E+01  0.12918955103E+02 -0.40750107145E+02  0.47787298284E+02  0.20000124194E+02 0.  0.
        -12    1    1    2    0    0 -0.74933487969E+01 -0.12918955103E+02  0.40750107145E+02  0.43400701716E+02  0.00000000000E+00 0.  1.
         11    1    3    3    0    0 -0.53227928710E+01  0.30775978915E+01 -0.57216400543E+01  0.83988628934E+01  0.51100000000E-03 0. -1.
        -11    1    3    3    0    0  0.96599207770E+01  0.74296493551E+01 -0.16934710766E+02  0.20863800899E+02  0.51100000000E-03 0.  1.
         12    1    3    3    0    0  0.31562208908E+01  0.24117078562E+01 -0.18093756325E+02  0.18524634492E+02  0.00000000000E+00 0. -1.
</event>
<event>
 7    1  0.2886681E-010  0.4778727E+02  0.7816164E-02  0.1312668E+00
        -11   -1    0    0    0    0  0.00000000000E+00  0.00000000000E+00  0.45593999997E+02  0.45594000000E+02  0.51100000000E-03 0.  1.
         11   -1    0    0    0    0 -0.00000000000E+00 -0.00000000000E+00 -0.45593999997E+02  0.45594000000E+02  0.51100000000E-03 0. -1.
    9900012    2    1    2    0    0 -0.48000168890E+01 -0.31682789742E+02 -0.29270872671E+02  0.47787270572E+02  0.19999997844E+02 0.  0.
        -12    1    1    2    0    0  0.48000168890E+01  0.31682789742E+02  0.29270872671E+02  0.43400729428E+02  0.00000000000E+00 0.  1.
         11    1    3    3    0    0  0.47033404514E+01 -0.22743695225E+02 -0.15812037277E+02  0.28096576429E+02  0.51100000000E-03 0. -1.
        -11    1    3    3    0    0 -0.10158927594E+02 -0.70291408246E+01 -0.11580173264E+02  0.16932602980E+02  0.51100000000E-03 0.  1.
        -12    1    3    3    0    0  0.65557025364E+00 -0.19099536926E+01 -0.18786621296E+01  0.27580911629E+01  0.00000000000E+00 0.  1.
</event>
<event>
 7    1  0.2886681E-010  0.4778728E+02  0.7816164E-02  0.1312668E+00
        -11   -1    0    0    0    0  0.00000000000E+00  0.00000000000E+00  0.45593999997E+02  0.45594000000E+02  0.51100000000E-03 0.  1.
         11   -1    0    0    0    0 -0.00000000000E+00 -0.00000000000E+00 -0.45593999997E+02  0.45594000000E+02  0.51100000000E-03 0. -1.
    9900012    2    1    2    0    0  0.20694339361E+02  0.24724356727E+02 -0.29052940133E+02  0.47787276187E+02  0.20000023446E+02 0.  0.
        -12    1    1    2    0    0 -0.20694339361E+02 -0.24724356727E+02  0.29052940133E+02  0.43400723813E+02  0.00000000000E+00 0.  1.
         11    1    3    3    0    0  0.90697214886E+01  0.51415787426E+01 -0.16231712879E+02  0.19291557301E+02  0.51100000000E-03 0. -1.
        -11    1    3    3    0    0  0.13211989808E+02  0.17486639324E+02 -0.86436150531E+01  0.23559526968E+02  0.51100000000E-03 0.  1.
        -12    1    3    3    0    0 -0.15873719355E+01  0.20961386604E+01 -0.41776122010E+01  0.49361919176E+01  0.00000000000E+00 0.  1.
</event>
<event>
 7    1  0.2886681E-010  0.4778727E+02  0.7816164E-02  0.1312668E+00
        -11   -1    0    0    0    0  0.00000000000E+00  0.00000000000E+00  0.45593999997E+02  0.45594000000E+02  0.51100000000E-03 0.  1.
         11   -1    0    0    0    0 -0.00000000000E+00 -0.00000000000E+00 -0.45593999997E+02  0.45594000000E+02  0.51100000000E-03 0. -1.
    9900012    2    1    2    0    0 -0.27550138944E+02 -0.54871224957E+01 -0.33083299296E+02  0.47787270036E+02  0.19999995401E+02 0.  0.
        -12    1    1    2    0    0  0.27550138944E+02  0.54871224957E+01  0.33083299296E+02  0.43400729964E+02  0.00000000000E+00 0.  1.
         11    1    3    3    0    0 -0.18244374576E+02 -0.73001279914E+01 -0.25144117620E+02  0.31911999679E+02  0.51100000000E-03 0. -1.
        -11    1    3    3    0    0  0.87648593007E+00  0.28591913729E+01 -0.37965118127E+01  0.48328775173E+01  0.51100000000E-03 0.  1.
        -12    1    3    3    0    0 -0.10182250298E+02 -0.10461858772E+01 -0.41426698631E+01  0.11042392839E+02  0.00000000000E+00 0.  1.
</event>
<event>
 7    1  0.2886681E-010  0.4778727E+02  0.7816164E-02  0.1312668E+00
        -11   -1    0    0    0    0  0.00000000000E+00  0.00000000000E+00  0.45593999997E+02  0.45594000000E+02  0.51100000000E-03 0. -1.
         11   -1    0    0    0    0 -0.00000000000E+00 -0.00000000000E+00 -0.45593999997E+02  0.45594000000E+02  0.51100000000E-03 0.  1.
    9900012    2    1    2    0    0  0.19293353375E+02 -0.18362924981E+02  0.34266492668E+02  0.47787273991E+02  0.20000013437E+02 0.  0.
        -12    1    1    2    0    0 -0.19293353375E+02  0.18362924981E+02 -0.34266492668E+02  0.43400726009E+02  0.00000000000E+00 0.  1.
         11    1    3    3    0    0  0.93846012177E+01 -0.15599906107E+02  0.20416906010E+02  0.27354668009E+02  0.51100000000E-03 0. -1.
        -11    1    3    3    0    0  0.97822986348E+00  0.35316698852E+01  0.15444693759E+01  0.39768092434E+01  0.51100000000E-03 0.  1.
        -12    1    3    3    0    0  0.89305222937E+01 -0.62946887587E+01  0.12305117282E+02  0.16455796739E+02  0.00000000000E+00 0.  1.
</event>
<event>
 7    1  0.2886681E-010  0.4778728E+02  0.7816164E-02  0.1312668E+00
        -11   -1    0    0    0    0  0.00000000000E+00  0.00000000000E+00  0.45593999997E+02  0.45594000000E+02  0.51100000000E-03 0.  1.
         11   -1    0    0    0    0 -0.00000000000E+00 -0.00000000000E+00 -0.45593999997E+02  0.45594000000E+02  0.51100000000E-03 0. -1.
    9900012    2    1    2    0    0  0.27591933020E+01 -0.22485157342E+02 -0.37019283980E+02  0.47787276103E+02  0.20000023063E+02 0.  0.
        -12    1    1    2    0    0 -0.27591933020E+01  0.22485157342E+02  0.37019283980E+02  0.43400723897E+02  0.00000000000E+00 0.  1.
         11    1    3    3    0    0  0.68698409996E+01 -0.11178959350E+02 -0.18027850025E+02  0.22297247012E+02  0.51100000000E-03 0. -1.
        -11    1    3    3    0    0 -0.71997948167E+01 -0.62957408176E+01 -0.61691053607E+01  0.11381180038E+02  0.51100000000E-03 0.  1.
        -12    1    3    3    0    0  0.30891471191E+01 -0.50104571751E+01 -0.12822328594E+02  0.14108849053E+02  0.00000000000E+00 0.  1.
</event>
<event>
 7    1  0.2886681E-010  0.4778728E+02  0.7816164E-02  0.1312668E+00
        -11   -1    0    0    0    0  0.00000000000E+00  0.00000000000E+00  0.45593999997E+02  0.45594000000E+02  0.51100000000E-03 0. -1.
         11   -1    0    0    0    0 -0.00000000000E+00 -0.00000000000E+00 -0.45593999997E+02  0.45594000000E+02  0.51100000000E-03 0.  1.
    9900012    2    1    2    0    0 -0.30822327832E+02 -0.28842200523E+02 -0.10086337103E+02  0.47787278576E+02  0.20000034340E+02 0.  0.
        -12    1    1    2    0    0  0.30822327832E+02  0.28842200523E+02  0.10086337103E+02  0.43400721424E+02  0.00000000000E+00 0.  1.
         11    1    3    3    0    0  0.77718931403E+00 -0.23295166093E+01  0.34041469237E-01  0.24559784091E+01  0.51100000000E-03 0. -1.
        -11    1    3    3    0    0 -0.99714095177E+01 -0.14843253200E+02 -0.10531531515E+02  0.20752453581E+02  0.51100000000E-03 0.  1.
        -12    1    3    3    0    0 -0.21628107628E+02 -0.11669430714E+02  0.41115294289E+00  0.24578846586E+02  0.00000000000E+00 0.  1.
</event>
<event>
 7    1  0.2886681E-010  0.4778727E+02  0.7816164E-02  0.1312668E+00
        -11   -1    0    0    0    0  0.00000000000E+00  0.00000000000E+00  0.45593999997E+02  0.45594000000E+02  0.51100000000E-03 0. -1.
         11   -1    0    0    0    0 -0.00000000000E+00 -0.00000000000E+00 -0.45593999997E+02  0.45594000000E+02  0.51100000000E-03 0.  1.
    9900012    2    1    2    0    0 -0.33591554584E+02  0.61220621536E+01 -0.26790873665E+02  0.47787273093E+02  0.20000009339E+02 0.  0.
        -12    1    1    2    0    0  0.33591554584E+02 -0.61220621536E+01  0.26790873665E+02  0.43400726907E+02  0.00000000000E+00 0.  1.
         11    1    3    3    0    0  0.16064375573E+01 -0.81264079367E+00  0.58269933041E+00  0.18922382132E+01  0.51100000000E-03 0. -1.
        -11    1    3    3    0    0 -0.34133898228E+02  0.49868091852E+01 -0.26539225961E+02  0.43523807152E+02  0.51100000000E-03 0.  1.
        -12    1    3    3    0    0 -0.10640939127E+01  0.19478937621E+01 -0.83434703451E+00  0.23712277279E+01  0.00000000000E+00 0.  1.
</event>
<event>
 7    1  0.2886681E-010  0.4778727E+02  0.7816164E-02  0.1312668E+00
        -11   -1    0    0    0    0  0.00000000000E+00  0.00000000000E+00  0.45593999997E+02  0.45594000000E+02  0.51100000000E-03 0.  1.
         11   -1    0    0    0    0 -0.00000000000E+00 -0.00000000000E+00 -0.45593999997E+02  0.45594000000E+02  0.51100000000E-03 0. -1.
    9900012    2    1    2    0    0  0.32052374992E+02  0.24829591985E+02 -0.15484181385E+02  0.47787271275E+02  0.20000001049E+02 0.  0.
        -12    1    1    2    0    0 -0.32052374992E+02 -0.24829591985E+02  0.15484181385E+02  0.43400728725E+02  0.00000000000E+00 0.  1.
         11    1    3    3    0    0  0.18878424594E+02  0.20222273172E+02 -0.51876992048E+01  0.28146890959E+02  0.51100000000E-03 0. -1.
        -11    1    3    3    0    0  0.12086849524E+01  0.14885266516E+01  0.15882643562E+01  0.24898222493E+01  0.51100000000E-03 0.  1.
         12    1    3    3    0    0  0.11965265446E+02  0.31187921610E+01 -0.11884746537E+02  0.17150558066E+02  0.00000000000E+00 0. -1.
</event>
<event>
 7    1  0.2886681E-010  0.4778727E+02  0.7816164E-02  0.1312668E+00
        -11   -1    0    0    0    0  0.00000000000E+00  0.00000000000E+00  0.45593999997E+02  0.45594000000E+02  0.51100000000E-03 0.  1.
         11   -1    0    0    0    0 -0.00000000000E+00 -0.00000000000E+00 -0.45593999997E+02  0.45594000000E+02  0.51100000000E-03 0. -1.
    9900012    2    1    2    0    0 -0.41152449676E+02 -0.13421652495E+02  0.31556668898E+01  0.47787273007E+02  0.20000008948E+02 0.  0.
        -12    1    1    2    0    0  0.41152449676E+02  0.13421652495E+02 -0.31556668898E+01  0.43400726993E+02  0.00000000000E+00 0.  1.
         11    1    3    3    0    0 -0.18468632036E+02  0.71575044461E+00 -0.44255253245E+01  0.19004945215E+02  0.51100000000E-03 0. -1.
        -11    1    3    3    0    0 -0.63334549373E+00  0.69900850581E+00  0.10559575864E+01  0.14159046900E+01  0.51100000000E-03 0.  1.
         12    1    3    3    0    0 -0.22050472146E+02 -0.14836411446E+02  0.65252346278E+01  0.27366423102E+02  0.00000000000E+00 0. -1.
</event>
<event>
 7    1  0.2886681E-010  0.4778725E+02  0.7816164E-02  0.1312668E+00
        -11   -1    0    0    0    0  0.00000000000E+00  0.00000000000E+00  0.45593999997E+02  0.45594000000E+02  0.51100000000E-03 0. -1.
         11   -1    0    0    0    0 -0.00000000000E+00 -0.00000000000E+00 -0.45593999997E+02  0.45594000000E+02  0.51100000000E-03 0.  1.
    9900012    2    1    2    0    0  0.16761440113E+01 -0.22993939513E+02  0.36770832823E+02  0.47787252777E+02  0.19999916710E+02 0.  0.
        -12    1    1    2    0    0 -0.16761440113E+01  0.22993939513E+02 -0.36770832823E+02  0.43400747223E+02  0.00000000000E+00 0.  1.
         11    1    3    3    0    0  0.72728935420E+01 -0.20635506149E+02  0.21070974824E+02  0.30376060884E+02  0.51100000000E-03 0. -1.
        -11    1    3    3    0    0 -0.57020812026E+01 -0.32439467582E+01  0.14511348762E+02  0.15925330884E+02  0.51100000000E-03 0.  1.
        -12    1    3    3    0    0  0.10533167195E+00  0.88551339455E+00  0.11885092368E+01  0.14858610093E+01  0.00000000000E+00 0.  1.
</event>
<event>
 7    1  0.2886681E-010  0.4778726E+02  0.7816164E-02  0.1312668E+00
        -11   -1    0    0    0    0  0.00000000000E+00  0.00000000000E+00  0.45593999997E+02  0.45594000000E+02  0.51100000000E-03 0.  1.
         11   -1    0    0    0    0 -0.00000000000E+00 -0.00000000000E+00 -0.45593999997E+02  0.45594000000E+02  0.51100000000E-03 0. -1.
    9900012    2    1    2    0    0 -0.16188696572E+02  0.28826872995E+02 -0.28116925784E+02  0.47787262461E+02  0.19999960863E+02 0.  0.
        -12    1    1    2    0    0  0.16188696572E+02 -0.28826872995E+02  0.28116925784E+02  0.43400737539E+02  0.00000000000E+00 0.  1.
         11    1    3    3    0    0 -0.50458785274E+01  0.15415532784E+02 -0.21050654206E+02  0.26574980412E+02  0.51100000000E-03 0. -1.
        -11    1    3    3    0    0 -0.22400389614E+01 -0.10222204690E+01  0.70046588185E+00  0.25599535052E+01  0.51100000000E-03 0.  1.
        -12    1    3    3    0    0 -0.89027790835E+01  0.14433560681E+02 -0.77667374595E+01  0.18652328543E+02  0.00000000000E+00 0.  1.
</event>
<event>
 7    1  0.2886681E-010  0.4778727E+02  0.7816164E-02  0.1312668E+00
        -11   -1    0    0    0    0  0.00000000000E+00  0.00000000000E+00  0.45593999997E+02  0.45594000000E+02  0.51100000000E-03 0. -1.
         11   -1    0    0    0    0 -0.00000000000E+00 -0.00000000000E+00 -0.45593999997E+02  0.45594000000E+02  0.51100000000E-03 0.  1.
    9900012    2    1    2    0    0 -0.43078103538E+02  0.51779302605E+01  0.10437856963E+01  0.47787268960E+02  0.19999990497E+02 0.  0.
        -12    1    1    2    0    0  0.43078103538E+02 -0.51779302605E+01 -0.10437856963E+01  0.43400731040E+02  0.00000000000E+00 0.  1.
         11    1    3    3    0    0 -0.15743093500E+02  0.36540920787E+00  0.38041860090E+01  0.16200319388E+02  0.51100000000E-03 0. -1.
        -11    1    3    3    0    0 -0.13319207593E+02  0.17284697098E+01 -0.87568514336E+01  0.16033444600E+02  0.51100000000E-03 0.  1.
        -12    1    3    3    0    0 -0.14015802445E+02  0.30840513428E+01  0.59964511209E+01  0.15553504972E+02  0.00000000000E+00 0.  1.
</event>
<event>
 7    1  0.2886681E-010  0.4778727E+02  0.7816164E-02  0.1312668E+00
        -11   -1    0    0    0    0  0.00000000000E+00  0.00000000000E+00  0.45593999997E+02  0.45594000000E+02  0.51100000000E-03 0. -1.
         11   -1    0    0    0    0 -0.00000000000E+00 -0.00000000000E+00 -0.45593999997E+02  0.45594000000E+02  0.51100000000E-03 0.  1.
    9900012    2    1    2    0    0  0.28788362324E+02 -0.29572140083E+02  0.13429153079E+02  0.47787269283E+02  0.19999991967E+02 0.  0.
        -12    1    1    2    0    0 -0.28788362324E+02  0.29572140083E+02 -0.13429153079E+02  0.43400730717E+02  0.00000000000E+00 0.  1.
         11    1    3    3    0    0  0.24722886154E+02 -0.14998567560E+02  0.53415407049E+01  0.29405954941E+02  0.51100000000E-03 0. -1.
        -11    1    3    3    0    0  0.94150447754E-02 -0.23879438611E+01  0.44218616572E+01  0.50254577208E+01  0.51100000000E-03 0.  1.
         12    1    3    3    0    0  0.40560611246E+01 -0.12185628662E+02  0.36657507166E+01  0.13355856620E+02  0.00000000000E+00 0. -1.
</event>
<event>
 7    1  0.2886681E-010  0.4778727E+02  0.7816164E-02  0.1312668E+00
        -11   -1    0    0    0    0  0.00000000000E+00  0.00000000000E+00  0.45593999997E+02  0.45594000000E+02  0.51100000000E-03 0. -1.
         11   -1    0    0    0    0 -0.00000000000E+00 -0.00000000000E+00 -0.45593999997E+02  0.45594000000E+02  0.51100000000E-03 0.  1.
    9900012    2    1    2    0    0  0.22141174074E+02 -0.12203246420E+02  0.35277077745E+02  0.47787273891E+02  0.20000012979E+02 0.  0.
        -12    1    1    2    0    0 -0.22141174074E+02  0.12203246420E+02 -0.35277077745E+02  0.43400726109E+02  0.00000000000E+00 0.  1.
         11    1    3    3    0    0  0.23012446132E+02 -0.58255813762E+01  0.29558839466E+02  0.37910883216E+02  0.51100000000E-03 0. -1.
        -11    1    3    3    0    0 -0.27095445342E+01 -0.25347410993E+01  0.19632512819E+01  0.41977255604E+01  0.51100000000E-03 0.  1.
         12    1    3    3    0    0  0.18382724760E+01 -0.38429239443E+01  0.37549869968E+01  0.56786651146E+01  0.00000000000E+00 0. -1.
</event>
<event>
 7    1  0.2886681E-010  0.4778724E+02  0.7816164E-02  0.1312668E+00
        -11   -1    0    0    0    0  0.00000000000E+00  0.00000000000E+00  0.45593999997E+02  0.45594000000E+02  0.51100000000E-03 0.  1.
         11   -1    0    0    0    0 -0.00000000000E+00 -0.00000000000E+00 -0.45593999997E+02  0.45594000000E+02  0.51100000000E-03 0. -1.
    9900012    2    1    2    0    0 -0.39929999906E+01 -0.27495149960E+02 -0.33342147164E+02  0.47787238512E+02  0.19999851669E+02 0.  0.
        -12    1    1    2    0    0  0.39929999906E+01  0.27495149960E+02  0.33342147164E+02  0.43400761488E+02  0.00000000000E+00 0.  1.
         11    1    3    3    0    0  0.50277962545E+01 -0.14037943751E+02 -0.97311619542E+01  0.17805564107E+02  0.51100000000E-03 0. -1.
        -11    1    3    3    0    0 -0.93259217037E+01 -0.13469339990E+02 -0.17910708490E+02  0.24273224225E+02  0.51100000000E-03 0.  1.
         12    1    3    3    0    0  0.30512545864E+00  0.12133780181E-01 -0.57002767197E+01  0.57084501798E+01  0.00000000000E+00 0. -1.
</event>
<event>
 7    1  0.2886681E-010  0.4778727E+02  0.7816164E-02  0.1312668E+00
        -11   -1    0    0    0    0  0.00000000000E+00  0.00000000000E+00  0.45593999997E+02  0.45594000000E+02  0.51100000000E-03 0.  1.
         11   -1    0    0    0    0 -0.00000000000E+00 -0.00000000000E+00 -0.45593999997E+02  0.45594000000E+02  0.51100000000E-03 0. -1.
    9900012    2    1    2    0    0  0.18856954388E+02 -0.34630774801E+02  0.18131403151E+02  0.47787273366E+02  0.20000010585E+02 0.  0.
        -12    1    1    2    0    0 -0.18856954388E+02  0.34630774801E+02 -0.18131403151E+02  0.43400726634E+02  0.00000000000E+00 0.  1.
         11    1    3    3    0    0  0.18261638608E+02 -0.22244921958E+02  0.15390655822E+02  0.32637344936E+02  0.51100000000E-03 0. -1.
        -11    1    3    3    0    0 -0.89140519259E+00 -0.10958822308E+02  0.50116825385E+01  0.12083350186E+02  0.51100000000E-03 0.  1.
        -12    1    3    3    0    0  0.14867209727E+01 -0.14270305360E+01 -0.22709352099E+01  0.30665782444E+01  0.00000000000E+00 0.  1.
</event>
<event>
 7    1  0.2886681E-010  0.4778727E+02  0.7816164E-02  0.1312668E+00
        -11   -1    0    0    0    0  0.00000000000E+00  0.00000000000E+00  0.45593999997E+02  0.45594000000E+02  0.51100000000E-03 0.  1.
         11   -1    0    0    0    0 -0.00000000000E+00 -0.00000000000E+00 -0.45593999997E+02  0.45594000000E+02  0.51100000000E-03 0. -1.
    9900012    2    1    2    0    0 -0.14953439978E+01  0.38952475912E+02 -0.19081187432E+02  0.47787272505E+02  0.20000006658E+02 0.  0.
        -12    1    1    2    0    0  0.14953439978E+01 -0.38952475912E+02  0.19081187432E+02  0.43400727495E+02  0.00000000000E+00 0.  1.
         11    1    3    3    0    0  0.30713672494E+01  0.53631855910E+01 -0.59641336301E+01  0.85888268514E+01  0.51100000000E-03 0. -1.
        -11    1    3    3    0    0  0.40290897326E+01  0.16310576950E+02 -0.19810635569E+01  0.16917242612E+02  0.51100000000E-03 0.  1.
        -12    1    3    3    0    0 -0.85958009798E+01  0.17278713370E+02 -0.11135990245E+02  0.22281203041E+02  0.00000000000E+00 0.  1.
</event>
<event>
 7    1  0.2886681E-010  0.4778727E+02  0.7816164E-02  0.1312668E+00
        -11   -1    0    0    0    0  0.00000000000E+00  0.00000000000E+00  0.45593999997E+02  0.45594000000E+02  0.51100000000E-03 0.  1.
         11   -1    0    0    0    0 -0.00000000000E+00 -0.00000000000E+00 -0.45593999997E+02  0.45594000000E+02  0.51100000000E-03 0. -1.
    9900012    2    1    2    0    0 -0.13951801976E+02  0.33773271534E+02 -0.23416594148E+02  0.47787268094E+02  0.19999986547E+02 0.  0.
        -12    1    1    2    0    0  0.13951801976E+02 -0.33773271534E+02  0.23416594148E+02  0.43400731906E+02  0.00000000000E+00 0.  1.
         11    1    3    3    0    0 -0.40180963046E+01  0.12261328620E+02 -0.14035066825E+02  0.19064846669E+02  0.51100000000E-03 0. -1.
        -11    1    3    3    0    0 -0.10889400291E+02  0.10679265340E+02 -0.15695858327E+01  0.15332623613E+02  0.51100000000E-03 0.  1.
        -12    1    3    3    0    0  0.95569461928E+00  0.10832677573E+02 -0.78119414901E+01  0.13389797812E+02  0.00000000000E+00 0.  1.
</event>
<event>
 7    1  0.2886681E-010  0.4778727E+02  0.7816164E-02  0.1312668E+00
        -11   -1    0    0    0    0  0.00000000000E+00  0.00000000000E+00  0.45593999997E+02  0.45594000000E+02  0.51100000000E-03 0. -1.
         11   -1    0    0    0    0 -0.00000000000E+00 -0.00000000000E+00 -0.45593999997E+02  0.45594000000E+02  0.51100000000E-03 0.  1.
    9900012    2    1    2    0    0  0.28880630931E+02  0.17933835954E+02  0.26979804832E+02  0.47787272082E+02  0.20000004732E+02 0.  0.
        -12    1    1    2    0    0 -0.28880630931E+02 -0.17933835954E+02 -0.26979804832E+02  0.43400727918E+02  0.00000000000E+00 0.  1.
         11    1    3    3    0    0  0.21334064760E+02  0.12352617449E+02  0.77051279277E+01  0.25828249527E+02  0.51100000000E-03 0. -1.
        -11    1    3    3    0    0  0.80977006575E+01  0.43968453838E+01  0.16881922482E+02  0.19232896616E+02  0.51100000000E-03 0.  1.
        -12    1    3    3    0    0 -0.55113448606E+00  0.11843731215E+01  0.23927544221E+01  0.27261259394E+01  0.00000000000E+00 0.  1.
</event>
<event>
 7    1  0.2886681E-010  0.4778727E+02  0.7816164E-02  0.1312668E+00
        -11   -1    0    0    0    0  0.00000000000E+00  0.00000000000E+00  0.45593999997E+02  0.45594000000E+02  0.51100000000E-03 0.  1.
         11   -1    0    0    0    0 -0.00000000000E+00 -0.00000000000E+00 -0.45593999997E+02  0.45594000000E+02  0.51100000000E-03 0. -1.
    9900012    2    1    2    0    0 -0.37558465509E+01  0.41690881720E+02  0.11462424039E+02  0.47787272279E+02  0.20000005629E+02 0.  0.
        -12    1    1    2    0    0  0.37558465509E+01 -0.41690881720E+02 -0.11462424039E+02  0.43400727721E+02  0.00000000000E+00 0.  1.
         11    1    3    3    0    0 -0.11158270653E+02  0.25847729051E+02  0.37688801614E+01  0.28404516525E+02  0.51100000000E-03 0. -1.
        -11    1    3    3    0    0  0.35071356517E+01  0.39845118877E+01  0.22430258717E+01  0.57625949698E+01  0.51100000000E-03 0.  1.
         12    1    3    3    0    0  0.38952884500E+01  0.11858640780E+02  0.54505180057E+01  0.13620160785E+02  0.00000000000E+00 0. -1.
</event>
<event>
 7    1  0.2886681E-010  0.4778727E+02  0.7816164E-02  0.1312668E+00
        -11   -1    0    0    0    0  0.00000000000E+00  0.00000000000E+00  0.45593999997E+02  0.45594000000E+02  0.51100000000E-03 0.  1.
         11   -1    0    0    0    0 -0.00000000000E+00 -0.00000000000E+00 -0.45593999997E+02  0.45594000000E+02  0.51100000000E-03 0. -1.
    9900012    2    1    2    0    0  0.28734052636E+02 -0.70783867195E+01 -0.31747034897E+02  0.47787267700E+02  0.19999984750E+02 0.  0.
        -12    1    1    2    0    0 -0.28734052636E+02  0.70783867195E+01  0.31747034897E+02  0.43400732300E+02  0.00000000000E+00 0.  1.
         11    1    3    3    0    0  0.14723761813E+02  0.38807286837E+01 -0.64067226315E+01  0.16519543340E+02  0.51100000000E-03 0. -1.
        -11    1    3    3    0    0  0.43815448215E+01 -0.60093032505E+01 -0.91519570035E+01  0.11792708672E+02  0.51100000000E-03 0.  1.
         12    1    3    3    0    0  0.96287460018E+01 -0.49498121527E+01 -0.16188355262E+02  0.19475015687E+02  0.00000000000E+00 0. -1.
</event>
<event>
 7    1  0.2886681E-010  0.4778726E+02  0.7816164E-02  0.1312668E+00
        -11   -1    0    0    0    0  0.00000000000E+00  0.00000000000E+00  0.45593999997E+02  0.45594000000E+02  0.51100000000E-03 0.  1.
         11   -1    0    0    0    0 -0.00000000000E+00 -0.00000000000E+00 -0.45593999997E+02  0.45594000000E+02  0.51100000000E-03 0. -1.
    9900012    2    1    2    0    0 -0.69049135672E+00  0.21133575861E+02 -0.37901447022E+02  0.47787256996E+02  0.19999935946E+02 0.  0.
        -12    1    1    2    0    0  0.69049135672E+00 -0.21133575861E+02  0.37901447022E+02  0.43400743004E+02  0.00000000000E+00 0.  1.
         11    1    3    3    0    0  0.36727220517E+01  0.55621258235E+00 -0.92249019311E+01  0.99447008806E+01  0.51100000000E-03 0.  1.
        -11    1    3    3    0    0  0.10023977786E+01  0.40654293102E+01 -0.15475559441E+02  0.16032013506E+02  0.51100000000E-03 0. -1.
        -12    1    3    3    0    0 -0.53656111871E+01  0.16511933968E+02 -0.13200985650E+02  0.21810542609E+02  0.00000000000E+00 0.  1.
</event>
<event>
 7    1  0.2886681E-010  0.4778728E+02  0.7816164E-02  0.1312668E+00
        -11   -1    0    0    0    0  0.00000000000E+00  0.00000000000E+00  0.45593999997E+02  0.45594000000E+02  0.51100000000E-03 0.  1.
         11   -1    0    0    0    0 -0.00000000000E+00 -0.00000000000E+00 -0.45593999997E+02  0.45594000000E+02  0.51100000000E-03 0. -1.
    9900012    2    1    2    0    0 -0.27755602069E+02 -0.19202017822E+01 -0.33310091480E+02  0.47787276326E+02  0.20000024079E+02 0.  0.
        -12    1    1    2    0    0  0.27755602069E+02  0.19202017822E+01  0.33310091480E+02  0.43400723674E+02  0.00000000000E+00 0.  1.
         11    1    3    3    0    0 -0.11404664516E+02  0.70493867550E+01 -0.97933587944E+01  0.16603316027E+02  0.51100000000E-03 0. -1.
        -11    1    3    3    0    0 -0.22909925451E+01  0.15671306730E+01 -0.45491630004E+01  0.53291115256E+01  0.51100000000E-03 0.  1.
         12    1    3    3    0    0 -0.14059945007E+02 -0.10536719210E+02 -0.18967569685E+02  0.25854848773E+02  0.00000000000E+00 0. -1.
</event>
<event>
 7    1  0.2886681E-010  0.4778727E+02  0.7816164E-02  0.1312668E+00
        -11   -1    0    0    0    0  0.00000000000E+00  0.00000000000E+00  0.45593999997E+02  0.45594000000E+02  0.51100000000E-03 0.  1.
         11   -1    0    0    0    0 -0.00000000000E+00 -0.00000000000E+00 -0.45593999997E+02  0.45594000000E+02  0.51100000000E-03 0. -1.
    9900012    2    1    2    0    0 -0.31438972931E+02  0.10947769537E+01 -0.29900096529E+02  0.47787270421E+02  0.19999997158E+02 0.  0.
        -12    1    1    2    0    0  0.31438972931E+02 -0.10947769537E+01  0.29900096529E+02  0.43400729579E+02  0.00000000000E+00 0.  1.
         11    1    3    3    0    0 -0.21485810002E+02 -0.31407023784E+01 -0.13817636642E+02  0.25737737381E+02  0.51100000000E-03 0. -1.
        -11    1    3    3    0    0  0.91222805971E+00  0.38844817382E+01 -0.27462754227E+01  0.48439020805E+01  0.51100000000E-03 0.  1.
        -12    1    3    3    0    0 -0.10865390989E+02  0.35099759398E+00 -0.13336184465E+02  0.17205630960E+02  0.00000000000E+00 0.  1.
</event>
<event>
 7    1  0.2886681E-010  0.4778727E+02  0.7816164E-02  0.1312668E+00
        -11   -1    0    0    0    0  0.00000000000E+00  0.00000000000E+00  0.45593999997E+02  0.45594000000E+02  0.51100000000E-03 0.  1.
         11   -1    0    0    0    0 -0.00000000000E+00 -0.00000000000E+00 -0.45593999997E+02  0.45594000000E+02  0.51100000000E-03 0. -1.
    9900012    2    1    2    0    0  0.49352479923E+00 -0.24901768670E+02 -0.35542675192E+02  0.47787269483E+02  0.19999992879E+02 0.  0.
        -12    1    1    2    0    0 -0.49352479923E+00  0.24901768670E+02  0.35542675192E+02  0.43400730517E+02  0.00000000000E+00 0.  1.
         11    1    3    3    0    0 -0.95422751485E+01 -0.14559714548E+02 -0.19353462473E+02  0.26030689823E+02  0.51100000000E-03 0. -1.
        -11    1    3    3    0    0  0.37712889043E+01 -0.51810129412E+01 -0.75405732763E+01  0.98957445749E+01  0.51100000000E-03 0.  1.
         12    1    3    3    0    0  0.62645110434E+01 -0.51610411810E+01 -0.86486394431E+01  0.11860835084E+02  0.00000000000E+00 0. -1.
</event>
<event>
 7    1  0.2886681E-010  0.4778727E+02  0.7816164E-02  0.1312668E+00
        -11   -1    0    0    0    0  0.00000000000E+00  0.00000000000E+00  0.45593999997E+02  0.45594000000E+02  0.51100000000E-03 0.  1.
         11   -1    0    0    0    0 -0.00000000000E+00 -0.00000000000E+00 -0.45593999997E+02  0.45594000000E+02  0.51100000000E-03 0. -1.
    9900012    2    1    2    0    0  0.21448539829E+02 -0.28006676913E+02 -0.25282587455E+02  0.47787273728E+02  0.20000012236E+02 0.  0.
        -12    1    1    2    0    0 -0.21448539829E+02  0.28006676913E+02  0.25282587455E+02  0.43400726272E+02  0.00000000000E+00 0.  1.
         11    1    3    3    0    0  0.11513317011E+02 -0.16365288601E+02 -0.20505617687E+02  0.28650645658E+02  0.51100000000E-03 0. -1.
        -11    1    3    3    0    0  0.10548150977E+02 -0.57205341865E+01 -0.53864412102E+01  0.13153012947E+02  0.51100000000E-03 0.  1.
        -12    1    3    3    0    0 -0.61292815935E+00 -0.59208541251E+01  0.60947144259E+00  0.59836151229E+01  0.00000000000E+00 0.  1.
</event>
<event>
 7    1  0.2886681E-010  0.4778727E+02  0.7816164E-02  0.1312668E+00
        -11   -1    0    0    0    0  0.00000000000E+00  0.00000000000E+00  0.45593999997E+02  0.45594000000E+02  0.51100000000E-03 0. -1.
         11   -1    0    0    0    0 -0.00000000000E+00 -0.00000000000E+00 -0.45593999997E+02  0.45594000000E+02  0.51100000000E-03 0.  1.
    9900012    2    1    2    0    0 -0.18794770842E+02  0.36297471646E+02  0.14590182546E+02  0.47787270909E+02  0.19999999383E+02 0.  0.
        -12    1    1    2    0    0  0.18794770842E+02 -0.36297471646E+02 -0.14590182546E+02  0.43400729091E+02  0.00000000000E+00 0.  1.
         11    1    3    3    0    0 -0.10707694817E+02  0.22863090968E+02  0.16272442407E+02  0.30036112249E+02  0.51100000000E-03 0. -1.
        -11    1    3    3    0    0 -0.77305810029E+01  0.70651973662E+01 -0.36255526778E+01  0.11082577721E+02  0.51100000000E-03 0.  1.
         12    1    3    3    0    0 -0.35649502223E+00  0.63691833121E+01  0.19432928170E+01  0.66685809388E+01  0.00000000000E+00 0. -1.
</event>
<event>
 7    1  0.2886681E-010  0.4778725E+02  0.7816164E-02  0.1312668E+00
        -11   -1    0    0    0    0  0.00000000000E+00  0.00000000000E+00  0.45593999997E+02  0.45594000000E+02  0.51100000000E-03 0.  1.
         11   -1    0    0    0    0 -0.00000000000E+00 -0.00000000000E+00 -0.45593999997E+02  0.45594000000E+02  0.51100000000E-03 0. -1.
    9900012    2    1    2    0    0  0.58955507629E+01  0.35814703945E+02  0.23794417929E+02  0.47787252748E+02  0.19999916579E+02 0.  0.
        -12    1    1    2    0    0 -0.58955507629E+01 -0.35814703945E+02 -0.23794417929E+02  0.43400747252E+02  0.00000000000E+00 0.  1.
         11    1    3    3    0    0  0.41693298285E+00  0.16712375068E+02  0.33633506043E+01  0.17052549401E+02  0.51100000000E-03 0. -1.
        -11    1    3    3    0    0  0.86949305482E+01  0.98251111895E+01  0.12344661563E+02  0.18014585660E+02  0.51100000000E-03 0.  1.
         12    1    3    3    0    0 -0.32163127681E+01  0.92772176874E+01  0.80864057618E+01  0.12720117688E+02  0.00000000000E+00 0. -1.
</event>
<event>
 7    1  0.2886681E-010  0.4778727E+02  0.7816164E-02  0.1312668E+00
        -11   -1    0    0    0    0  0.00000000000E+00  0.00000000000E+00  0.45593999997E+02  0.45594000000E+02  0.51100000000E-03 0.  1.
         11   -1    0    0    0    0 -0.00000000000E+00 -0.00000000000E+00 -0.45593999997E+02  0.45594000000E+02  0.51100000000E-03 0. -1.
    9900012    2    1    2    0    0 -0.17025136133E+02  0.22473304099E+02 -0.32995736155E+02  0.47787271183E+02  0.20000000630E+02 0.  0.
        -12    1    1    2    0    0  0.17025136133E+02 -0.22473304099E+02  0.32995736155E+02  0.43400728817E+02  0.00000000000E+00 0.  1.
         11    1    3    3    0    0 -0.12441784679E+02  0.19460149177E+02 -0.31939485900E+02  0.39416064896E+02  0.51100000000E-03 0. -1.
        -11    1    3    3    0    0 -0.60162973623E+01  0.32204183656E+01 -0.11504229380E+01  0.69202891268E+01  0.51100000000E-03 0.  1.
         12    1    3    3    0    0  0.14329459084E+01 -0.20726344367E+00  0.94172683881E-01  0.14509171603E+01  0.00000000000E+00 0. -1.
</event>
<event>
 7    1  0.2886681E-010  0.4778727E+02  0.7816164E-02  0.1312668E+00
        -11   -1    0    0    0    0  0.00000000000E+00  0.00000000000E+00  0.45593999997E+02  0.45594000000E+02  0.51100000000E-03 0.  1.
         11   -1    0    0    0    0 -0.00000000000E+00 -0.00000000000E+00 -0.45593999997E+02  0.45594000000E+02  0.51100000000E-03 0. -1.
    9900012    2    1    2    0    0  0.86529880627E+01  0.19743010881E+02 -0.37669123176E+02  0.47787268187E+02  0.19999986971E+02 0.  0.
        -12    1    1    2    0    0 -0.86529880627E+01 -0.19743010881E+02  0.37669123176E+02  0.43400731813E+02  0.00000000000E+00 0.  1.
         11    1    3    3    0    0  0.10718076867E+02  0.10018230234E+02 -0.27202843490E+02  0.30906905425E+02  0.51100000000E-03 0. -1.
        -11    1    3    3    0    0 -0.16622863931E+01  0.89250875246E+01 -0.12034331472E+02  0.15074664760E+02  0.51100000000E-03 0.  1.
         12    1    3    3    0    0 -0.40280241127E+00  0.79969312270E+00  0.15680517857E+01  0.18056980023E+01  0.00000000000E+00 0. -1.
</event>
<event>
 7    1  0.2886681E-010  0.4778726E+02  0.7816164E-02  0.1312668E+00
        -11   -1    0    0    0    0  0.00000000000E+00  0.00000000000E+00  0.45593999997E+02  0.45594000000E+02  0.51100000000E-03 0. -1.
         11   -1    0    0    0    0 -0.00000000000E+00 -0.00000000000E+00 -0.45593999997E+02  0.45594000000E+02  0.51100000000E-03 0.  1.
    9900012    2    1    2    0    0 -0.41422067308E+02 -0.12699968781E+02  0.25588140789E+01  0.47787258110E+02  0.19999941028E+02 0.  0.
        -12    1    1    2    0    0  0.41422067308E+02  0.12699968781E+02 -0.25588140789E+01  0.43400741890E+02  0.00000000000E+00 0.  1.
         11    1    3    3    0    0 -0.20999914760E+02 -0.28412912002E+00  0.63783196997E+01  0.21949034414E+02  0.51100000000E-03 0. -1.
        -11    1    3    3    0    0 -0.21307430428E+02 -0.12292175794E+02 -0.40119135682E+01  0.24923876664E+02  0.51100000000E-03 0.  1.
        -12    1    3    3    0    0  0.88527788024E+00 -0.12366386697E+00  0.19240794738E+00  0.91434703229E+00  0.00000000000E+00 0.  1.
</event>
<event>
 7    1  0.2886681E-010  0.4778727E+02  0.7816164E-02  0.1312668E+00
        -11   -1    0    0    0    0  0.00000000000E+00  0.00000000000E+00  0.45593999997E+02  0.45594000000E+02  0.51100000000E-03 0.  1.
         11   -1    0    0    0    0 -0.00000000000E+00 -0.00000000000E+00 -0.45593999997E+02  0.45594000000E+02  0.51100000000E-03 0. -1.
    9900012    2    1    2    0    0  0.89673094271E+01 -0.19214226842E+02 -0.37868512920E+02  0.47787269334E+02  0.19999992203E+02 0.  0.
        -12    1    1    2    0    0 -0.89673094271E+01  0.19214226842E+02  0.37868512920E+02  0.43400730666E+02  0.00000000000E+00 0.  1.
         11    1    3    3    0    0  0.10474415573E+02 -0.13735218282E+02 -0.23427131447E+02  0.29106701822E+02  0.51100000000E-03 0. -1.
        -11    1    3    3    0    0 -0.10443928036E+01  0.30314954645E+01 -0.28284961050E+01  0.42756416544E+01  0.51100000000E-03 0.  1.
         12    1    3    3    0    0 -0.46271334268E+00 -0.85105040247E+01 -0.11612885369E+02  0.14404925858E+02  0.00000000000E+00 0. -1.
</event>
<event>
 7    1  0.2886681E-010  0.4778727E+02  0.7816164E-02  0.1312668E+00
        -11   -1    0    0    0    0  0.00000000000E+00  0.00000000000E+00  0.45593999997E+02  0.45594000000E+02  0.51100000000E-03 0. -1.
         11   -1    0    0    0    0 -0.00000000000E+00 -0.00000000000E+00 -0.45593999997E+02  0.45594000000E+02  0.51100000000E-03 0.  1.
    9900012    2    1    2    0    0 -0.34145580747E+01  0.35329309329E+02  0.24976071088E+02  0.47787269228E+02  0.19999991719E+02 0.  0.
        -12    1    1    2    0    0  0.34145580747E+01 -0.35329309329E+02 -0.24976071088E+02  0.43400730772E+02  0.00000000000E+00 0.  1.
         11    1    3    3    0    0 -0.74190579447E+01  0.11714911378E+02  0.16736265299E+02  0.21734400056E+02  0.51100000000E-03 0. -1.
        -11    1    3    3    0    0  0.24485751858E+01  0.46928468234E+01 -0.15219124957E+00  0.52954220026E+01  0.51100000000E-03 0.  1.
         12    1    3    3    0    0  0.15559246842E+01  0.18921551128E+02  0.83919970391E+01  0.20757447170E+02  0.00000000000E+00 0. -1.
</event>
<event>
 7    1  0.2886681E-010  0.4778727E+02  0.7816164E-02  0.1312668E+00
        -11   -1    0    0    0    0  0.00000000000E+00  0.00000000000E+00  0.45593999997E+02  0.45594000000E+02  0.51100000000E-03 0.  1.
         11   -1    0    0    0    0 -0.00000000000E+00 -0.00000000000E+00 -0.45593999997E+02  0.45594000000E+02  0.51100000000E-03 0. -1.
    9900012    2    1    2    0    0 -0.33112951108E+02  0.27902987158E+02  0.29290329685E+01  0.47787268928E+02  0.19999990351E+02 0.  0.
        -12    1    1    2    0    0  0.33112951108E+02 -0.27902987158E+02 -0.29290329685E+01  0.43400731072E+02  0.00000000000E+00 0.  1.
         11    1    3    3    0    0 -0.13567735425E+02  0.19039115874E+02  0.18020832605E+01  0.23448217036E+02  0.51100000000E-03 0. -1.
        -11    1    3    3    0    0 -0.10021176655E+02  0.10630600332E+02  0.11238592444E+01  0.14652532369E+02  0.51100000000E-03 0.  1.
         12    1    3    3    0    0 -0.95240390276E+01 -0.17667290470E+01  0.30904636216E-02  0.96865195234E+01  0.00000000000E+00 0. -1.
</event>
<event>
 7    1  0.2886681E-010  0.4778726E+02  0.7816164E-02  0.1312668E+00
        -11   -1    0    0    0    0  0.00000000000E+00  0.00000000000E+00  0.45593999997E+02  0.45594000000E+02  0.51100000000E-03 0. -1.
         11   -1    0    0    0    0 -0.00000000000E+00 -0.00000000000E+00 -0.45593999997E+02  0.45594000000E+02  0.51100000000E-03 0.  1.
    9900012    2    1    2    0    0  0.38541026606E+02 -0.18644539306E+02  0.71129733895E+01  0.47787263045E+02  0.19999963527E+02 0.  0.
        -12    1    1    2    0    0 -0.38541026606E+02  0.18644539306E+02 -0.71129733895E+01  0.43400736955E+02  0.00000000000E+00 0.  1.
         11    1    3    3    0    0  0.12395030240E+02 -0.12406647651E+02  0.39878816391E+01  0.17985129436E+02  0.51100000000E-03 0. -1.
        -11    1    3    3    0    0  0.26760115921E+02 -0.38022644010E+01  0.21737685163E+01  0.27116162864E+02  0.51100000000E-03 0.  1.
         12    1    3    3    0    0 -0.61411955410E+00 -0.24356272540E+01  0.95132323414E+00  0.26859707450E+01  0.00000000000E+00 0. -1.
</event>
<event>
 7    1  0.2886681E-010  0.4778727E+02  0.7816164E-02  0.1312668E+00
        -11   -1    0    0    0    0  0.00000000000E+00  0.00000000000E+00  0.45593999997E+02  0.45594000000E+02  0.51100000000E-03 0.  1.
         11   -1    0    0    0    0 -0.00000000000E+00 -0.00000000000E+00 -0.45593999997E+02  0.45594000000E+02  0.51100000000E-03 0. -1.
    9900012    2    1    2    0    0  0.14115013092E+02  0.75454474063E+01 -0.40341735592E+02  0.47787274180E+02  0.20000014297E+02 0.  0.
        -12    1    1    2    0    0 -0.14115013092E+02 -0.75454474063E+01  0.40341735592E+02  0.43400725820E+02  0.00000000000E+00 0.  1.
         11    1    3    3    0    0  0.13520827153E+02  0.13356261592E+02 -0.29149468240E+02  0.34797902086E+02  0.51100000000E-03 0. -1.
        -11    1    3    3    0    0 -0.65179313874E+00 -0.34142607607E+01 -0.39597586489E+01  0.52689372416E+01  0.51100000000E-03 0.  1.
         12    1    3    3    0    0  0.12459790775E+01 -0.23965534253E+01 -0.72325087024E+01  0.77204348526E+01  0.00000000000E+00 0. -1.
</event>
<event>
 7    1  0.2886681E-010  0.4778727E+02  0.7816164E-02  0.1312668E+00
        -11   -1    0    0    0    0  0.00000000000E+00  0.00000000000E+00  0.45593999997E+02  0.45594000000E+02  0.51100000000E-03 0.  1.
         11   -1    0    0    0    0 -0.00000000000E+00 -0.00000000000E+00 -0.45593999997E+02  0.45594000000E+02  0.51100000000E-03 0. -1.
    9900012    2    1    2    0    0 -0.28457359771E+02 -0.49372188306E+01 -0.32394841546E+02  0.47787271737E+02  0.20000003159E+02 0.  0.
        -12    1    1    2    0    0  0.28457359771E+02  0.49372188306E+01  0.32394841546E+02  0.43400728263E+02  0.00000000000E+00 0.  1.
         11    1    3    3    0    0 -0.12422113667E+02  0.21421590285E+01 -0.33228163086E+01  0.13036060054E+02  0.51100000000E-03 0. -1.
        -11    1    3    3    0    0 -0.31311140909E+00  0.11158472087E+01 -0.30542543295E+01  0.32667450954E+01  0.51100000000E-03 0.  1.
         12    1    3    3    0    0 -0.15722134695E+02 -0.81952250677E+01 -0.26017770908E+02  0.31484466588E+02  0.00000000000E+00 0. -1.
</event>
<event>
 7    1  0.2886681E-010  0.4778727E+02  0.7816164E-02  0.1312668E+00
        -11   -1    0    0    0    0  0.00000000000E+00  0.00000000000E+00  0.45593999997E+02  0.45594000000E+02  0.51100000000E-03 0. -1.
         11   -1    0    0    0    0 -0.00000000000E+00 -0.00000000000E+00 -0.45593999997E+02  0.45594000000E+02  0.51100000000E-03 0.  1.
    9900012    2    1    2    0    0 -0.42794356068E+02 -0.55110942741E+01 -0.46791144938E+01  0.47787272081E+02  0.20000004728E+02 0.  0.
        -12    1    1    2    0    0  0.42794356068E+02  0.55110942741E+01  0.46791144938E+01  0.43400727919E+02  0.00000000000E+00 0.  1.
         11    1    3    3    0    0 -0.93350625861E+01  0.17877960097E+01 -0.60739571329E+01  0.11279741290E+02  0.51100000000E-03 0. -1.
        -11    1    3    3    0    0 -0.40449663064E+01  0.32125550599E+00 -0.39418047194E+01  0.56571001606E+01  0.51100000000E-03 0.  1.
         12    1    3    3    0    0 -0.29414327176E+02 -0.76201457898E+01  0.53366473585E+01  0.30850430631E+02  0.00000000000E+00 0. -1.
</event>
<event>
 7    1  0.2886681E-010  0.4778727E+02  0.7816164E-02  0.1312668E+00
        -11   -1    0    0    0    0  0.00000000000E+00  0.00000000000E+00  0.45593999997E+02  0.45594000000E+02  0.51100000000E-03 0. -1.
         11   -1    0    0    0    0 -0.00000000000E+00 -0.00000000000E+00 -0.45593999997E+02  0.45594000000E+02  0.51100000000E-03 0.  1.
    9900012    2    1    2    0    0 -0.31348514311E+02 -0.15794694589E+02  0.25522961165E+02  0.47787271051E+02  0.20000000031E+02 0.  0.
        -12    1    1    2    0    0  0.31348514311E+02  0.15794694589E+02 -0.25522961165E+02  0.43400728949E+02  0.00000000000E+00 0.  1.
         11    1    3    3    0    0 -0.12279367810E+02 -0.25325875859E+01  0.74007908359E+01  0.14559140736E+02  0.51100000000E-03 0. -1.
        -11    1    3    3    0    0 -0.15805442775E+02 -0.69361101093E+01  0.19431447817E+02  0.25990436881E+02  0.51100000000E-03 0.  1.
        -12    1    3    3    0    0 -0.32637037258E+01 -0.63259968936E+01 -0.13092774878E+01  0.72376934342E+01  0.00000000000E+00 0.  1.
</event>
<event>
 7    1  0.2886681E-010  0.4778728E+02  0.7816164E-02  0.1312668E+00
        -11   -1    0    0    0    0  0.00000000000E+00  0.00000000000E+00  0.45593999997E+02  0.45594000000E+02  0.51100000000E-03 0. -1.
         11   -1    0    0    0    0 -0.00000000000E+00 -0.00000000000E+00 -0.45593999997E+02  0.45594000000E+02  0.51100000000E-03 0.  1.
    9900012    2    1    2    0    0 -0.30386402406E+02  0.27414137824E+02 -0.14448335998E+02  0.47787276309E+02  0.20000024001E+02 0.  0.
        -12    1    1    2    0    0  0.30386402406E+02 -0.27414137824E+02  0.14448335998E+02  0.43400723691E+02  0.00000000000E+00 0.  1.
         11    1    3    3    0    0 -0.60407205836E+01  0.67569700939E+01 -0.11001077259E+02  0.14253794271E+02  0.51100000000E-03 0. -1.
        -11    1    3    3    0    0 -0.60814179500E+01  0.11239279196E+02 -0.19817963696E+01  0.12931842801E+02  0.51100000000E-03 0.  1.
         12    1    3    3    0    0 -0.18264263872E+02  0.94178885348E+01 -0.14654623699E+01  0.20601639236E+02  0.00000000000E+00 0. -1.
</event>
<event>
 7    1  0.2886681E-010  0.4778727E+02  0.7816164E-02  0.1312668E+00
        -11   -1    0    0    0    0  0.00000000000E+00  0.00000000000E+00  0.45593999997E+02  0.45594000000E+02  0.51100000000E-03 0.  1.
         11   -1    0    0    0    0 -0.00000000000E+00 -0.00000000000E+00 -0.45593999997E+02  0.45594000000E+02  0.51100000000E-03 0. -1.
    9900012    2    1    2    0    0 -0.12907847480E+02  0.19126822869E+02 -0.36758333936E+02  0.47787274276E+02  0.20000014734E+02 0.  0.
        -12    1    1    2    0    0  0.12907847480E+02 -0.19126822869E+02  0.36758333936E+02  0.43400725724E+02  0.00000000000E+00 0.  1.
         11    1    3    3    0    0 -0.33514192653E+01  0.76589252433E+01 -0.16539280888E+02  0.18532106182E+02  0.51100000000E-03 0. -1.
        -11    1    3    3    0    0 -0.10574334361E+02  0.14290192914E+02 -0.18991460915E+02  0.26013491666E+02  0.51100000000E-03 0.  1.
        -12    1    3    3    0    0  0.10179061464E+01 -0.28222952887E+01 -0.12275921324E+01  0.32416764279E+01  0.00000000000E+00 0.  1.
</event>
<event>
 7    1  0.2886681E-010  0.4778727E+02  0.7816164E-02  0.1312668E+00
        -11   -1    0    0    0    0  0.00000000000E+00  0.00000000000E+00  0.45593999997E+02  0.45594000000E+02  0.51100000000E-03 0.  1.
         11   -1    0    0    0    0 -0.00000000000E+00 -0.00000000000E+00 -0.45593999997E+02  0.45594000000E+02  0.51100000000E-03 0. -1.
    9900012    2    1    2    0    0 -0.12027093591E+02  0.14473525717E+02 -0.39108688144E+02  0.47787269415E+02  0.19999992573E+02 0.  0.
        -12    1    1    2    0    0  0.12027093591E+02 -0.14473525717E+02  0.39108688144E+02  0.43400730585E+02  0.00000000000E+00 0.  1.
         11    1    3    3    0    0  0.95825424813E+00  0.81918670214E+01 -0.13692382892E+02  0.15984563993E+02  0.51100000000E-03 0. -1.
        -11    1    3    3    0    0  0.28745073882E+00  0.13213221416E+01 -0.12675782572E+02  0.12747705056E+02  0.51100000000E-03 0.  1.
         12    1    3    3    0    0 -0.13272798578E+02  0.49603365541E+01 -0.12740522680E+02  0.19055000367E+02  0.00000000000E+00 0. -1.
</event>
<event>
 7    1  0.2886681E-010  0.4778727E+02  0.7816164E-02  0.1312668E+00
        -11   -1    0    0    0    0  0.00000000000E+00  0.00000000000E+00  0.45593999997E+02  0.45594000000E+02  0.51100000000E-03 0. -1.
         11   -1    0    0    0    0 -0.00000000000E+00 -0.00000000000E+00 -0.45593999997E+02  0.45594000000E+02  0.51100000000E-03 0.  1.
    9900012    2    1    2    0    0  0.30071242543E+02 -0.24832403055E+02  0.19044567722E+02  0.47787269254E+02  0.19999991836E+02 0.  0.
        -12    1    1    2    0    0 -0.30071242543E+02  0.24832403055E+02 -0.19044567722E+02  0.43400730746E+02  0.00000000000E+00 0.  1.
         11    1    3    3    0    0  0.51719851441E+01 -0.21771408480E+01  0.96836747215E+01  0.11192092252E+02  0.51100000000E-03 0. -1.
        -11    1    3    3    0    0  0.20056995001E+02 -0.16923448398E+02  0.23867193818E+01  0.26351140085E+02  0.51100000000E-03 0.  1.
        -12    1    3    3    0    0  0.48422623977E+01 -0.57318138099E+01  0.69741736189E+01  0.10244036916E+02  0.00000000000E+00 0.  1.
</event>
<event>
 7    1  0.2886681E-010  0.4778727E+02  0.7816164E-02  0.1312668E+00
        -11   -1    0    0    0    0  0.00000000000E+00  0.00000000000E+00  0.45593999997E+02  0.45594000000E+02  0.51100000000E-03 0.  1.
         11   -1    0    0    0    0 -0.00000000000E+00 -0.00000000000E+00 -0.45593999997E+02  0.45594000000E+02  0.51100000000E-03 0. -1.
    9900012    2    1    2    0    0  0.91470673939E+01  0.20939912770E+02 -0.36898163789E+02  0.47787270977E+02  0.19999999692E+02 0.  0.
        -12    1    1    2    0    0 -0.91470673939E+01 -0.20939912770E+02  0.36898163789E+02  0.43400729023E+02  0.00000000000E+00 0.  1.
         11    1    3    3    0    0  0.97675198869E+01  0.64053151792E+01 -0.10132596948E+02  0.15462924318E+02  0.51100000000E-03 0. -1.
        -11    1    3    3    0    0  0.25482205670E+01  0.30028989740E+01 -0.12281905593E+01  0.41254433237E+01  0.51100000000E-03 0.  1.
         12    1    3    3    0    0 -0.31686730600E+01  0.11531698617E+02 -0.25537376282E+02  0.28198903335E+02  0.00000000000E+00 0. -1.
</event>
<event>
 7    1  0.2886681E-010  0.4778727E+02  0.7816164E-02  0.1312668E+00
        -11   -1    0    0    0    0  0.00000000000E+00  0.00000000000E+00  0.45593999997E+02  0.45594000000E+02  0.51100000000E-03 0.  1.
         11   -1    0    0    0    0 -0.00000000000E+00 -0.00000000000E+00 -0.45593999997E+02  0.45594000000E+02  0.51100000000E-03 0. -1.
    9900012    2    1    2    0    0  0.45817982563E+01 -0.24033184860E+02 -0.35847404462E+02  0.47787271246E+02  0.20000000917E+02 0.  0.
        -12    1    1    2    0    0 -0.45817982563E+01  0.24033184860E+02  0.35847404462E+02  0.43400728754E+02  0.00000000000E+00 0.  1.
         11    1    3    3    0    0  0.90173355000E+01 -0.12391107979E+02 -0.10651077243E+02  0.18662726038E+02  0.51100000000E-03 0. -1.
        -11    1    3    3    0    0 -0.32495381263E+01 -0.40608073385E+00 -0.65298705808E+01  0.73050400177E+01  0.51100000000E-03 0.  1.
         12    1    3    3    0    0 -0.11859991174E+01 -0.11235996147E+02 -0.18666456638E+02  0.21819505190E+02  0.00000000000E+00 0. -1.
</event>
<event>
 7    1  0.2886681E-010  0.4778728E+02  0.7816164E-02  0.1312668E+00
        -11   -1    0    0    0    0  0.00000000000E+00  0.00000000000E+00  0.45593999997E+02  0.45594000000E+02  0.51100000000E-03 0. -1.
         11   -1    0    0    0    0 -0.00000000000E+00 -0.00000000000E+00 -0.45593999997E+02  0.45594000000E+02  0.51100000000E-03 0.  1.
    9900012    2    1    2    0    0  0.32338081980E+02 -0.25074026081E+01  0.28837202234E+02  0.47787275967E+02  0.20000022442E+02 0.  0.
        -12    1    1    2    0    0 -0.32338081980E+02  0.25074026081E+01 -0.28837202234E+02  0.43400724033E+02  0.00000000000E+00 0.  1.
         11    1    3    3    0    0  0.42075344439E+01 -0.47779876707E+01 -0.32394286984E+00  0.63747510949E+01  0.51100000000E-03 0. -1.
        -11    1    3    3    0    0  0.33145989493E+01 -0.24431611876E+01  0.34888224506E+01  0.53969885247E+01  0.51100000000E-03 0.  1.
         12    1    3    3    0    0  0.24815948587E+02  0.47137462502E+01  0.25672322653E+02  0.36015536347E+02  0.00000000000E+00 0. -1.
</event>
<event>
 7    1  0.2886681E-010  0.4778728E+02  0.7816164E-02  0.1312668E+00
        -11   -1    0    0    0    0  0.00000000000E+00  0.00000000000E+00  0.45593999997E+02  0.45594000000E+02  0.51100000000E-03 0.  1.
         11   -1    0    0    0    0 -0.00000000000E+00 -0.00000000000E+00 -0.45593999997E+02  0.45594000000E+02  0.51100000000E-03 0. -1.
    9900012    2    1    2    0    0  0.64259215947E+01 -0.26304091007E+01 -0.42841700951E+02  0.47787275803E+02  0.20000021698E+02 0.  0.
        -12    1    1    2    0    0 -0.64259215947E+01  0.26304091007E+01  0.42841700951E+02  0.43400724197E+02  0.00000000000E+00 0.  1.
         11    1    3    3    0    0  0.57223992115E+01  0.85078215051E+00 -0.23110075556E+02  0.23823208757E+02  0.51100000000E-03 0. -1.
        -11    1    3    3    0    0 -0.56726690101E+01 -0.42349990780E+01 -0.88950057039E+01  0.11368180049E+02  0.51100000000E-03 0.  1.
        -12    1    3    3    0    0  0.63761913934E+01  0.75380782675E+00 -0.10836619692E+02  0.12595886998E+02  0.00000000000E+00 0.  1.
</event>
<event>
 7    1  0.2886681E-010  0.4778727E+02  0.7816164E-02  0.1312668E+00
        -11   -1    0    0    0    0  0.00000000000E+00  0.00000000000E+00  0.45593999997E+02  0.45594000000E+02  0.51100000000E-03 0. -1.
         11   -1    0    0    0    0 -0.00000000000E+00 -0.00000000000E+00 -0.45593999997E+02  0.45594000000E+02  0.51100000000E-03 0.  1.
    9900012    2    1    2    0    0  0.13541456954E+02  0.38089506455E+02  0.15793720295E+02  0.47787272366E+02  0.20000006026E+02 0.  0.
        -12    1    1    2    0    0 -0.13541456954E+02 -0.38089506455E+02 -0.15793720295E+02  0.43400727634E+02  0.00000000000E+00 0.  1.
         11    1    3    3    0    0  0.69522723578E+01  0.28081270579E+02  0.12643003460E+02  0.31571147984E+02  0.51100000000E-03 0. -1.
        -11    1    3    3    0    0  0.47540374158E+01 -0.56832376944E-03 -0.15593526280E+01  0.50032442428E+01  0.51100000000E-03 0.  1.
        -12    1    3    3    0    0  0.18351471806E+01  0.10008804200E+02  0.47100694629E+01  0.11212880140E+02  0.00000000000E+00 0.  1.
</event>
<event>
 7    1  0.2886681E-010  0.4778727E+02  0.7816164E-02  0.1312668E+00
        -11   -1    0    0    0    0  0.00000000000E+00  0.00000000000E+00  0.45593999997E+02  0.45594000000E+02  0.51100000000E-03 0. -1.
         11   -1    0    0    0    0 -0.00000000000E+00 -0.00000000000E+00 -0.45593999997E+02  0.45594000000E+02  0.51100000000E-03 0.  1.
    9900012    2    1    2    0    0 -0.21122808925E+02  0.67622530565E+01  0.37305791115E+02  0.47787272195E+02  0.20000005248E+02 0.  0.
        -12    1    1    2    0    0  0.21122808925E+02 -0.67622530565E+01 -0.37305791115E+02  0.43400727805E+02  0.00000000000E+00 0.  1.
         11    1    3    3    0    0 -0.14202336859E+02 -0.48431346061E+01  0.18952742714E+02  0.24173720891E+02  0.51100000000E-03 0. -1.
        -11    1    3    3    0    0 -0.18383077305E+01  0.52088794848E+01  0.31612845270E+01  0.63643947804E+01  0.51100000000E-03 0.  1.
         12    1    3    3    0    0 -0.50821643358E+01  0.63965081778E+01  0.15191763873E+02  0.17249156524E+02  0.00000000000E+00 0. -1.
</event>
<event>
 7    1  0.2886681E-010  0.4778727E+02  0.7816164E-02  0.1312668E+00
        -11   -1    0    0    0    0  0.00000000000E+00  0.00000000000E+00  0.45593999997E+02  0.45594000000E+02  0.51100000000E-03 0. -1.
         11   -1    0    0    0    0 -0.00000000000E+00 -0.00000000000E+00 -0.45593999997E+02  0.45594000000E+02  0.51100000000E-03 0.  1.
    9900012    2    1    2    0    0 -0.42562569442E+02  0.52666963775E+01  0.66568061836E+01  0.47787268706E+02  0.19999989340E+02 0.  0.
        -12    1    1    2    0    0  0.42562569442E+02 -0.52666963775E+01 -0.66568061836E+01  0.43400731294E+02  0.00000000000E+00 0.  1.
         11    1    3    3    0    0 -0.13157952892E+02  0.92307456425E+01  0.33309897770E+01  0.16414441281E+02  0.51100000000E-03 0. -1.
        -11    1    3    3    0    0 -0.19974166225E+02 -0.66764628625E+01  0.15681879342E+00  0.21061031911E+02  0.51100000000E-03 0.  1.
        -12    1    3    3    0    0 -0.94304503254E+01  0.27124135975E+01  0.31689976132E+01  0.10311795515E+02  0.00000000000E+00 0.  1.
</event>
<event>
 7    1  0.2886681E-010  0.4778727E+02  0.7816164E-02  0.1312668E+00
        -11   -1    0    0    0    0  0.00000000000E+00  0.00000000000E+00  0.45593999997E+02  0.45594000000E+02  0.51100000000E-03 0. -1.
         11   -1    0    0    0    0 -0.00000000000E+00 -0.00000000000E+00 -0.45593999997E+02  0.45594000000E+02  0.51100000000E-03 0.  1.
    9900012    2    1    2    0    0  0.33228172010E+02  0.16993063927E+02  0.22152822069E+02  0.47787272328E+02  0.20000005854E+02 0.  0.
        -12    1    1    2    0    0 -0.33228172010E+02 -0.16993063927E+02 -0.22152822069E+02  0.43400727672E+02  0.00000000000E+00 0.  1.
         11    1    3    3    0    0  0.43430508019E+01  0.10039069018E+01  0.93926446680E+01  0.10396715513E+02  0.51100000000E-03 0.  1.
        -11    1    3    3    0    0  0.16370772115E+02  0.15246552929E+02  0.60656382914E+01  0.23178686848E+02  0.51100000000E-03 0. -1.
        -12    1    3    3    0    0  0.12514349093E+02  0.74260409689E+00  0.66945391100E+01  0.14211869967E+02  0.00000000000E+00 0.  1.
</event>
<event>
 7    1  0.2886681E-010  0.4778727E+02  0.7816164E-02  0.1312668E+00
        -11   -1    0    0    0    0  0.00000000000E+00  0.00000000000E+00  0.45593999997E+02  0.45594000000E+02  0.51100000000E-03 0.  1.
         11   -1    0    0    0    0 -0.00000000000E+00 -0.00000000000E+00 -0.45593999997E+02  0.45594000000E+02  0.51100000000E-03 0. -1.
    9900012    2    1    2    0    0 -0.63795943195E+01 -0.34119287427E+02 -0.26053760784E+02  0.47787269024E+02  0.19999990790E+02 0.  0.
        -12    1    1    2    0    0  0.63795943195E+01  0.34119287427E+02  0.26053760784E+02  0.43400730976E+02  0.00000000000E+00 0.  1.
         11    1    3    3    0    0 -0.32370624820E+01 -0.48342057005E+01 -0.13232188713E+02  0.14454720221E+02  0.51100000000E-03 0.  1.
        -11    1    3    3    0    0 -0.41673735492E+01 -0.22406256718E+02 -0.59471473787E+01  0.23553681339E+02  0.51100000000E-03 0. -1.
         12    1    3    3    0    0  0.10248417118E+01 -0.68788250084E+01 -0.68744246923E+01  0.97788674641E+01  0.00000000000E+00 0. -1.
</event>
<event>
 7    1  0.2886681E-010  0.4778727E+02  0.7816164E-02  0.1312668E+00
        -11   -1    0    0    0    0  0.00000000000E+00  0.00000000000E+00  0.45593999997E+02  0.45594000000E+02  0.51100000000E-03 0.  1.
         11   -1    0    0    0    0 -0.00000000000E+00 -0.00000000000E+00 -0.45593999997E+02  0.45594000000E+02  0.51100000000E-03 0. -1.
    9900012    2    1    2    0    0 -0.90673327498E+01 -0.12200444927E+02 -0.40651645149E+02  0.47787266908E+02  0.19999981142E+02 0.  0.
        -12    1    1    2    0    0  0.90673327498E+01  0.12200444927E+02  0.40651645149E+02  0.43400733092E+02  0.00000000000E+00 0.  1.
         11    1    3    3    0    0 -0.46692955525E+01  0.24233779720E+01 -0.17041567199E+02  0.17835080449E+02  0.51100000000E-03 0. -1.
        -11    1    3    3    0    0 -0.18882036510E+01  0.23391541757E+00  0.47731721558E-01  0.19032361988E+01  0.51100000000E-03 0.  1.
         12    1    3    3    0    0 -0.25098335463E+01 -0.14857738316E+02 -0.23657809671E+02  0.28048950261E+02  0.00000000000E+00 0. -1.
</event>
<event>
 7    1  0.2886681E-010  0.4778727E+02  0.7816164E-02  0.1312668E+00
        -11   -1    0    0    0    0  0.00000000000E+00  0.00000000000E+00  0.45593999997E+02  0.45594000000E+02  0.51100000000E-03 0.  1.
         11   -1    0    0    0    0 -0.00000000000E+00 -0.00000000000E+00 -0.45593999997E+02  0.45594000000E+02  0.51100000000E-03 0. -1.
    9900012    2    1    2    0    0 -0.34149180918E+02 -0.27717812094E+00 -0.26783957531E+02  0.47787265373E+02  0.19999974143E+02 0.  0.
        -12    1    1    2    0    0  0.34149180918E+02  0.27717812094E+00  0.26783957531E+02  0.43400734627E+02  0.00000000000E+00 0.  1.
         11    1    3    3    0    0 -0.12483130172E+02 -0.43964432816E+00 -0.15462400977E+02  0.19877315469E+02  0.51100000000E-03 0. -1.
        -11    1    3    3    0    0 -0.72367613861E+01 -0.23934106043E+01  0.22390184649E+01  0.79443271350E+01  0.51100000000E-03 0.  1.
        -12    1    3    3    0    0 -0.14429289360E+02  0.25558768115E+01 -0.13560575020E+02  0.19965622769E+02  0.00000000000E+00 0.  1.
</event>
<event>
 7    1  0.2886681E-010  0.4778727E+02  0.7816164E-02  0.1312668E+00
        -11   -1    0    0    0    0  0.00000000000E+00  0.00000000000E+00  0.45593999997E+02  0.45594000000E+02  0.51100000000E-03 0.  1.
         11   -1    0    0    0    0 -0.00000000000E+00 -0.00000000000E+00 -0.45593999997E+02  0.45594000000E+02  0.51100000000E-03 0. -1.
    9900012    2    1    2    0    0  0.30657791039E+02  0.29941175910E+02  0.68738052280E+01  0.47787270000E+02  0.19999995237E+02 0.  0.
        -12    1    1    2    0    0 -0.30657791039E+02 -0.29941175910E+02 -0.68738052280E+01  0.43400730000E+02  0.00000000000E+00 0.  1.
         11    1    3    3    0    0  0.19362715839E+02  0.26748291608E+02  0.11340102311E+00  0.33021186058E+02  0.51100000000E-03 0. -1.
        -11    1    3    3    0    0  0.48118628363E+01  0.42644955992E+01  0.23204099343E+01  0.68355138209E+01  0.51100000000E-03 0.  1.
         12    1    3    3    0    0  0.64832123638E+01 -0.10716112972E+01  0.44399942705E+01  0.79305701213E+01  0.00000000000E+00 0. -1.
</event>
<event>
 7    1  0.2886681E-010  0.4778727E+02  0.7816164E-02  0.1312668E+00
        -11   -1    0    0    0    0  0.00000000000E+00  0.00000000000E+00  0.45593999997E+02  0.45594000000E+02  0.51100000000E-03 0.  1.
         11   -1    0    0    0    0 -0.00000000000E+00 -0.00000000000E+00 -0.45593999997E+02  0.45594000000E+02  0.51100000000E-03 0. -1.
    9900012    2    1    2    0    0 -0.14103814531E+02  0.26516922337E+01 -0.40959422778E+02  0.47787269933E+02  0.19999994933E+02 0.  0.
        -12    1    1    2    0    0  0.14103814531E+02 -0.26516922337E+01  0.40959422778E+02  0.43400730067E+02  0.00000000000E+00 0.  1.
         11    1    3    3    0    0 -0.64897815224E+01  0.62279168691E+01 -0.29674467156E+02  0.31007712170E+02  0.51100000000E-03 0. -1.
        -11    1    3    3    0    0 -0.46579468869E+01 -0.65946591135E+01 -0.62719025453E+01  0.10223637309E+02  0.51100000000E-03 0.  1.
        -12    1    3    3    0    0 -0.29560861215E+01  0.30184344782E+01 -0.50130530764E+01  0.65559204544E+01  0.00000000000E+00 0.  1.
</event>
<event>
 7    1  0.2886681E-010  0.4778728E+02  0.7816164E-02  0.1312668E+00
        -11   -1    0    0    0    0  0.00000000000E+00  0.00000000000E+00  0.45593999997E+02  0.45594000000E+02  0.51100000000E-03 0. -1.
         11   -1    0    0    0    0 -0.00000000000E+00 -0.00000000000E+00 -0.45593999997E+02  0.45594000000E+02  0.51100000000E-03 0.  1.
    9900012    2    1    2    0    0 -0.33788785238E+02  0.27047348339E+02 -0.32220015628E+01  0.47787281641E+02  0.20000048312E+02 0.  0.
        -12    1    1    2    0    0  0.33788785238E+02 -0.27047348339E+02  0.32220015628E+01  0.43400718359E+02  0.00000000000E+00 0.  1.
         11    1    3    3    0    0 -0.11622670382E+02  0.93829720359E+01 -0.87856990881E+01  0.17329602989E+02  0.51100000000E-03 0.  1.
        -11    1    3    3    0    0 -0.14482384627E+02  0.15843317239E+02  0.13507614828E+01  0.21507550359E+02  0.51100000000E-03 0. -1.
         12    1    3    3    0    0 -0.76837302290E+01  0.18210590646E+01  0.42129360425E+01  0.89501282922E+01  0.00000000000E+00 0. -1.
</event>
<event>
 7    1  0.2886681E-010  0.4778727E+02  0.7816164E-02  0.1312668E+00
        -11   -1    0    0    0    0  0.00000000000E+00  0.00000000000E+00  0.45593999997E+02  0.45594000000E+02  0.51100000000E-03 0.  1.
         11   -1    0    0    0    0 -0.00000000000E+00 -0.00000000000E+00 -0.45593999997E+02  0.45594000000E+02  0.51100000000E-03 0. -1.
    9900012    2    1    2    0    0  0.40009450152E+02  0.15827657978E+02 -0.56878918228E+01  0.47787274524E+02  0.20000015863E+02 0.  0.
        -12    1    1    2    0    0 -0.40009450152E+02 -0.15827657978E+02  0.56878918228E+01  0.43400725476E+02  0.00000000000E+00 0.  1.
         11    1    3    3    0    0 -0.12974173935E+01  0.28185430057E+01 -0.20211218221E+01  0.37030271736E+01  0.51100000000E-03 0. -1.
        -11    1    3    3    0    0  0.24472445990E+02  0.44436217584E+01 -0.15931422973E+00  0.24873113363E+02  0.51100000000E-03 0.  1.
        -12    1    3    3    0    0  0.16834421555E+02  0.85654932137E+01 -0.35074557711E+01  0.19211133987E+02  0.00000000000E+00 0.  1.
</event>
<event>
 7    1  0.2886681E-010  0.4778727E+02  0.7816164E-02  0.1312668E+00
        -11   -1    0    0    0    0  0.00000000000E+00  0.00000000000E+00  0.45593999997E+02  0.45594000000E+02  0.51100000000E-03 0. -1.
         11   -1    0    0    0    0 -0.00000000000E+00 -0.00000000000E+00 -0.45593999997E+02  0.45594000000E+02  0.51100000000E-03 0.  1.
    9900012    2    1    2    0    0  0.14834263435E+01  0.31301710313E+02  0.30027084003E+02  0.47787269638E+02  0.19999993587E+02 0.  0.
        -12    1    1    2    0    0 -0.14834263435E+01 -0.31301710313E+02 -0.30027084003E+02  0.43400730362E+02  0.00000000000E+00 0.  1.
         11    1    3    3    0    0 -0.53990223234E+01  0.28591024961E+02  0.25522800819E+02  0.38704127845E+02  0.51100000000E-03 0. -1.
        -11    1    3    3    0    0  0.33744829461E+01  0.27285473592E+01  0.20339338807E+01  0.47925977441E+01  0.51100000000E-03 0.  1.
         12    1    3    3    0    0  0.35079657208E+01 -0.17862006991E-01  0.24703493033E+01  0.42905440483E+01  0.00000000000E+00 0. -1.
</event>
